<event>
 9    1  0.2051157E-002  0.2737532E+03  0.7818608E-02  0.1099151E+00
         -2   -1    0    0    0  501 -0.00000000000E+00  0.00000000000E+00  0.41155043829E+02  0.41155043829E+02  0.00000000000E+00 0. -1.
          2   -1    0    0  501    0  0.00000000000E+00 -0.00000000000E+00 -0.45523455862E+03  0.45523455862E+03  0.00000000000E+00 0. -1.
         36    2    1    2    0    0  0.14210854715E-13  0.00000000000E+00 -0.41407951479E+03  0.49638960245E+03  0.27375316044E+03 0.  0.
         25    2    3    3    0    0  0.58122602551E+02  0.86317919785E+00 -0.19221816015E+03  0.23638079862E+03  0.12469594565E+03 0.  0.
         25    2    3    3    0    0 -0.58122602551E+02 -0.86317919785E+00 -0.22186135464E+03  0.26000880383E+03  0.12248728660E+03 0.  0.
          5    1    4    4  502    0 -0.37619207511E+02  0.14830109542E+02 -0.57277758182E+02  0.70270680267E+02  0.47000000000E+01 0. -1.
         -5    1    4    4    0  502  0.95741810061E+02 -0.13966930344E+02 -0.13494040197E+03  0.16611011836E+03  0.47000000000E+01 0. -1.
          5    1    5    5  503    0  0.19158324900E+02  0.41921411663E+02 -0.89993062611E+02  0.10121900754E+03  0.47000000000E+01 0. -1.
         -5    1    5    5    0  503 -0.77280927451E+02 -0.42784590861E+02 -0.13186829203E+03  0.15878979629E+03  0.47000000000E+01 0. -1.
<mgrwt>
<rscale>  0 0.27375316E+03</rscale>
<asrwt>0</asrwt>
<pdfrwt beam="1">  1        2 0.70036085E-01 0.27375316E+03</pdfrwt>
<pdfrwt beam="2">  1       -2 0.63315453E-02 0.27375316E+03</pdfrwt>
<totfact> 0.93606007E+03</totfact>
</mgrwt>
</event>
<event>
 9    1  0.2051157E-002  0.2771023E+03  0.7818608E-02  0.1097282E+00
         -2   -1    0    0    0  501 -0.00000000000E+00  0.00000000000E+00  0.35162567714E+02  0.35162567714E+02  0.00000000000E+00 0.  1.
          2   -1    0    0  501    0  0.00000000000E+00 -0.00000000000E+00 -0.54593335669E+03  0.54593335669E+03  0.00000000000E+00 0.  1.
         36    2    1    2    0    0 -0.71054273576E-14 -0.71054273576E-14 -0.51077078898E+03  0.58109592441E+03  0.27710228164E+03 0.  0.
         25    2    3    3    0    0  0.34160772764E+02  0.47532961892E+02 -0.19844518260E+03  0.23970236996E+03  0.12103881529E+03 0.  0.
         25    2    3    3    0    0 -0.34160772764E+02 -0.47532961892E+02 -0.31232560638E+03  0.34139355445E+03  0.12480358069E+03 0.  0.
          5    1    4    4  502    0  0.49416948042E+02  0.79786349488E+01 -0.18958401668E+03  0.19613740783E+03  0.47000000000E+01 0.  1.
         -5    1    4    4    0  502 -0.15256175278E+02  0.39554326943E+02 -0.88611659155E+01  0.43564962130E+02  0.47000000000E+01 0.  1.
          5    1    5    5  503    0  0.70506447606E+01 -0.80262023488E+02 -0.14530231342E+03  0.16621238309E+03  0.47000000000E+01 0. -1.
         -5    1    5    5    0  503 -0.41211417524E+02  0.32729061596E+02 -0.16702329296E+03  0.17518117136E+03  0.47000000000E+01 0. -1.
<mgrwt>
<rscale>  0 0.27710228E+03</rscale>
<asrwt>0</asrwt>
<pdfrwt beam="1">  1        2 0.83989749E-01 0.27710228E+03</pdfrwt>
<pdfrwt beam="2">  1       -2 0.54096257E-02 0.27710228E+03</pdfrwt>
<totfact> 0.97260546E+03</totfact>
</mgrwt>
</event>
<event>
 9    1  0.2051157E-002  0.2765937E+03  0.7818608E-02  0.1097564E+00
         -2   -1    0    0    0  501 -0.00000000000E+00  0.00000000000E+00  0.43544413937E+03  0.43544413937E+03  0.00000000000E+00 0. -1.
          2   -1    0    0  501    0  0.00000000000E+00 -0.00000000000E+00 -0.43923011229E+02  0.43923011229E+02  0.00000000000E+00 0. -1.
         36    2    1    2    0    0  0.71054273576E-14 -0.71054273576E-14  0.39152112814E+03  0.47936715060E+03  0.27659369352E+03 0.  0.
         25    2    3    3    0    0  0.28346365065E+02 -0.48734488466E+02  0.22177906411E+03  0.26074854393E+03  0.12500113240E+03 0.  0.
         25    2    3    3    0    0 -0.28346365065E+02  0.48734488466E+02  0.16974206403E+03  0.21861860667E+03  0.12571062049E+03 0.  0.
          5    1    4    4  502    0 -0.22295782708E+02 -0.13322862911E+02  0.18862763834E+03  0.19046542087E+03  0.47000000000E+01 0.  1.
         -5    1    4    4    0  502  0.50642147772E+02 -0.35411625555E+02  0.33151425776E+02  0.70283123056E+02  0.47000000000E+01 0.  1.
          5    1    5    5  503    0 -0.58642206927E+01 -0.37886908146E+02  0.92753611908E+02  0.10047452122E+03  0.47000000000E+01 0.  1.
         -5    1    5    5    0  503 -0.22482144372E+02  0.86621396612E+02  0.76988452117E+02  0.11814408545E+03  0.47000000000E+01 0.  1.
<mgrwt>
<rscale>  0 0.27659369E+03</rscale>
<asrwt>0</asrwt>
<pdfrwt beam="1">  1        2 0.67573867E-02 0.27659369E+03</pdfrwt>
<pdfrwt beam="2">  1       -2 0.66991403E-01 0.27659369E+03</pdfrwt>
<totfact> 0.22116188E+03</totfact>
</mgrwt>
</event>
<event>
 9    1  0.2051157E-002  0.2743623E+03  0.7818608E-02  0.1098809E+00
         -1   -1    0    0    0  501 -0.00000000000E+00  0.00000000000E+00  0.49757212196E+01  0.49757212196E+01  0.00000000000E+00 0.  1.
          1   -1    0    0  501    0  0.00000000000E+00 -0.00000000000E+00 -0.37820975071E+04  0.37820975071E+04  0.00000000000E+00 0.  1.
         36    2    1    2    0    0 -0.17763568394E-14  0.00000000000E+00 -0.37771217858E+04  0.37870732283E+04  0.27436226286E+03 0.  0.
         25    2    3    3    0    0 -0.15516658050E+02  0.49954909136E+01 -0.11412542262E+04  0.11483546702E+04  0.12645757359E+03 0.  0.
         25    2    3    3    0    0  0.15516658050E+02 -0.49954909136E+01 -0.26358675596E+04  0.26387185581E+04  0.12154059283E+03 0.  0.
          5    1    4    4  502    0 -0.19751065665E+02  0.29952025199E+02 -0.10935320633E+04  0.10941305644E+04  0.47000000000E+01 0.  1.
         -5    1    4    4    0  502  0.42344076148E+01 -0.24956534285E+02 -0.47722162913E+02  0.54224105751E+02  0.47000000000E+01 0.  1.
          5    1    5    5  503    0 -0.42060113762E+02  0.35164575196E+01 -0.43308172542E+03  0.43515892445E+03  0.47000000000E+01 0.  1.
         -5    1    5    5    0  503  0.57576771812E+02 -0.85119484332E+01 -0.22027858342E+04  0.22035596337E+04  0.47000000000E+01 0.  1.
<mgrwt>
<rscale>  0 0.27436226E+03</rscale>
<asrwt>0</asrwt>
<pdfrwt beam="1">  1        1 0.58186232E+00 0.27436226E+03</pdfrwt>
<pdfrwt beam="2">  1       -1 0.76549405E-03 0.27436226E+03</pdfrwt>
<totfact> 0.52415463E+02</totfact>
</mgrwt>
</event>
<event>
 9    1  0.2051157E-002  0.2748009E+03  0.7818608E-02  0.1098563E+00
         -1   -1    0    0    0  501 -0.00000000000E+00  0.00000000000E+00  0.11590335621E+03  0.11590335621E+03  0.00000000000E+00 0.  1.
          1   -1    0    0  501    0  0.00000000000E+00 -0.00000000000E+00 -0.16288474656E+03  0.16288474656E+03  0.00000000000E+00 0.  1.
         36    2    1    2    0    0 -0.71054273576E-14  0.00000000000E+00 -0.46981390350E+02  0.27878810278E+03  0.27480093743E+03 0.  0.
         25    2    3    3    0    0 -0.46557714328E+02 -0.22992926543E+02 -0.34685696968E+02  0.13962449222E+03  0.12488236793E+03 0.  0.
         25    2    3    3    0    0  0.46557714328E+02  0.22992926543E+02 -0.12295693382E+02  0.13916361056E+03  0.12852638248E+03 0.  0.
          5    1    4    4  502    0  0.19328313269E+02  0.17936791890E+02  0.28764455722E+02  0.39303894338E+02  0.47000000000E+01 0. -1.
         -5    1    4    4    0  502 -0.65886027598E+02 -0.40929718432E+02 -0.63450152690E+02  0.10032059788E+03  0.47000000000E+01 0. -1.
          5    1    5    5  503    0  0.84345079893E+02  0.33561820805E+02 -0.30192559686E+02  0.95781882308E+02  0.47000000000E+01 0.  1.
         -5    1    5    5    0  503 -0.37787365565E+02 -0.10568894263E+02  0.17896866304E+02  0.43381728248E+02  0.47000000000E+01 0.  1.
<mgrwt>
<rscale>  0 0.27480094E+03</rscale>
<asrwt>0</asrwt>
<pdfrwt beam="1">  1        1 0.25059192E-01 0.27480094E+03</pdfrwt>
<pdfrwt beam="2">  1       -1 0.17831286E-01 0.27480094E+03</pdfrwt>
<totfact> 0.46079116E+03</totfact>
</mgrwt>
</event>
<event>
 9    1  0.2051157E-002  0.2774003E+03  0.7818608E-02  0.1097117E+00
         -2   -1    0    0    0  501 -0.00000000000E+00  0.00000000000E+00  0.59668567404E+02  0.59668567404E+02  0.00000000000E+00 0.  1.
          2   -1    0    0  501    0  0.00000000000E+00 -0.00000000000E+00 -0.32240973641E+03  0.32240973641E+03  0.00000000000E+00 0.  1.
         36    2    1    2    0    0  0.35527136788E-14  0.00000000000E+00 -0.26274116901E+03  0.38207830382E+03  0.27740026740E+03 0.  0.
         25    2    3    3    0    0 -0.68203306717E+01  0.38008544321E+02 -0.60378112465E+02  0.14163792435E+03  0.12216635707E+03 0.  0.
         25    2    3    3    0    0  0.68203306717E+01 -0.38008544321E+02 -0.20236305655E+03  0.24044037946E+03  0.12397420325E+03 0.  0.
          5    1    4    4  502    0  0.52631766415E+02  0.42383252840E+02 -0.25290042189E+02  0.72305734152E+02  0.47000000000E+01 0. -1.
         -5    1    4    4    0  502 -0.59452097087E+02 -0.43747085195E+01 -0.35088070275E+02  0.69332190203E+02  0.47000000000E+01 0. -1.
          5    1    5    5  503    0  0.23903856706E+02 -0.61877394153E+02 -0.45001969373E+02  0.80296161304E+02  0.47000000000E+01 0.  1.
         -5    1    5    5    0  503 -0.17083526034E+02  0.23868849833E+02 -0.15736108717E+03  0.16014421816E+03  0.47000000000E+01 0.  1.
<mgrwt>
<rscale>  0 0.27740027E+03</rscale>
<asrwt>0</asrwt>
<pdfrwt beam="1">  1        2 0.49601498E-01 0.27740027E+03</pdfrwt>
<pdfrwt beam="2">  1       -2 0.91797795E-02 0.27740027E+03</pdfrwt>
<totfact> 0.76369089E+03</totfact>
</mgrwt>
</event>
<event>
 9    1  0.2051157E-002  0.2745907E+03  0.7818608E-02  0.1098681E+00
         -4   -1    0    0    0  501 -0.00000000000E+00  0.00000000000E+00  0.39975305717E+03  0.39975305717E+03  0.00000000000E+00 0.  1.
          4   -1    0    0  501    0  0.00000000000E+00 -0.00000000000E+00 -0.47154148534E+02  0.47154148534E+02  0.00000000000E+00 0.  1.
         36    2    1    2    0    0 -0.71054273576E-14  0.00000000000E+00  0.35259890864E+03  0.44690720570E+03  0.27459071386E+03 0.  0.
         25    2    3    3    0    0 -0.26019516739E+02 -0.26760199465E+02  0.18574054766E+03  0.22861809853E+03  0.12795921383E+03 0.  0.
         25    2    3    3    0    0  0.26019516739E+02  0.26760199465E+02  0.16685836097E+03  0.21828910717E+03  0.13570297770E+03 0.  0.
          5    1    4    4  502    0  0.17906263293E+02  0.45038767130E+02  0.75449486617E+02  0.89798885519E+02  0.47000000000E+01 0. -1.
         -5    1    4    4    0  502 -0.43925780032E+02 -0.71798966594E+02  0.11029106104E+03  0.13881921301E+03  0.47000000000E+01 0. -1.
          5    1    5    5  503    0 -0.39592187655E+01 -0.25963137992E+01 -0.22919853034E+02  0.23871026825E+02  0.47000000000E+01 0. -1.
         -5    1    5    5    0  503  0.29978735505E+02  0.29356513264E+02  0.18977821401E+03  0.19441808035E+03  0.47000000000E+01 0. -1.
<mgrwt>
<rscale>  0 0.27459071E+03</rscale>
<asrwt>0</asrwt>
<pdfrwt beam="1">  1        4 0.72544847E-02 0.27459071E+03</pdfrwt>
<pdfrwt beam="2">  1       -4 0.61500468E-01 0.27459071E+03</pdfrwt>
<totfact> 0.61275555E+02</totfact>
</mgrwt>
</event>
<event>
 9    1  0.2051157E-002  0.2742801E+03  0.7818608E-02  0.1098855E+00
         -1   -1    0    0    0  501 -0.00000000000E+00  0.00000000000E+00  0.24761419482E+03  0.24761419482E+03  0.00000000000E+00 0.  1.
          1   -1    0    0  501    0  0.00000000000E+00 -0.00000000000E+00 -0.75954424442E+02  0.75954424442E+02  0.00000000000E+00 0.  1.
         36    2    1    2    0    0 -0.71054273576E-14  0.00000000000E+00  0.17165977038E+03  0.32356861927E+03  0.27428010246E+03 0.  0.
         25    2    3    3    0    0  0.50739153717E+02  0.32758906909E+02  0.92657616032E+02  0.16796965722E+03  0.12641504751E+03 0.  0.
         25    2    3    3    0    0 -0.50739153717E+02 -0.32758906909E+02  0.79002154351E+02  0.15559896204E+03  0.11967493010E+03 0.  0.
          5    1    4    4  502    0  0.63994360175E+01  0.18620079353E+01 -0.31468152864E+02  0.32507760605E+02  0.47000000000E+01 0.  1.
         -5    1    4    4    0  502  0.44339717700E+02  0.30896898974E+02  0.12412576890E+03  0.13546189662E+03  0.47000000000E+01 0.  1.
          5    1    5    5  503    0 -0.97938452194E+01 -0.32249115389E+02  0.10260576456E+03  0.10810160854E+03  0.47000000000E+01 0.  1.
         -5    1    5    5    0  503 -0.40945308498E+02 -0.50979151952E+00 -0.23603610206E+02  0.47497353506E+02  0.47000000000E+01 0.  1.
<mgrwt>
<rscale>  0 0.27428010E+03</rscale>
<asrwt>0</asrwt>
<pdfrwt beam="1">  1        1 0.11685296E-01 0.27428010E+03</pdfrwt>
<pdfrwt beam="2">  1       -1 0.38094491E-01 0.27428010E+03</pdfrwt>
<totfact> 0.34851834E+03</totfact>
</mgrwt>
</event>
<event>
 9    1  0.2051157E-002  0.2750780E+03  0.7818608E-02  0.1098408E+00
          1   -1    0    0  501    0  0.00000000000E+00  0.00000000000E+00  0.56466478896E+03  0.56466478896E+03  0.00000000000E+00 0. -1.
         -1   -1    0    0    0  501 -0.00000000000E+00 -0.00000000000E+00 -0.33501246279E+02  0.33501246279E+02  0.00000000000E+00 0. -1.
         36    2    1    2    0    0  0.71054273576E-14  0.35527136788E-14  0.53116354268E+03  0.59816603524E+03  0.27507798283E+03 0.  0.
         25    2    3    3    0    0  0.59077598269E+02  0.25079561879E+02  0.30189097851E+03  0.33254567558E+03  0.12381161658E+03 0.  0.
         25    2    3    3    0    0 -0.59077598269E+02 -0.25079561879E+02  0.22927256417E+03  0.26562035966E+03  0.11776722695E+03 0.  0.
          5    1    4    4  502    0 -0.20843289906E+02  0.10243225301E+02  0.43829762801E+01  0.24097030517E+02  0.47000000000E+01 0.  1.
         -5    1    4    4    0  502  0.79920888176E+02  0.14836336578E+02  0.29750800223E+03  0.30844864506E+03  0.47000000000E+01 0.  1.
          5    1    5    5  503    0 -0.24578156508E+02 -0.55829428063E+02  0.20349833821E+03  0.21249629283E+03  0.47000000000E+01 0.  1.
         -5    1    5    5    0  503 -0.34499441761E+02  0.30749866184E+02  0.25774225966E+02  0.53124066828E+02  0.47000000000E+01 0.  1.
<mgrwt>
<rscale>  0 0.27507798E+03</rscale>
<asrwt>0</asrwt>
<pdfrwt beam="1">  1        1 0.86871499E-01 0.27507798E+03</pdfrwt>
<pdfrwt beam="2">  1       -1 0.51540383E-02 0.27507798E+03</pdfrwt>
<totfact> 0.64083645E+03</totfact>
</mgrwt>
</event>
<event>
 9    1  0.2051157E-002  0.2757243E+03  0.7818608E-02  0.1098047E+00
         -1   -1    0    0    0  501 -0.00000000000E+00  0.00000000000E+00  0.94477724524E+01  0.94477724524E+01  0.00000000000E+00 0. -1.
          1   -1    0    0  501    0  0.00000000000E+00 -0.00000000000E+00 -0.20116880766E+04  0.20116880766E+04  0.00000000000E+00 0. -1.
         36    2    1    2    0    0  0.00000000000E+00 -0.71054273576E-14 -0.20022403041E+04  0.20211358490E+04  0.27572429123E+03 0.  0.
         25    2    3    3    0    0 -0.16677115198E+02  0.44423120511E+02 -0.10835668606E+04  0.10921330702E+04  0.12800766304E+03 0.  0.
         25    2    3    3    0    0  0.16677115198E+02 -0.44423120511E+02 -0.91867344350E+03  0.92900277882E+03  0.12974485521E+03 0.  0.
          5    1    4    4  502    0  0.13094794833E+02 -0.17054783967E+02 -0.35079995195E+02  0.41412985533E+02  0.47000000000E+01 0. -1.
         -5    1    4    4    0  502 -0.29771910031E+02  0.61477904478E+02 -0.10484868654E+04  0.10507200847E+04  0.47000000000E+01 0. -1.
          5    1    5    5  503    0  0.36001108770E+02 -0.33606761642E+02 -0.11725637108E+03  0.12726602383E+03  0.47000000000E+01 0. -1.
         -5    1    5    5    0  503 -0.19323993572E+02 -0.10816358870E+02 -0.80141707242E+03  0.80173675499E+03  0.47000000000E+01 0. -1.
<mgrwt>
<rscale>  0 0.27572429E+03</rscale>
<asrwt>0</asrwt>
<pdfrwt beam="1">  1        1 0.30949027E+00 0.27572429E+03</pdfrwt>
<pdfrwt beam="2">  1       -1 0.14535044E-02 0.27572429E+03</pdfrwt>
<totfact> 0.36226311E+03</totfact>
</mgrwt>
</event>
<event>
 9    1  0.2051157E-002  0.2745498E+03  0.7818608E-02  0.1098704E+00
         -2   -1    0    0    0  501 -0.00000000000E+00  0.00000000000E+00  0.31924818381E+02  0.31924818381E+02  0.00000000000E+00 0.  1.
          2   -1    0    0  501    0  0.00000000000E+00 -0.00000000000E+00 -0.59027433014E+03  0.59027433014E+03  0.00000000000E+00 0.  1.
         36    2    1    2    0    0 -0.71054273576E-14  0.71054273576E-14 -0.55834951176E+03  0.62219914852E+03  0.27454981905E+03 0.  0.
         25    2    3    3    0    0 -0.44350356304E+02  0.26908708009E+02 -0.27714948951E+03  0.31013898958E+03  0.12916392937E+03 0.  0.
         25    2    3    3    0    0  0.44350356304E+02 -0.26908708009E+02 -0.28120002225E+03  0.31206015894E+03  0.12496822642E+03 0.  0.
          5    1    4    4  502    0  0.13747275030E+02  0.51257877632E+02 -0.21507379043E+03  0.22157432820E+03  0.47000000000E+01 0.  1.
         -5    1    4    4    0  502 -0.58097631334E+02 -0.24349169624E+02 -0.62075699085E+02  0.88564661377E+02  0.47000000000E+01 0.  1.
          5    1    5    5  503    0  0.74844935951E+02  0.20992964152E+02 -0.17484992758E+03  0.19140808801E+03  0.47000000000E+01 0.  1.
         -5    1    5    5    0  503 -0.30494579647E+02 -0.47901672160E+02 -0.10635009466E+03  0.12065207093E+03  0.47000000000E+01 0.  1.
<mgrwt>
<rscale>  0 0.27454982E+03</rscale>
<asrwt>0</asrwt>
<pdfrwt beam="1">  1        2 0.90811425E-01 0.27454982E+03</pdfrwt>
<pdfrwt beam="2">  1       -2 0.49115111E-02 0.27454982E+03</pdfrwt>
<totfact> 0.10297911E+04</totfact>
</mgrwt>
</event>
<event>
 9    1  0.2051157E-002  0.2745189E+03  0.7818608E-02  0.1098721E+00
          1   -1    0    0  501    0  0.00000000000E+00  0.00000000000E+00  0.33602605758E+03  0.33602605758E+03  0.00000000000E+00 0. -1.
         -1   -1    0    0    0  501 -0.00000000000E+00 -0.00000000000E+00 -0.56067537341E+02  0.56067537341E+02  0.00000000000E+00 0. -1.
         36    2    1    2    0    0  0.71054273576E-14  0.71054273576E-14  0.27995852024E+03  0.39209359492E+03  0.27451887754E+03 0.  0.
         25    2    3    3    0    0  0.28151146988E+02  0.28445297505E+02  0.82426137560E+02  0.15506199024E+03  0.12509408714E+03 0.  0.
         25    2    3    3    0    0 -0.28151146988E+02 -0.28445297505E+02  0.19753238268E+03  0.23703160468E+03  0.12475302555E+03 0.  0.
          5    1    4    4  502    0  0.32354683631E+02  0.66574916536E+02  0.89005832970E+02  0.11585841949E+03  0.47000000000E+01 0.  1.
         -5    1    4    4    0  502 -0.42035366427E+01 -0.38129619031E+02 -0.65796954104E+01  0.39203570749E+02  0.47000000000E+01 0.  1.
          5    1    5    5  503    0 -0.55732250024E+02  0.31028814483E+02  0.11427779946E+03  0.13095944590E+03  0.47000000000E+01 0. -1.
         -5    1    5    5    0  503  0.27581103035E+02 -0.59474111988E+02  0.83254583225E+02  0.10607215879E+03  0.47000000000E+01 0. -1.
<mgrwt>
<rscale>  0 0.27451888E+03</rscale>
<asrwt>0</asrwt>
<pdfrwt beam="1">  1        1 0.51696315E-01 0.27451888E+03</pdfrwt>
<pdfrwt beam="2">  1       -1 0.86257752E-02 0.27451888E+03</pdfrwt>
<totfact> 0.57754654E+03</totfact>
</mgrwt>
</event>
<event>
 9    1  0.2051157E-002  0.2752171E+03  0.7818608E-02  0.1098330E+00
         -1   -1    0    0    0  501 -0.00000000000E+00  0.00000000000E+00  0.32508247470E+02  0.32508247470E+02  0.00000000000E+00 0.  1.
          1   -1    0    0  501    0  0.00000000000E+00 -0.00000000000E+00 -0.58250190561E+03  0.58250190561E+03  0.00000000000E+00 0.  1.
         36    2    1    2    0    0  0.00000000000E+00  0.00000000000E+00 -0.54999365814E+03  0.61501015308E+03  0.27521712228E+03 0.  0.
         25    2    3    3    0    0 -0.10184292253E+02 -0.48461655178E+02 -0.18054578828E+03  0.22437926551E+03  0.12368112748E+03 0.  0.
         25    2    3    3    0    0  0.10184292253E+02  0.48461655178E+02 -0.36944786986E+03  0.39063088757E+03  0.11682683744E+03 0.  0.
          5    1    4    4  502    0  0.47314107598E+02  0.10457992138E+02 -0.86858163755E+02  0.99571205618E+02  0.47000000000E+01 0.  1.
         -5    1    4    4    0  502 -0.57498399851E+02 -0.58919647317E+02 -0.93687624523E+02  0.12480805989E+03  0.47000000000E+01 0.  1.
          5    1    5    5  503    0 -0.41060330140E+02  0.53140337697E+02 -0.27339657605E+03  0.28156282425E+03  0.47000000000E+01 0.  1.
         -5    1    5    5    0  503  0.51244622393E+02 -0.46786825190E+01 -0.96051293811E+02  0.10906806332E+03  0.47000000000E+01 0.  1.
<mgrwt>
<rscale>  0 0.27521712E+03</rscale>
<asrwt>0</asrwt>
<pdfrwt beam="1">  1        1 0.89615678E-01 0.27521712E+03</pdfrwt>
<pdfrwt beam="2">  1       -1 0.50012688E-02 0.27521712E+03</pdfrwt>
<totfact> 0.64240799E+03</totfact>
</mgrwt>
</event>
<event>
 9    1  0.2051157E-002  0.2757778E+03  0.7818608E-02  0.1098018E+00
         -2   -1    0    0    0  501 -0.00000000000E+00  0.00000000000E+00  0.19000485727E+02  0.19000485727E+02  0.00000000000E+00 0.  1.
          2   -1    0    0  501    0  0.00000000000E+00 -0.00000000000E+00 -0.10006767387E+04  0.10006767387E+04  0.00000000000E+00 0.  1.
         36    2    1    2    0    0  0.00000000000E+00  0.00000000000E+00 -0.98167625299E+03  0.10196772244E+04  0.27577776626E+03 0.  0.
         25    2    3    3    0    0 -0.37458730970E+02 -0.22712128439E+02 -0.36401328637E+03  0.38762250533E+03  0.12580356386E+03 0.  0.
         25    2    3    3    0    0  0.37458730970E+02  0.22712128439E+02 -0.61766296663E+03  0.63205471912E+03  0.12675421222E+03 0.  0.
          5    1    4    4  502    0 -0.57220739313E+02  0.25724791828E+02 -0.97877453381E+02  0.11635318561E+03  0.47000000000E+01 0.  1.
         -5    1    4    4    0  502  0.19762008343E+02 -0.48436920267E+02 -0.26613583299E+03  0.27126931971E+03  0.47000000000E+01 0.  1.
          5    1    5    5  503    0  0.51683874332E+02 -0.56138698745E+01 -0.94887025009E+02  0.10829762655E+03  0.47000000000E+01 0.  1.
         -5    1    5    5    0  503 -0.14225143362E+02  0.28325998314E+02 -0.52277594162E+03  0.52375709257E+03  0.47000000000E+01 0.  1.
<mgrwt>
<rscale>  0 0.27577777E+03</rscale>
<asrwt>0</asrwt>
<pdfrwt beam="1">  1        2 0.15395025E+00 0.27577777E+03</pdfrwt>
<pdfrwt beam="2">  1       -2 0.29231519E-02 0.27577777E+03</pdfrwt>
<totfact> 0.11522421E+04</totfact>
</mgrwt>
</event>
<event>
 9    1  0.2051157E-002  0.2744840E+03  0.7818608E-02  0.1098740E+00
          2   -1    0    0  501    0  0.00000000000E+00  0.00000000000E+00  0.21468581178E+03  0.21468581178E+03  0.00000000000E+00 0. -1.
         -2   -1    0    0    0  501 -0.00000000000E+00 -0.00000000000E+00 -0.87734549621E+02  0.87734549621E+02  0.00000000000E+00 0. -1.
         36    2    1    2    0    0  0.00000000000E+00  0.00000000000E+00  0.12695126216E+03  0.30242036140E+03  0.27448397408E+03 0.  0.
         25    2    3    3    0    0 -0.55162690633E+02 -0.19518170572E+02  0.36539953952E+02  0.13805739928E+03  0.11958593497E+03 0.  0.
         25    2    3    3    0    0  0.55162690633E+02  0.19518170572E+02  0.90411308206E+02  0.16436296212E+03  0.12416560411E+03 0.  0.
          5    1    4    4  502    0 -0.30664106304E+02 -0.13422675040E+02  0.80409229957E+02  0.87224938423E+02  0.47000000000E+01 0.  1.
         -5    1    4    4    0  502 -0.24498584329E+02 -0.60954955321E+01 -0.43869276005E+02  0.50832460860E+02  0.47000000000E+01 0.  1.
          5    1    5    5  503    0 -0.35607546007E+02  0.21129186351E+02  0.96711678561E+01  0.42778047363E+02  0.47000000000E+01 0. -1.
         -5    1    5    5    0  503  0.90770236640E+02 -0.16110157789E+01  0.80740140350E+02  0.12158491475E+03  0.47000000000E+01 0. -1.
<mgrwt>
<rscale>  0 0.27448397E+03</rscale>
<asrwt>0</asrwt>
<pdfrwt beam="1">  1        2 0.33028586E-01 0.27448397E+03</pdfrwt>
<pdfrwt beam="2">  1       -2 0.13497623E-01 0.27448397E+03</pdfrwt>
<totfact> 0.63791212E+03</totfact>
</mgrwt>
</event>
<event>
 9    1  0.2051157E-002  0.2752559E+03  0.7818608E-02  0.1098309E+00
          2   -1    0    0  501    0  0.00000000000E+00  0.00000000000E+00  0.53285546440E+03  0.53285546440E+03  0.00000000000E+00 0.  1.
         -2   -1    0    0    0  501 -0.00000000000E+00 -0.00000000000E+00 -0.35547080924E+02  0.35547080924E+02  0.00000000000E+00 0.  1.
         36    2    1    2    0    0  0.00000000000E+00  0.00000000000E+00  0.49730838347E+03  0.56840254532E+03  0.27525592683E+03 0.  0.
         25    2    3    3    0    0 -0.46837062025E+01  0.84584224321E+01  0.10096913528E+03  0.15252192827E+03  0.11390649810E+03 0.  0.
         25    2    3    3    0    0  0.46837062025E+01 -0.84584224321E+01  0.39633924819E+03  0.41588061705E+03  0.12561212508E+03 0.  0.
          5    1    4    4  502    0  0.35511703002E+02 -0.34850178972E+02  0.24186260149E+02  0.55521898423E+02  0.47000000000E+01 0. -1.
         -5    1    4    4    0  502 -0.40195409205E+02  0.43308601404E+02  0.76782875134E+02  0.97000029848E+02  0.47000000000E+01 0. -1.
          5    1    5    5  503    0 -0.43755925523E+02  0.16067396141E+02  0.65196464987E+02  0.80283318840E+02  0.47000000000E+01 0.  1.
         -5    1    5    5    0  503  0.48439631725E+02 -0.24525818574E+02  0.33114278320E+03  0.33559729821E+03  0.47000000000E+01 0.  1.
<mgrwt>
<rscale>  0 0.27525593E+03</rscale>
<asrwt>0</asrwt>
<pdfrwt beam="1">  1        2 0.81977758E-01 0.27525593E+03</pdfrwt>
<pdfrwt beam="2">  1       -2 0.54687821E-02 0.27525593E+03</pdfrwt>
<totfact> 0.98302324E+03</totfact>
</mgrwt>
</event>
<event>
 9    1  0.2051157E-002  0.2778637E+03  0.7818608E-02  0.1096862E+00
          1   -1    0    0  501    0  0.00000000000E+00  0.00000000000E+00  0.10945698194E+04  0.10945698194E+04  0.00000000000E+00 0.  1.
         -1   -1    0    0    0  501 -0.00000000000E+00 -0.00000000000E+00 -0.17634376326E+02  0.17634376326E+02  0.00000000000E+00 0.  1.
         36    2    1    2    0    0  0.00000000000E+00 -0.35527136788E-14  0.10769354430E+04  0.11122041957E+04  0.27786367959E+03 0.  0.
         25    2    3    3    0    0 -0.12734150621E+02  0.15210755681E+02  0.33073155647E+03  0.35428037962E+03  0.12544998710E+03 0.  0.
         25    2    3    3    0    0  0.12734150621E+02 -0.15210755681E+02  0.74620388658E+03  0.75792381607E+03  0.13128116751E+03 0.  0.
          5    1    4    4  502    0 -0.33760902663E+02 -0.35723208859E+02  0.58799210705E+02  0.76781399957E+02  0.47000000000E+01 0.  1.
         -5    1    4    4    0  502  0.21026752043E+02  0.50933964540E+02  0.27193234576E+03  0.27749897967E+03  0.47000000000E+01 0.  1.
          5    1    5    5  503    0 -0.46556700925E+02 -0.15212475261E+02  0.56650555671E+03  0.56863835747E+03  0.47000000000E+01 0. -1.
         -5    1    5    5    0  503  0.59290851545E+02  0.17195799674E-02  0.17969832987E+03  0.18928545860E+03  0.47000000000E+01 0. -1.
<mgrwt>
<rscale>  0 0.27786368E+03</rscale>
<asrwt>0</asrwt>
<pdfrwt beam="1">  1        1 0.16839530E+00 0.27786368E+03</pdfrwt>
<pdfrwt beam="2">  1       -1 0.27129818E-02 0.27786368E+03</pdfrwt>
<totfact> 0.59590119E+03</totfact>
</mgrwt>
</event>
<event>
 9    1  0.2051157E-002  0.2726798E+03  0.7818608E-02  0.1099756E+00
         -1   -1    0    0    0  501 -0.00000000000E+00  0.00000000000E+00  0.24781799204E+02  0.24781799204E+02  0.00000000000E+00 0.  1.
          1   -1    0    0  501    0  0.00000000000E+00 -0.00000000000E+00 -0.75008965401E+03  0.75008965401E+03  0.00000000000E+00 0.  1.
         36    2    1    2    0    0  0.00000000000E+00  0.00000000000E+00 -0.72530785481E+03  0.77487145322E+03  0.27267982097E+03 0.  0.
         25    2    3    3    0    0 -0.24599979758E+02  0.18229607037E+02 -0.25047836704E+03  0.28242041804E+03  0.12682429811E+03 0.  0.
         25    2    3    3    0    0  0.24599979758E+02 -0.18229607037E+02 -0.47482948776E+03  0.49245103518E+03  0.12691533407E+03 0.  0.
          5    1    4    4  502    0 -0.38519145574E+02  0.53724966869E+02 -0.64370448167E+02  0.92389075318E+02  0.47000000000E+01 0. -1.
         -5    1    4    4    0  502  0.13919165817E+02 -0.35495359832E+02 -0.18610791888E+03  0.19003134272E+03  0.47000000000E+01 0. -1.
          5    1    5    5  503    0  0.50693762321E+02  0.41180963099E+02 -0.24211178207E+03  0.25081055456E+03  0.47000000000E+01 0. -1.
         -5    1    5    5    0  503 -0.26093782563E+02 -0.59410570136E+02 -0.23271770569E+03  0.24164048062E+03  0.47000000000E+01 0. -1.
<mgrwt>
<rscale>  0 0.27267982E+03</rscale>
<asrwt>0</asrwt>
<pdfrwt beam="1">  1        1 0.11539839E+00 0.27267982E+03</pdfrwt>
<pdfrwt beam="2">  1       -1 0.38125852E-02 0.27267982E+03</pdfrwt>
<totfact> 0.67003551E+03</totfact>
</mgrwt>
</event>
<event>
 9    1  0.2051157E-002  0.2742184E+03  0.7818608E-02  0.1098889E+00
         -2   -1    0    0    0  501 -0.00000000000E+00  0.00000000000E+00  0.10918225653E+02  0.10918225653E+02  0.00000000000E+00 0. -1.
          2   -1    0    0  501    0  0.00000000000E+00 -0.00000000000E+00 -0.17217932967E+04  0.17217932967E+04  0.00000000000E+00 0. -1.
         36    2    1    2    0    0 -0.71054273576E-14  0.35527136788E-14 -0.17108750710E+04  0.17327115223E+04  0.27421836365E+03 0.  0.
         25    2    3    3    0    0 -0.28848185529E+02  0.28916296427E+02 -0.10997892366E+04  0.11074841658E+04  0.12375961533E+03 0.  0.
         25    2    3    3    0    0  0.28848185529E+02 -0.28916296427E+02 -0.61108583441E+03  0.62522735659E+03  0.12575762563E+03 0.  0.
          5    1    4    4  502    0 -0.91785206597E+00  0.13060603913E+02 -0.10342869981E+04  0.10343805422E+04  0.47000000000E+01 0. -1.
         -5    1    4    4    0  502 -0.27930333463E+02  0.15855692514E+02 -0.65502238577E+02  0.73103623515E+02  0.47000000000E+01 0. -1.
          5    1    5    5  503    0 -0.35216881192E+02 -0.48990061739E+02 -0.37031862230E+03  0.37523089810E+03  0.47000000000E+01 0. -1.
         -5    1    5    5    0  503  0.64065066721E+02  0.20073765312E+02 -0.24076721212E+03  0.24999645849E+03  0.47000000000E+01 0. -1.
<mgrwt>
<rscale>  0 0.27421836E+03</rscale>
<asrwt>0</asrwt>
<pdfrwt beam="1">  1        2 0.26489132E+00 0.27421836E+03</pdfrwt>
<pdfrwt beam="2">  1       -2 0.16797267E-02 0.27421836E+03</pdfrwt>
<totfact> 0.10397480E+04</totfact>
</mgrwt>
</event>
<event>
 9    1  0.2051157E-002  0.2755493E+03  0.7818608E-02  0.1098145E+00
          2   -1    0    0  501    0  0.00000000000E+00  0.00000000000E+00  0.62676550921E+03  0.62676550921E+03  0.00000000000E+00 0.  1.
         -2   -1    0    0    0  501 -0.00000000000E+00 -0.00000000000E+00 -0.30285418138E+02  0.30285418138E+02  0.00000000000E+00 0.  1.
         36    2    1    2    0    0 -0.44408920985E-14  0.00000000000E+00  0.59648009107E+03  0.65705092734E+03  0.27554930971E+03 0.  0.
         25    2    3    3    0    0 -0.65742659687E+01 -0.89511730704E+01  0.20530602789E+03  0.24595167606E+03  0.13497524736E+03 0.  0.
         25    2    3    3    0    0  0.65742659687E+01  0.89511730704E+01  0.39117406318E+03  0.41109925128E+03  0.12594483802E+03 0.  0.
          5    1    4    4  502    0 -0.43829107147E+02 -0.53823123298E+02  0.15041039963E+03  0.16572054052E+03  0.47000000000E+01 0.  1.
         -5    1    4    4    0  502  0.37254841179E+02  0.44871950228E+02  0.54895628258E+02  0.80231135542E+02  0.47000000000E+01 0.  1.
          5    1    5    5  503    0 -0.51211620745E+01 -0.94601183415E+01  0.38844284107E+03  0.38862018851E+03  0.47000000000E+01 0. -1.
         -5    1    5    5    0  503  0.11695428043E+02  0.18411291412E+02  0.27312221082E+01  0.22479062765E+02  0.47000000000E+01 0. -1.
<mgrwt>
<rscale>  0 0.27554931E+03</rscale>
<asrwt>0</asrwt>
<pdfrwt beam="1">  1        2 0.96425453E-01 0.27554931E+03</pdfrwt>
<pdfrwt beam="2">  1       -2 0.46592956E-02 0.27554931E+03</pdfrwt>
<totfact> 0.10403062E+04</totfact>
</mgrwt>
</event>
<event>
 9    1  0.2051157E-002  0.2749876E+03  0.7818608E-02  0.1098459E+00
          2   -1    0    0  501    0  0.00000000000E+00  0.00000000000E+00  0.22490861462E+04  0.22490861462E+04  0.00000000000E+00 0. -1.
         -2   -1    0    0    0  501 -0.00000000000E+00 -0.00000000000E+00 -0.84054334561E+01  0.84054334561E+01  0.00000000000E+00 0. -1.
         36    2    1    2    0    0  0.14210854715E-13 -0.71054273576E-14  0.22406807128E+04  0.22574915797E+04  0.27498759200E+03 0.  0.
         25    2    3    3    0    0  0.37744454511E+02 -0.28343509494E+02  0.11485781101E+04  0.11563140017E+04  0.12490955627E+03 0.  0.
         25    2    3    3    0    0 -0.37744454511E+02  0.28343509494E+02  0.10921026027E+04  0.11011775780E+04  0.13295098730E+03 0.  0.
          5    1    4    4  502    0  0.50680931640E+01  0.33443222960E+02  0.10557153623E+03  0.11095753238E+03  0.47000000000E+01 0. -1.
         -5    1    4    4    0  502  0.32676361347E+02 -0.61786732453E+02  0.10430065738E+04  0.10453564693E+04  0.47000000000E+01 0. -1.
          5    1    5    5  503    0  0.11591392171E+01  0.69208040205E+02  0.83687250360E+03  0.83974327845E+03  0.47000000000E+01 0.  1.
         -5    1    5    5    0  503 -0.38903593728E+02 -0.40864530712E+02  0.25523009913E+03  0.26143429954E+03  0.47000000000E+01 0.  1.
<mgrwt>
<rscale>  0 0.27498759E+03</rscale>
<asrwt>0</asrwt>
<pdfrwt beam="1">  1        2 0.34601278E+00 0.27498759E+03</pdfrwt>
<pdfrwt beam="2">  1       -2 0.12931454E-02 0.27498759E+03</pdfrwt>
<totfact> 0.80358267E+03</totfact>
</mgrwt>
</event>
<event>
 9    1  0.2051157E-002  0.2751617E+03  0.7818608E-02  0.1098361E+00
         -3   -1    0    0    0  501 -0.00000000000E+00  0.00000000000E+00  0.50081233234E+03  0.50081233234E+03  0.00000000000E+00 0. -1.
          3   -1    0    0  501    0  0.00000000000E+00 -0.00000000000E+00 -0.37795581045E+02  0.37795581045E+02  0.00000000000E+00 0. -1.
         36    2    1    2    0    0  0.71054273576E-14  0.00000000000E+00  0.46301675129E+03  0.53860791338E+03  0.27516172041E+03 0.  0.
         25    2    3    3    0    0 -0.29965820206E+02 -0.52714014447E+02  0.20968683654E+03  0.24972824142E+03  0.12132150444E+03 0.  0.
         25    2    3    3    0    0  0.29965820206E+02  0.52714014447E+02  0.25332991475E+03  0.28887967197E+03  0.12489476158E+03 0.  0.
          5    1    4    4  502    0  0.28861945602E+02 -0.43641095574E+02  0.17025240840E+03  0.17817275239E+03  0.47000000000E+01 0. -1.
         -5    1    4    4    0  502 -0.58827765809E+02 -0.90729188727E+01  0.39434428142E+02  0.71555489026E+02  0.47000000000E+01 0. -1.
          5    1    5    5  503    0 -0.45966561360E+02  0.18831921558E+01  0.10282191191E+03  0.11274265717E+03  0.47000000000E+01 0. -1.
         -5    1    5    5    0  503  0.75932381566E+02  0.50830822291E+02  0.15050800284E+03  0.17613701480E+03  0.47000000000E+01 0. -1.
<mgrwt>
<rscale>  0 0.27516172E+03</rscale>
<asrwt>0</asrwt>
<pdfrwt beam="1">  1        3 0.58147051E-02 0.27516172E+03</pdfrwt>
<pdfrwt beam="2">  1       -3 0.77048046E-01 0.27516172E+03</pdfrwt>
<totfact> 0.73597324E+02</totfact>
</mgrwt>
</event>
<event>
 9    1  0.2051157E-002  0.2781915E+03  0.7818608E-02  0.1096681E+00
          2   -1    0    0  501    0  0.00000000000E+00  0.00000000000E+00  0.52981696155E+03  0.52981696155E+03  0.00000000000E+00 0. -1.
         -2   -1    0    0    0  501 -0.00000000000E+00 -0.00000000000E+00 -0.36517566302E+02  0.36517566302E+02  0.00000000000E+00 0. -1.
         36    2    1    2    0    0  0.35527136788E-14  0.00000000000E+00  0.49329939524E+03  0.56633452785E+03  0.27819148816E+03 0.  0.
         25    2    3    3    0    0 -0.18005705895E+02 -0.60152769868E+02  0.18870488564E+03  0.23186714438E+03  0.11920686897E+03 0.  0.
         25    2    3    3    0    0  0.18005705895E+02  0.60152769868E+02  0.30459450960E+03  0.33446738347E+03  0.12307743155E+03 0.  0.
          5    1    4    4  502    0 -0.47166003061E+02 -0.19671555076E+02  0.18683422525E+02  0.54614670201E+02  0.47000000000E+01 0. -1.
         -5    1    4    4    0  502  0.29160297166E+02 -0.40481214792E+02  0.17002146312E+03  0.17725247418E+03  0.47000000000E+01 0. -1.
          5    1    5    5  503    0  0.12411953222E+02 -0.31810304453E+02  0.33338238317E+02  0.47952895494E+02  0.47000000000E+01 0. -1.
         -5    1    5    5    0  503  0.55937526732E+01  0.91963074322E+02  0.27125627128E+03  0.28651448797E+03  0.47000000000E+01 0. -1.
<mgrwt>
<rscale>  0 0.27819149E+03</rscale>
<asrwt>0</asrwt>
<pdfrwt beam="1">  1        2 0.81510296E-01 0.27819149E+03</pdfrwt>
<pdfrwt beam="2">  1       -2 0.56180875E-02 0.27819149E+03</pdfrwt>
<totfact> 0.94989780E+03</totfact>
</mgrwt>
</event>
<event>
 9    1  0.2051157E-002  0.2755666E+03  0.7818608E-02  0.1098135E+00
         -1   -1    0    0    0  501 -0.00000000000E+00  0.00000000000E+00  0.81178809045E+01  0.81178809045E+01  0.00000000000E+00 0.  1.
          1   -1    0    0  501    0  0.00000000000E+00 -0.00000000000E+00 -0.23385712550E+04  0.23385712550E+04  0.00000000000E+00 0.  1.
         36    2    1    2    0    0  0.00000000000E+00 -0.71054273576E-14 -0.23304533741E+04  0.23466891359E+04  0.27556663757E+03 0.  0.
         25    2    3    3    0    0  0.13265272539E+02 -0.60510413337E+02 -0.11135244960E+04  0.11216036272E+04  0.11924938507E+03 0.  0.
         25    2    3    3    0    0 -0.13265272539E+02  0.60510413337E+02 -0.12169288781E+04  0.12250855087E+04  0.12681140190E+03 0.  0.
          5    1    4    4  502    0  0.46396556272E+02 -0.25248108926E+02 -0.20396935428E+03  0.21075031417E+03  0.47000000000E+01 0.  1.
         -5    1    4    4    0  502 -0.33131283733E+02 -0.35262304411E+02 -0.90955514172E+03  0.91085331305E+03  0.47000000000E+01 0.  1.
          5    1    5    5  503    0 -0.33343304853E+02  0.27707422320E+02 -0.12353944194E+03  0.13100977424E+03  0.47000000000E+01 0. -1.
         -5    1    5    5    0  503  0.20078032313E+02  0.32802991017E+02 -0.10933894362E+04  0.10940757344E+04  0.47000000000E+01 0. -1.
<mgrwt>
<rscale>  0 0.27556664E+03</rscale>
<asrwt>0</asrwt>
<pdfrwt beam="1">  1        1 0.35978090E+00 0.27556664E+03</pdfrwt>
<pdfrwt beam="2">  1       -1 0.12489023E-02 0.27556664E+03</pdfrwt>
<totfact> 0.27629414E+03</totfact>
</mgrwt>
</event>
<event>
 9    1  0.2051157E-002  0.2737558E+03  0.7818608E-02  0.1099149E+00
         -1   -1    0    0    0  501 -0.00000000000E+00  0.00000000000E+00  0.18376876276E+02  0.18376876276E+02  0.00000000000E+00 0.  1.
          1   -1    0    0  501    0  0.00000000000E+00 -0.00000000000E+00 -0.10195179476E+04  0.10195179476E+04  0.00000000000E+00 0.  1.
         36    2    1    2    0    0  0.00000000000E+00 -0.17763568394E-14 -0.10011410713E+04  0.10378948239E+04  0.27375576841E+03 0.  0.
         25    2    3    3    0    0 -0.49263921574E+02 -0.83821554142E+01 -0.61644937337E+03  0.63049420748E+03  0.12253946807E+03 0.  0.
         25    2    3    3    0    0  0.49263921574E+02  0.83821554142E+01 -0.38469169794E+03  0.40740061639E+03  0.12446029596E+03 0.  0.
          5    1    4    4  502    0 -0.48992162431E+02  0.46732890914E+02 -0.45011793230E+03  0.45520592928E+03  0.47000000000E+01 0. -1.
         -5    1    4    4    0  502 -0.27175914322E+00 -0.55115046328E+02 -0.16633144107E+03  0.17528827820E+03  0.47000000000E+01 0. -1.
          5    1    5    5  503    0  0.23212332233E+02  0.17180305255E+00 -0.37819157238E+03  0.37893244424E+03  0.47000000000E+01 0. -1.
         -5    1    5    5    0  503  0.26051589341E+02  0.82103523617E+01 -0.65001255695E+01  0.28468172149E+02  0.47000000000E+01 0. -1.
<mgrwt>
<rscale>  0 0.27375577E+03</rscale>
<asrwt>0</asrwt>
<pdfrwt beam="1">  1        1 0.15684892E+00 0.27375577E+03</pdfrwt>
<pdfrwt beam="2">  1       -1 0.28272117E-02 0.27375577E+03</pdfrwt>
<totfact> 0.63623309E+03</totfact>
</mgrwt>
</event>
<event>
 9    1  0.2051157E-002  0.2802935E+03  0.7818608E-02  0.1095529E+00
          2   -1    0    0  501    0  0.00000000000E+00  0.00000000000E+00  0.19222496301E+04  0.19222496301E+04  0.00000000000E+00 0.  1.
         -2   -1    0    0    0  501 -0.00000000000E+00 -0.00000000000E+00 -0.10217776208E+02  0.10217776208E+02  0.00000000000E+00 0.  1.
         36    2    1    2    0    0  0.71054273576E-14  0.00000000000E+00  0.19120318539E+04  0.19324674063E+04  0.28029353568E+03 0.  0.
         25    2    3    3    0    0 -0.30789822260E+02 -0.36328431548E+02  0.70430959750E+03  0.71734190726E+03  0.12751327259E+03 0.  0.
         25    2    3    3    0    0  0.30789822260E+02  0.36328431548E+02  0.12077222564E+04  0.12151254991E+04  0.12517652240E+03 0.  0.
          5    1    4    4  502    0 -0.11851171124E+02 -0.55249045397E+02  0.12347293161E+03  0.13586965119E+03  0.47000000000E+01 0. -1.
         -5    1    4    4    0  502 -0.18938651136E+02  0.18920613850E+02  0.58083666589E+03  0.58147225607E+03  0.47000000000E+01 0. -1.
          5    1    5    5  503    0 -0.43995732543E+01 -0.35652229606E+02  0.14805444433E+03  0.15242259087E+03  0.47000000000E+01 0. -1.
         -5    1    5    5    0  503  0.35189395515E+02  0.71980661154E+02  0.10596678121E+04  0.10627029082E+04  0.47000000000E+01 0. -1.
<mgrwt>
<rscale>  0 0.28029354E+03</rscale>
<asrwt>0</asrwt>
<pdfrwt beam="1">  1        2 0.29573042E+00 0.28029354E+03</pdfrwt>
<pdfrwt beam="2">  1       -2 0.15719671E-02 0.28029354E+03</pdfrwt>
<totfact> 0.89938118E+03</totfact>
</mgrwt>
</event>
<event>
 9    1  0.2051157E-002  0.2745240E+03  0.7818608E-02  0.1098718E+00
         -2   -1    0    0    0  501 -0.00000000000E+00  0.00000000000E+00  0.45369975073E+03  0.45369975073E+03  0.00000000000E+00 0. -1.
          2   -1    0    0  501    0  0.00000000000E+00 -0.00000000000E+00 -0.41527137860E+02  0.41527137860E+02  0.00000000000E+00 0. -1.
         36    2    1    2    0    0 -0.71054273576E-14  0.00000000000E+00  0.41217261287E+03  0.49522688859E+03  0.27452396686E+03 0.  0.
         25    2    3    3    0    0  0.47622874856E+02 -0.33396448521E+01  0.25918714539E+03  0.29264194052E+03  0.12720942408E+03 0.  0.
         25    2    3    3    0    0 -0.47622874856E+02  0.33396448521E+01  0.15298546748E+03  0.20258494807E+03  0.12392342994E+03 0.  0.
          5    1    4    4  502    0  0.80484250285E+02  0.30767537852E+02  0.18985140229E+03  0.20854256372E+03  0.47000000000E+01 0. -1.
         -5    1    4    4    0  502 -0.32861375428E+02 -0.34107182704E+02  0.69335743101E+02  0.84099376801E+02  0.47000000000E+01 0. -1.
          5    1    5    5  503    0 -0.38945614803E+02  0.50008829235E+02  0.13905360843E+03  0.15289094130E+03  0.47000000000E+01 0.  1.
         -5    1    5    5    0  503 -0.86772600531E+01 -0.46669184382E+02  0.13931859051E+02  0.49694006777E+02  0.47000000000E+01 0.  1.
<mgrwt>
<rscale>  0 0.27452397E+03</rscale>
<asrwt>0</asrwt>
<pdfrwt beam="1">  1        2 0.63887907E-02 0.27452397E+03</pdfrwt>
<pdfrwt beam="2">  1       -2 0.69799958E-01 0.27452397E+03</pdfrwt>
<totfact> 0.21784440E+03</totfact>
</mgrwt>
</event>
<event>
 9    1  0.2051157E-002  0.2762868E+03  0.7818608E-02  0.1097734E+00
          1   -1    0    0  501    0  0.00000000000E+00  0.00000000000E+00  0.17893776765E+02  0.17893776765E+02  0.00000000000E+00 0. -1.
         -1   -1    0    0    0  501 -0.00000000000E+00 -0.00000000000E+00 -0.10664939962E+04  0.10664939962E+04  0.00000000000E+00 0. -1.
         36    2    1    2    0    0  0.00000000000E+00  0.00000000000E+00 -0.10486002194E+04  0.10843877730E+04  0.27628684724E+03 0.  0.
         25    2    3    3    0    0  0.48682397412E+02 -0.17267261985E+01 -0.46099685678E+03  0.47968605676E+03  0.12331931598E+03 0.  0.
         25    2    3    3    0    0 -0.48682397412E+02  0.17267261985E+01 -0.58760336266E+03  0.60470171621E+03  0.13421436723E+03 0.  0.
          5    1    4    4  502    0  0.80273670917E+02  0.26551967164E+02 -0.36404352554E+03  0.37376282278E+03  0.47000000000E+01 0.  1.
         -5    1    4    4    0  502 -0.31591273505E+02 -0.28278693363E+02 -0.96953331240E+02  0.10592323399E+03  0.47000000000E+01 0.  1.
          5    1    5    5  503    0  0.17966509366E+02 -0.43010260127E+02 -0.36551714670E+03  0.36850719459E+03  0.47000000000E+01 0. -1.
         -5    1    5    5    0  503 -0.66648906779E+02  0.44736986325E+02 -0.22208621596E+03  0.23619452161E+03  0.47000000000E+01 0. -1.
<mgrwt>
<rscale>  0 0.27628685E+03</rscale>
<asrwt>0</asrwt>
<pdfrwt beam="1">  1        1 0.27528884E-02 0.27628685E+03</pdfrwt>
<pdfrwt beam="2">  1       -1 0.16407602E+00 0.27628685E+03</pdfrwt>
<totfact> 0.11427734E+03</totfact>
</mgrwt>
</event>
<event>
 9    1  0.2051157E-002  0.2754244E+03  0.7818608E-02  0.1098215E+00
          2   -1    0    0  501    0  0.00000000000E+00  0.00000000000E+00  0.17919893865E+04  0.17919893865E+04  0.00000000000E+00 0.  1.
         -2   -1    0    0    0  501 -0.00000000000E+00 -0.00000000000E+00 -0.10583017287E+02  0.10583017287E+02  0.00000000000E+00 0.  1.
         36    2    1    2    0    0  0.35527136788E-14  0.00000000000E+00  0.17814063692E+04  0.18025724038E+04  0.27542443360E+03 0.  0.
         25    2    3    3    0    0 -0.17129038539E+02 -0.11961777810E+02  0.12483117128E+04  0.12549941067E+04  0.12763850324E+03 0.  0.
         25    2    3    3    0    0  0.17129038539E+02  0.11961777810E+02  0.53309465643E+03  0.54757829708E+03  0.12335149220E+03 0.  0.
          5    1    4    4  502    0 -0.32816786911E+02  0.22607150399E+02  0.13053744914E+03  0.13656551680E+03  0.47000000000E+01 0.  1.
         -5    1    4    4    0  502  0.15687748372E+02 -0.34568928209E+02  0.11177742637E+04  0.11184285899E+04  0.47000000000E+01 0.  1.
          5    1    5    5  503    0  0.61262248783E+02 -0.24428050322E+02  0.24143946640E+03  0.25032958016E+03  0.47000000000E+01 0.  1.
         -5    1    5    5    0  503 -0.44133210244E+02  0.36389828132E+02  0.29165519003E+03  0.29724871692E+03  0.47000000000E+01 0.  1.
<mgrwt>
<rscale>  0 0.27542443E+03</rscale>
<asrwt>0</asrwt>
<pdfrwt beam="1">  1        2 0.27569043E+00 0.27542443E+03</pdfrwt>
<pdfrwt beam="2">  1       -2 0.16281579E-02 0.27542443E+03</pdfrwt>
<totfact> 0.99979518E+03</totfact>
</mgrwt>
</event>
<event>
 9    1  0.2051157E-002  0.2751113E+03  0.7818608E-02  0.1098389E+00
         -2   -1    0    0    0  501 -0.00000000000E+00  0.00000000000E+00  0.11754131596E+02  0.11754131596E+02  0.00000000000E+00 0. -1.
          2   -1    0    0  501    0  0.00000000000E+00 -0.00000000000E+00 -0.16097792745E+04  0.16097792745E+04  0.00000000000E+00 0. -1.
         36    2    1    2    0    0  0.71054273576E-14  0.14210854715E-13 -0.15980251429E+04  0.16215334061E+04  0.27511130426E+03 0.  0.
         25    2    3    3    0    0  0.31323306783E+02  0.50403581549E+02 -0.82230158149E+03  0.83334776019E+03  0.12151924915E+03 0.  0.
         25    2    3    3    0    0 -0.31323306783E+02 -0.50403581549E+02 -0.77572356144E+03  0.78818564593E+03  0.12636414878E+03 0.  0.
          5    1    4    4  502    0  0.61359761540E+02  0.72284506716E+02 -0.65917878502E+03  0.66597960244E+03  0.47000000000E+01 0. -1.
         -5    1    4    4    0  502 -0.30036454758E+02 -0.21880925167E+02 -0.16312279647E+03  0.16736815775E+03  0.47000000000E+01 0. -1.
          5    1    5    5  503    0 -0.79285754828E+02 -0.30674696541E+02 -0.54868245616E+03  0.55524921938E+03  0.47000000000E+01 0. -1.
         -5    1    5    5    0  503  0.47962448045E+02 -0.19728885007E+02 -0.22704110529E+03  0.23293642655E+03  0.47000000000E+01 0. -1.
<mgrwt>
<rscale>  0 0.27511130E+03</rscale>
<asrwt>0</asrwt>
<pdfrwt beam="1">  1        2 0.24765835E+00 0.27511130E+03</pdfrwt>
<pdfrwt beam="2">  1       -2 0.18083280E-02 0.27511130E+03</pdfrwt>
<totfact> 0.10692035E+04</totfact>
</mgrwt>
</event>
<event>
 9    1  0.2051157E-002  0.2734898E+03  0.7818608E-02  0.1099299E+00
          2   -1    0    0  501    0  0.00000000000E+00  0.00000000000E+00  0.47091597225E+03  0.47091597225E+03  0.00000000000E+00 0. -1.
         -2   -1    0    0    0  501 -0.00000000000E+00 -0.00000000000E+00 -0.39708070371E+02  0.39708070371E+02  0.00000000000E+00 0. -1.
         36    2    1    2    0    0  0.00000000000E+00  0.26645352591E-14  0.43120790188E+03  0.51062404262E+03  0.27348977725E+03 0.  0.
         25    2    3    3    0    0 -0.36561850341E+02 -0.62717374193E+01  0.27284259571E+03  0.30264435510E+03  0.12559625809E+03 0.  0.
         25    2    3    3    0    0  0.36561850341E+02  0.62717374193E+01  0.15836530617E+03  0.20797968752E+03  0.12961433807E+03 0.  0.
          5    1    4    4  502    0  0.15361984734E+02  0.23004279283E+02  0.53673250817E+01  0.28567212305E+02  0.47000000000E+01 0. -1.
         -5    1    4    4    0  502 -0.51923835075E+02 -0.29276016703E+02  0.26747527063E+03  0.27407714279E+03  0.47000000000E+01 0. -1.
          5    1    5    5  503    0  0.84730531480E+02 -0.51367444131E+00  0.87461562422E+02  0.12186526054E+03  0.47000000000E+01 0. -1.
         -5    1    5    5    0  503 -0.48168681139E+02  0.67854118606E+01  0.70903743745E+02  0.86114426979E+02  0.47000000000E+01 0. -1.
<mgrwt>
<rscale>  0 0.27348978E+03</rscale>
<asrwt>0</asrwt>
<pdfrwt beam="1">  1        2 0.72448607E-01 0.27348978E+03</pdfrwt>
<pdfrwt beam="2">  1       -2 0.61089342E-02 0.27348978E+03</pdfrwt>
<totfact> 0.95263983E+03</totfact>
</mgrwt>
</event>
<event>
 9    1  0.2051157E-002  0.2746461E+03  0.7818608E-02  0.1098650E+00
         -2   -1    0    0    0  501 -0.00000000000E+00  0.00000000000E+00  0.26169046332E+02  0.26169046332E+02  0.00000000000E+00 0.  1.
          2   -1    0    0  501    0  0.00000000000E+00 -0.00000000000E+00 -0.72060803226E+03  0.72060803226E+03  0.00000000000E+00 0.  1.
         36    2    1    2    0    0  0.00000000000E+00 -0.35527136788E-14 -0.69443898593E+03  0.74677707859E+03  0.27464613584E+03 0.  0.
         25    2    3    3    0    0 -0.48769417090E+02 -0.22019154667E+02 -0.34657661760E+03  0.37242045919E+03  0.12537283333E+03 0.  0.
         25    2    3    3    0    0  0.48769417090E+02  0.22019154667E+02 -0.34786236833E+03  0.37435661940E+03  0.12755920970E+03 0.  0.
          5    1    4    4  502    0 -0.85784492572E+02 -0.35372296969E+02 -0.27920069615E+03  0.29425379741E+03  0.47000000000E+01 0.  1.
         -5    1    4    4    0  502  0.37015075482E+02  0.13353142302E+02 -0.67375921449E+02  0.78166661777E+02  0.47000000000E+01 0.  1.
          5    1    5    5  503    0  0.14985141706E+02 -0.53336758225E+02 -0.14214799135E+03  0.15263520463E+03  0.47000000000E+01 0.  1.
         -5    1    5    5    0  503  0.33784275384E+02  0.75355912893E+02 -0.20571437698E+03  0.22172141477E+03  0.47000000000E+01 0.  1.
<mgrwt>
<rscale>  0 0.27464614E+03</rscale>
<asrwt>0</asrwt>
<pdfrwt beam="1">  1        2 0.11086279E+00 0.27464614E+03</pdfrwt>
<pdfrwt beam="2">  1       -2 0.40260065E-02 0.27464614E+03</pdfrwt>
<totfact> 0.10970819E+04</totfact>
</mgrwt>
</event>
<event>
 9    1  0.2051157E-002  0.2751936E+03  0.7818608E-02  0.1098343E+00
         -2   -1    0    0    0  501 -0.00000000000E+00  0.00000000000E+00  0.18869848741E+02  0.18869848741E+02  0.00000000000E+00 0. -1.
          2   -1    0    0  501    0  0.00000000000E+00 -0.00000000000E+00 -0.10033404365E+04  0.10033404365E+04  0.00000000000E+00 0. -1.
         36    2    1    2    0    0  0.71054273576E-14  0.35527136788E-14 -0.98447058779E+03  0.10222102853E+04  0.27519362110E+03 0.  0.
         25    2    3    3    0    0 -0.37202212389E+02 -0.18955561680E+02 -0.41742369196E+03  0.43724727169E+03  0.12328552255E+03 0.  0.
         25    2    3    3    0    0  0.37202212389E+02  0.18955561680E+02 -0.56704689584E+03  0.58496301358E+03  0.13746354883E+03 0.  0.
          5    1    4    4  502    0  0.25628853244E+02  0.28263415000E+02 -0.24105955970E+03  0.24410542819E+03  0.47000000000E+01 0.  1.
         -5    1    4    4    0  502 -0.62831065633E+02 -0.47218976680E+02 -0.17636413225E+03  0.19314184351E+03  0.47000000000E+01 0.  1.
          5    1    5    5  503    0  0.42290034761E+02 -0.31808267255E+02 -0.85240827129E+02  0.10044053721E+03  0.47000000000E+01 0.  1.
         -5    1    5    5    0  503 -0.50878223718E+01  0.50763828935E+02 -0.48180606871E+03  0.48452247637E+03  0.47000000000E+01 0.  1.
<mgrwt>
<rscale>  0 0.27519362E+03</rscale>
<asrwt>0</asrwt>
<pdfrwt beam="1">  1        2 0.15436006E+00 0.27519362E+03</pdfrwt>
<pdfrwt beam="2">  1       -2 0.29030538E-02 0.27519362E+03</pdfrwt>
<totfact> 0.11596837E+04</totfact>
</mgrwt>
</event>
<event>
 9    1  0.2051157E-002  0.2740369E+03  0.7818608E-02  0.1098991E+00
         -2   -1    0    0    0  501 -0.00000000000E+00  0.00000000000E+00  0.89145836772E+02  0.89145836772E+02  0.00000000000E+00 0.  1.
          2   -1    0    0  501    0  0.00000000000E+00 -0.00000000000E+00 -0.21059940375E+03  0.21059940375E+03  0.00000000000E+00 0.  1.
         36    2    1    2    0    0 -0.71054273576E-14  0.71054273576E-14 -0.12145356697E+03  0.29974524052E+03  0.27403693233E+03 0.  0.
         25    2    3    3    0    0  0.39615703559E+02 -0.45999185107E+02 -0.62618742711E+02  0.15153995988E+03  0.12392708946E+03 0.  0.
         25    2    3    3    0    0 -0.39615703559E+02  0.45999185107E+02 -0.58834824264E+02  0.14820528064E+03  0.12172895984E+03 0.  0.
          5    1    4    4  502    0 -0.90583096122E+01 -0.77880577852E+02 -0.26509473241E+02  0.82899213211E+02  0.47000000000E+01 0.  1.
         -5    1    4    4    0  502  0.48674013171E+02  0.31881392744E+02 -0.36109269470E+02  0.68640746668E+02  0.47000000000E+01 0.  1.
          5    1    5    5  503    0 -0.54993398297E+02  0.79433342915E+02 -0.30172832832E+02  0.10132334215E+03  0.47000000000E+01 0.  1.
         -5    1    5    5    0  503  0.15377694738E+02 -0.33434157808E+02 -0.28661991432E+02  0.46881938490E+02  0.47000000000E+01 0.  1.
<mgrwt>
<rscale>  0 0.27403693E+03</rscale>
<asrwt>0</asrwt>
<pdfrwt beam="1">  1        2 0.32399908E-01 0.27403693E+03</pdfrwt>
<pdfrwt beam="2">  1       -2 0.13714744E-01 0.27403693E+03</pdfrwt>
<totfact> 0.63460357E+03</totfact>
</mgrwt>
</event>
<event>
 9    1  0.2051157E-002  0.2767376E+03  0.7818608E-02  0.1097484E+00
         -2   -1    0    0    0  501 -0.00000000000E+00  0.00000000000E+00  0.31872696018E+02  0.31872696018E+02  0.00000000000E+00 0.  1.
          2   -1    0    0  501    0  0.00000000000E+00 -0.00000000000E+00 -0.60069980635E+03  0.60069980635E+03  0.00000000000E+00 0.  1.
         36    2    1    2    0    0  0.00000000000E+00  0.00000000000E+00 -0.56882711033E+03  0.63257250237E+03  0.27673758202E+03 0.  0.
         25    2    3    3    0    0  0.50360967464E+02  0.32652215246E+01 -0.36598475669E+03  0.38954576330E+03  0.12350777652E+03 0.  0.
         25    2    3    3    0    0 -0.50360967464E+02 -0.32652215246E+01 -0.20284235365E+03  0.24302673907E+03  0.12397615398E+03 0.  0.
          5    1    4    4  502    0  0.52080373075E+02  0.15087930180E+02 -0.37157745841E+03  0.37554215276E+03  0.47000000000E+01 0. -1.
         -5    1    4    4    0  502 -0.17194056102E+01 -0.11822708655E+02  0.55927017253E+01  0.14003610541E+02  0.47000000000E+01 0. -1.
          5    1    5    5  503    0 -0.41431544824E+02  0.49431447408E+02 -0.52179480857E+02  0.83095301442E+02  0.47000000000E+01 0.  1.
         -5    1    5    5    0  503 -0.89294226404E+01 -0.52696668932E+02 -0.15066287279E+03  0.15993143763E+03  0.47000000000E+01 0.  1.
<mgrwt>
<rscale>  0 0.27673758E+03</rscale>
<asrwt>0</asrwt>
<pdfrwt beam="1">  1        2 0.92415359E-01 0.27673758E+03</pdfrwt>
<pdfrwt beam="2">  1       -2 0.49034915E-02 0.27673758E+03</pdfrwt>
<totfact> 0.10119064E+04</totfact>
</mgrwt>
</event>
<event>
 9    1  0.2051157E-002  0.2755092E+03  0.7818608E-02  0.1098167E+00
         -2   -1    0    0    0  501 -0.00000000000E+00  0.00000000000E+00  0.48684436352E+02  0.48684436352E+02  0.00000000000E+00 0.  1.
          2   -1    0    0  501    0  0.00000000000E+00 -0.00000000000E+00 -0.38978227509E+03  0.38978227509E+03  0.00000000000E+00 0.  1.
         36    2    1    2    0    0  0.14210854715E-13  0.00000000000E+00 -0.34109783874E+03  0.43846671144E+03  0.27550920393E+03 0.  0.
         25    2    3    3    0    0 -0.46327911105E+02  0.83869028950E+01 -0.20737458979E+03  0.24840050459E+03  0.12838214325E+03 0.  0.
         25    2    3    3    0    0  0.46327911105E+02 -0.83869028950E+01 -0.13372324895E+03  0.19006620685E+03  0.12659636720E+03 0.  0.
          5    1    4    4  502    0 -0.74072646386E+02  0.47032357576E+02 -0.14864843669E+03  0.17267671335E+03  0.47000000000E+01 0. -1.
         -5    1    4    4    0  502  0.27744735281E+02 -0.38645454681E+02 -0.58726153097E+02  0.75723791247E+02  0.47000000000E+01 0. -1.
          5    1    5    5  503    0  0.79278042902E+02  0.96341777536E+00 -0.37519942114E+02  0.87839469012E+02  0.47000000000E+01 0.  1.
         -5    1    5    5    0  503 -0.32950131796E+02 -0.93503206703E+01 -0.96203306839E+02  0.10222673784E+03  0.47000000000E+01 0.  1.
<mgrwt>
<rscale>  0 0.27550920E+03</rscale>
<asrwt>0</asrwt>
<pdfrwt beam="1">  1        2 0.59966503E-01 0.27550920E+03</pdfrwt>
<pdfrwt beam="2">  1       -2 0.74899134E-02 0.27550920E+03</pdfrwt>
<totfact> 0.85546076E+03</totfact>
</mgrwt>
</event>
<event>
 9    1  0.2051157E-002  0.2749729E+03  0.7818608E-02  0.1098467E+00
         -4   -1    0    0    0  501 -0.00000000000E+00  0.00000000000E+00  0.36379897272E+02  0.36379897272E+02  0.00000000000E+00 0.  1.
          4   -1    0    0  501    0  0.00000000000E+00 -0.00000000000E+00 -0.51958707174E+03  0.51958707174E+03  0.00000000000E+00 0.  1.
         36    2    1    2    0    0  0.35527136788E-14 -0.35527136788E-14 -0.48320717446E+03  0.55596696901E+03  0.27497290262E+03 0.  0.
         25    2    3    3    0    0 -0.34751725473E+01  0.13703002428E+01 -0.21585285192E+03  0.25990897704E+03  0.14472825612E+03 0.  0.
         25    2    3    3    0    0  0.34751725473E+01 -0.13703002428E+01 -0.26735432255E+03  0.29605799197E+03  0.12711430398E+03 0.  0.
          5    1    4    4  502    0  0.31452706176E+02 -0.61983391253E+02 -0.13043447925E+03  0.14787311079E+03  0.47000000000E+01 0.  1.
         -5    1    4    4    0  502 -0.34927878723E+02  0.63353691496E+02 -0.85418372671E+02  0.11203586626E+03  0.47000000000E+01 0.  1.
          5    1    5    5  503    0 -0.26105601869E+02 -0.26941550532E+02 -0.15041545195E+02  0.40690142244E+02  0.47000000000E+01 0.  1.
         -5    1    5    5    0  503  0.29580774416E+02  0.25571250289E+02 -0.25231277735E+03  0.25536784972E+03  0.47000000000E+01 0.  1.
<mgrwt>
<rscale>  0 0.27497290E+03</rscale>
<asrwt>0</asrwt>
<pdfrwt beam="1">  1        4 0.79936469E-01 0.27497290E+03</pdfrwt>
<pdfrwt beam="2">  1       -4 0.55969075E-02 0.27497290E+03</pdfrwt>
<totfact> 0.53007076E+02</totfact>
</mgrwt>
</event>
<event>
 9    1  0.2051157E-002  0.2751850E+03  0.7818608E-02  0.1098348E+00
         -1   -1    0    0    0  501 -0.00000000000E+00  0.00000000000E+00  0.65374790828E+03  0.65374790828E+03  0.00000000000E+00 0. -1.
          1   -1    0    0  501    0  0.00000000000E+00 -0.00000000000E+00 -0.28958713130E+02  0.28958713130E+02  0.00000000000E+00 0. -1.
         36    2    1    2    0    0  0.17763568394E-14  0.00000000000E+00  0.62478919515E+03  0.68270662141E+03  0.27518501511E+03 0.  0.
         25    2    3    3    0    0  0.71164119195E+01 -0.35492433647E+02  0.21224938250E+03  0.24985985256E+03  0.12676667301E+03 0.  0.
         25    2    3    3    0    0 -0.71164119195E+01  0.35492433647E+02  0.41253981265E+03  0.43284676885E+03  0.12592407282E+03 0.  0.
          5    1    4    4  502    0  0.17617036729E+02 -0.31799490229E+02  0.22748235170E+03  0.23041674830E+03  0.47000000000E+01 0.  1.
         -5    1    4    4    0  502 -0.10500624810E+02 -0.36929434186E+01 -0.15232969203E+02  0.19443104259E+02  0.47000000000E+01 0.  1.
          5    1    5    5  503    0  0.28697636967E+02 -0.13275574167E+02  0.32359570173E+03  0.32517082190E+03  0.47000000000E+01 0. -1.
         -5    1    5    5    0  503 -0.35814048886E+02  0.48768007814E+02  0.88944110921E+02  0.10767594695E+03  0.47000000000E+01 0. -1.
<mgrwt>
<rscale>  0 0.27518502E+03</rscale>
<asrwt>0</asrwt>
<pdfrwt beam="1">  1        1 0.44551871E-02 0.27518502E+03</pdfrwt>
<pdfrwt beam="2">  1       -1 0.10057659E+00 0.27518502E+03</pdfrwt>
<totfact> 0.19436909E+03</totfact>
</mgrwt>
</event>
<event>
 9    1  0.2051157E-002  0.2726630E+03  0.7818608E-02  0.1099765E+00
         -2   -1    0    0    0  501 -0.00000000000E+00  0.00000000000E+00  0.32974009648E+03  0.32974009648E+03  0.00000000000E+00 0. -1.
          2   -1    0    0  501    0  0.00000000000E+00 -0.00000000000E+00 -0.56366446023E+02  0.56366446023E+02  0.00000000000E+00 0. -1.
         36    2    1    2    0    0  0.00000000000E+00 -0.71054273576E-14  0.27337365046E+03  0.38610654250E+03  0.27266299602E+03 0.  0.
         25    2    3    3    0    0  0.44196628842E+02  0.13428526273E+02  0.13572094105E+03  0.19422090193E+03  0.13102640035E+03 0.  0.
         25    2    3    3    0    0 -0.44196628842E+02 -0.13428526273E+02  0.13765270941E+03  0.19188564057E+03  0.12545183670E+03 0.  0.
          5    1    4    4  502    0  0.46455396118E+01  0.46801497415E+02  0.13415129471E+03  0.14223438780E+03  0.47000000000E+01 0.  1.
         -5    1    4    4    0  502  0.39551089230E+02 -0.33372971142E+02  0.15696463334E+01  0.51986514133E+02  0.47000000000E+01 0.  1.
          5    1    5    5  503    0 -0.40849250614E+02 -0.63349139542E+02  0.11299093232E+03  0.13590737855E+03  0.47000000000E+01 0. -1.
         -5    1    5    5    0  503 -0.33473782279E+01  0.49920613269E+02  0.24661777086E+02  0.55978262024E+02  0.47000000000E+01 0. -1.
<mgrwt>
<rscale>  0 0.27266300E+03</rscale>
<asrwt>0</asrwt>
<pdfrwt beam="1">  1        2 0.86717611E-02 0.27266300E+03</pdfrwt>
<pdfrwt beam="2">  1       -2 0.50729245E-01 0.27266300E+03</pdfrwt>
<totfact> 0.28507706E+03</totfact>
</mgrwt>
</event>
<event>
 9    1  0.2051157E-002  0.2744057E+03  0.7818608E-02  0.1098784E+00
         -3   -1    0    0    0  501 -0.00000000000E+00  0.00000000000E+00  0.45297505065E+03  0.45297505065E+03  0.00000000000E+00 0.  1.
          3   -1    0    0  501    0  0.00000000000E+00 -0.00000000000E+00 -0.41557735829E+02  0.41557735829E+02  0.00000000000E+00 0.  1.
         36    2    1    2    0    0  0.00000000000E+00 -0.71054273576E-14  0.41141731482E+03  0.49453278648E+03  0.27440566679E+03 0.  0.
         25    2    3    3    0    0 -0.25983770057E+01  0.22005403334E+02  0.13685690272E+03  0.18865525398E+03  0.12794531525E+03 0.  0.
         25    2    3    3    0    0  0.25983770057E+01 -0.22005403334E+02  0.27456041210E+03  0.30587753250E+03  0.13299118638E+03 0.  0.
          5    1    4    4  502    0 -0.42050173687E+02 -0.38654256274E+02  0.62319425141E+02  0.84665042285E+02  0.47000000000E+01 0.  1.
         -5    1    4    4    0  502  0.39451796681E+02  0.60659659608E+02  0.74537477578E+02  0.10399021170E+03  0.47000000000E+01 0.  1.
          5    1    5    5  503    0 -0.17256608795E+02 -0.53627439104E+02  0.25909483441E+03  0.26519033917E+03  0.47000000000E+01 0.  1.
         -5    1    5    5    0  503  0.19854985801E+02  0.31622035770E+02  0.15465577694E+02  0.40687193327E+02  0.47000000000E+01 0.  1.
<mgrwt>
<rscale>  0 0.27440567E+03</rscale>
<asrwt>0</asrwt>
<pdfrwt beam="1">  1        3 0.63934981E-02 0.27440567E+03</pdfrwt>
<pdfrwt beam="2">  1       -3 0.69688466E-01 0.27440567E+03</pdfrwt>
<totfact> 0.78399537E+02</totfact>
</mgrwt>
</event>
<event>
 9    1  0.2051157E-002  0.2752830E+03  0.7818608E-02  0.1098294E+00
          1   -1    0    0  501    0  0.00000000000E+00  0.00000000000E+00  0.13138902886E+03  0.13138902886E+03  0.00000000000E+00 0.  1.
         -1   -1    0    0    0  501 -0.00000000000E+00 -0.00000000000E+00 -0.14419150688E+03  0.14419150688E+03  0.00000000000E+00 0.  1.
         36    2    1    2    0    0 -0.35527136788E-14  0.00000000000E+00 -0.12802478018E+02  0.27558053573E+03  0.27528299663E+03 0.  0.
         25    2    3    3    0    0 -0.10667467750E+02  0.17208699489E+02 -0.65327854365E+02  0.13824428764E+03  0.12014083528E+03 0.  0.
         25    2    3    3    0    0  0.10667467750E+02 -0.17208699489E+02  0.52525376347E+02  0.13733624809E+03  0.12526929262E+03 0.  0.
          5    1    4    4  502    0  0.28979888875E+01  0.30055447769E+02  0.28904407170E+02  0.42062846242E+02  0.47000000000E+01 0.  1.
         -5    1    4    4    0  502 -0.13565456638E+02 -0.12846748280E+02 -0.94232261535E+02  0.96181441397E+02  0.47000000000E+01 0.  1.
          5    1    5    5  503    0 -0.44499720408E+02  0.10468025640E+02 -0.12433834947E+02  0.47607719214E+02  0.47000000000E+01 0. -1.
         -5    1    5    5    0  503  0.55167188159E+02 -0.27676725129E+02  0.64959211294E+02  0.89728528881E+02  0.47000000000E+01 0. -1.
<mgrwt>
<rscale>  0 0.27528300E+03</rscale>
<asrwt>0</asrwt>
<pdfrwt beam="1">  1        1 0.20213697E-01 0.27528300E+03</pdfrwt>
<pdfrwt beam="2">  1       -1 0.22183309E-01 0.27528300E+03</pdfrwt>
<totfact> 0.42544778E+03</totfact>
</mgrwt>
</event>
<event>
 9    1  0.2051157E-002  0.2749593E+03  0.7818608E-02  0.1098474E+00
         -2   -1    0    0    0  501 -0.00000000000E+00  0.00000000000E+00  0.30316719609E+03  0.30316719609E+03  0.00000000000E+00 0.  1.
          2   -1    0    0  501    0  0.00000000000E+00 -0.00000000000E+00 -0.62343994750E+02  0.62343994750E+02  0.00000000000E+00 0.  1.
         36    2    1    2    0    0  0.00000000000E+00  0.00000000000E+00  0.24082320134E+03  0.36551119084E+03  0.27495929940E+03 0.  0.
         25    2    3    3    0    0 -0.13906278026E+02  0.51905958057E+02  0.12442929112E+03  0.18756919652E+03  0.12966087283E+03 0.  0.
         25    2    3    3    0    0  0.13906278026E+02 -0.51905958057E+02  0.11639391022E+03  0.17794199432E+03  0.12340258488E+03 0.  0.
          5    1    4    4  502    0 -0.30784043299E+02  0.72874530603E+02  0.22993504596E+02  0.82517548352E+02  0.47000000000E+01 0. -1.
         -5    1    4    4    0  502  0.16877765273E+02 -0.20968572546E+02  0.10143578652E+03  0.10505164817E+03  0.47000000000E+01 0. -1.
          5    1    5    5  503    0 -0.24269316716E+02 -0.54392706782E+02  0.12491420411E+03  0.13846737765E+03  0.47000000000E+01 0.  1.
         -5    1    5    5    0  503  0.38175594742E+02  0.24867487247E+01 -0.85202938913E+01  0.39474616668E+02  0.47000000000E+01 0.  1.
<mgrwt>
<rscale>  0 0.27495930E+03</rscale>
<asrwt>0</asrwt>
<pdfrwt beam="1">  1        2 0.95913840E-02 0.27495930E+03</pdfrwt>
<pdfrwt beam="2">  1       -2 0.46641106E-01 0.27495930E+03</pdfrwt>
<totfact> 0.29686131E+03</totfact>
</mgrwt>
</event>
<event>
 9    1  0.2051157E-002  0.2760675E+03  0.7818608E-02  0.1097856E+00
          2   -1    0    0  501    0  0.00000000000E+00  0.00000000000E+00  0.42165847049E+03  0.42165847049E+03  0.00000000000E+00 0. -1.
         -2   -1    0    0    0  501 -0.00000000000E+00 -0.00000000000E+00 -0.45186593781E+02  0.45186593781E+02  0.00000000000E+00 0. -1.
         36    2    1    2    0    0 -0.14210854715E-13  0.00000000000E+00  0.37647187671E+03  0.46684506427E+03  0.27606745567E+03 0.  0.
         25    2    3    3    0    0 -0.65024133586E+02 -0.20766183587E+01  0.21828863869E+03  0.25999078709E+03  0.12535082487E+03 0.  0.
         25    2    3    3    0    0  0.65024133586E+02  0.20766183587E+01  0.15818323801E+03  0.20685427718E+03  0.11633703154E+03 0.  0.
          5    1    4    4  502    0 -0.75952384490E+02  0.17426286462E+02  0.22334286202E+03  0.23659366894E+03  0.47000000000E+01 0. -1.
         -5    1    4    4    0  502  0.10928250904E+02 -0.19502904820E+02 -0.50542233222E+01  0.23397118149E+02  0.47000000000E+01 0. -1.
          5    1    5    5  503    0  0.42289237614E+02  0.37310298041E+02  0.16390642847E+02  0.58916730483E+02  0.47000000000E+01 0.  1.
         -5    1    5    5    0  503  0.22734895972E+02 -0.35233679682E+02  0.14179259517E+03  0.14793754670E+03  0.47000000000E+01 0.  1.
<mgrwt>
<rscale>  0 0.27606746E+03</rscale>
<asrwt>0</asrwt>
<pdfrwt beam="1">  1        2 0.64870531E-01 0.27606746E+03</pdfrwt>
<pdfrwt beam="2">  1       -2 0.69517839E-02 0.27606746E+03</pdfrwt>
<totfact> 0.88169464E+03</totfact>
</mgrwt>
</event>
<event>
 9    1  0.2051157E-002  0.2753619E+03  0.7818608E-02  0.1098249E+00
         -2   -1    0    0    0  501 -0.00000000000E+00  0.00000000000E+00  0.31685116229E+02  0.31685116229E+02  0.00000000000E+00 0.  1.
          2   -1    0    0  501    0  0.00000000000E+00 -0.00000000000E+00 -0.59826337238E+03  0.59826337238E+03  0.00000000000E+00 0.  1.
         36    2    1    2    0    0  0.00000000000E+00  0.17763568394E-14 -0.56657825615E+03  0.62994848861E+03  0.27536190360E+03 0.  0.
         25    2    3    3    0    0  0.42120498494E+02  0.54229936205E+01 -0.28278640971E+03  0.31520603535E+03  0.13260145531E+03 0.  0.
         25    2    3    3    0    0 -0.42120498494E+02 -0.54229936205E+01 -0.28379184644E+03  0.31474245326E+03  0.12931146324E+03 0.  0.
          5    1    4    4  502    0 -0.87623558778E+01  0.13576932097E+02  0.88504716772E+01  0.19014016267E+02  0.47000000000E+01 0.  1.
         -5    1    4    4    0  502  0.50882854372E+02 -0.81539384766E+01 -0.29163688139E+03  0.29619201908E+03  0.47000000000E+01 0.  1.
          5    1    5    5  503    0 -0.33275903709E+02 -0.51600802602E+02 -0.24782116793E+03  0.25535729845E+03  0.47000000000E+01 0. -1.
         -5    1    5    5    0  503 -0.88445947845E+01  0.46177808981E+02 -0.35970678506E+02  0.59385154806E+02  0.47000000000E+01 0. -1.
<mgrwt>
<rscale>  0 0.27536190E+03</rscale>
<asrwt>0</asrwt>
<pdfrwt beam="1">  1        2 0.92040526E-01 0.27536190E+03</pdfrwt>
<pdfrwt beam="2">  1       -2 0.48746329E-02 0.27536190E+03</pdfrwt>
<totfact> 0.10256542E+04</totfact>
</mgrwt>
</event>
<event>
 9    1  0.2051157E-002  0.2844701E+03  0.7818608E-02  0.1093272E+00
         -2   -1    0    0    0  501 -0.00000000000E+00  0.00000000000E+00  0.22884631479E+02  0.22884631479E+02  0.00000000000E+00 0.  1.
          2   -1    0    0  501    0  0.00000000000E+00 -0.00000000000E+00 -0.88403493783E+03  0.88403493783E+03  0.00000000000E+00 0.  1.
         36    2    1    2    0    0 -0.71054273576E-14  0.00000000000E+00 -0.86115030635E+03  0.90691956931E+03  0.28447013036E+03 0.  0.
         25    2    3    3    0    0  0.66297447007E+01 -0.71162745580E+02 -0.41288225074E+03  0.43599105155E+03  0.12045062966E+03 0.  0.
         25    2    3    3    0    0 -0.66297447007E+01  0.71162745580E+02 -0.44826805562E+03  0.47092851776E+03  0.12538472507E+03 0.  0.
          5    1    4    4  502    0  0.51065202183E+02  0.42331314226E+01 -0.17809896137E+03  0.18538312846E+03  0.47000000000E+01 0.  1.
         -5    1    4    4    0  502 -0.44435457482E+02 -0.75395877003E+02 -0.23478328936E+03  0.25060792309E+03  0.47000000000E+01 0.  1.
          5    1    5    5  503    0 -0.59018174876E+02  0.41807523518E+02 -0.14942346233E+03  0.16607370376E+03  0.47000000000E+01 0.  1.
         -5    1    5    5    0  503  0.52388430175E+02  0.29355222062E+02 -0.29884459329E+03  0.30485481400E+03  0.47000000000E+01 0.  1.
<mgrwt>
<rscale>  0 0.28447013E+03</rscale>
<asrwt>0</asrwt>
<pdfrwt beam="1">  1        2 0.13600539E+00 0.28447013E+03</pdfrwt>
<pdfrwt beam="2">  1       -2 0.35207121E-02 0.28447013E+03</pdfrwt>
<totfact> 0.10353233E+04</totfact>
</mgrwt>
</event>
<event>
 9    1  0.2051157E-002  0.2772650E+03  0.7818608E-02  0.1097192E+00
          1   -1    0    0  501    0  0.00000000000E+00  0.00000000000E+00  0.29815369643E+03  0.29815369643E+03  0.00000000000E+00 0.  1.
         -1   -1    0    0    0  501 -0.00000000000E+00 -0.00000000000E+00 -0.64459930809E+02  0.64459930809E+02  0.00000000000E+00 0.  1.
         36    2    1    2    0    0 -0.35527136788E-14  0.00000000000E+00  0.23369376562E+03  0.36261362724E+03  0.27726497537E+03 0.  0.
         25    2    3    3    0    0  0.21460175614E+02  0.52722117778E+01  0.19364413647E+03  0.23098099650E+03  0.12395900048E+03 0.  0.
         25    2    3    3    0    0 -0.21460175614E+02 -0.52722117778E+01  0.40049629152E+02  0.13163263074E+03  0.12342949941E+03 0.  0.
          5    1    4    4  502    0 -0.14126806124E+02  0.58647783926E+02  0.78811738191E+02  0.99360501646E+02  0.47000000000E+01 0.  1.
         -5    1    4    4    0  502  0.35586981738E+02 -0.53375572148E+02  0.11483239828E+03  0.13162049486E+03  0.47000000000E+01 0.  1.
          5    1    5    5  503    0  0.23397418970E+02 -0.51551877325E+02  0.35197300429E+02  0.66827952443E+02  0.47000000000E+01 0. -1.
         -5    1    5    5    0  503 -0.44857594584E+02  0.46279665547E+02  0.48523287229E+01  0.64804678296E+02  0.47000000000E+01 0. -1.
<mgrwt>
<rscale>  0 0.27726498E+03</rscale>
<asrwt>0</asrwt>
<pdfrwt beam="1">  1        1 0.45869799E-01 0.27726498E+03</pdfrwt>
<pdfrwt beam="2">  1       -1 0.99169126E-02 0.27726498E+03</pdfrwt>
<totfact> 0.54196459E+03</totfact>
</mgrwt>
</event>
<event>
 9    1  0.2051157E-002  0.2753437E+03  0.7818608E-02  0.1098260E+00
          2   -1    0    0  501    0  0.00000000000E+00  0.00000000000E+00  0.35547399671E+03  0.35547399671E+03  0.00000000000E+00 0.  1.
         -2   -1    0    0    0  501 -0.00000000000E+00 -0.00000000000E+00 -0.53319068511E+02  0.53319068511E+02  0.00000000000E+00 0.  1.
         36    2    1    2    0    0  0.35527136788E-14  0.35527136788E-14  0.30215492820E+03  0.40879306522E+03  0.27534372979E+03 0.  0.
         25    2    3    3    0    0 -0.25268841591E+02 -0.26442902669E+02  0.63861978956E+02  0.14102444647E+03  0.12029879753E+03 0.  0.
         25    2    3    3    0    0  0.25268841591E+02  0.26442902669E+02  0.23829294924E+03  0.26776861875E+03  0.11652794546E+03 0.  0.
          5    1    4    4  502    0 -0.67872567856E+02  0.56305663726E+01  0.18175026511E+02  0.70645667480E+02  0.47000000000E+01 0. -1.
         -5    1    4    4    0  502  0.42603726265E+02 -0.32073469042E+02  0.45686952445E+02  0.70378778987E+02  0.47000000000E+01 0. -1.
          5    1    5    5  503    0  0.69349559569E+01  0.53151315472E+02  0.40658451474E+02  0.67441497809E+02  0.47000000000E+01 0. -1.
         -5    1    5    5    0  503  0.18333885634E+02 -0.26708412803E+02  0.19763449777E+03  0.20032712094E+03  0.47000000000E+01 0. -1.
<mgrwt>
<rscale>  0 0.27534373E+03</rscale>
<asrwt>0</asrwt>
<pdfrwt beam="1">  1        2 0.54688306E-01 0.27534373E+03</pdfrwt>
<pdfrwt beam="2">  1       -2 0.82029338E-02 0.27534373E+03</pdfrwt>
<totfact> 0.82012309E+03</totfact>
</mgrwt>
</event>
<event>
 9    1  0.2051157E-002  0.2754731E+03  0.7818608E-02  0.1098187E+00
         -2   -1    0    0    0  501 -0.00000000000E+00  0.00000000000E+00  0.11492714418E+03  0.11492714418E+03  0.00000000000E+00 0.  1.
          2   -1    0    0  501    0  0.00000000000E+00 -0.00000000000E+00 -0.16507295927E+03  0.16507295927E+03  0.00000000000E+00 0.  1.
         36    2    1    2    0    0  0.17763568394E-14  0.00000000000E+00 -0.50145815092E+02  0.28000010346E+03  0.27547314781E+03 0.  0.
         25    2    3    3    0    0 -0.12776002571E+02 -0.67055501775E+02 -0.41010763333E+02  0.14110606817E+03  0.11648765259E+03 0.  0.
         25    2    3    3    0    0  0.12776002571E+02  0.67055501775E+02 -0.91350517590E+01  0.13889403529E+03  0.12061690308E+03 0.  0.
          5    1    4    4  502    0 -0.23899156451E+02 -0.68985012813E+02 -0.75127846336E+02  0.10486364941E+03  0.47000000000E+01 0. -1.
         -5    1    4    4    0  502  0.11123153880E+02  0.19295110388E+01  0.34117083003E+02  0.36242418762E+02  0.47000000000E+01 0. -1.
          5    1    5    5  503    0  0.55851727247E+02  0.41593047599E+02 -0.39476685385E+02  0.80186630644E+02  0.47000000000E+01 0. -1.
         -5    1    5    5    0  503 -0.43075724677E+02  0.25462454175E+02  0.30341633626E+02  0.58707404645E+02  0.47000000000E+01 0. -1.
<mgrwt>
<rscale>  0 0.27547315E+03</rscale>
<asrwt>0</asrwt>
<pdfrwt beam="1">  1        2 0.25395840E-01 0.27547315E+03</pdfrwt>
<pdfrwt beam="2">  1       -2 0.17681099E-01 0.27547315E+03</pdfrwt>
<totfact> 0.54468789E+03</totfact>
</mgrwt>
</event>
<event>
 9    1  0.2051157E-002  0.2750983E+03  0.7818608E-02  0.1098397E+00
         -1   -1    0    0    0  501 -0.00000000000E+00  0.00000000000E+00  0.69113870454E+02  0.69113870454E+02  0.00000000000E+00 0. -1.
          1   -1    0    0  501    0  0.00000000000E+00 -0.00000000000E+00 -0.27374772538E+03  0.27374772538E+03  0.00000000000E+00 0. -1.
         36    2    1    2    0    0  0.71054273576E-14  0.00000000000E+00 -0.20463385492E+03  0.34286159583E+03  0.27509827211E+03 0.  0.
         25    2    3    3    0    0 -0.55017265976E+02 -0.23939460387E+02 -0.11085841593E+03  0.17646382932E+03  0.12349047475E+03 0.  0.
         25    2    3    3    0    0  0.55017265976E+02  0.23939460387E+02 -0.93775438990E+02  0.16639776652E+03  0.12367047515E+03 0.  0.
          5    1    4    4  502    0 -0.52854852667E+02 -0.27952734163E+02  0.52186067202E+01  0.60202281134E+02  0.47000000000E+01 0. -1.
         -5    1    4    4    0  502 -0.21624133088E+01  0.40132737755E+01 -0.11607702265E+03  0.11626154818E+03  0.47000000000E+01 0. -1.
          5    1    5    5  503    0  0.22125230173E+02  0.64230293782E+02 -0.91586432428E+02  0.11412809056E+03  0.47000000000E+01 0.  1.
         -5    1    5    5    0  503  0.32892035803E+02 -0.40290833395E+02 -0.21890065618E+01  0.52269675957E+02  0.47000000000E+01 0.  1.
<mgrwt>
<rscale>  0 0.27509827E+03</rscale>
<asrwt>0</asrwt>
<pdfrwt beam="1">  1        1 0.42115034E-01 0.27509827E+03</pdfrwt>
<pdfrwt beam="2">  1       -1 0.10632903E-01 0.27509827E+03</pdfrwt>
<totfact> 0.54148400E+03</totfact>
</mgrwt>
</event>
<event>
 9    1  0.2051157E-002  0.2729290E+03  0.7818608E-02  0.1099615E+00
         -1   -1    0    0    0  501 -0.00000000000E+00  0.00000000000E+00  0.26082547204E+02  0.26082547204E+02  0.00000000000E+00 0.  1.
          1   -1    0    0  501    0  0.00000000000E+00 -0.00000000000E+00 -0.71398565065E+03  0.71398565065E+03  0.00000000000E+00 0.  1.
         36    2    1    2    0    0  0.00000000000E+00  0.00000000000E+00 -0.68790310345E+03  0.74006819785E+03  0.27292903426E+03 0.  0.
         25    2    3    3    0    0  0.36714697262E+02 -0.22824676589E+01 -0.32398503794E+03  0.34825048969E+03  0.12230666419E+03 0.  0.
         25    2    3    3    0    0 -0.36714697262E+02  0.22824676589E+01 -0.36391806550E+03  0.39181770816E+03  0.14046914030E+03 0.  0.
          5    1    4    4  502    0 -0.18378308286E+02 -0.33513325736E+02 -0.33928851642E+02  0.51324089773E+02  0.47000000000E+01 0.  1.
         -5    1    4    4    0  502  0.55093005548E+02  0.31230858077E+02 -0.29005618630E+03  0.29692639992E+03  0.47000000000E+01 0.  1.
          5    1    5    5  503    0  0.58125105391E+01  0.67112953838E+02 -0.16837627798E+03  0.18141277473E+03  0.47000000000E+01 0.  1.
         -5    1    5    5    0  503 -0.42527207801E+02 -0.64830486179E+02 -0.19554178753E+03  0.21040493343E+03  0.47000000000E+01 0.  1.
<mgrwt>
<rscale>  0 0.27292903E+03</rscale>
<asrwt>0</asrwt>
<pdfrwt beam="1">  1        1 0.10984396E+00 0.27292903E+03</pdfrwt>
<pdfrwt beam="2">  1       -1 0.40126991E-02 0.27292903E+03</pdfrwt>
<totfact> 0.66815100E+03</totfact>
</mgrwt>
</event>
<event>
 9    1  0.2051157E-002  0.2777369E+03  0.7818608E-02  0.1096931E+00
          1   -1    0    0  501    0  0.00000000000E+00  0.00000000000E+00  0.15040269876E+04  0.15040269876E+04  0.00000000000E+00 0. -1.
         -1   -1    0    0    0  501 -0.00000000000E+00 -0.00000000000E+00 -0.12821875217E+02  0.12821875217E+02  0.00000000000E+00 0. -1.
         36    2    1    2    0    0  0.71054273576E-14  0.71054273576E-14  0.14912051124E+04  0.15168488628E+04  0.27773689965E+03 0.  0.
         25    2    3    3    0    0  0.16111134003E+02 -0.10563446838E+02  0.42343341905E+03  0.44187583494E+03  0.12484886100E+03 0.  0.
         25    2    3    3    0    0 -0.16111134003E+02  0.10563446838E+02  0.10677716933E+04  0.10749730279E+04  0.12271701805E+03 0.  0.
          5    1    4    4  502    0  0.58801558989E+02  0.27455601593E+02  0.27862339391E+03  0.28611976344E+03  0.47000000000E+01 0.  1.
         -5    1    4    4    0  502 -0.42690424986E+02 -0.38019048431E+02  0.14481002514E+03  0.15575607150E+03  0.47000000000E+01 0.  1.
          5    1    5    5  503    0 -0.48363085886E+02  0.51993063684E+02  0.65240899601E+03  0.65627879351E+03  0.47000000000E+01 0. -1.
         -5    1    5    5    0  503  0.32251951883E+02 -0.41429616846E+02  0.41536269731E+03  0.41869423434E+03  0.47000000000E+01 0. -1.
<mgrwt>
<rscale>  0 0.27773690E+03</rscale>
<asrwt>0</asrwt>
<pdfrwt beam="1">  1        1 0.23138863E+00 0.27773690E+03</pdfrwt>
<pdfrwt beam="2">  1       -1 0.19725974E-02 0.27773690E+03</pdfrwt>
<totfact> 0.49770992E+03</totfact>
</mgrwt>
</event>
<event>
 9    1  0.2051157E-002  0.2751987E+03  0.7818608E-02  0.1098341E+00
         -1   -1    0    0    0  501 -0.00000000000E+00  0.00000000000E+00  0.35515464285E+03  0.35515464285E+03  0.00000000000E+00 0. -1.
          1   -1    0    0  501    0  0.00000000000E+00 -0.00000000000E+00 -0.53310803737E+02  0.53310803737E+02  0.00000000000E+00 0. -1.
         36    2    1    2    0    0  0.88817841970E-15  0.00000000000E+00  0.30184383911E+03  0.40846544658E+03  0.27519868794E+03 0.  0.
         25    2    3    3    0    0 -0.28622615274E+01  0.21555203982E+02  0.23133424984E+03  0.26353759714E+03  0.12435316881E+03 0.  0.
         25    2    3    3    0    0  0.28622615274E+01 -0.21555203982E+02  0.70509589266E+02  0.14492784945E+03  0.12473836622E+03 0.  0.
          5    1    4    4  502    0 -0.52380808156E+01  0.54249289736E+02  0.22269257886E+03  0.22931309951E+03  0.47000000000E+01 0.  1.
         -5    1    4    4    0  502  0.23758192882E+01 -0.32694085753E+02  0.86416709872E+01  0.34224497630E+02  0.47000000000E+01 0.  1.
          5    1    5    5  503    0  0.19438144566E+02  0.36079504872E+02 -0.11868041741E+02  0.42924498259E+02  0.47000000000E+01 0. -1.
         -5    1    5    5    0  503 -0.16575883039E+02 -0.57634708854E+02  0.82377631008E+02  0.10200335119E+03  0.47000000000E+01 0. -1.
<mgrwt>
<rscale>  0 0.27519869E+03</rscale>
<asrwt>0</asrwt>
<pdfrwt beam="1">  1        1 0.82016623E-02 0.27519869E+03</pdfrwt>
<pdfrwt beam="2">  1       -1 0.54639174E-01 0.27519869E+03</pdfrwt>
<totfact> 0.29123688E+03</totfact>
</mgrwt>
</event>
<event>
 9    1  0.2051157E-002  0.2732857E+03  0.7818608E-02  0.1099414E+00
         -1   -1    0    0    0  501 -0.00000000000E+00  0.00000000000E+00  0.58200304927E+01  0.58200304927E+01  0.00000000000E+00 0.  1.
          1   -1    0    0  501    0  0.00000000000E+00 -0.00000000000E+00 -0.32081042061E+04  0.32081042061E+04  0.00000000000E+00 0.  1.
         36    2    1    2    0    0  0.00000000000E+00 -0.71054273576E-14 -0.32022841756E+04  0.32139242366E+04  0.27328566961E+03 0.  0.
         25    2    3    3    0    0  0.39311806494E+02  0.37963160965E+02 -0.14789913074E+04  0.14852762450E+04  0.12507444497E+03 0.  0.
         25    2    3    3    0    0 -0.39311806494E+02 -0.37963160965E+02 -0.17232928682E+04  0.17286479916E+04  0.12449477744E+03 0.  0.
          5    1    4    4  502    0  0.36143328270E+02  0.47679735062E+02 -0.28586347014E+03  0.29209537976E+03  0.47000000000E+01 0.  1.
         -5    1    4    4    0  502  0.31684782239E+01 -0.97165740973E+01 -0.11931278373E+04  0.11931808652E+04  0.47000000000E+01 0.  1.
          5    1    5    5  503    0  0.38647981988E+02 -0.17289696547E+02 -0.29361203020E+03  0.29668622212E+03  0.47000000000E+01 0.  1.
         -5    1    5    5    0  503 -0.77959788483E+02 -0.20673464418E+02 -0.14296808380E+04  0.14319617695E+04  0.47000000000E+01 0.  1.
<mgrwt>
<rscale>  0 0.27328567E+03</rscale>
<asrwt>0</asrwt>
<pdfrwt beam="1">  1        1 0.49355473E+00 0.27328567E+03</pdfrwt>
<pdfrwt beam="2">  1       -1 0.89538887E-03 0.27328567E+03</pdfrwt>
<totfact> 0.11369856E+03</totfact>
</mgrwt>
</event>
<event>
 9    1  0.2051157E-002  0.2746895E+03  0.7818608E-02  0.1098625E+00
          1   -1    0    0  501    0  0.00000000000E+00  0.00000000000E+00  0.24381685310E+03  0.24381685310E+03  0.00000000000E+00 0.  1.
         -1   -1    0    0    0  501 -0.00000000000E+00 -0.00000000000E+00 -0.77367809930E+02  0.77367809930E+02  0.00000000000E+00 0.  1.
         36    2    1    2    0    0  0.71054273576E-14 -0.35527136788E-14  0.16644904317E+03  0.32118466303E+03  0.27468946794E+03 0.  0.
         25    2    3    3    0    0 -0.23637611729E+02  0.17709752339E+02  0.11239765083E+03  0.17134219874E+03  0.12590689076E+03 0.  0.
         25    2    3    3    0    0  0.23637611729E+02 -0.17709752339E+02  0.54051392340E+02  0.14984246429E+03  0.13659736116E+03 0.  0.
          5    1    4    4  502    0 -0.57194202095E+02 -0.24551176157E+02  0.22428961923E+02  0.66325600916E+02  0.47000000000E+01 0.  1.
         -5    1    4    4    0  502  0.33556590366E+02  0.42260928496E+02  0.89968688908E+02  0.10501659782E+03  0.47000000000E+01 0.  1.
          5    1    5    5  503    0 -0.45248324282E+02  0.25622032227E+02  0.32337422242E+00  0.52212009698E+02  0.47000000000E+01 0.  1.
         -5    1    5    5    0  503  0.68885936011E+02 -0.43331784566E+02  0.53728018118E+02  0.97630454596E+02  0.47000000000E+01 0.  1.
<mgrwt>
<rscale>  0 0.27468947E+03</rscale>
<asrwt>0</asrwt>
<pdfrwt beam="1">  1        1 0.37510285E-01 0.27468947E+03</pdfrwt>
<pdfrwt beam="2">  1       -1 0.11902740E-01 0.27468947E+03</pdfrwt>
<totfact> 0.52533354E+03</totfact>
</mgrwt>
</event>
<event>
 9    1  0.2051157E-002  0.2776938E+03  0.7818608E-02  0.1096955E+00
          2   -1    0    0  501    0  0.00000000000E+00  0.00000000000E+00  0.59411423733E+03  0.59411423733E+03  0.00000000000E+00 0.  1.
         -2   -1    0    0    0  501 -0.00000000000E+00 -0.00000000000E+00 -0.32449078491E+02  0.32449078491E+02  0.00000000000E+00 0.  1.
         36    2    1    2    0    0  0.00000000000E+00  0.71054273576E-14  0.56166515883E+03  0.62656331582E+03  0.27769378473E+03 0.  0.
         25    2    3    3    0    0 -0.17654721468E+02  0.54940004348E+02  0.29071049217E+03  0.32121338329E+03  0.12383599669E+03 0.  0.
         25    2    3    3    0    0  0.17654721468E+02 -0.54940004348E+02  0.27095466666E+03  0.30534993253E+03  0.12842140258E+03 0.  0.
          5    1    4    4  502    0 -0.34670706976E+02  0.59627975195E+01  0.11675731004E+02  0.37363425578E+02  0.47000000000E+01 0. -1.
         -5    1    4    4    0  502  0.17015985508E+02  0.48977206829E+02  0.27903476117E+03  0.28384995771E+03  0.47000000000E+01 0. -1.
          5    1    5    5  503    0 -0.24467868478E+02 -0.61863852375E+02  0.24768138939E+03  0.25650335956E+03  0.47000000000E+01 0.  1.
         -5    1    5    5    0  503  0.42122589946E+02  0.69238480271E+01  0.23273277275E+02  0.48846572964E+02  0.47000000000E+01 0.  1.
<mgrwt>
<rscale>  0 0.27769378E+03</rscale>
<asrwt>0</asrwt>
<pdfrwt beam="1">  1        2 0.91402182E-01 0.27769378E+03</pdfrwt>
<pdfrwt beam="2">  1       -2 0.49921664E-02 0.27769378E+03</pdfrwt>
<totfact> 0.99753505E+03</totfact>
</mgrwt>
</event>
<event>
 9    1  0.2051157E-002  0.2752924E+03  0.7818608E-02  0.1098288E+00
          4   -1    0    0  501    0  0.00000000000E+00  0.00000000000E+00  0.29941227530E+03  0.29941227530E+03  0.00000000000E+00 0.  1.
         -4   -1    0    0    0  501 -0.00000000000E+00 -0.00000000000E+00 -0.63278875237E+02  0.63278875237E+02  0.00000000000E+00 0.  1.
         36    2    1    2    0    0  0.00000000000E+00  0.71054273576E-14  0.23613340006E+03  0.36269115053E+03  0.27529236831E+03 0.  0.
         25    2    3    3    0    0 -0.23045418006E+01  0.58114460965E+02  0.13483937227E+03  0.19322632693E+03  0.12558724306E+03 0.  0.
         25    2    3    3    0    0  0.23045418006E+01 -0.58114460965E+02  0.10129402779E+03  0.16946482361E+03  0.12278128883E+03 0.  0.
          5    1    4    4  502    0  0.49402282822E+02  0.65460214711E+02  0.59477425612E+02  0.10141636661E+03  0.47000000000E+01 0. -1.
         -5    1    4    4    0  502 -0.51706824623E+02 -0.73457537462E+01  0.75361946654E+02  0.91809960321E+02  0.47000000000E+01 0. -1.
          5    1    5    5  503    0  0.29267607902E+02 -0.60124161427E+02  0.11915797523E+03  0.13671949649E+03  0.47000000000E+01 0.  1.
         -5    1    5    5    0  503 -0.26963066102E+02  0.20097004624E+01 -0.17863947440E+02  0.32745327113E+02  0.47000000000E+01 0.  1.
<mgrwt>
<rscale>  0 0.27529237E+03</rscale>
<asrwt>0</asrwt>
<pdfrwt beam="1">  1        4 0.46063426E-01 0.27529237E+03</pdfrwt>
<pdfrwt beam="2">  1       -4 0.97352118E-02 0.27529237E+03</pdfrwt>
<totfact> 0.68255490E+02</totfact>
</mgrwt>
</event>
<event>
 9    1  0.2051157E-002  0.2752304E+03  0.7818608E-02  0.1098323E+00
          4   -1    0    0  501    0  0.00000000000E+00  0.00000000000E+00  0.11068455549E+03  0.11068455549E+03  0.00000000000E+00 0. -1.
         -4   -1    0    0    0  501 -0.00000000000E+00 -0.00000000000E+00 -0.17109829075E+03  0.17109829075E+03  0.00000000000E+00 0. -1.
         36    2    1    2    0    0  0.35527136788E-14  0.00000000000E+00 -0.60413735259E+02  0.28178284624E+03  0.27523036356E+03 0.  0.
         25    2    3    3    0    0 -0.22224987710E+02 -0.12155441149E+01 -0.90471832889E+02  0.15093067970E+03  0.11874127295E+03 0.  0.
         25    2    3    3    0    0  0.22224987710E+02  0.12155441149E+01  0.30058097631E+02  0.13085216654E+03  0.12539287312E+03 0.  0.
          5    1    4    4  502    0  0.21245668385E+02 -0.40045749580E+02 -0.79200054471E+02  0.91377125763E+02  0.47000000000E+01 0. -1.
         -5    1    4    4    0  502 -0.43470656095E+02  0.38830205465E+02 -0.11271778419E+02  0.59553553936E+02  0.47000000000E+01 0. -1.
          5    1    5    5  503    0  0.55244454352E+02 -0.43634630027E+02  0.90087647382E+01  0.71127902516E+02  0.47000000000E+01 0. -1.
         -5    1    5    5    0  503 -0.33019466642E+02  0.44850174142E+02  0.21049332892E+02  0.59724264023E+02  0.47000000000E+01 0. -1.
<mgrwt>
<rscale>  0 0.27523036E+03</rscale>
<asrwt>0</asrwt>
<pdfrwt beam="1">  1        4 0.17028393E-01 0.27523036E+03</pdfrwt>
<pdfrwt beam="2">  1       -4 0.26322814E-01 0.27523036E+03</pdfrwt>
<totfact> 0.76870244E+02</totfact>
</mgrwt>
</event>
<event>
 9    1  0.2051157E-002  0.2827529E+03  0.7818608E-02  0.1094195E+00
          2   -1    0    0  501    0  0.00000000000E+00  0.00000000000E+00  0.37255797324E+03  0.37255797324E+03  0.00000000000E+00 0. -1.
         -2   -1    0    0    0  501 -0.00000000000E+00 -0.00000000000E+00 -0.53648845367E+02  0.53648845367E+02  0.00000000000E+00 0. -1.
         36    2    1    2    0    0  0.00000000000E+00  0.00000000000E+00  0.31890912787E+03  0.42620681861E+03  0.28275293170E+03 0.  0.
         25    2    3    3    0    0 -0.48351324405E+02  0.34124649121E+02  0.20943796938E+03  0.25065208462E+03  0.12433769443E+03 0.  0.
         25    2    3    3    0    0  0.48351324405E+02 -0.34124649121E+02  0.10947115850E+03  0.17555473399E+03  0.12382724997E+03 0.  0.
          5    1    4    4  502    0  0.15188530157E+02  0.63315692848E+02  0.78139649989E+02  0.10182074106E+03  0.47000000000E+01 0. -1.
         -5    1    4    4    0  502 -0.63539854561E+02 -0.29191043727E+02  0.13129831939E+03  0.14883134356E+03  0.47000000000E+01 0. -1.
          5    1    5    5  503    0  0.40658478708E+02 -0.25097542668E+02 -0.15101627344E+02  0.50330385328E+02  0.47000000000E+01 0. -1.
         -5    1    5    5    0  503  0.76928456968E+01 -0.90271064529E+01  0.12457278584E+03  0.12522434866E+03  0.47000000000E+01 0. -1.
<mgrwt>
<rscale>  0 0.28275293E+03</rscale>
<asrwt>0</asrwt>
<pdfrwt beam="1">  1        2 0.57316610E-01 0.28275293E+03</pdfrwt>
<pdfrwt beam="2">  1       -2 0.82536688E-02 0.28275293E+03</pdfrwt>
<totfact> 0.77277862E+03</totfact>
</mgrwt>
</event>
<event>
 9    1  0.2051157E-002  0.2750009E+03  0.7818608E-02  0.1098451E+00
          1   -1    0    0  501    0  0.00000000000E+00  0.00000000000E+00  0.24110151009E+03  0.24110151009E+03  0.00000000000E+00 0. -1.
         -1   -1    0    0    0  501 -0.00000000000E+00 -0.00000000000E+00 -0.78416629482E+02  0.78416629482E+02  0.00000000000E+00 0. -1.
         36    2    1    2    0    0  0.00000000000E+00  0.28421709430E-13  0.16268488061E+03  0.31951813958E+03  0.27500085661E+03 0.  0.
         25    2    3    3    0    0  0.63581152373E+02  0.46191627278E+02  0.66798865812E+02  0.14261963737E+03  0.98498949847E+02 0.  0.
         25    2    3    3    0    0 -0.63581152373E+02 -0.46191627278E+02  0.95886014800E+02  0.17689850221E+03  0.12618527205E+03 0.  0.
          5    1    4    4  502    0  0.20024932212E+02 -0.25856863688E+02 -0.29733059037E+01  0.33173873121E+02  0.47000000000E+01 0.  1.
         -5    1    4    4    0  502  0.43556220161E+02  0.72048490966E+02  0.69772171716E+02  0.10944576424E+03  0.47000000000E+01 0.  1.
          5    1    5    5  503    0 -0.47836088873E+02  0.36984490167E+02  0.22247279091E+02  0.64600118719E+02  0.47000000000E+01 0. -1.
         -5    1    5    5    0  503 -0.15745063500E+02 -0.83176117446E+02  0.73638735709E+02  0.11229838349E+03  0.47000000000E+01 0. -1.
<mgrwt>
<rscale>  0 0.27500086E+03</rscale>
<asrwt>0</asrwt>
<pdfrwt beam="1">  1        1 0.37092539E-01 0.27500086E+03</pdfrwt>
<pdfrwt beam="2">  1       -1 0.12064097E-01 0.27500086E+03</pdfrwt>
<totfact> 0.52170452E+03</totfact>
</mgrwt>
</event>
<event>
 9    1  0.2051157E-002  0.2751361E+03  0.7818608E-02  0.1098376E+00
          2   -1    0    0  501    0  0.00000000000E+00  0.00000000000E+00  0.64825834438E+03  0.64825834438E+03  0.00000000000E+00 0.  1.
         -2   -1    0    0    0  501 -0.00000000000E+00 -0.00000000000E+00 -0.29193568179E+02  0.29193568179E+02  0.00000000000E+00 0.  1.
         36    2    1    2    0    0 -0.71054273576E-14  0.00000000000E+00  0.61906477620E+03  0.67745191256E+03  0.27513614211E+03 0.  0.
         25    2    3    3    0    0 -0.42752874125E+02 -0.21258387346E+02  0.25851677064E+03  0.29117817413E+03  0.12519617051E+03 0.  0.
         25    2    3    3    0    0  0.42752874125E+02  0.21258387346E+02  0.36054800556E+03  0.38627373843E+03  0.13012612884E+03 0.  0.
          5    1    4    4  502    0  0.20309269651E+02  0.18332860096E+01 -0.29953600021E+01  0.21139762366E+02  0.47000000000E+01 0. -1.
         -5    1    4    4    0  502 -0.63062143776E+02 -0.23091673355E+02  0.26151213064E+03  0.27003841176E+03  0.47000000000E+01 0. -1.
          5    1    5    5  503    0 -0.27832197900E+02  0.41625296981E+02  0.67830285407E+02  0.84441306285E+02  0.47000000000E+01 0.  1.
         -5    1    5    5    0  503  0.70585072025E+02 -0.20366909636E+02  0.29271772016E+03  0.30183243214E+03  0.47000000000E+01 0.  1.
<mgrwt>
<rscale>  0 0.27513614E+03</rscale>
<asrwt>0</asrwt>
<pdfrwt beam="1">  1        2 0.99732042E-01 0.27513614E+03</pdfrwt>
<pdfrwt beam="2">  1       -2 0.44913187E-02 0.27513614E+03</pdfrwt>
<totfact> 0.10567862E+04</totfact>
</mgrwt>
</event>
<event>
 9    1  0.2051157E-002  0.2749908E+03  0.7818608E-02  0.1098457E+00
         -4   -1    0    0    0  501 -0.00000000000E+00  0.00000000000E+00  0.84134869469E+02  0.84134869469E+02  0.00000000000E+00 0.  1.
          4   -1    0    0  501    0  0.00000000000E+00 -0.00000000000E+00 -0.22469856004E+03  0.22469856004E+03  0.00000000000E+00 0.  1.
         36    2    1    2    0    0  0.71054273576E-14  0.00000000000E+00 -0.14056369057E+03  0.30883342951E+03  0.27499079271E+03 0.  0.
         25    2    3    3    0    0 -0.24750479831E+02 -0.18440414428E+01 -0.41484228123E+02  0.13226321950E+03  0.12311227115E+03 0.  0.
         25    2    3    3    0    0  0.24750479831E+02  0.18440414428E+01 -0.99079462451E+02  0.17657021002E+03  0.14402885976E+03 0.  0.
          5    1    4    4  502    0  0.21051971986E+02  0.10709622585E+02 -0.71795688711E+02  0.75727091967E+02  0.47000000000E+01 0. -1.
         -5    1    4    4    0  502 -0.45802451817E+02 -0.12553664028E+02  0.30311460588E+02  0.56536127529E+02  0.47000000000E+01 0. -1.
          5    1    5    5  503    0 -0.12095919150E+02  0.54652339870E+02 -0.96858876553E+02  0.11196839501E+03  0.47000000000E+01 0. -1.
         -5    1    5    5    0  503  0.36846398981E+02 -0.52808298428E+02 -0.22205858986E+01  0.64601815009E+02  0.47000000000E+01 0. -1.
<mgrwt>
<rscale>  0 0.27499079E+03</rscale>
<asrwt>0</asrwt>
<pdfrwt beam="1">  1        4 0.34569009E-01 0.27499079E+03</pdfrwt>
<pdfrwt beam="2">  1       -4 0.12943826E-01 0.27499079E+03</pdfrwt>
<totfact> 0.74028775E+02</totfact>
</mgrwt>
</event>
<event>
 9    1  0.2051157E-002  0.2734932E+03  0.7818608E-02  0.1099297E+00
         -2   -1    0    0    0  501 -0.00000000000E+00  0.00000000000E+00  0.21958991268E+02  0.21958991268E+02  0.00000000000E+00 0. -1.
          2   -1    0    0  501    0  0.00000000000E+00 -0.00000000000E+00 -0.85157065102E+03  0.85157065102E+03  0.00000000000E+00 0. -1.
         36    2    1    2    0    0  0.00000000000E+00 -0.71054273576E-14 -0.82961165975E+03  0.87352964229E+03  0.27349319911E+03 0.  0.
         25    2    3    3    0    0  0.34047494585E+02 -0.45386415307E+02 -0.40523690621E+03  0.42797754715E+03  0.12541400292E+03 0.  0.
         25    2    3    3    0    0 -0.34047494585E+02  0.45386415307E+02 -0.42437475354E+03  0.44555209514E+03  0.12330279582E+03 0.  0.
          5    1    4    4  502    0  0.39426144861E+01 -0.63475077126E+01  0.79221989754E+01  0.11861125569E+02  0.47000000000E+01 0. -1.
         -5    1    4    4    0  502  0.30104880099E+02 -0.39038907594E+02 -0.41315910519E+03  0.41611642158E+03  0.47000000000E+01 0. -1.
          5    1    5    5  503    0 -0.87102044320E+01 -0.24516426920E+02 -0.29559281882E+03  0.29677285487E+03  0.47000000000E+01 0.  1.
         -5    1    5    5    0  503 -0.25337290153E+02  0.69902842227E+02 -0.12878193472E+03  0.14877924026E+03  0.47000000000E+01 0.  1.
<mgrwt>
<rscale>  0 0.27349320E+03</rscale>
<asrwt>0</asrwt>
<pdfrwt beam="1">  1        2 0.13101085E+00 0.27349320E+03</pdfrwt>
<pdfrwt beam="2">  1       -2 0.33783068E-02 0.27349320E+03</pdfrwt>
<totfact> 0.11554707E+04</totfact>
</mgrwt>
</event>
<event>
 9    1  0.2051157E-002  0.2752842E+03  0.7818608E-02  0.1098293E+00
          2   -1    0    0  501    0  0.00000000000E+00  0.00000000000E+00  0.16535235300E+04  0.16535235300E+04  0.00000000000E+00 0. -1.
         -2   -1    0    0    0  501 -0.00000000000E+00 -0.00000000000E+00 -0.11457563734E+02  0.11457563734E+02  0.00000000000E+00 0. -1.
         36    2    1    2    0    0 -0.71054273576E-14 -0.88817841970E-15  0.16420659662E+04  0.16649810937E+04  0.27528422570E+03 0.  0.
         25    2    3    3    0    0  0.55789284067E+02  0.24866178092E+01  0.88786382339E+03  0.89817616699E+03  0.12369167552E+03 0.  0.
         25    2    3    3    0    0 -0.55789284067E+02 -0.24866178092E+01  0.75420214285E+03  0.76680492671E+03  0.12668976226E+03 0.  0.
          5    1    4    4  502    0  0.94791105874E+02  0.65148346474E+01  0.67635333655E+03  0.68301077787E+03  0.47000000000E+01 0. -1.
         -5    1    4    4    0  502 -0.39001821807E+02 -0.40282168382E+01  0.21151048684E+03  0.21516538912E+03  0.47000000000E+01 0. -1.
          5    1    5    5  503    0  0.39356620276E+02  0.12174637729E+02  0.26102061501E+03  0.26429342940E+03  0.47000000000E+01 0.  1.
         -5    1    5    5    0  503 -0.95145904342E+02 -0.14661255538E+02  0.49318152784E+03  0.50251149731E+03  0.47000000000E+01 0.  1.
<mgrwt>
<rscale>  0 0.27528423E+03</rscale>
<asrwt>0</asrwt>
<pdfrwt beam="1">  1        2 0.25438805E+00 0.27528423E+03</pdfrwt>
<pdfrwt beam="2">  1       -2 0.17627034E-02 0.27528423E+03</pdfrwt>
<totfact> 0.10525070E+04</totfact>
</mgrwt>
</event>
<event>
 9    1  0.2051157E-002  0.2749614E+03  0.7818608E-02  0.1098473E+00
          2   -1    0    0  501    0  0.00000000000E+00  0.00000000000E+00  0.76777043443E+03  0.76777043443E+03  0.00000000000E+00 0.  1.
         -2   -1    0    0    0  501 -0.00000000000E+00 -0.00000000000E+00 -0.24617956835E+02  0.24617956835E+02  0.00000000000E+00 0.  1.
         36    2    1    2    0    0 -0.35527136788E-14  0.00000000000E+00  0.74315247759E+03  0.79238839127E+03  0.27496137485E+03 0.  0.
         25    2    3    3    0    0  0.29693565041E+02 -0.91576754685E+01  0.53199998196E+03  0.54805586782E+03  0.12796750612E+03 0.  0.
         25    2    3    3    0    0 -0.29693565041E+02  0.91576754685E+01  0.21115249564E+03  0.24433252345E+03  0.11894298960E+03 0.  0.
          5    1    4    4  502    0  0.11370116412E+02 -0.14120302391E+02  0.33273851026E+01  0.19021671285E+02  0.47000000000E+01 0.  1.
         -5    1    4    4    0  502  0.18323448629E+02  0.49626269228E+01  0.52867259686E+03  0.52903419653E+03  0.47000000000E+01 0.  1.
          5    1    5    5  503    0 -0.70891242851E+02 -0.17065373929E+02  0.13975732965E+03  0.15770541047E+03  0.47000000000E+01 0.  1.
         -5    1    5    5    0  503  0.41197677810E+02  0.26223049398E+02  0.71395165984E+02  0.86627112976E+02  0.47000000000E+01 0.  1.
<mgrwt>
<rscale>  0 0.27496137E+03</rscale>
<asrwt>0</asrwt>
<pdfrwt beam="1">  1        2 0.11811851E+00 0.27496137E+03</pdfrwt>
<pdfrwt beam="2">  1       -2 0.37873786E-02 0.27496137E+03</pdfrwt>
<totfact> 0.11118062E+04</totfact>
</mgrwt>
</event>
<event>
 8    1  0.2051157E-002  0.2910555E+03  0.7818608E-02  0.1089799E+00
          1   -1    0    0  501    0  0.00000000000E+00  0.00000000000E+00  0.31662699438E+02  0.31662699438E+02  0.00000000000E+00 0.  1.
         -1   -1    0    0    0  501 -0.00000000000E+00 -0.00000000000E+00 -0.66887308871E+03  0.66887308871E+03  0.00000000000E+00 0.  1.
         25    2    1    2    0    0  0.57916417178E+02 -0.43474939464E+02 -0.26110510340E+03  0.29749787327E+03  0.12281990001E+03 0.  0.
         25    2    1    2    0    0 -0.57916417178E+02  0.43474939464E+02 -0.37610528588E+03  0.40303791488E+03  0.12545912892E+03 0.  0.
          5    1    3    3  502    0  0.83528471140E+02 -0.59003335337E+02 -0.23892074537E+03  0.25993001296E+03  0.47000000000E+01 0.  1.
         -5    1    3    3    0  502 -0.25612053962E+02  0.15528395874E+02 -0.22184358028E+02  0.37567860302E+02  0.47000000000E+01 0.  1.
          5    1    4    4  503    0 -0.91483743358E+02  0.22853795464E+02 -0.32443245789E+03  0.33789063467E+03  0.47000000000E+01 0. -1.
         -5    1    4    4    0  503  0.33567326180E+02  0.20621144000E+02 -0.51672827984E+02  0.65147280209E+02  0.47000000000E+01 0. -1.
<mgrwt>
<rscale>  0 0.29105551E+03</rscale>
<asrwt>0</asrwt>
<pdfrwt beam="1">  1        1 0.48711847E-02 0.29105551E+03</pdfrwt>
<pdfrwt beam="2">  1       -1 0.10290355E+00 0.29105551E+03</pdfrwt>
<totfact> 0.16323747E+03</totfact>
</mgrwt>
</event>
<event>
 9    1  0.2051157E-002  0.2748559E+03  0.7818608E-02  0.1098532E+00
         -3   -1    0    0    0  501 -0.00000000000E+00  0.00000000000E+00  0.24818253739E+02  0.24818253739E+02  0.00000000000E+00 0. -1.
          3   -1    0    0  501    0  0.00000000000E+00 -0.00000000000E+00 -0.76098972099E+03  0.76098972099E+03  0.00000000000E+00 0. -1.
         36    2    1    2    0    0  0.00000000000E+00  0.14210854715E-13 -0.73617146725E+03  0.78580797473E+03  0.27485586032E+03 0.  0.
         25    2    3    3    0    0 -0.11830795722E+02  0.35504373010E+02 -0.26420876678E+03  0.29668684271E+03  0.12967760780E+03 0.  0.
         25    2    3    3    0    0  0.11830795722E+02 -0.35504373010E+02 -0.47196270048E+03  0.48912113202E+03  0.12284202425E+03 0.  0.
          5    1    4    4  502    0 -0.11208141585E+02  0.47077423341E+02 -0.20678354206E+02  0.52835504719E+02  0.47000000000E+01 0.  1.
         -5    1    4    4    0  502 -0.62265413660E+00 -0.11573050331E+02 -0.24353041257E+03  0.24385133799E+03  0.47000000000E+01 0.  1.
          5    1    5    5  503    0  0.79969301386E+01  0.44098055417E+02 -0.22858053377E+03  0.23298012748E+03  0.47000000000E+01 0.  1.
         -5    1    5    5    0  503  0.38338655835E+01 -0.79602428427E+02 -0.24338216671E+03  0.25614100454E+03  0.47000000000E+01 0.  1.
<mgrwt>
<rscale>  0 0.27485586E+03</rscale>
<asrwt>0</asrwt>
<pdfrwt beam="1">  1        3 0.11707536E+00 0.27485586E+03</pdfrwt>
<pdfrwt beam="2">  1       -3 0.38181923E-02 0.27485586E+03</pdfrwt>
<totfact> 0.55690063E+02</totfact>
</mgrwt>
</event>
<event>
 9    1  0.2051157E-002  0.2745385E+03  0.7818608E-02  0.1098710E+00
         -1   -1    0    0    0  501 -0.00000000000E+00  0.00000000000E+00  0.46985709593E+02  0.46985709593E+02  0.00000000000E+00 0.  1.
          1   -1    0    0  501    0  0.00000000000E+00 -0.00000000000E+00 -0.40103360652E+03  0.40103360652E+03  0.00000000000E+00 0.  1.
         36    2    1    2    0    0  0.00000000000E+00  0.71054273576E-14 -0.35404789693E+03  0.44801931611E+03  0.27453851149E+03 0.  0.
         25    2    3    3    0    0  0.42579540408E+02  0.34111375607E+02 -0.17897085874E+03  0.22759652720E+03  0.12958783780E+03 0.  0.
         25    2    3    3    0    0 -0.42579540408E+02 -0.34111375607E+02 -0.17507703819E+03  0.22042278892E+03  0.12230140378E+03 0.  0.
          5    1    4    4  502    0  0.73956119409E+02 -0.31361929885E+01 -0.15764618913E+03  0.17422328849E+03  0.47000000000E+01 0. -1.
         -5    1    4    4    0  502 -0.31376579002E+02  0.37247568595E+02 -0.21324669610E+02  0.53373238707E+02  0.47000000000E+01 0. -1.
          5    1    5    5  503    0 -0.14778898822E+02 -0.63460342319E+02 -0.16646327458E+03  0.17882321629E+03  0.47000000000E+01 0. -1.
         -5    1    5    5    0  503 -0.27800641585E+02  0.29348966712E+02 -0.86137636031E+01  0.41599572631E+02  0.47000000000E+01 0. -1.
<mgrwt>
<rscale>  0 0.27453851E+03</rscale>
<asrwt>0</asrwt>
<pdfrwt beam="1">  1        1 0.61697480E-01 0.27453851E+03</pdfrwt>
<pdfrwt beam="2">  1       -1 0.72285705E-02 0.27453851E+03</pdfrwt>
<totfact> 0.60390472E+03</totfact>
</mgrwt>
</event>
<event>
 9    1  0.2051157E-002  0.2751153E+03  0.7818608E-02  0.1098387E+00
         -4   -1    0    0    0  501 -0.00000000000E+00  0.00000000000E+00  0.21146848884E+03  0.21146848884E+03  0.00000000000E+00 0. -1.
          4   -1    0    0  501    0  0.00000000000E+00 -0.00000000000E+00 -0.89479581528E+02  0.89479581528E+02  0.00000000000E+00 0. -1.
         36    2    1    2    0    0 -0.71054273576E-14  0.00000000000E+00  0.12198890731E+03  0.30094807037E+03  0.27511533500E+03 0.  0.
         25    2    3    3    0    0 -0.28584438780E+02  0.57133989166E+02  0.74029456267E+02  0.15737694204E+03  0.12331171328E+03 0.  0.
         25    2    3    3    0    0  0.28584438780E+02 -0.57133989166E+02  0.47959451043E+02  0.14357112833E+03  0.11929458113E+03 0.  0.
          5    1    4    4  502    0  0.13760575163E+01 -0.12525413212E+02 -0.27474147181E+02  0.30589185569E+02  0.47000000000E+01 0.  1.
         -5    1    4    4    0  502 -0.29960496296E+02  0.69659402378E+02  0.10150360345E+03  0.12678775647E+03  0.47000000000E+01 0.  1.
          5    1    5    5  503    0  0.45694159271E+02 -0.71327063038E+02  0.71429509861E+02  0.11090433261E+03  0.47000000000E+01 0. -1.
         -5    1    5    5    0  503 -0.17109720491E+02  0.14193073873E+02 -0.23470058819E+02  0.32666795714E+02  0.47000000000E+01 0. -1.
<mgrwt>
<rscale>  0 0.27511533E+03</rscale>
<asrwt>0</asrwt>
<pdfrwt beam="1">  1        4 0.13766090E-01 0.27511533E+03</pdfrwt>
<pdfrwt beam="2">  1       -4 0.32533613E-01 0.27511533E+03</pdfrwt>
<totfact> 0.74792099E+02</totfact>
</mgrwt>
</event>
<event>
 9    1  0.2051157E-002  0.2741487E+03  0.7818608E-02  0.1098928E+00
         -1   -1    0    0    0  501 -0.00000000000E+00  0.00000000000E+00  0.10129337272E+02  0.10129337272E+02  0.00000000000E+00 0. -1.
          1   -1    0    0  501    0  0.00000000000E+00 -0.00000000000E+00 -0.18549467045E+04  0.18549467045E+04  0.00000000000E+00 0. -1.
         36    2    1    2    0    0  0.35527136788E-14  0.00000000000E+00 -0.18448173672E+04  0.18650760417E+04  0.27414872454E+03 0.  0.
         25    2    3    3    0    0  0.17051655679E+02  0.45373485173E+02 -0.12162769144E+04  0.12237557317E+04  0.12609142080E+03 0.  0.
         25    2    3    3    0    0 -0.17051655679E+02 -0.45373485173E+02 -0.62854045283E+03  0.64132031001E+03  0.11780970704E+03 0.  0.
          5    1    4    4  502    0  0.61706677816E+02 -0.65118807318E+01 -0.42828952889E+03  0.43278647072E+03  0.47000000000E+01 0.  1.
         -5    1    4    4    0  502 -0.44655022136E+02  0.51885365905E+02 -0.78798738548E+03  0.79096926101E+03  0.47000000000E+01 0.  1.
          5    1    5    5  503    0  0.31711603999E+02 -0.53724960119E+02 -0.49305079176E+03  0.49700419558E+03  0.47000000000E+01 0. -1.
         -5    1    5    5    0  503 -0.48763259679E+02  0.83514749456E+01 -0.13548966107E+03  0.14431611443E+03  0.47000000000E+01 0. -1.
<mgrwt>
<rscale>  0 0.27414872E+03</rscale>
<asrwt>0</asrwt>
<pdfrwt beam="1">  1        1 0.28537611E+00 0.27414872E+03</pdfrwt>
<pdfrwt beam="2">  1       -1 0.15583613E-02 0.27414872E+03</pdfrwt>
<totfact> 0.41375710E+03</totfact>
</mgrwt>
</event>
<event>
 9    1  0.2051157E-002  0.2752416E+03  0.7818608E-02  0.1098317E+00
         -2   -1    0    0    0  501 -0.00000000000E+00  0.00000000000E+00  0.45974282882E+02  0.45974282882E+02  0.00000000000E+00 0.  1.
          2   -1    0    0  501    0  0.00000000000E+00 -0.00000000000E+00 -0.41195816621E+03  0.41195816621E+03  0.00000000000E+00 0.  1.
         36    2    1    2    0    0  0.00000000000E+00 -0.44408920985E-14 -0.36598388333E+03  0.45793244909E+03  0.27524157585E+03 0.  0.
         25    2    3    3    0    0 -0.75321051471E+01  0.41221329252E+01 -0.10011650750E+03  0.16074153081E+03  0.12546234521E+03 0.  0.
         25    2    3    3    0    0  0.75321051471E+01 -0.41221329252E+01 -0.26586737583E+03  0.29719091828E+03  0.13252643432E+03 0.  0.
          5    1    4    4  502    0  0.36811264072E+02 -0.45463831413E+02 -0.53129546351E+02  0.79163551113E+02  0.47000000000E+01 0. -1.
         -5    1    4    4    0  502 -0.44343369219E+02  0.49585964338E+02 -0.46986961148E+02  0.81577979694E+02  0.47000000000E+01 0. -1.
          5    1    5    5  503    0 -0.60488790955E+02  0.47568958227E+00 -0.90277394767E+02  0.10877140303E+03  0.47000000000E+01 0.  1.
         -5    1    5    5    0  503  0.68020896102E+02 -0.45978225074E+01 -0.17558998106E+03  0.18841951525E+03  0.47000000000E+01 0.  1.
<mgrwt>
<rscale>  0 0.27524158E+03</rscale>
<asrwt>0</asrwt>
<pdfrwt beam="1">  1        2 0.63378179E-01 0.27524158E+03</pdfrwt>
<pdfrwt beam="2">  1       -2 0.70729667E-02 0.27524158E+03</pdfrwt>
<totfact> 0.88038902E+03</totfact>
</mgrwt>
</event>
<event>
 9    1  0.2051157E-002  0.2736779E+03  0.7818608E-02  0.1099193E+00
         -2   -1    0    0    0  501 -0.00000000000E+00  0.00000000000E+00  0.21722857159E+02  0.21722857159E+02  0.00000000000E+00 0.  1.
          2   -1    0    0  501    0  0.00000000000E+00 -0.00000000000E+00 -0.86199086874E+03  0.86199086874E+03  0.00000000000E+00 0.  1.
         36    2    1    2    0    0 -0.71054273576E-14  0.00000000000E+00 -0.84026801158E+03  0.88371372590E+03  0.27367794587E+03 0.  0.
         25    2    3    3    0    0  0.86053457847E+01  0.30851078251E+02 -0.42198303686E+03  0.44107891478E+03  0.12431848076E+03 0.  0.
         25    2    3    3    0    0 -0.86053457847E+01 -0.30851078251E+02 -0.41828497472E+03  0.44263481112E+03  0.14119991123E+03 0.  0.
          5    1    4    4  502    0  0.51733182747E+02 -0.23062937933E+01 -0.33029900071E+03  0.33436680616E+03  0.47000000000E+01 0. -1.
         -5    1    4    4    0  502 -0.43127836962E+02  0.33157372045E+02 -0.91684036146E+02  0.10671210862E+03  0.47000000000E+01 0. -1.
          5    1    5    5  503    0 -0.66717921838E+02 -0.34882693985E+02 -0.14812862117E+03  0.16622954564E+03  0.47000000000E+01 0. -1.
         -5    1    5    5    0  503  0.58112576053E+02  0.40316157334E+01 -0.27015635355E+03  0.27640526548E+03  0.47000000000E+01 0. -1.
<mgrwt>
<rscale>  0 0.27367795E+03</rscale>
<asrwt>0</asrwt>
<pdfrwt beam="1">  1        2 0.13261398E+00 0.27367795E+03</pdfrwt>
<pdfrwt beam="2">  1       -2 0.33419781E-02 0.27367795E+03</pdfrwt>
<totfact> 0.11557621E+04</totfact>
</mgrwt>
</event>
<event>
 9    1  0.2051157E-002  0.2738374E+03  0.7818608E-02  0.1099103E+00
         -1   -1    0    0    0  501 -0.00000000000E+00  0.00000000000E+00  0.14688888964E+02  0.14688888964E+02  0.00000000000E+00 0. -1.
          1   -1    0    0  501    0  0.00000000000E+00 -0.00000000000E+00 -0.12762519892E+04  0.12762519892E+04  0.00000000000E+00 0. -1.
         36    2    1    2    0    0  0.00000000000E+00 -0.71054273576E-14 -0.12615631002E+04  0.12909408782E+04  0.27383735143E+03 0.  0.
         25    2    3    3    0    0  0.29204965044E+01  0.38949700933E+02 -0.81820469584E+03  0.82852256937E+03  0.12435881615E+03 0.  0.
         25    2    3    3    0    0 -0.29204965044E+01 -0.38949700933E+02 -0.44335840441E+03  0.46241830881E+03  0.12545281607E+03 0.  0.
          5    1    4    4  502    0 -0.53470979719E+02  0.49197399196E+02 -0.46577723998E+03  0.47143404315E+03  0.47000000000E+01 0.  1.
         -5    1    4    4    0  502  0.56391476224E+02 -0.10247698263E+02 -0.35242745586E+03  0.35708852622E+03  0.47000000000E+01 0.  1.
          5    1    5    5  503    0 -0.38851878357E+02 -0.52784697887E+02 -0.39498713430E+03  0.40041555795E+03  0.47000000000E+01 0.  1.
         -5    1    5    5    0  503  0.35931381852E+02  0.13834996954E+02 -0.48371270107E+02  0.62002750861E+02  0.47000000000E+01 0.  1.
<mgrwt>
<rscale>  0 0.27383735E+03</rscale>
<asrwt>0</asrwt>
<pdfrwt beam="1">  1        1 0.19634644E+00 0.27383735E+03</pdfrwt>
<pdfrwt beam="2">  1       -1 0.22598293E-02 0.27383735E+03</pdfrwt>
<totfact> 0.58062368E+03</totfact>
</mgrwt>
</event>
<event>
 9    1  0.2051157E-002  0.2753547E+03  0.7818608E-02  0.1098254E+00
          2   -1    0    0  501    0  0.00000000000E+00  0.00000000000E+00  0.12636052796E+03  0.12636052796E+03  0.00000000000E+00 0.  1.
         -2   -1    0    0    0  501 -0.00000000000E+00 -0.00000000000E+00 -0.15000765407E+03  0.15000765407E+03  0.00000000000E+00 0.  1.
         36    2    1    2    0    0  0.14210854715E-13 -0.71054273576E-14 -0.23647126106E+02  0.27636818203E+03  0.27535465398E+03 0.  0.
         25    2    3    3    0    0  0.50245201557E+02  0.28391896996E+02 -0.31859105647E+02  0.13802735240E+03  0.12126775046E+03 0.  0.
         25    2    3    3    0    0 -0.50245201557E+02 -0.28391896996E+02  0.82119795414E+01  0.13834082963E+03  0.12545942946E+03 0.  0.
          5    1    4    4  502    0  0.15982263721E+02  0.74677560755E+02 -0.18905282431E+02  0.78814151887E+02  0.47000000000E+01 0.  1.
         -5    1    4    4    0  502  0.34262937836E+02 -0.46285663759E+02 -0.12953823217E+02  0.59213200510E+02  0.47000000000E+01 0.  1.
          5    1    5    5  503    0 -0.91493830279E+02 -0.83427027401E+01  0.55451615476E+01  0.92160514781E+02  0.47000000000E+01 0. -1.
         -5    1    5    5    0  503  0.41248628722E+02 -0.20049194256E+02  0.26668179939E+01  0.46180314853E+02  0.47000000000E+01 0. -1.
<mgrwt>
<rscale>  0 0.27535465E+03</rscale>
<asrwt>0</asrwt>
<pdfrwt beam="1">  1        2 0.19440081E-01 0.27535465E+03</pdfrwt>
<pdfrwt beam="2">  1       -2 0.23078101E-01 0.27535465E+03</pdfrwt>
<totfact> 0.46699274E+03</totfact>
</mgrwt>
</event>
<event>
 9    1  0.2051157E-002  0.2751007E+03  0.7818608E-02  0.1098395E+00
         -2   -1    0    0    0  501 -0.00000000000E+00  0.00000000000E+00  0.50635332588E+02  0.50635332588E+02  0.00000000000E+00 0.  1.
          2   -1    0    0  501    0  0.00000000000E+00 -0.00000000000E+00 -0.37365418141E+03  0.37365418141E+03  0.00000000000E+00 0.  1.
         36    2    1    2    0    0  0.71054273576E-14  0.14210854715E-13 -0.32301884882E+03  0.42428951400E+03  0.27510073609E+03 0.  0.
         25    2    3    3    0    0 -0.34206842105E+01 -0.52550614546E+02 -0.13077577199E+03  0.19019456730E+03  0.12766519777E+03 0.  0.
         25    2    3    3    0    0  0.34206842105E+01  0.52550614546E+02 -0.19224307683E+03  0.23409494670E+03  0.12275901315E+03 0.  0.
          5    1    4    4  502    0  0.51636958083E+02 -0.10963664453E+01 -0.91278524259E+02  0.10498302934E+03  0.47000000000E+01 0.  1.
         -5    1    4    4    0  502 -0.55057642294E+02 -0.51454248101E+02 -0.39497247736E+02  0.85211537959E+02  0.47000000000E+01 0.  1.
          5    1    5    5  503    0  0.35347726649E+02  0.73954395600E+02 -0.77153443695E+02  0.11266524878E+03  0.47000000000E+01 0.  1.
         -5    1    5    5    0  503 -0.31927042438E+02 -0.21403781054E+02 -0.11508963313E+03  0.12142969792E+03  0.47000000000E+01 0.  1.
<mgrwt>
<rscale>  0 0.27510074E+03</rscale>
<asrwt>0</asrwt>
<pdfrwt beam="1">  1        2 0.57485257E-01 0.27510074E+03</pdfrwt>
<pdfrwt beam="2">  1       -2 0.77900514E-02 0.27510074E+03</pdfrwt>
<totfact> 0.84231665E+03</totfact>
</mgrwt>
</event>
<event>
 9    1  0.2051157E-002  0.2747631E+03  0.7818608E-02  0.1098584E+00
          2   -1    0    0  501    0  0.00000000000E+00  0.00000000000E+00  0.96395685333E+03  0.96395685333E+03  0.00000000000E+00 0. -1.
         -2   -1    0    0    0  501 -0.00000000000E+00 -0.00000000000E+00 -0.19579389934E+02  0.19579389934E+02  0.00000000000E+00 0. -1.
         36    2    1    2    0    0 -0.71054273576E-14 -0.71054273576E-14  0.94437746340E+03  0.98353624327E+03  0.27476307693E+03 0.  0.
         25    2    3    3    0    0  0.38308364314E+02 -0.33938847288E+02  0.41418929314E+03  0.43620674201E+03  0.12690222649E+03 0.  0.
         25    2    3    3    0    0 -0.38308364314E+02  0.33938847288E+02  0.53018817026E+03  0.54732950126E+03  0.12589960657E+03 0.  0.
          5    1    4    4  502    0 -0.34068574378E+02 -0.24437048603E+02  0.53289152908E+02  0.67968087528E+02  0.47000000000E+01 0.  1.
         -5    1    4    4    0  502  0.72376938692E+02 -0.95017986848E+01  0.36090014023E+03  0.36823865448E+03  0.47000000000E+01 0.  1.
          5    1    5    5  503    0 -0.19367463926E+02  0.30728786449E+02  0.52579601123E+03  0.52707010198E+03  0.47000000000E+01 0. -1.
         -5    1    5    5    0  503 -0.18940900388E+02  0.32100608388E+01  0.43921590239E+01  0.20259399275E+02  0.47000000000E+01 0. -1.
<mgrwt>
<rscale>  0 0.27476308E+03</rscale>
<asrwt>0</asrwt>
<pdfrwt beam="1">  1        2 0.14830102E+00 0.27476308E+03</pdfrwt>
<pdfrwt beam="2">  1       -2 0.30122146E-02 0.27476308E+03</pdfrwt>
<totfact> 0.11608812E+04</totfact>
</mgrwt>
</event>
<event>
 9    1  0.2051157E-002  0.2764402E+03  0.7818608E-02  0.1097649E+00
         -2   -1    0    0    0  501 -0.00000000000E+00  0.00000000000E+00  0.16122253979E+02  0.16122253979E+02  0.00000000000E+00 0.  1.
          2   -1    0    0  501    0  0.00000000000E+00 -0.00000000000E+00 -0.11849951154E+04  0.11849951154E+04  0.00000000000E+00 0.  1.
         36    2    1    2    0    0  0.71054273576E-14 -0.17763568394E-14 -0.11688728614E+04  0.12011173694E+04  0.27644017229E+03 0.  0.
         25    2    3    3    0    0  0.49515719266E+02  0.15319606653E+02 -0.48080286546E+03  0.50152429552E+03  0.13292376295E+03 0.  0.
         25    2    3    3    0    0 -0.49515719266E+02 -0.15319606653E+02 -0.68806999594E+03  0.69959307384E+03  0.11534146198E+03 0.  0.
          5    1    4    4  502    0  0.69285288976E+02  0.14974768796E+02 -0.47514709194E+03  0.48042850035E+03  0.47000000000E+01 0.  1.
         -5    1    4    4    0  502 -0.19769569709E+02  0.34483785717E+00 -0.56557735205E+01  0.21095795167E+02  0.47000000000E+01 0.  1.
          5    1    5    5  503    0 -0.83566664075E+01  0.51446111823E+00 -0.60788327588E+03  0.60795909865E+03  0.47000000000E+01 0. -1.
         -5    1    5    5    0  503 -0.41159052859E+02 -0.15834067771E+02 -0.80186720064E+02  0.91633975190E+02  0.47000000000E+01 0. -1.
<mgrwt>
<rscale>  0 0.27644017E+03</rscale>
<asrwt>0</asrwt>
<pdfrwt beam="1">  1        2 0.18230694E+00 0.27644017E+03</pdfrwt>
<pdfrwt beam="2">  1       -2 0.24803467E-02 0.27644017E+03</pdfrwt>
<totfact> 0.11446057E+04</totfact>
</mgrwt>
</event>
<event>
 9    1  0.2051157E-002  0.2750911E+03  0.7818608E-02  0.1098401E+00
         -1   -1    0    0    0  501 -0.00000000000E+00  0.00000000000E+00  0.32731594812E+02  0.32731594812E+02  0.00000000000E+00 0. -1.
          1   -1    0    0  501    0  0.00000000000E+00 -0.00000000000E+00 -0.57799726277E+03  0.57799726277E+03  0.00000000000E+00 0. -1.
         36    2    1    2    0    0 -0.35527136788E-14  0.71054273576E-14 -0.54526566796E+03  0.61072885758E+03  0.27509105553E+03 0.  0.
         25    2    3    3    0    0 -0.19887165771E+02  0.40442670793E+02 -0.36532746835E+03  0.38906572020E+03  0.12600343851E+03 0.  0.
         25    2    3    3    0    0  0.19887165771E+02 -0.40442670793E+02 -0.17993819961E+03  0.22166313739E+03  0.12134942033E+03 0.  0.
          5    1    4    4  502    0 -0.36489721676E+02 -0.28111665196E+02 -0.60701811884E+02  0.76345042237E+02  0.47000000000E+01 0. -1.
         -5    1    4    4    0  502  0.16602555905E+02  0.68554335989E+02 -0.30462565647E+03  0.31272067796E+03  0.47000000000E+01 0. -1.
          5    1    5    5  503    0  0.56385348111E+02 -0.47106446635E+02 -0.16627823153E+03  0.18184846735E+03  0.47000000000E+01 0.  1.
         -5    1    5    5    0  503 -0.36498182340E+02  0.66637758421E+01 -0.13659968082E+02  0.39814670043E+02  0.47000000000E+01 0.  1.
<mgrwt>
<rscale>  0 0.27509106E+03</rscale>
<asrwt>0</asrwt>
<pdfrwt beam="1">  1        1 0.88922653E-01 0.27509106E+03</pdfrwt>
<pdfrwt beam="2">  1       -1 0.50356301E-02 0.27509106E+03</pdfrwt>
<totfact> 0.64267191E+03</totfact>
</mgrwt>
</event>
<event>
 9    1  0.2051157E-002  0.2753423E+03  0.7818608E-02  0.1098260E+00
          2   -1    0    0  501    0  0.00000000000E+00  0.00000000000E+00  0.63375133370E+03  0.63375133370E+03  0.00000000000E+00 0. -1.
         -2   -1    0    0    0  501 -0.00000000000E+00 -0.00000000000E+00 -0.29906591697E+02  0.29906591697E+02  0.00000000000E+00 0. -1.
         36    2    1    2    0    0 -0.71054273576E-14  0.00000000000E+00  0.60384474200E+03  0.66365792539E+03  0.27534227699E+03 0.  0.
         25    2    3    3    0    0  0.34197935505E+02 -0.50377450121E+02  0.32834390364E+03  0.35563502790E+03  0.12230767652E+03 0.  0.
         25    2    3    3    0    0 -0.34197935505E+02  0.50377450121E+02  0.27550083836E+03  0.30802289750E+03  0.12357187047E+03 0.  0.
          5    1    4    4  502    0 -0.13920627724E+02 -0.51538135540E+02  0.28714746462E+03  0.29210566535E+03  0.47000000000E+01 0.  1.
         -5    1    4    4    0  502  0.48118563229E+02  0.11606854189E+01  0.41196439019E+02  0.63529362548E+02  0.47000000000E+01 0.  1.
          5    1    5    5  503    0  0.26642512968E+01  0.86039385121E+02  0.16861527773E+03  0.18937548921E+03  0.47000000000E+01 0.  1.
         -5    1    5    5    0  503 -0.36862186802E+02 -0.35661935000E+02  0.10688556063E+03  0.11864740829E+03  0.47000000000E+01 0.  1.
<mgrwt>
<rscale>  0 0.27534228E+03</rscale>
<asrwt>0</asrwt>
<pdfrwt beam="1">  1        2 0.97500195E-01 0.27534228E+03</pdfrwt>
<pdfrwt beam="2">  1       -2 0.46010146E-02 0.27534228E+03</pdfrwt>
<totfact> 0.10465568E+04</totfact>
</mgrwt>
</event>
<event>
 9    1  0.2051157E-002  0.2755539E+03  0.7818608E-02  0.1098142E+00
         -2   -1    0    0    0  501 -0.00000000000E+00  0.00000000000E+00  0.10110486782E+02  0.10110486782E+02  0.00000000000E+00 0.  1.
          2   -1    0    0  501    0  0.00000000000E+00 -0.00000000000E+00 -0.18775048043E+04  0.18775048043E+04  0.00000000000E+00 0.  1.
         36    2    1    2    0    0  0.00000000000E+00  0.00000000000E+00 -0.18673943175E+04  0.18876152911E+04  0.27555389677E+03 0.  0.
         25    2    3    3    0    0  0.50316900106E+02 -0.19591167869E+02 -0.72526218849E+03  0.73798309779E+03  0.12529248294E+03 0.  0.
         25    2    3    3    0    0 -0.50316900106E+02  0.19591167869E+02 -0.11421321290E+04  0.11496321933E+04  0.11946872139E+03 0.  0.
          5    1    4    4  502    0  0.60302542470E+02  0.16079936480E+02 -0.65867058145E+03  0.66163735222E+03  0.47000000000E+01 0.  1.
         -5    1    4    4    0  502 -0.99856423644E+01 -0.35671104349E+02 -0.66591607038E+02  0.76345745571E+02  0.47000000000E+01 0.  1.
          5    1    5    5  503    0 -0.61953383647E+02 -0.37452728543E+02 -0.60527811224E+03  0.60961021298E+03  0.47000000000E+01 0.  1.
         -5    1    5    5    0  503  0.11636483542E+02  0.57043896412E+02 -0.53685401677E+03  0.54002198028E+03  0.47000000000E+01 0.  1.
<mgrwt>
<rscale>  0 0.27555390E+03</rscale>
<asrwt>0</asrwt>
<pdfrwt beam="1">  1        2 0.28884662E+00 0.27555390E+03</pdfrwt>
<pdfrwt beam="2">  1       -2 0.15554610E-02 0.27555390E+03</pdfrwt>
<totfact> 0.96399557E+03</totfact>
</mgrwt>
</event>
<event>
 9    1  0.2051157E-002  0.2747815E+03  0.7818608E-02  0.1098574E+00
          2   -1    0    0  501    0  0.00000000000E+00  0.00000000000E+00  0.10885794948E+04  0.10885794948E+04  0.00000000000E+00 0. -1.
         -2   -1    0    0    0  501 -0.00000000000E+00 -0.00000000000E+00 -0.17340231438E+02  0.17340231438E+02  0.00000000000E+00 0. -1.
         36    2    1    2    0    0  0.00000000000E+00 -0.35527136788E-14  0.10712392634E+04  0.11059197263E+04  0.27478151596E+03 0.  0.
         25    2    3    3    0    0  0.59757091188E+02 -0.20891059663E+02  0.65054999907E+03  0.66536516106E+03  0.12445139591E+03 0.  0.
         25    2    3    3    0    0 -0.59757091188E+02  0.20891059663E+02  0.42068926432E+03  0.44055456520E+03  0.11446187788E+03 0.  0.
          5    1    4    4  502    0  0.42879399963E+02  0.12258296230E+02  0.67064236489E+02  0.80675960381E+02  0.47000000000E+01 0. -1.
         -5    1    4    4    0  502  0.16877691225E+02 -0.33149355893E+02  0.58348576258E+03  0.58468920068E+03  0.47000000000E+01 0. -1.
          5    1    5    5  503    0 -0.75705979504E+02  0.44211721196E+02  0.38453494140E+03  0.39443032691E+03  0.47000000000E+01 0. -1.
         -5    1    5    5    0  503  0.15948888316E+02 -0.23320661534E+02  0.36154322912E+02  0.46124238292E+02  0.47000000000E+01 0. -1.
<mgrwt>
<rscale>  0 0.27478152E+03</rscale>
<asrwt>0</asrwt>
<pdfrwt beam="1">  1        2 0.16747372E+00 0.27478152E+03</pdfrwt>
<pdfrwt beam="2">  1       -2 0.26677288E-02 0.27478152E+03</pdfrwt>
<totfact> 0.11685618E+04</totfact>
</mgrwt>
</event>
<event>
 9    1  0.2051157E-002  0.2746630E+03  0.7818608E-02  0.1098640E+00
          1   -1    0    0  501    0  0.00000000000E+00  0.00000000000E+00  0.79841870420E+03  0.79841870420E+03  0.00000000000E+00 0.  1.
         -1   -1    0    0    0  501 -0.00000000000E+00 -0.00000000000E+00 -0.23621619190E+02  0.23621619190E+02  0.00000000000E+00 0.  1.
         36    2    1    2    0    0  0.00000000000E+00  0.00000000000E+00  0.77479708501E+03  0.82204032339E+03  0.27466301233E+03 0.  0.
         25    2    3    3    0    0  0.16330709595E+02  0.10424277596E+01  0.23672961326E+03  0.26858070477E+03  0.12580503349E+03 0.  0.
         25    2    3    3    0    0 -0.16330709595E+02 -0.10424277596E+01  0.53806747175E+03  0.55345961862E+03  0.12858136161E+03 0.  0.
          5    1    4    4  502    0  0.53853957182E+02 -0.35580540371E+02  0.17955284466E+03  0.19085999472E+03  0.47000000000E+01 0.  1.
         -5    1    4    4    0  502 -0.37523247587E+02  0.36622968130E+02  0.57176768597E+02  0.77720710054E+02  0.47000000000E+01 0.  1.
          5    1    5    5  503    0  0.35275434069E+02 -0.31888523128E+02  0.95346809949E+02  0.10665054301E+03  0.47000000000E+01 0. -1.
         -5    1    5    5    0  503 -0.51606143664E+02  0.30846095369E+02  0.44272066180E+03  0.44680907561E+03  0.47000000000E+01 0. -1.
<mgrwt>
<rscale>  0 0.27466301E+03</rscale>
<asrwt>0</asrwt>
<pdfrwt beam="1">  1        1 0.12283363E+00 0.27466301E+03</pdfrwt>
<pdfrwt beam="2">  1       -1 0.36340959E-02 0.27466301E+03</pdfrwt>
<totfact> 0.65451613E+03</totfact>
</mgrwt>
</event>
<event>
 9    1  0.2051157E-002  0.2735218E+03  0.7818608E-02  0.1099281E+00
         -1   -1    0    0    0  501 -0.00000000000E+00  0.00000000000E+00  0.11568256023E+03  0.11568256023E+03  0.00000000000E+00 0.  1.
          1   -1    0    0  501    0  0.00000000000E+00 -0.00000000000E+00 -0.16167985490E+03  0.16167985490E+03  0.00000000000E+00 0.  1.
         36    2    1    2    0    0  0.00000000000E+00  0.35527136788E-14 -0.45997294666E+02  0.27736241513E+03  0.27352176917E+03 0.  0.
         25    2    3    3    0    0  0.16903123515E+02  0.61337970881E+01 -0.76090067638E+02  0.14673642096E+03  0.12417141294E+03 0.  0.
         25    2    3    3    0    0 -0.16903123515E+02 -0.61337970881E+01  0.30092772972E+02  0.13062599416E+03  0.12583416196E+03 0.  0.
          5    1    4    4  502    0  0.14420744778E+02  0.37370672406E+02  0.20385637174E+02  0.45190587947E+02  0.47000000000E+01 0. -1.
         -5    1    4    4    0  502  0.24823787376E+01 -0.31236875317E+02 -0.96475704812E+02  0.10154583301E+03  0.47000000000E+01 0. -1.
          5    1    5    5  503    0 -0.36601157813E+02 -0.59408880399E+02  0.20047217999E+02  0.72753287025E+02  0.47000000000E+01 0.  1.
         -5    1    5    5    0  503  0.19698034298E+02  0.53275083311E+02  0.10045554972E+02  0.57872707139E+02  0.47000000000E+01 0.  1.
<mgrwt>
<rscale>  0 0.27352177E+03</rscale>
<asrwt>0</asrwt>
<pdfrwt beam="1">  1        1 0.24873824E-01 0.27352177E+03</pdfrwt>
<pdfrwt beam="2">  1       -1 0.17797317E-01 0.27352177E+03</pdfrwt>
<totfact> 0.46652631E+03</totfact>
</mgrwt>
</event>
<event>
 9    1  0.2051157E-002  0.2778449E+03  0.7818608E-02  0.1096872E+00
          2   -1    0    0  501    0  0.00000000000E+00  0.00000000000E+00  0.76610952254E+03  0.76610952254E+03  0.00000000000E+00 0. -1.
         -2   -1    0    0    0  501 -0.00000000000E+00 -0.00000000000E+00 -0.25191500254E+02  0.25191500254E+02  0.00000000000E+00 0. -1.
         36    2    1    2    0    0  0.00000000000E+00 -0.66613381478E-15  0.74091802229E+03  0.79130102279E+03  0.27784490805E+03 0.  0.
         25    2    3    3    0    0  0.53008463711E+02 -0.62842437968E+00  0.35072423198E+03  0.37770574912E+03  0.12978387371E+03 0.  0.
         25    2    3    3    0    0 -0.53008463711E+02  0.62842437968E+00  0.39019379031E+03  0.41359527368E+03  0.12648938403E+03 0.  0.
          5    1    4    4  502    0  0.95652694366E+02  0.11043192095E+01  0.26611767970E+03  0.28282745077E+03  0.47000000000E+01 0. -1.
         -5    1    4    4    0  502 -0.42644230655E+02 -0.17327435892E+01  0.84606552275E+02  0.94878298343E+02  0.47000000000E+01 0. -1.
          5    1    5    5  503    0 -0.31585756674E+02 -0.46661281329E+02  0.32616663860E+03  0.33103126943E+03  0.47000000000E+01 0. -1.
         -5    1    5    5    0  503 -0.21422707037E+02  0.47289705709E+02  0.64027151704E+02  0.82564004252E+02  0.47000000000E+01 0. -1.
<mgrwt>
<rscale>  0 0.27784491E+03</rscale>
<asrwt>0</asrwt>
<pdfrwt beam="1">  1        2 0.11786299E+00 0.27784491E+03</pdfrwt>
<pdfrwt beam="2">  1       -2 0.38756160E-02 0.27784491E+03</pdfrwt>
<totfact> 0.10773236E+04</totfact>
</mgrwt>
</event>
<event>
 9    1  0.2051157E-002  0.2755415E+03  0.7818608E-02  0.1098149E+00
          2   -1    0    0  501    0  0.00000000000E+00  0.00000000000E+00  0.66481753378E+03  0.66481753378E+03  0.00000000000E+00 0. -1.
         -2   -1    0    0    0  501 -0.00000000000E+00 -0.00000000000E+00 -0.28550352002E+02  0.28550352002E+02  0.00000000000E+00 0. -1.
         36    2    1    2    0    0  0.00000000000E+00 -0.35527136788E-14  0.63626718178E+03  0.69336788578E+03  0.27554146408E+03 0.  0.
         25    2    3    3    0    0  0.51750955534E+02 -0.78153679229E+01  0.34770626092E+03  0.37355498563E+03  0.12611281470E+03 0.  0.
         25    2    3    3    0    0 -0.51750955534E+02  0.78153679229E+01  0.28856092086E+03  0.31981290015E+03  0.12756819621E+03 0.  0.
          5    1    4    4  502    0  0.34624958850E+02 -0.55299195092E+02  0.28749766173E+03  0.29484552609E+03  0.47000000000E+01 0. -1.
         -5    1    4    4    0  502  0.17125996684E+02  0.47483827169E+02  0.60208599193E+02  0.78709459545E+02  0.47000000000E+01 0. -1.
          5    1    5    5  503    0  0.17073345878E+02  0.16023529364E+02  0.22305060634E+03  0.22432546806E+03  0.47000000000E+01 0.  1.
         -5    1    5    5    0  503 -0.68824301412E+02 -0.82081614415E+01  0.65510314520E+02  0.95487432093E+02  0.47000000000E+01 0.  1.
<mgrwt>
<rscale>  0 0.27554146E+03</rscale>
<asrwt>0</asrwt>
<pdfrwt beam="1">  1        2 0.10227961E+00 0.27554146E+03</pdfrwt>
<pdfrwt beam="2">  1       -2 0.43923623E-02 0.27554146E+03</pdfrwt>
<totfact> 0.10607102E+04</totfact>
</mgrwt>
</event>
<event>
 9    1  0.2051157E-002  0.2897552E+03  0.7818608E-02  0.1090477E+00
          2   -1    0    0  501    0  0.00000000000E+00  0.00000000000E+00  0.34159392825E+03  0.34159392825E+03  0.00000000000E+00 0.  1.
         -2   -1    0    0    0  501 -0.00000000000E+00 -0.00000000000E+00 -0.61445822816E+02  0.61445822816E+02  0.00000000000E+00 0.  1.
         36    2    1    2    0    0  0.71054273576E-14  0.00000000000E+00  0.28014810543E+03  0.40303975106E+03  0.28975520696E+03 0.  0.
         25    2    3    3    0    0 -0.29185422389E+02  0.57723393204E+02  0.20104888878E+03  0.24392289215E+03  0.12204074169E+03 0.  0.
         25    2    3    3    0    0  0.29185422389E+02 -0.57723393204E+02  0.79099216646E+02  0.15911685891E+03  0.12197421741E+03 0.  0.
          5    1    4    4  502    0  0.42319454574E+02 -0.44703485521E+01  0.71586028521E+02  0.83412047877E+02  0.47000000000E+01 0.  1.
         -5    1    4    4    0  502 -0.71504876963E+02  0.62193741756E+02  0.12946286026E+03  0.16051084428E+03  0.47000000000E+01 0.  1.
          5    1    5    5  503    0  0.64867392952E+02 -0.64335563563E+02  0.26873352184E+02  0.95347314932E+02  0.47000000000E+01 0.  1.
         -5    1    5    5    0  503 -0.35681970562E+02  0.66121703582E+01  0.52225864463E+02  0.63769543976E+02  0.47000000000E+01 0.  1.
<mgrwt>
<rscale>  0 0.28975521E+03</rscale>
<asrwt>0</asrwt>
<pdfrwt beam="1">  1        2 0.52552910E-01 0.28975521E+03</pdfrwt>
<pdfrwt beam="2">  1       -2 0.94532038E-02 0.28975521E+03</pdfrwt>
<totfact> 0.68603018E+03</totfact>
</mgrwt>
</event>
<event>
 9    1  0.2051157E-002  0.2748274E+03  0.7818608E-02  0.1098548E+00
          1   -1    0    0  501    0  0.00000000000E+00  0.00000000000E+00  0.15443347288E+04  0.15443347288E+04  0.00000000000E+00 0.  1.
         -1   -1    0    0    0  501 -0.00000000000E+00 -0.00000000000E+00 -0.12226962908E+02  0.12226962908E+02  0.00000000000E+00 0.  1.
         36    2    1    2    0    0 -0.22204460493E-14  0.00000000000E+00  0.15321077659E+04  0.15565616917E+04  0.27482738907E+03 0.  0.
         25    2    3    3    0    0  0.10656084149E+01  0.65322540682E+02  0.80217367837E+03  0.81409681591E+03  0.12248610351E+03 0.  0.
         25    2    3    3    0    0 -0.10656084149E+01 -0.65322540682E+02  0.72993408748E+03  0.74246487577E+03  0.11908883169E+03 0.  0.
          5    1    4    4  502    0 -0.46621236509E+02  0.30762699987E+02  0.62119389019E+03  0.62371774274E+03  0.47000000000E+01 0. -1.
         -5    1    4    4    0  502  0.47686844924E+02  0.34559840695E+02  0.18097978819E+03  0.19037907317E+03  0.47000000000E+01 0. -1.
          5    1    5    5  503    0 -0.29963002640E+01 -0.54696070138E+02  0.72853127336E+03  0.73060286351E+03  0.47000000000E+01 0.  1.
         -5    1    5    5    0  503  0.19306918491E+01 -0.10626470544E+02  0.14028141197E+01  0.11862012253E+02  0.47000000000E+01 0.  1.
<mgrwt>
<rscale>  0 0.27482739E+03</rscale>
<asrwt>0</asrwt>
<pdfrwt beam="1">  1        1 0.23758980E+00 0.27482739E+03</pdfrwt>
<pdfrwt beam="2">  1       -1 0.18810724E-02 0.27482739E+03</pdfrwt>
<totfact> 0.50169377E+03</totfact>
</mgrwt>
</event>
<event>
 9    1  0.2051157E-002  0.2637754E+03  0.7818608E-02  0.1104896E+00
         -3   -1    0    0    0  501 -0.00000000000E+00  0.00000000000E+00  0.88568864886E+02  0.88568864886E+02  0.00000000000E+00 0.  1.
          3   -1    0    0  501    0  0.00000000000E+00 -0.00000000000E+00 -0.19639373674E+03  0.19639373674E+03  0.00000000000E+00 0.  1.
         36    2    1    2    0    0 -0.35527136788E-14 -0.71054273576E-14 -0.10782487185E+03  0.28496260162E+03  0.26377543732E+03 0.  0.
         25    2    3    3    0    0 -0.13286689996E+02 -0.36515184072E+01 -0.57857205049E+02  0.14427654098E+03  0.13144730649E+03 0.  0.
         25    2    3    3    0    0  0.13286689996E+02  0.36515184072E+01 -0.49967666801E+02  0.14068606064E+03  0.13078964109E+03 0.  0.
          5    1    4    4  502    0 -0.32151029287E+02 -0.40665072950E+02  0.20114284163E+02  0.55803326690E+02  0.47000000000E+01 0. -1.
         -5    1    4    4    0  502  0.18864339292E+02  0.37013554542E+02 -0.77971489212E+02  0.88473214289E+02  0.47000000000E+01 0. -1.
          5    1    5    5  503    0  0.45669344791E+02 -0.44968373254E+02 -0.51045434289E+02  0.82070518510E+02  0.47000000000E+01 0. -1.
         -5    1    5    5    0  503 -0.32382654796E+02  0.48619891661E+02  0.10777674874E+01  0.58615542133E+02  0.47000000000E+01 0. -1.
<mgrwt>
<rscale>  0 0.26377544E+03</rscale>
<asrwt>0</asrwt>
<pdfrwt beam="1">  1        3 0.30214421E-01 0.26377544E+03</pdfrwt>
<pdfrwt beam="2">  1       -3 0.13625979E-01 0.26377544E+03</pdfrwt>
<totfact> 0.11744890E+03</totfact>
</mgrwt>
</event>
<event>
 9    1  0.2051157E-002  0.2744847E+03  0.7818608E-02  0.1098740E+00
          1   -1    0    0  501    0  0.00000000000E+00  0.00000000000E+00  0.22262419795E+03  0.22262419795E+03  0.00000000000E+00 0.  1.
         -1   -1    0    0    0  501 -0.00000000000E+00 -0.00000000000E+00 -0.84606514283E+02  0.84606514283E+02  0.00000000000E+00 0.  1.
         36    2    1    2    0    0  0.71054273576E-14  0.00000000000E+00  0.13801768367E+03  0.30723071223E+03  0.27448466175E+03 0.  0.
         25    2    3    3    0    0  0.19434440564E+02  0.27850361938E+02  0.11929262743E+03  0.17675454286E+03  0.12592893760E+03 0.  0.
         25    2    3    3    0    0 -0.19434440564E+02 -0.27850361938E+02  0.18725056243E+02  0.13047616937E+03  0.12457954448E+03 0.  0.
          5    1    4    4  502    0  0.29518786828E+02 -0.37569296331E+02  0.10225290640E+02  0.49086223844E+02  0.47000000000E+01 0.  1.
         -5    1    4    4    0  502 -0.10084346264E+02  0.65419658270E+02  0.10906733679E+03  0.12766831902E+03  0.47000000000E+01 0.  1.
          5    1    5    5  503    0  0.22508948625E+02 -0.60388694352E+02 -0.16377870970E+02  0.66661621877E+02  0.47000000000E+01 0.  1.
         -5    1    5    5    0  503 -0.41943389189E+02  0.32538332413E+02  0.35102927213E+02  0.63814547494E+02  0.47000000000E+01 0.  1.
<mgrwt>
<rscale>  0 0.27448466E+03</rscale>
<asrwt>0</asrwt>
<pdfrwt beam="1">  1        1 0.34249876E-01 0.27448466E+03</pdfrwt>
<pdfrwt beam="2">  1       -1 0.13016387E-01 0.27448466E+03</pdfrwt>
<totfact> 0.51193585E+03</totfact>
</mgrwt>
</event>
<event>
 9    1  0.2051157E-002  0.2747785E+03  0.7818608E-02  0.1098575E+00
         -2   -1    0    0    0  501 -0.00000000000E+00  0.00000000000E+00  0.13113912063E+03  0.13113912063E+03  0.00000000000E+00 0.  1.
          2   -1    0    0  501    0  0.00000000000E+00 -0.00000000000E+00 -0.14393722643E+03  0.14393722643E+03  0.00000000000E+00 0.  1.
         36    2    1    2    0    0  0.71054273576E-14 -0.71054273576E-14 -0.12798105795E+02  0.27507634706E+03  0.27477846568E+03 0.  0.
         25    2    3    3    0    0 -0.23769317889E+02  0.41123739514E+02 -0.38443209470E+02  0.13902213078E+03  0.12487245520E+03 0.  0.
         25    2    3    3    0    0  0.23769317889E+02 -0.41123739514E+02  0.25645103675E+02  0.13605421628E+03  0.12488769355E+03 0.  0.
          5    1    4    4  502    0  0.14322115185E+01  0.47137674574E+02 -0.78138130417E+02  0.91387466423E+02  0.47000000000E+01 0.  1.
         -5    1    4    4    0  502 -0.25201529407E+02 -0.60139350606E+01  0.39694920948E+02  0.47634664357E+02  0.47000000000E+01 0.  1.
          5    1    5    5  503    0 -0.29273172293E+02 -0.19545607195E+02 -0.36839875358E+02  0.51168503917E+02  0.47000000000E+01 0. -1.
         -5    1    5    5    0  503  0.53042490182E+02 -0.21578132319E+02  0.62484979032E+02  0.84885712365E+02  0.47000000000E+01 0. -1.
<mgrwt>
<rscale>  0 0.27477847E+03</rscale>
<asrwt>0</asrwt>
<pdfrwt beam="1">  1        2 0.22144189E-01 0.27477847E+03</pdfrwt>
<pdfrwt beam="2">  1       -2 0.20175249E-01 0.27477847E+03</pdfrwt>
<totfact> 0.50777619E+03</totfact>
</mgrwt>
</event>
<event>
 9    1  0.2051157E-002  0.2751561E+03  0.7818608E-02  0.1098364E+00
         -3   -1    0    0    0  501 -0.00000000000E+00  0.00000000000E+00  0.17796865565E+03  0.17796865565E+03  0.00000000000E+00 0.  1.
          3   -1    0    0  501    0  0.00000000000E+00 -0.00000000000E+00 -0.10635419456E+03  0.10635419456E+03  0.00000000000E+00 0.  1.
         36    2    1    2    0    0 -0.71054273576E-14  0.71054273576E-14  0.71614461090E+02  0.28432285022E+03  0.27515605048E+03 0.  0.
         25    2    3    3    0    0 -0.32305650711E+02  0.31274349586E+02  0.63406482782E+02  0.14631711729E+03  0.12396199718E+03 0.  0.
         25    2    3    3    0    0  0.32305650711E+02 -0.31274349586E+02  0.82079783084E+01  0.13800573292E+03  0.13021701656E+03 0.  0.
          5    1    4    4  502    0 -0.78630514000E+01  0.63923291613E+02 -0.68563331763E+01  0.64939310842E+02  0.47000000000E+01 0.  1.
         -5    1    4    4    0  502 -0.24442599311E+02 -0.32648942027E+02  0.70262815958E+02  0.81377806452E+02  0.47000000000E+01 0.  1.
          5    1    5    5  503    0 -0.25143792104E+02  0.25009669404E+02 -0.31971737181E+02  0.47978910195E+02  0.47000000000E+01 0.  1.
         -5    1    5    5    0  503  0.57449442815E+02 -0.56284018991E+02  0.40179715490E+02  0.90026822727E+02  0.47000000000E+01 0.  1.
<mgrwt>
<rscale>  0 0.27515605E+03</rscale>
<asrwt>0</asrwt>
<pdfrwt beam="1">  1        3 0.16362184E-01 0.27515605E+03</pdfrwt>
<pdfrwt beam="2">  1       -3 0.27379793E-01 0.27515605E+03</pdfrwt>
<totfact> 0.10329178E+03</totfact>
</mgrwt>
</event>
<event>
 9    1  0.2051157E-002  0.2750070E+03  0.7818608E-02  0.1098448E+00
         -2   -1    0    0    0  501 -0.00000000000E+00  0.00000000000E+00  0.54395917001E+02  0.54395917001E+02  0.00000000000E+00 0.  1.
          2   -1    0    0  501    0  0.00000000000E+00 -0.00000000000E+00 -0.34758511175E+03  0.34758511175E+03  0.00000000000E+00 0.  1.
         36    2    1    2    0    0  0.00000000000E+00  0.71054273576E-14 -0.29318919475E+03  0.40198102875E+03  0.27500698820E+03 0.  0.
         25    2    3    3    0    0 -0.49654350825E+02  0.37087012569E+02 -0.24191357706E+03  0.27582262358E+03  0.11711080162E+03 0.  0.
         25    2    3    3    0    0  0.49654350825E+02 -0.37087012569E+02 -0.51275617684E+02  0.12615840517E+03  0.97189264675E+02 0.  0.
          5    1    4    4  502    0  0.32434132469E+02  0.32333385099E+02 -0.12156464716E+03  0.12999028495E+03  0.47000000000E+01 0. -1.
         -5    1    4    4    0  502 -0.82088483294E+02  0.47536274705E+01 -0.12034892990E+03  0.14583233863E+03  0.47000000000E+01 0. -1.
          5    1    5    5  503    0  0.50553859173E+02  0.13158511811E+02  0.23680799001E+01  0.52502732431E+02  0.47000000000E+01 0.  1.
         -5    1    5    5    0  503 -0.89950834729E+00 -0.50245524380E+02 -0.53643697584E+02  0.73655672735E+02  0.47000000000E+01 0.  1.
<mgrwt>
<rscale>  0 0.27500699E+03</rscale>
<asrwt>0</asrwt>
<pdfrwt beam="1">  1        2 0.53474634E-01 0.27500699E+03</pdfrwt>
<pdfrwt beam="2">  1       -2 0.83686024E-02 0.27500699E+03</pdfrwt>
<totfact> 0.81429447E+03</totfact>
</mgrwt>
</event>
<event>
 9    1  0.2051157E-002  0.2747301E+03  0.7818608E-02  0.1098603E+00
          1   -1    0    0  501    0  0.00000000000E+00  0.00000000000E+00  0.13323332031E+03  0.13323332031E+03  0.00000000000E+00 0. -1.
         -1   -1    0    0    0  501 -0.00000000000E+00 -0.00000000000E+00 -0.14162491098E+03  0.14162491098E+03  0.00000000000E+00 0. -1.
         36    2    1    2    0    0  0.00000000000E+00  0.71054273576E-14 -0.83915906734E+01  0.27485823130E+03  0.27473010122E+03 0.  0.
         25    2    3    3    0    0 -0.44258229147E+01 -0.59970930630E+02  0.26241933965E+01  0.13952262817E+03  0.12587127135E+03 0.  0.
         25    2    3    3    0    0  0.44258229147E+01  0.59970930630E+02 -0.11015784070E+02  0.13533560313E+03  0.12074053812E+03 0.  0.
          5    1    4    4  502    0  0.71045046370E+01  0.18664884230E+02 -0.43083621797E+02  0.47719391830E+02  0.47000000000E+01 0. -1.
         -5    1    4    4    0  502 -0.11530327552E+02 -0.78635814860E+02  0.45707815194E+02  0.91803236337E+02  0.47000000000E+01 0. -1.
          5    1    5    5  503    0  0.13264252212E+02  0.90008977261E+02 -0.32884015088E+02  0.96855587462E+02  0.47000000000E+01 0. -1.
         -5    1    5    5    0  503 -0.88384292975E+01 -0.30038046631E+02  0.21868231018E+02  0.38480015667E+02  0.47000000000E+01 0. -1.
<mgrwt>
<rscale>  0 0.27473010E+03</rscale>
<asrwt>0</asrwt>
<pdfrwt beam="1">  1        1 0.20497434E-01 0.27473010E+03</pdfrwt>
<pdfrwt beam="2">  1       -1 0.21788448E-01 0.27473010E+03</pdfrwt>
<totfact> 0.43035343E+03</totfact>
</mgrwt>
</event>
<event>
 9    1  0.2051157E-002  0.2812149E+03  0.7818608E-02  0.1095027E+00
         -1   -1    0    0    0  501 -0.00000000000E+00  0.00000000000E+00  0.36614496646E+02  0.36614496646E+02  0.00000000000E+00 0. -1.
          1   -1    0    0  501    0  0.00000000000E+00 -0.00000000000E+00 -0.53996243848E+03  0.53996243848E+03  0.00000000000E+00 0. -1.
         36    2    1    2    0    0  0.71054273576E-14  0.00000000000E+00 -0.50334794183E+03  0.57657693512E+03  0.28121488504E+03 0.  0.
         25    2    3    3    0    0 -0.29001514898E+02 -0.33561664386E+02 -0.17739370692E+03  0.22177018185E+03  0.12548311887E+03 0.  0.
         25    2    3    3    0    0  0.29001514898E+02  0.33561664386E+02 -0.32595423491E+03  0.35480675327E+03  0.13294433319E+03 0.  0.
          5    1    4    4  502    0  0.41363565557E+02 -0.13626472004E+02 -0.20003597703E+02  0.48154534739E+02  0.47000000000E+01 0.  1.
         -5    1    4    4    0  502 -0.70365080455E+02 -0.19935192382E+02 -0.15739010922E+03  0.17361564711E+03  0.47000000000E+01 0.  1.
          5    1    5    5  503    0 -0.46172604408E+01  0.63464413532E+02 -0.69315231465E+02  0.94211157471E+02  0.47000000000E+01 0.  1.
         -5    1    5    5    0  503  0.33618775339E+02 -0.29902749146E+02 -0.25663900344E+03  0.26059559580E+03  0.47000000000E+01 0.  1.
<mgrwt>
<rscale>  0 0.28121489E+03</rscale>
<asrwt>0</asrwt>
<pdfrwt beam="1">  1        1 0.83071143E-01 0.28121489E+03</pdfrwt>
<pdfrwt beam="2">  1       -1 0.56329996E-02 0.28121489E+03</pdfrwt>
<totfact> 0.59627656E+03</totfact>
</mgrwt>
</event>
<event>
 9    1  0.2051157E-002  0.2760147E+03  0.7818608E-02  0.1097886E+00
         -1   -1    0    0    0  501 -0.00000000000E+00  0.00000000000E+00  0.37059208209E+03  0.37059208209E+03  0.00000000000E+00 0.  1.
          1   -1    0    0  501    0  0.00000000000E+00 -0.00000000000E+00 -0.51393525780E+02  0.51393525780E+02  0.00000000000E+00 0.  1.
         36    2    1    2    0    0  0.71054273576E-14  0.35527136788E-14  0.31919855631E+03  0.42198560787E+03  0.27601473674E+03 0.  0.
         25    2    3    3    0    0  0.15424574034E+02  0.56925488944E+01  0.91963016555E+02  0.16124301404E+03  0.13142218445E+03 0.  0.
         25    2    3    3    0    0 -0.15424574034E+02 -0.56925488944E+01  0.22723553976E+03  0.26074259384E+03  0.12680846626E+03 0.  0.
          5    1    4    4  502    0  0.49343381107E+02 -0.26484487562E+02 -0.19480733517E+01  0.56232395737E+02  0.47000000000E+01 0. -1.
         -5    1    4    4    0  502 -0.33918807073E+02  0.32177036456E+02  0.93911089907E+02  0.10501061830E+03  0.47000000000E+01 0. -1.
          5    1    5    5  503    0 -0.58239142628E+02 -0.33015857107E+02  0.17637276333E+03  0.18870952864E+03  0.47000000000E+01 0. -1.
         -5    1    5    5    0  503  0.42814568594E+02  0.27323308213E+02  0.50862776427E+02  0.72033065195E+02  0.47000000000E+01 0. -1.
<mgrwt>
<rscale>  0 0.27601474E+03</rscale>
<asrwt>0</asrwt>
<pdfrwt beam="1">  1        1 0.79066965E-02 0.27601474E+03</pdfrwt>
<pdfrwt beam="2">  1       -1 0.57014165E-01 0.27601474E+03</pdfrwt>
<totfact> 0.28245163E+03</totfact>
</mgrwt>
</event>
<event>
 9    1  0.2051157E-002  0.2747765E+03  0.7818608E-02  0.1098577E+00
         -1   -1    0    0    0  501 -0.00000000000E+00  0.00000000000E+00  0.51315857743E+02  0.51315857743E+02  0.00000000000E+00 0. -1.
          1   -1    0    0  501    0  0.00000000000E+00 -0.00000000000E+00 -0.36783045501E+03  0.36783045501E+03  0.00000000000E+00 0. -1.
         36    2    1    2    0    0  0.00000000000E+00 -0.71054273576E-14 -0.31651459727E+03  0.41914631276E+03  0.27477652959E+03 0.  0.
         25    2    3    3    0    0 -0.28346148962E+02  0.39160587341E+02 -0.11052291991E+03  0.17508798029E+03  0.12689928784E+03 0.  0.
         25    2    3    3    0    0  0.28346148962E+02 -0.39160587341E+02 -0.20599167736E+03  0.24405833246E+03  0.12163405256E+03 0.  0.
          5    1    4    4  502    0 -0.27237315274E+02 -0.30520819688E+02 -0.94993704244E+02  0.10353398294E+03  0.47000000000E+01 0. -1.
         -5    1    4    4    0  502 -0.11088336878E+01  0.69681407029E+02 -0.15529215668E+02  0.71553997351E+02  0.47000000000E+01 0. -1.
          5    1    5    5  503    0 -0.88695854421E+01  0.41092488239E+02 -0.66097018319E+02  0.78473995478E+02  0.47000000000E+01 0. -1.
         -5    1    5    5    0  503  0.37215734404E+02 -0.80253075580E+02 -0.13989465904E+03  0.16558433699E+03  0.47000000000E+01 0. -1.
<mgrwt>
<rscale>  0 0.27477653E+03</rscale>
<asrwt>0</asrwt>
<pdfrwt beam="1">  1        1 0.56589302E-01 0.27477653E+03</pdfrwt>
<pdfrwt beam="2">  1       -1 0.78947472E-02 0.27477653E+03</pdfrwt>
<totfact> 0.58966579E+03</totfact>
</mgrwt>
</event>
<event>
 9    1  0.2051157E-002  0.2760915E+03  0.7818608E-02  0.1097843E+00
          1   -1    0    0  501    0  0.00000000000E+00  0.00000000000E+00  0.99828537455E+03  0.99828537455E+03  0.00000000000E+00 0.  1.
         -1   -1    0    0    0  501 -0.00000000000E+00 -0.00000000000E+00 -0.19089359302E+02  0.19089359302E+02  0.00000000000E+00 0.  1.
         36    2    1    2    0    0  0.00000000000E+00  0.00000000000E+00  0.97919601525E+03  0.10173747339E+04  0.27609149354E+03 0.  0.
         25    2    3    3    0    0 -0.33713848819E+02 -0.42194669086E+02  0.39502349707E+03  0.41732956071E+03  0.12330200851E+03 0.  0.
         25    2    3    3    0    0  0.33713848819E+02  0.42194669086E+02  0.58417251817E+03  0.60004517314E+03  0.12601454328E+03 0.  0.
          5    1    4    4  502    0 -0.70781986258E+02  0.57468013451E+01  0.17130447749E+03  0.18550048332E+03  0.47000000000E+01 0.  1.
         -5    1    4    4    0  502  0.37068137439E+02 -0.47941470431E+02  0.22371901958E+03  0.23182907739E+03  0.47000000000E+01 0.  1.
          5    1    5    5  503    0  0.20029786449E+02  0.58204826532E+02  0.11624736857E+03  0.13162269894E+03  0.47000000000E+01 0.  1.
         -5    1    5    5    0  503  0.13684062371E+02 -0.16010157446E+02  0.46792514960E+03  0.46842247420E+03  0.47000000000E+01 0.  1.
<mgrwt>
<rscale>  0 0.27609149E+03</rscale>
<asrwt>0</asrwt>
<pdfrwt beam="1">  1        1 0.15358233E+00 0.27609149E+03</pdfrwt>
<pdfrwt beam="2">  1       -1 0.29368253E-02 0.27609149E+03</pdfrwt>
<totfact> 0.62399260E+03</totfact>
</mgrwt>
</event>
<event>
 9    1  0.2051157E-002  0.2752852E+03  0.7818608E-02  0.1098292E+00
          2   -1    0    0  501    0  0.00000000000E+00  0.00000000000E+00  0.25540482751E+03  0.25540482751E+03  0.00000000000E+00 0. -1.
         -2   -1    0    0    0  501 -0.00000000000E+00 -0.00000000000E+00 -0.74178270247E+02  0.74178270247E+02  0.00000000000E+00 0. -1.
         36    2    1    2    0    0  0.00000000000E+00 -0.14210854715E-13  0.18122655727E+03  0.32958309776E+03  0.27528522167E+03 0.  0.
         25    2    3    3    0    0 -0.14278150060E+02 -0.54042862368E+02  0.10563121871E+03  0.17238067867E+03  0.12422820723E+03 0.  0.
         25    2    3    3    0    0  0.14278150060E+02  0.54042862368E+02  0.75595338557E+02  0.15720241909E+03  0.12598987584E+03 0.  0.
          5    1    4    4  502    0  0.10318645940E+02 -0.82515210845E+02  0.10555992061E+03  0.13446271347E+03  0.47000000000E+01 0. -1.
         -5    1    4    4    0  502 -0.24596796000E+02  0.28472348477E+02  0.71298097044E-01  0.37917965197E+02  0.47000000000E+01 0. -1.
          5    1    5    5  503    0  0.17435905694E+01 -0.12332151658E+02 -0.29396325612E+02  0.32270048529E+02  0.47000000000E+01 0.  1.
         -5    1    5    5    0  503  0.12534559491E+02  0.66375014026E+02  0.10499166417E+03  0.12493237056E+03  0.47000000000E+01 0.  1.
<mgrwt>
<rscale>  0 0.27528522E+03</rscale>
<asrwt>0</asrwt>
<pdfrwt beam="1">  1        2 0.39293050E-01 0.27528522E+03</pdfrwt>
<pdfrwt beam="2">  1       -2 0.11412042E-01 0.27528522E+03</pdfrwt>
<totfact> 0.69361494E+03</totfact>
</mgrwt>
</event>
<event>
 9    1  0.2051157E-002  0.2747904E+03  0.7818608E-02  0.1098569E+00
         -2   -1    0    0    0  501 -0.00000000000E+00  0.00000000000E+00  0.14076963009E+02  0.14076963009E+02  0.00000000000E+00 0. -1.
          2   -1    0    0  501    0  0.00000000000E+00 -0.00000000000E+00 -0.13410162584E+04  0.13410162584E+04  0.00000000000E+00 0. -1.
         36    2    1    2    0    0  0.00000000000E+00  0.00000000000E+00 -0.13269392954E+04  0.13550932214E+04  0.27479036565E+03 0.  0.
         25    2    3    3    0    0 -0.15357927614E+02 -0.12422688607E+02 -0.39593693741E+03  0.41490247714E+03  0.12242474423E+03 0.  0.
         25    2    3    3    0    0  0.15357927614E+02  0.12422688607E+02 -0.93100235798E+03  0.94019074427E+03  0.12962660185E+03 0.  0.
          5    1    4    4  502    0 -0.22070631631E+02  0.44674970546E+02 -0.28992555557E+03  0.29421400978E+03  0.47000000000E+01 0. -1.
         -5    1    4    4    0  502  0.67127040173E+01 -0.57097659153E+02 -0.10601138184E+03  0.12068846736E+03  0.47000000000E+01 0. -1.
          5    1    5    5  503    0  0.61853099996E+02 -0.28484648233E+02 -0.43682949829E+03  0.44213038998E+03  0.47000000000E+01 0. -1.
         -5    1    5    5    0  503 -0.46495172382E+02  0.40907336839E+02 -0.49417285969E+03  0.49806035429E+03  0.47000000000E+01 0. -1.
<mgrwt>
<rscale>  0 0.27479037E+03</rscale>
<asrwt>0</asrwt>
<pdfrwt beam="1">  1        2 0.20631028E+00 0.27479037E+03</pdfrwt>
<pdfrwt beam="2">  1       -2 0.21656857E-02 0.27479037E+03</pdfrwt>
<totfact> 0.11438436E+04</totfact>
</mgrwt>
</event>
<event>
 9    1  0.2051157E-002  0.2748677E+03  0.7818608E-02  0.1098526E+00
         -1   -1    0    0    0  501 -0.00000000000E+00  0.00000000000E+00  0.96014945581E+02  0.96014945581E+02  0.00000000000E+00 0.  1.
          1   -1    0    0  501    0  0.00000000000E+00 -0.00000000000E+00 -0.19671999092E+03  0.19671999092E+03  0.00000000000E+00 0.  1.
         36    2    1    2    0    0  0.00000000000E+00 -0.53290705182E-14 -0.10070504533E+03  0.29273493650E+03  0.27486767160E+03 0.  0.
         25    2    3    3    0    0  0.39584730614E+02 -0.11290504212E+02 -0.76515780185E+02  0.15887352436E+03  0.13301017157E+03 0.  0.
         25    2    3    3    0    0 -0.39584730614E+02  0.11290504212E+02 -0.24189265150E+02  0.13386141214E+03  0.12505730977E+03 0.  0.
          5    1    4    4  502    0  0.18131180930E+02 -0.71464133588E+02 -0.51733518674E+02  0.90190404511E+02  0.47000000000E+01 0. -1.
         -5    1    4    4    0  502  0.21453549684E+02  0.60173629376E+02 -0.24782261512E+02  0.68683119847E+02  0.47000000000E+01 0. -1.
          5    1    5    5  503    0 -0.57348333355E+02  0.73526762188E+01 -0.66091709793E+02  0.87938030962E+02  0.47000000000E+01 0. -1.
         -5    1    5    5    0  503  0.17763602741E+02  0.39378279934E+01  0.41902444643E+02  0.45923381177E+02  0.47000000000E+01 0. -1.
<mgrwt>
<rscale>  0 0.27486767E+03</rscale>
<asrwt>0</asrwt>
<pdfrwt beam="1">  1        1 0.30264614E-01 0.27486767E+03</pdfrwt>
<pdfrwt beam="2">  1       -1 0.14771530E-01 0.27486767E+03</pdfrwt>
<totfact> 0.49001156E+03</totfact>
</mgrwt>
</event>
<event>
 9    1  0.2051157E-002  0.2752268E+03  0.7818608E-02  0.1098325E+00
         -1   -1    0    0    0  501 -0.00000000000E+00  0.00000000000E+00  0.23456338535E+02  0.23456338535E+02  0.00000000000E+00 0.  1.
          1   -1    0    0  501    0  0.00000000000E+00 -0.00000000000E+00 -0.80734860854E+03  0.80734860854E+03  0.00000000000E+00 0.  1.
         36    2    1    2    0    0  0.00000000000E+00  0.35527136788E-14 -0.78389227000E+03  0.83080494707E+03  0.27522675944E+03 0.  0.
         25    2    3    3    0    0  0.27111791238E+02 -0.89297502139E+01 -0.50864733239E+03  0.52649065488E+03  0.13287404285E+03 0.  0.
         25    2    3    3    0    0 -0.27111791238E+02  0.89297502139E+01 -0.27524493761E+03  0.30431429220E+03  0.12661999483E+03 0.  0.
          5    1    4    4  502    0 -0.22004729463E+02 -0.39897141440E+02 -0.40510334091E+03  0.40768467819E+03  0.47000000000E+01 0. -1.
         -5    1    4    4    0  502  0.49116520701E+02  0.30967391226E+02 -0.10354399148E+03  0.11880597669E+03  0.47000000000E+01 0. -1.
          5    1    5    5  503    0  0.44595040618E+02  0.15042401496E+02 -0.54887141771E+02  0.72454674261E+02  0.47000000000E+01 0. -1.
         -5    1    5    5    0  503 -0.71706831855E+02 -0.61126512823E+01 -0.22035779584E+03  0.23185961793E+03  0.47000000000E+01 0. -1.
<mgrwt>
<rscale>  0 0.27522676E+03</rscale>
<asrwt>0</asrwt>
<pdfrwt beam="1">  1        1 0.12420748E+00 0.27522676E+03</pdfrwt>
<pdfrwt beam="2">  1       -1 0.36086675E-02 0.27522676E+03</pdfrwt>
<totfact> 0.65015067E+03</totfact>
</mgrwt>
</event>
<event>
 9    1  0.2051157E-002  0.2752496E+03  0.7818608E-02  0.1098312E+00
         -2   -1    0    0    0  501 -0.00000000000E+00  0.00000000000E+00  0.13584364602E+03  0.13584364602E+03  0.00000000000E+00 0. -1.
          2   -1    0    0  501    0  0.00000000000E+00 -0.00000000000E+00 -0.13942928483E+03  0.13942928483E+03  0.00000000000E+00 0. -1.
         36    2    1    2    0    0  0.00000000000E+00 -0.14210854715E-13 -0.35856388065E+01  0.27527293085E+03  0.27524957703E+03 0.  0.
         25    2    3    3    0    0  0.35149033622E+02  0.40436262613E+02 -0.23459757839E+02  0.13868310309E+03  0.12574616076E+03 0.  0.
         25    2    3    3    0    0 -0.35149033622E+02 -0.40436262613E+02  0.19874119032E+02  0.13658982776E+03  0.12406149500E+03 0.  0.
          5    1    4    4  502    0  0.29838897948E+02 -0.41859673948E+02 -0.21882472574E+02  0.56067144922E+02  0.47000000000E+01 0.  1.
         -5    1    4    4    0  502  0.53101356739E+01  0.82295936561E+02 -0.15772852649E+01  0.82615958168E+02  0.47000000000E+01 0.  1.
          5    1    5    5  503    0 -0.33072990837E+02 -0.80856443437E+02 -0.70237863330E+01  0.87766797496E+02  0.47000000000E+01 0. -1.
         -5    1    5    5    0  503 -0.20760427843E+01  0.40420180824E+02  0.26897905365E+02  0.48823030268E+02  0.47000000000E+01 0. -1.
<mgrwt>
<rscale>  0 0.27524958E+03</rscale>
<asrwt>0</asrwt>
<pdfrwt beam="1">  1        2 0.21450659E-01 0.27524958E+03</pdfrwt>
<pdfrwt beam="2">  1       -2 0.20899022E-01 0.27524958E+03</pdfrwt>
<totfact> 0.49555640E+03</totfact>
</mgrwt>
</event>
<event>
 9    1  0.2051157E-002  0.2752572E+03  0.7818608E-02  0.1098308E+00
         -1   -1    0    0    0  501 -0.00000000000E+00  0.00000000000E+00  0.19302293722E+04  0.19302293722E+04  0.00000000000E+00 0. -1.
          1   -1    0    0  501    0  0.00000000000E+00 -0.00000000000E+00 -0.98131504454E+01  0.98131504454E+01  0.00000000000E+00 0. -1.
         36    2    1    2    0    0  0.00000000000E+00  0.00000000000E+00  0.19204162218E+04  0.19400425227E+04  0.27525719772E+03 0.  0.
         25    2    3    3    0    0  0.19320486420E+02 -0.52698239879E+02  0.10366799773E+04  0.10457273863E+04  0.12525975169E+03 0.  0.
         25    2    3    3    0    0 -0.19320486420E+02  0.52698239879E+02  0.88373624452E+03  0.89431513643E+03  0.12513763500E+03 0.  0.
          5    1    4    4  502    0  0.41764012198E+02  0.29799558981E+02  0.36894883472E+03  0.37252862853E+03  0.47000000000E+01 0. -1.
         -5    1    4    4    0  502 -0.22443525778E+02 -0.82497798860E+02  0.66773114255E+03  0.67319875772E+03  0.47000000000E+01 0. -1.
          5    1    5    5  503    0  0.36831315811E+02 -0.21603896470E+02  0.32954209478E+03  0.33233019183E+03  0.47000000000E+01 0.  1.
         -5    1    5    5    0  503 -0.56151802231E+02  0.74302136349E+02  0.55419414974E+03  0.56198494460E+03  0.47000000000E+01 0.  1.
<mgrwt>
<rscale>  0 0.27525720E+03</rscale>
<asrwt>0</asrwt>
<pdfrwt beam="1">  1        1 0.15097170E-02 0.27525720E+03</pdfrwt>
<pdfrwt beam="2">  1       -1 0.29695806E+00 0.27525720E+03</pdfrwt>
<totfact> 0.36376148E+02</totfact>
</mgrwt>
</event>
<event>
 9    1  0.2051157E-002  0.2763714E+03  0.7818608E-02  0.1097687E+00
         -4   -1    0    0    0  501 -0.00000000000E+00  0.00000000000E+00  0.20383182817E+03  0.20383182817E+03  0.00000000000E+00 0. -1.
          4   -1    0    0  501    0  0.00000000000E+00 -0.00000000000E+00 -0.93681559413E+02  0.93681559413E+02  0.00000000000E+00 0. -1.
         36    2    1    2    0    0 -0.35527136788E-14  0.14210854715E-13  0.11015026875E+03  0.29751338758E+03  0.27637136987E+03 0.  0.
         25    2    3    3    0    0 -0.26002833727E+02 -0.47705754524E+02  0.60097547859E+02  0.15049522506E+03  0.12682709147E+03 0.  0.
         25    2    3    3    0    0  0.26002833727E+02  0.47705754524E+02  0.50052720894E+02  0.14701816252E+03  0.12711049864E+03 0.  0.
          5    1    4    4  502    0 -0.21174022986E+02 -0.74354385568E+02  0.83863532322E+02  0.11415820582E+03  0.47000000000E+01 0. -1.
         -5    1    4    4    0  502 -0.48288107412E+01  0.26648631043E+02 -0.23765984463E+02  0.36337019238E+02  0.47000000000E+01 0. -1.
          5    1    5    5  503    0  0.11172616166E+02  0.87462496380E+02  0.10679798905E+02  0.88941912110E+02  0.47000000000E+01 0. -1.
         -5    1    5    5    0  503  0.14830217561E+02 -0.39756741856E+02  0.39372921989E+02  0.58076250411E+02  0.47000000000E+01 0. -1.
<mgrwt>
<rscale>  0 0.27637137E+03</rscale>
<asrwt>0</asrwt>
<pdfrwt beam="1">  1        4 0.14412548E-01 0.27637137E+03</pdfrwt>
<pdfrwt beam="2">  1       -4 0.31358743E-01 0.27637137E+03</pdfrwt>
<totfact> 0.74123723E+02</totfact>
</mgrwt>
</event>
<event>
 9    1  0.2051157E-002  0.2744357E+03  0.7818608E-02  0.1098767E+00
          1   -1    0    0  501    0  0.00000000000E+00  0.00000000000E+00  0.36564082592E+03  0.36564082592E+03  0.00000000000E+00 0. -1.
         -1   -1    0    0    0  501 -0.00000000000E+00 -0.00000000000E+00 -0.51495166521E+02  0.51495166521E+02  0.00000000000E+00 0. -1.
         36    2    1    2    0    0 -0.71054273576E-14  0.35527136788E-14  0.31414565939E+03  0.41713599244E+03  0.27443567711E+03 0.  0.
         25    2    3    3    0    0 -0.25771460479E+02 -0.71700249855E+01  0.15128704858E+03  0.20022588597E+03  0.12840193499E+03 0.  0.
         25    2    3    3    0    0  0.25771460479E+02  0.71700249855E+01  0.16285861081E+03  0.21691010647E+03  0.14075329389E+03 0.  0.
          5    1    4    4  502    0 -0.51707874089E+02 -0.54295568968E+02  0.70293009205E+02  0.10288299274E+03  0.47000000000E+01 0.  1.
         -5    1    4    4    0  502  0.25936413610E+02  0.47125543983E+02  0.80994039380E+02  0.97342893227E+02  0.47000000000E+01 0.  1.
          5    1    5    5  503    0 -0.28259638060E+02 -0.31549699252E+02  0.18494084667E+01  0.42655608985E+02  0.47000000000E+01 0.  1.
         -5    1    5    5    0  503  0.54031098539E+02  0.38719724238E+02  0.16100920234E+03  0.17425449748E+03  0.47000000000E+01 0.  1.
<mgrwt>
<rscale>  0 0.27443568E+03</rscale>
<asrwt>0</asrwt>
<pdfrwt beam="1">  1        1 0.56252433E-01 0.27443568E+03</pdfrwt>
<pdfrwt beam="2">  1       -1 0.79223335E-02 0.27443568E+03</pdfrwt>
<totfact> 0.59098512E+03</totfact>
</mgrwt>
</event>
<event>
 9    1  0.2051157E-002  0.2735764E+03  0.7818608E-02  0.1099250E+00
          2   -1    0    0  501    0  0.00000000000E+00  0.00000000000E+00  0.20160459015E+02  0.20160459015E+02  0.00000000000E+00 0. -1.
         -2   -1    0    0    0  501 -0.00000000000E+00 -0.00000000000E+00 -0.92810476625E+03  0.92810476625E+03  0.00000000000E+00 0. -1.
         36    2    1    2    0    0  0.00000000000E+00  0.71054273576E-14 -0.90794430723E+03  0.94826522526E+03  0.27357644710E+03 0.  0.
         25    2    3    3    0    0  0.38951905828E+02  0.62817092350E-01 -0.31926902288E+03  0.34528223111E+03  0.12557808422E+03 0.  0.
         25    2    3    3    0    0 -0.38951905828E+02 -0.62817092350E-01 -0.58867528435E+03  0.60298299415E+03  0.12463003616E+03 0.  0.
          5    1    4    4  502    0  0.19264182844E+02 -0.57504335395E+02 -0.22427425199E+03  0.23237660690E+03  0.47000000000E+01 0. -1.
         -5    1    4    4    0  502  0.19687722984E+02  0.57567152487E+02 -0.94994770891E+02  0.11290562421E+03  0.47000000000E+01 0. -1.
          5    1    5    5  503    0 -0.49942585348E+02 -0.34350757115E+02 -0.13741124569E+03  0.15026036333E+03  0.47000000000E+01 0.  1.
         -5    1    5    5    0  503  0.10990679521E+02  0.34287940023E+02 -0.45126403866E+03  0.45272263082E+03  0.47000000000E+01 0.  1.
<mgrwt>
<rscale>  0 0.27357645E+03</rscale>
<asrwt>0</asrwt>
<pdfrwt beam="1">  1        2 0.31016079E-02 0.27357645E+03</pdfrwt>
<pdfrwt beam="2">  1       -2 0.14278541E+00 0.27357645E+03</pdfrwt>
<totfact> 0.10776186E+03</totfact>
</mgrwt>
</event>
<event>
 9    1  0.2051157E-002  0.2728992E+03  0.7818608E-02  0.1099632E+00
          2   -1    0    0  501    0  0.00000000000E+00  0.00000000000E+00  0.29639827533E+03  0.29639827533E+03  0.00000000000E+00 0.  1.
         -2   -1    0    0    0  501 -0.00000000000E+00 -0.00000000000E+00 -0.62815797197E+02  0.62815797197E+02  0.00000000000E+00 0.  1.
         36    2    1    2    0    0  0.00000000000E+00  0.71054273576E-14  0.23358247814E+03  0.35921407253E+03  0.27289920449E+03 0.  0.
         25    2    3    3    0    0 -0.23130073283E+02  0.40631583673E+02  0.15963414440E+03  0.20884824057E+03  0.12628777315E+03 0.  0.
         25    2    3    3    0    0  0.23130073283E+02 -0.40631583673E+02  0.73948333738E+02  0.15036583196E+03  0.12229309661E+03 0.  0.
          5    1    4    4  502    0 -0.15536868617E+02  0.71925631429E+02  0.38028789106E+02  0.82963663996E+02  0.47000000000E+01 0. -1.
         -5    1    4    4    0  502 -0.75932046664E+01 -0.31294047756E+02  0.12160535529E+03  0.12588457657E+03  0.47000000000E+01 0. -1.
          5    1    5    5  503    0 -0.39763004604E+02  0.12137769605E+02  0.33286814470E+01  0.41971324810E+02  0.47000000000E+01 0. -1.
         -5    1    5    5    0  503  0.62893077888E+02 -0.52769353278E+02  0.70619652291E+02  0.10839450715E+03  0.47000000000E+01 0. -1.
<mgrwt>
<rscale>  0 0.27289920E+03</rscale>
<asrwt>0</asrwt>
<pdfrwt beam="1">  1        2 0.45599734E-01 0.27289920E+03</pdfrwt>
<pdfrwt beam="2">  1       -2 0.96639689E-02 0.27289920E+03</pdfrwt>
<totfact> 0.77025083E+03</totfact>
</mgrwt>
</event>
<event>
 9    1  0.2051157E-002  0.2753592E+03  0.7818608E-02  0.1098251E+00
          2   -1    0    0  501    0  0.00000000000E+00  0.00000000000E+00  0.84842455436E+03  0.84842455436E+03  0.00000000000E+00 0.  1.
         -2   -1    0    0    0  501 -0.00000000000E+00 -0.00000000000E+00 -0.22342208474E+02  0.22342208474E+02  0.00000000000E+00 0.  1.
         36    2    1    2    0    0  0.35527136788E-14  0.00000000000E+00  0.82608234589E+03  0.87076676283E+03  0.27535924366E+03 0.  0.
         25    2    3    3    0    0 -0.93255180697E+01  0.42649319914E+01  0.30707976228E+03  0.33534757046E+03  0.13436836562E+03 0.  0.
         25    2    3    3    0    0  0.93255180697E+01 -0.42649319914E+01  0.51900258360E+03  0.53541919237E+03  0.13116735433E+03 0.  0.
          5    1    4    4  502    0  0.69194604205E+01  0.47596060332E+02  0.27410117676E+03  0.27832859895E+03  0.47000000000E+01 0.  1.
         -5    1    4    4    0  502 -0.16244978490E+02 -0.43331128340E+02  0.32978585524E+02  0.57018971514E+02  0.47000000000E+01 0.  1.
          5    1    5    5  503    0  0.51507111800E+02  0.28122730695E+02  0.40821706688E+03  0.41244046144E+03  0.47000000000E+01 0.  1.
         -5    1    5    5    0  503 -0.42181593730E+02 -0.32387662686E+02  0.11078551673E+03  0.12297873093E+03  0.47000000000E+01 0.  1.
<mgrwt>
<rscale>  0 0.27535924E+03</rscale>
<asrwt>0</asrwt>
<pdfrwt beam="1">  1        2 0.13052683E+00 0.27535924E+03</pdfrwt>
<pdfrwt beam="2">  1       -2 0.34372635E-02 0.27535924E+03</pdfrwt>
<totfact> 0.11316871E+04</totfact>
</mgrwt>
</event>
<event>
 9    1  0.2051157E-002  0.2746577E+03  0.7818608E-02  0.1098643E+00
         -1   -1    0    0    0  501 -0.00000000000E+00  0.00000000000E+00  0.10269261418E+03  0.10269261418E+03  0.00000000000E+00 0. -1.
          1   -1    0    0  501    0  0.00000000000E+00 -0.00000000000E+00 -0.18364720914E+03  0.18364720914E+03  0.00000000000E+00 0. -1.
         36    2    1    2    0    0 -0.71054273576E-14 -0.44408920985E-14 -0.80954594964E+02  0.28633982332E+03  0.27465769236E+03 0.  0.
         25    2    3    3    0    0  0.57694951991E+02  0.21307611871E+01 -0.40070577050E+02  0.14254977829E+03  0.12402233878E+03 0.  0.
         25    2    3    3    0    0 -0.57694951991E+02 -0.21307611871E+01 -0.40884017915E+02  0.14379004503E+03  0.12518317180E+03 0.  0.
          5    1    4    4  502    0  0.48253286168E+02  0.56243614105E+02  0.23675794197E+00  0.74255436218E+02  0.47000000000E+01 0.  1.
         -5    1    4    4    0  502  0.94416658225E+01 -0.54112852918E+02 -0.40307334992E+02  0.68294342068E+02  0.47000000000E+01 0.  1.
          5    1    5    5  503    0 -0.96907794875E+02 -0.35625179901E+01 -0.37673977734E+02  0.10414043806E+03  0.47000000000E+01 0. -1.
         -5    1    5    5    0  503  0.39212842885E+02  0.14317568030E+01 -0.32100401808E+01  0.39649606967E+02  0.47000000000E+01 0. -1.
<mgrwt>
<rscale>  0 0.27465769E+03</rscale>
<asrwt>0</asrwt>
<pdfrwt beam="1">  1        1 0.28253417E-01 0.27465769E+03</pdfrwt>
<pdfrwt beam="2">  1       -1 0.15798864E-01 0.27465769E+03</pdfrwt>
<totfact> 0.48030583E+03</totfact>
</mgrwt>
</event>
<event>
 9    1  0.2051157E-002  0.2778037E+03  0.7818608E-02  0.1096895E+00
          1   -1    0    0  501    0  0.00000000000E+00  0.00000000000E+00  0.28344995636E+03  0.28344995636E+03  0.00000000000E+00 0. -1.
         -1   -1    0    0    0  501 -0.00000000000E+00 -0.00000000000E+00 -0.68067482553E+02  0.68067482553E+02  0.00000000000E+00 0. -1.
         36    2    1    2    0    0 -0.71054273576E-14  0.00000000000E+00  0.21538247381E+03  0.35151743892E+03  0.27780370739E+03 0.  0.
         25    2    3    3    0    0  0.57308773498E+02 -0.22799800649E+02  0.13119640854E+03  0.18917138721E+03  0.12152855507E+03 0.  0.
         25    2    3    3    0    0 -0.57308773498E+02  0.22799800649E+02  0.84186065271E+02  0.16234605170E+03  0.12435763140E+03 0.  0.
          5    1    4    4  502    0  0.43209946081E+02  0.47486231663E+02  0.65011091123E+02  0.91490838923E+02  0.47000000000E+01 0.  1.
         -5    1    4    4    0  502  0.14098827417E+02 -0.70286032312E+02  0.66185317418E+02  0.97680548291E+02  0.47000000000E+01 0.  1.
          5    1    5    5  503    0  0.26334594499E+02  0.34877276390E+02  0.14411199048E+01  0.43978427693E+02  0.47000000000E+01 0. -1.
         -5    1    5    5    0  503 -0.83643367996E+02 -0.12077475741E+02  0.82744945366E+02  0.11836762401E+03  0.47000000000E+01 0. -1.
<mgrwt>
<rscale>  0 0.27780371E+03</rscale>
<asrwt>0</asrwt>
<pdfrwt beam="1">  1        1 0.43607685E-01 0.27780371E+03</pdfrwt>
<pdfrwt beam="2">  1       -1 0.10471921E-01 0.27780371E+03</pdfrwt>
<totfact> 0.53089148E+03</totfact>
</mgrwt>
</event>
<event>
 9    1  0.2051157E-002  0.2749738E+03  0.7818608E-02  0.1098466E+00
          1   -1    0    0  501    0  0.00000000000E+00  0.00000000000E+00  0.20017949176E+03  0.20017949176E+03  0.00000000000E+00 0.  1.
         -1   -1    0    0    0  501 -0.00000000000E+00 -0.00000000000E+00 -0.94428502489E+02  0.94428502489E+02  0.00000000000E+00 0.  1.
         36    2    1    2    0    0  0.71054273576E-14 -0.71054273576E-14  0.10575098927E+03  0.29460799425E+03  0.27497381429E+03 0.  0.
         25    2    3    3    0    0 -0.55795305289E+02 -0.31477044625E+01  0.53384999191E+02  0.14863644001E+03  0.12696380990E+03 0.  0.
         25    2    3    3    0    0  0.55795305289E+02  0.31477044625E+01  0.52365990083E+02  0.14597155425E+03  0.12426774962E+03 0.  0.
          5    1    4    4  502    0 -0.56443292812E+02 -0.51755758536E+02  0.60447775896E+00  0.76726522393E+02  0.47000000000E+01 0.  1.
         -5    1    4    4    0  502  0.64798752288E+00  0.48608054074E+02  0.52780521432E+02  0.71909917615E+02  0.47000000000E+01 0.  1.
          5    1    5    5  503    0  0.51850769720E+02  0.52633005876E+02  0.60296829715E+02  0.95480538865E+02  0.47000000000E+01 0. -1.
         -5    1    5    5    0  503  0.39445355687E+01 -0.49485301414E+02 -0.79308396324E+01  0.50491015381E+02  0.47000000000E+01 0. -1.
<mgrwt>
<rscale>  0 0.27497381E+03</rscale>
<asrwt>0</asrwt>
<pdfrwt beam="1">  1        1 0.30796845E-01 0.27497381E+03</pdfrwt>
<pdfrwt beam="2">  1       -1 0.14527462E-01 0.27497381E+03</pdfrwt>
<totfact> 0.49218138E+03</totfact>
</mgrwt>
</event>
<event>
 9    1  0.2051157E-002  0.2762203E+03  0.7818608E-02  0.1097771E+00
          1   -1    0    0  501    0  0.00000000000E+00  0.00000000000E+00  0.32175376952E+03  0.32175376952E+03  0.00000000000E+00 0. -1.
         -1   -1    0    0    0  501 -0.00000000000E+00 -0.00000000000E+00 -0.59282654150E+02  0.59282654150E+02  0.00000000000E+00 0. -1.
         36    2    1    2    0    0  0.35527136788E-14  0.00000000000E+00  0.26247111537E+03  0.38103642367E+03  0.27622032829E+03 0.  0.
         25    2    3    3    0    0 -0.21029181256E+02 -0.46429550052E+02  0.17475720007E+03  0.22083812946E+03  0.12502588078E+03 0.  0.
         25    2    3    3    0    0  0.21029181256E+02  0.46429550052E+02  0.87713915299E+02  0.16019829421E+03  0.12398319623E+03 0.  0.
          5    1    4    4  502    0  0.17150626681E+02 -0.73523175488E+02  0.59154092178E+02  0.96026548156E+02  0.47000000000E+01 0. -1.
         -5    1    4    4    0  502 -0.38179807937E+02  0.27093625436E+02  0.11560310790E+03  0.12481158131E+03  0.47000000000E+01 0. -1.
          5    1    5    5  503    0 -0.43392700061E+02 -0.88541399068E+01  0.11447922787E+02  0.45983335549E+02  0.47000000000E+01 0. -1.
         -5    1    5    5    0  503  0.64421881317E+02  0.55283689959E+02  0.76265992511E+02  0.11421495866E+03  0.47000000000E+01 0. -1.
<mgrwt>
<rscale>  0 0.27622033E+03</rscale>
<asrwt>0</asrwt>
<pdfrwt beam="1">  1        1 0.49500579E-01 0.27622033E+03</pdfrwt>
<pdfrwt beam="2">  1       -1 0.91204085E-02 0.27622033E+03</pdfrwt>
<totfact> 0.56014339E+03</totfact>
</mgrwt>
</event>
<event>
 9    1  0.2051157E-002  0.2761250E+03  0.7818608E-02  0.1097824E+00
         -2   -1    0    0    0  501 -0.00000000000E+00  0.00000000000E+00  0.97814001867E+02  0.97814001867E+02  0.00000000000E+00 0. -1.
          2   -1    0    0  501    0  0.00000000000E+00 -0.00000000000E+00 -0.19487237752E+03  0.19487237752E+03  0.00000000000E+00 0. -1.
         36    2    1    2    0    0  0.00000000000E+00 -0.71054273576E-14 -0.97058375652E+02  0.29268637939E+03  0.27612495069E+03 0.  0.
         25    2    3    3    0    0  0.49168180764E+02 -0.48688288646E+02 -0.40145814933E+02  0.14294884210E+03  0.11846782496E+03 0.  0.
         25    2    3    3    0    0 -0.49168180764E+02  0.48688288646E+02 -0.56912560720E+02  0.14973753729E+03  0.11997596032E+03 0.  0.
          5    1    4    4  502    0  0.25268759184E+01 -0.79227897726E+02 -0.34955416681E+02  0.86760682543E+02  0.47000000000E+01 0.  1.
         -5    1    4    4    0  502  0.46641304845E+02  0.30539609080E+02 -0.51903982516E+01  0.56188159557E+02  0.47000000000E+01 0.  1.
          5    1    5    5  503    0 -0.55443299457E+02  0.28759910937E+02  0.23213866601E+02  0.66798694107E+02  0.47000000000E+01 0. -1.
         -5    1    5    5    0  503  0.62751186931E+01  0.19928377710E+02 -0.80126427321E+02  0.82938843179E+02  0.47000000000E+01 0. -1.
<mgrwt>
<rscale>  0 0.27612495E+03</rscale>
<asrwt>0</asrwt>
<pdfrwt beam="1">  1        2 0.29980366E-01 0.27612495E+03</pdfrwt>
<pdfrwt beam="2">  1       -2 0.15048308E-01 0.27612495E+03</pdfrwt>
<totfact> 0.59324207E+03</totfact>
</mgrwt>
</event>
<event>
 9    1  0.2051157E-002  0.2752967E+03  0.7818608E-02  0.1098286E+00
         -2   -1    0    0    0  501 -0.00000000000E+00  0.00000000000E+00  0.93862373243E+02  0.93862373243E+02  0.00000000000E+00 0.  1.
          2   -1    0    0  501    0  0.00000000000E+00 -0.00000000000E+00 -0.20186014844E+03  0.20186014844E+03  0.00000000000E+00 0.  1.
         36    2    1    2    0    0  0.00000000000E+00  0.14210854715E-13 -0.10799777519E+03  0.29572252168E+03  0.27529673151E+03 0.  0.
         25    2    3    3    0    0  0.49259744230E+02 -0.32120892233E+02 -0.71850043984E+02  0.15369175245E+03  0.12247633172E+03 0.  0.
         25    2    3    3    0    0 -0.49259744230E+02  0.32120892233E+02 -0.36147731209E+02  0.14203076922E+03  0.12412818703E+03 0.  0.
          5    1    4    4  502    0 -0.11549149237E+01 -0.67692549720E+02 -0.60215035458E+02  0.90727920792E+02  0.47000000000E+01 0.  1.
         -5    1    4    4    0  502  0.50414659154E+02  0.35571657488E+02 -0.11635008527E+02  0.62963831661E+02  0.47000000000E+01 0.  1.
          5    1    5    5  503    0  0.13723152852E+02 -0.38994915215E+02 -0.47797383849E+01  0.41879162310E+02  0.47000000000E+01 0. -1.
         -5    1    5    5    0  503 -0.62982897082E+02  0.71115807447E+02 -0.31367992824E+02  0.10015160691E+03  0.47000000000E+01 0. -1.
<mgrwt>
<rscale>  0 0.27529673E+03</rscale>
<asrwt>0</asrwt>
<pdfrwt beam="1">  1        2 0.31055407E-01 0.27529673E+03</pdfrwt>
<pdfrwt beam="2">  1       -2 0.14440365E-01 0.27529673E+03</pdfrwt>
<totfact> 0.61086972E+03</totfact>
</mgrwt>
</event>
<event>
 9    1  0.2051157E-002  0.2750853E+03  0.7818608E-02  0.1098404E+00
          2   -1    0    0  501    0  0.00000000000E+00  0.00000000000E+00  0.11824600784E+03  0.11824600784E+03  0.00000000000E+00 0.  1.
         -2   -1    0    0    0  501 -0.00000000000E+00 -0.00000000000E+00 -0.15998831102E+03  0.15998831102E+03  0.00000000000E+00 0.  1.
         36    2    1    2    0    0  0.00000000000E+00  0.00000000000E+00 -0.41742303175E+02  0.27823431886E+03  0.27508528917E+03 0.  0.
         25    2    3    3    0    0 -0.34591003135E+02  0.44602843086E+02 -0.24273339282E+02  0.13994893985E+03  0.12574004794E+03 0.  0.
         25    2    3    3    0    0  0.34591003135E+02 -0.44602843086E+02 -0.17468963893E+02  0.13828537901E+03  0.12502691806E+03 0.  0.
          5    1    4    4  502    0 -0.28747677396E+02  0.82439212196E+01  0.49120520341E+02  0.57700144812E+02  0.47000000000E+01 0. -1.
         -5    1    4    4    0  502 -0.58433257392E+01  0.36358921867E+02 -0.73393859623E+02  0.82248795039E+02  0.47000000000E+01 0. -1.
          5    1    5    5  503    0  0.75315036566E+02 -0.10302333046E+02 -0.32431552900E+02  0.82779154518E+02  0.47000000000E+01 0.  1.
         -5    1    5    5    0  503 -0.40724033432E+02 -0.34300510040E+02  0.14962589007E+02  0.55506224496E+02  0.47000000000E+01 0.  1.
<mgrwt>
<rscale>  0 0.27508529E+03</rscale>
<asrwt>0</asrwt>
<pdfrwt beam="1">  1        2 0.18191694E-01 0.27508529E+03</pdfrwt>
<pdfrwt beam="2">  1       -2 0.24613586E-01 0.27508529E+03</pdfrwt>
<totfact> 0.45033045E+03</totfact>
</mgrwt>
</event>
<event>
 9    1  0.2051157E-002  0.2750018E+03  0.7818608E-02  0.1098451E+00
         -2   -1    0    0    0  501 -0.00000000000E+00  0.00000000000E+00  0.11975945307E+02  0.11975945307E+02  0.00000000000E+00 0. -1.
          2   -1    0    0  501    0  0.00000000000E+00 -0.00000000000E+00 -0.15787066365E+04  0.15787066365E+04  0.00000000000E+00 0. -1.
         36    2    1    2    0    0  0.71054273576E-14  0.00000000000E+00 -0.15667306912E+04  0.15906825819E+04  0.27500184970E+03 0.  0.
         25    2    3    3    0    0  0.30477989515E+02 -0.53483900861E+02 -0.79113303045E+03  0.80242355712E+03  0.11917490363E+03 0.  0.
         25    2    3    3    0    0 -0.30477989515E+02  0.53483900861E+02 -0.77559766078E+03  0.78825902473E+03  0.12653506690E+03 0.  0.
          5    1    4    4  502    0  0.67387586640E+02 -0.60131341955E+02 -0.65222145418E+03  0.65846167725E+03  0.47000000000E+01 0. -1.
         -5    1    4    4    0  502 -0.36909597125E+02  0.66474410939E+01 -0.13891157628E+03  0.14396187987E+03  0.47000000000E+01 0. -1.
          5    1    5    5  503    0  0.33385508243E+02  0.20696451277E+02 -0.55105005388E+03  0.55246826799E+03  0.47000000000E+01 0.  1.
         -5    1    5    5    0  503 -0.63863497758E+02  0.32787449583E+02 -0.22454760690E+03  0.23579075674E+03  0.47000000000E+01 0.  1.
<mgrwt>
<rscale>  0 0.27500185E+03</rscale>
<asrwt>0</asrwt>
<pdfrwt beam="1">  1        2 0.24287780E+00 0.27500185E+03</pdfrwt>
<pdfrwt beam="2">  1       -2 0.18424542E-02 0.27500185E+03</pdfrwt>
<totfact> 0.10804676E+04</totfact>
</mgrwt>
</event>
<event>
 9    1  0.2051157E-002  0.2736677E+03  0.7818608E-02  0.1099199E+00
         -1   -1    0    0    0  501 -0.00000000000E+00  0.00000000000E+00  0.44120772179E+01  0.44120772179E+01  0.00000000000E+00 0. -1.
          1   -1    0    0  501    0  0.00000000000E+00 -0.00000000000E+00 -0.42436932022E+04  0.42436932022E+04  0.00000000000E+00 0. -1.
         36    2    1    2    0    0  0.00000000000E+00  0.00000000000E+00 -0.42392811249E+04  0.42481052794E+04  0.27366769701E+03 0.  0.
         25    2    3    3    0    0  0.34086064234E+02 -0.26910644888E+02 -0.26974979494E+04  0.27006088659E+04  0.12209429402E+03 0.  0.
         25    2    3    3    0    0 -0.34086064234E+02  0.26910644888E+02 -0.15417831755E+04  0.15474964135E+04  0.12555376122E+03 0.  0.
          5    1    4    4  502    0 -0.30511460698E+02 -0.12203865406E+02 -0.24814276932E+03  0.25035336533E+03  0.47000000000E+01 0.  1.
         -5    1    4    4    0  502  0.64597524932E+02 -0.14706779482E+02 -0.24493551801E+04  0.24502555005E+04  0.47000000000E+01 0.  1.
          5    1    5    5  503    0  0.17119743797E+02  0.61276324600E+02 -0.10329693088E+04  0.10349374650E+04  0.47000000000E+01 0.  1.
         -5    1    5    5    0  503 -0.51205808031E+02 -0.34365679712E+02 -0.50881386671E+03  0.51255894848E+03  0.47000000000E+01 0.  1.
<mgrwt>
<rscale>  0 0.27366770E+03</rscale>
<asrwt>0</asrwt>
<pdfrwt beam="1">  1        1 0.65287432E+00 0.27366770E+03</pdfrwt>
<pdfrwt beam="2">  1       -1 0.67878272E-03 0.27366770E+03</pdfrwt>
<totfact> 0.25329931E+02</totfact>
</mgrwt>
</event>
<event>
 9    1  0.2051157E-002  0.2757185E+03  0.7818608E-02  0.1098051E+00
          2   -1    0    0  501    0  0.00000000000E+00  0.00000000000E+00  0.33001037845E+03  0.33001037845E+03  0.00000000000E+00 0.  1.
         -2   -1    0    0    0  501 -0.00000000000E+00 -0.00000000000E+00 -0.57589624820E+02  0.57589624820E+02  0.00000000000E+00 0.  1.
         36    2    1    2    0    0 -0.35527136788E-14  0.00000000000E+00  0.27242075363E+03  0.38760000327E+03  0.27571850777E+03 0.  0.
         25    2    3    3    0    0  0.11232029802E+02  0.57762313472E+02  0.11028991526E+03  0.17611072659E+03  0.12405030940E+03 0.  0.
         25    2    3    3    0    0 -0.11232029802E+02 -0.57762313472E+02  0.16213083838E+03  0.21148927668E+03  0.12238734431E+03 0.  0.
          5    1    4    4  502    0  0.49071275268E+02  0.36452184280E+02  0.11683311789E+03  0.13194248456E+03  0.47000000000E+01 0.  1.
         -5    1    4    4    0  502 -0.37839245466E+02  0.21310129192E+02 -0.65432026330E+01  0.44168242033E+02  0.47000000000E+01 0.  1.
          5    1    5    5  503    0 -0.13489403895E+01  0.38084915132E+02  0.57811966955E+02  0.69401685311E+02  0.47000000000E+01 0. -1.
         -5    1    5    5    0  503 -0.98830894130E+01 -0.95847228604E+02  0.10431887142E+03  0.14208759137E+03  0.47000000000E+01 0. -1.
<mgrwt>
<rscale>  0 0.27571851E+03</rscale>
<asrwt>0</asrwt>
<pdfrwt beam="1">  1        2 0.50770826E-01 0.27571851E+03</pdfrwt>
<pdfrwt beam="2">  1       -2 0.88599425E-02 0.27571851E+03</pdfrwt>
<totfact> 0.78741096E+03</totfact>
</mgrwt>
</event>
<event>
 9    1  0.2051157E-002  0.2744339E+03  0.7818608E-02  0.1098768E+00
          2   -1    0    0  501    0  0.00000000000E+00  0.00000000000E+00  0.18782158039E+03  0.18782158039E+03  0.00000000000E+00 0. -1.
         -2   -1    0    0    0  501 -0.00000000000E+00 -0.00000000000E+00 -0.10024669977E+03  0.10024669977E+03  0.00000000000E+00 0. -1.
         36    2    1    2    0    0  0.00000000000E+00 -0.71054273576E-14  0.87574880624E+02  0.28806828016E+03  0.27443391612E+03 0.  0.
         25    2    3    3    0    0  0.23916156364E+02  0.29532814691E+02  0.83206714540E+02  0.15739060030E+03  0.12807917099E+03 0.  0.
         25    2    3    3    0    0 -0.23916156364E+02 -0.29532814691E+02  0.43681660837E+01  0.13067767986E+03  0.12495361323E+03 0.  0.
          5    1    4    4  502    0 -0.21691348842E+02 -0.18969055306E+02 -0.19351586020E+02  0.35027325837E+02  0.47000000000E+01 0.  1.
         -5    1    4    4    0  502  0.45607505205E+02  0.48501869997E+02  0.10255830056E+03  0.12236327447E+03  0.47000000000E+01 0.  1.
          5    1    5    5  503    0 -0.41061912051E+01  0.48571591242E+02 -0.58496487669E+01  0.49319049795E+02  0.47000000000E+01 0. -1.
         -5    1    5    5    0  503 -0.19809965159E+02 -0.78104405933E+02  0.10217814851E+02  0.81358630065E+02  0.47000000000E+01 0. -1.
<mgrwt>
<rscale>  0 0.27443392E+03</rscale>
<asrwt>0</asrwt>
<pdfrwt beam="1">  1        2 0.28895628E-01 0.27443392E+03</pdfrwt>
<pdfrwt beam="2">  1       -2 0.15422569E-01 0.27443392E+03</pdfrwt>
<totfact> 0.59302433E+03</totfact>
</mgrwt>
</event>
<event>
 9    1  0.2051157E-002  0.2753761E+03  0.7818608E-02  0.1098242E+00
         -1   -1    0    0    0  501 -0.00000000000E+00  0.00000000000E+00  0.16973403505E+02  0.16973403505E+02  0.00000000000E+00 0. -1.
          1   -1    0    0  501    0  0.00000000000E+00 -0.00000000000E+00 -0.11169240455E+04  0.11169240455E+04  0.00000000000E+00 0. -1.
         36    2    1    2    0    0  0.71054273576E-14 -0.14210854715E-13 -0.10999506420E+04  0.11338974490E+04  0.27537612467E+03 0.  0.
         25    2    3    3    0    0  0.25143005821E+02 -0.50751829303E+02 -0.65158215804E+03  0.66485949349E+03  0.11946094964E+03 0.  0.
         25    2    3    3    0    0 -0.25143005821E+02  0.50751829303E+02 -0.44836848400E+03  0.46903795556E+03  0.12551648255E+03 0.  0.
          5    1    4    4  502    0  0.54845481962E+02 -0.74848496886E+01 -0.14074262923E+03  0.15130970738E+03  0.47000000000E+01 0.  1.
         -5    1    4    4    0  502 -0.29702476140E+02 -0.43266979614E+02 -0.51083952881E+03  0.51354978610E+03  0.47000000000E+01 0.  1.
          5    1    5    5  503    0  0.50221603153E+01 -0.37035549056E+02 -0.70791901567E+02  0.80190007580E+02  0.47000000000E+01 0.  1.
         -5    1    5    5    0  503 -0.30165166137E+02  0.87787378359E+02 -0.37757658243E+03  0.38884794798E+03  0.47000000000E+01 0.  1.
<mgrwt>
<rscale>  0 0.27537612E+03</rscale>
<asrwt>0</asrwt>
<pdfrwt beam="1">  1        1 0.17183443E+00 0.27537612E+03</pdfrwt>
<pdfrwt beam="2">  1       -1 0.26112935E-02 0.27537612E+03</pdfrwt>
<totfact> 0.60733798E+03</totfact>
</mgrwt>
</event>
<event>
 9    1  0.2051157E-002  0.2743157E+03  0.7818608E-02  0.1098835E+00
         -1   -1    0    0    0  501 -0.00000000000E+00  0.00000000000E+00  0.20442907969E+02  0.20442907969E+02  0.00000000000E+00 0. -1.
          1   -1    0    0  501    0  0.00000000000E+00 -0.00000000000E+00 -0.92023473434E+03  0.92023473434E+03  0.00000000000E+00 0. -1.
         36    2    1    2    0    0  0.00000000000E+00  0.14210854715E-13 -0.89979182637E+03  0.94067764231E+03  0.27431568664E+03 0.  0.
         25    2    3    3    0    0  0.24091414385E+02 -0.48119104070E+02 -0.54274624491E+03  0.55829674197E+03  0.11927246669E+03 0.  0.
         25    2    3    3    0    0 -0.24091414385E+02  0.48119104070E+02 -0.35704558146E+03  0.38238090033E+03  0.12584816756E+03 0.  0.
          5    1    4    4  502    0 -0.20624794866E+02 -0.18528517207E+02 -0.45137327142E+03  0.45224839222E+03  0.47000000000E+01 0. -1.
         -5    1    4    4    0  502  0.44716209251E+02 -0.29590586863E+02 -0.91372973487E+02  0.10604834975E+03  0.47000000000E+01 0. -1.
          5    1    5    5  503    0 -0.67371442527E+01  0.88674603536E+02 -0.19500174043E+03  0.21437430629E+03  0.47000000000E+01 0.  1.
         -5    1    5    5    0  503 -0.17354270132E+02 -0.40555499466E+02 -0.16204384103E+03  0.16800659405E+03  0.47000000000E+01 0.  1.
<mgrwt>
<rscale>  0 0.27431569E+03</rscale>
<asrwt>0</asrwt>
<pdfrwt beam="1">  1        1 0.14157456E+00 0.27431569E+03</pdfrwt>
<pdfrwt beam="2">  1       -1 0.31450631E-02 0.27431569E+03</pdfrwt>
<totfact> 0.64674168E+03</totfact>
</mgrwt>
</event>
<event>
 9    1  0.2051157E-002  0.2750612E+03  0.7818608E-02  0.1098417E+00
          1   -1    0    0  501    0  0.00000000000E+00  0.00000000000E+00  0.19399571016E+03  0.19399571016E+03  0.00000000000E+00 0.  1.
         -1   -1    0    0    0  501 -0.00000000000E+00 -0.00000000000E+00 -0.97500437870E+02  0.97500437870E+02  0.00000000000E+00 0.  1.
         36    2    1    2    0    0  0.71054273576E-14 -0.14210854715E-13  0.96495272293E+02  0.29149614803E+03  0.27506120545E+03 0.  0.
         25    2    3    3    0    0 -0.40067438845E+02 -0.68225925242E+02  0.11040994825E+03  0.18409864782E+03  0.12426495455E+03 0.  0.
         25    2    3    3    0    0  0.40067438845E+02  0.68225925242E+02 -0.13914675954E+02  0.10739750021E+03  0.71277123350E+02 0.  0.
          5    1    4    4  502    0  0.70163509573E+01 -0.93263903307E+02  0.66410363791E+02  0.11480335910E+03  0.47000000000E+01 0.  1.
         -5    1    4    4    0  502 -0.47083789803E+02  0.25037978065E+02  0.43999584455E+02  0.69295288729E+02  0.47000000000E+01 0.  1.
          5    1    5    5  503    0 -0.72716357532E+01  0.55829903932E+02 -0.14126863725E+02  0.58236699239E+02  0.47000000000E+01 0.  1.
         -5    1    5    5    0  503  0.47339074598E+02  0.12396021310E+02  0.21218777151E+00  0.49160800968E+02  0.47000000000E+01 0.  1.
<mgrwt>
<rscale>  0 0.27506121E+03</rscale>
<asrwt>0</asrwt>
<pdfrwt beam="1">  1        1 0.29845494E-01 0.27506121E+03</pdfrwt>
<pdfrwt beam="2">  1       -1 0.15000067E-01 0.27506121E+03</pdfrwt>
<totfact> 0.48672524E+03</totfact>
</mgrwt>
</event>
<event>
 9    1  0.2051157E-002  0.2756412E+03  0.7818608E-02  0.1098094E+00
          2   -1    0    0  501    0  0.00000000000E+00  0.00000000000E+00  0.53422262771E+03  0.53422262771E+03  0.00000000000E+00 0. -1.
         -2   -1    0    0    0  501 -0.00000000000E+00 -0.00000000000E+00 -0.35555424615E+02  0.35555424615E+02  0.00000000000E+00 0. -1.
         36    2    1    2    0    0 -0.71054273576E-14  0.00000000000E+00  0.49866720309E+03  0.56977805232E+03  0.27564116069E+03 0.  0.
         25    2    3    3    0    0  0.62645910939E+02  0.71970348421E+01  0.29191359940E+03  0.32304214761E+03  0.12315182560E+03 0.  0.
         25    2    3    3    0    0 -0.62645910939E+02 -0.71970348421E+01  0.20675360369E+03  0.24673590471E+03  0.11897582346E+03 0.  0.
          5    1    4    4  502    0 -0.20938147501E+02 -0.24908968173E+02  0.24514338794E+02  0.41011041473E+02  0.47000000000E+01 0. -1.
         -5    1    4    4    0  502  0.83584058440E+02  0.32106003015E+02  0.26739926061E+03  0.28203110614E+03  0.47000000000E+01 0. -1.
          5    1    5    5  503    0 -0.35007207964E+02 -0.51300122494E+02  0.17460094823E+03  0.18537742122E+03  0.47000000000E+01 0.  1.
         -5    1    5    5    0  503 -0.27638702976E+02  0.44103087652E+02  0.32152655460E+02  0.61358483487E+02  0.47000000000E+01 0.  1.
<mgrwt>
<rscale>  0 0.27564116E+03</rscale>
<asrwt>0</asrwt>
<pdfrwt beam="1">  1        2 0.82188091E-01 0.27564116E+03</pdfrwt>
<pdfrwt beam="2">  1       -2 0.54700657E-02 0.27564116E+03</pdfrwt>
<totfact> 0.97987664E+03</totfact>
</mgrwt>
</event>
<event>
 9    1  0.2051157E-002  0.2754817E+03  0.7818608E-02  0.1098183E+00
          1   -1    0    0  501    0  0.00000000000E+00  0.00000000000E+00  0.20070581229E+03  0.20070581229E+03  0.00000000000E+00 0. -1.
         -1   -1    0    0    0  501 -0.00000000000E+00 -0.00000000000E+00 -0.94529091453E+02  0.94529091453E+02  0.00000000000E+00 0. -1.
         36    2    1    2    0    0  0.00000000000E+00 -0.71054273576E-14  0.10617672084E+03  0.29523490374E+03  0.27548167333E+03 0.  0.
         25    2    3    3    0    0  0.22132952382E+02 -0.34556741278E+02  0.79988914768E+02  0.15696633091E+03  0.12867076826E+03 0.  0.
         25    2    3    3    0    0 -0.22132952382E+02  0.34556741278E+02  0.26187806071E+02  0.13826857284E+03  0.12941545927E+03 0.  0.
          5    1    4    4  502    0  0.33532897325E+02 -0.10907192893E+02 -0.28289692864E+02  0.45451279214E+02  0.47000000000E+01 0.  1.
         -5    1    4    4    0  502 -0.11399944943E+02 -0.23649548385E+02  0.10827860763E+03  0.11151505169E+03  0.47000000000E+01 0.  1.
          5    1    5    5  503    0 -0.22884669235E+02  0.77927198497E+02 -0.94928615726E+01  0.81905804266E+02  0.47000000000E+01 0.  1.
         -5    1    5    5    0  503  0.75171685290E+00 -0.43370457219E+02  0.35680667644E+02  0.56362768572E+02  0.47000000000E+01 0.  1.
<mgrwt>
<rscale>  0 0.27548167E+03</rscale>
<asrwt>0</asrwt>
<pdfrwt beam="1">  1        1 0.30877817E-01 0.27548167E+03</pdfrwt>
<pdfrwt beam="2">  1       -1 0.14542937E-01 0.27548167E+03</pdfrwt>
<totfact> 0.48975773E+03</totfact>
</mgrwt>
</event>
<event>
 9    1  0.2051157E-002  0.2750406E+03  0.7818608E-02  0.1098429E+00
         -1   -1    0    0    0  501 -0.00000000000E+00  0.00000000000E+00  0.46873210182E+02  0.46873210182E+02  0.00000000000E+00 0.  1.
          1   -1    0    0  501    0  0.00000000000E+00 -0.00000000000E+00 -0.40346791347E+03  0.40346791347E+03  0.00000000000E+00 0.  1.
         36    2    1    2    0    0 -0.71054273576E-14 -0.71054273576E-14 -0.35659470329E+03  0.45034112365E+03  0.27504062471E+03 0.  0.
         25    2    3    3    0    0  0.25338660563E+01  0.45238635639E+02 -0.24163661318E+03  0.27625284250E+03  0.12599375196E+03 0.  0.
         25    2    3    3    0    0 -0.25338660563E+01 -0.45238635639E+02 -0.11495809011E+03  0.17408828115E+03  0.12263120533E+03 0.  0.
          5    1    4    4  502    0  0.57899517954E+02  0.51533461991E+02 -0.14978518351E+03  0.16871793942E+03  0.47000000000E+01 0. -1.
         -5    1    4    4    0  502 -0.55365651897E+02 -0.62948263518E+01 -0.91851429670E+02  0.10753490308E+03  0.47000000000E+01 0. -1.
          5    1    5    5  503    0 -0.19868966341E+02 -0.10803091060E+02 -0.13029858794E+03  0.13233024832E+03  0.47000000000E+01 0.  1.
         -5    1    5    5    0  503  0.17335100284E+02 -0.34435544579E+02  0.15340497831E+02  0.41758032832E+02  0.47000000000E+01 0.  1.
<mgrwt>
<rscale>  0 0.27504062E+03</rscale>
<asrwt>0</asrwt>
<pdfrwt beam="1">  1        1 0.62071984E-01 0.27504062E+03</pdfrwt>
<pdfrwt beam="2">  1       -1 0.72112634E-02 0.27504062E+03</pdfrwt>
<totfact> 0.60145437E+03</totfact>
</mgrwt>
</event>
<event>
 9    1  0.2051157E-002  0.2750726E+03  0.7818608E-02  0.1098411E+00
         -2   -1    0    0    0  501 -0.00000000000E+00  0.00000000000E+00  0.40198100444E+03  0.40198100444E+03  0.00000000000E+00 0.  1.
          2   -1    0    0  501    0  0.00000000000E+00 -0.00000000000E+00 -0.47057533421E+02  0.47057533421E+02  0.00000000000E+00 0.  1.
         36    2    1    2    0    0  0.00000000000E+00  0.71054273576E-14  0.35492347102E+03  0.44903853786E+03  0.27507260533E+03 0.  0.
         25    2    3    3    0    0 -0.16359765698E+02  0.43630011719E+02  0.23397221868E+03  0.26921953970E+03  0.12475953505E+03 0.  0.
         25    2    3    3    0    0  0.16359765698E+02 -0.43630011719E+02  0.12095125234E+03  0.17981899817E+03  0.12463726089E+03 0.  0.
          5    1    4    4  502    0 -0.63996880538E+02  0.57943252021E+00  0.81640891400E+02  0.10384248461E+03  0.47000000000E+01 0.  1.
         -5    1    4    4    0  502  0.47637114841E+02  0.43050579198E+02  0.15233132728E+03  0.16537705509E+03  0.47000000000E+01 0.  1.
          5    1    5    5  503    0 -0.15432775725E+02 -0.81599571385E+02  0.79629647462E+02  0.11515047274E+03  0.47000000000E+01 0. -1.
         -5    1    5    5    0  503  0.31792541422E+02  0.37969559666E+02  0.41321604881E+02  0.64668525430E+02  0.47000000000E+01 0. -1.
<mgrwt>
<rscale>  0 0.27507261E+03</rscale>
<asrwt>0</asrwt>
<pdfrwt beam="1">  1        2 0.72396208E-02 0.27507261E+03</pdfrwt>
<pdfrwt beam="2">  1       -2 0.61843229E-01 0.27507261E+03</pdfrwt>
<totfact> 0.23939919E+03</totfact>
</mgrwt>
</event>
<event>
 9    1  0.2051157E-002  0.2754924E+03  0.7818608E-02  0.1098177E+00
          2   -1    0    0  501    0  0.00000000000E+00  0.00000000000E+00  0.31440392776E+03  0.31440392776E+03  0.00000000000E+00 0. -1.
         -2   -1    0    0    0  501 -0.00000000000E+00 -0.00000000000E+00 -0.60349176315E+02  0.60349176315E+02  0.00000000000E+00 0. -1.
         36    2    1    2    0    0  0.00000000000E+00  0.00000000000E+00  0.25405475144E+03  0.37475310407E+03  0.27549241783E+03 0.  0.
         25    2    3    3    0    0 -0.20606747654E+02 -0.38353665004E+02  0.75880558254E+02  0.15215352101E+03  0.12448772295E+03 0.  0.
         25    2    3    3    0    0  0.20606747654E+02  0.38353665004E+02  0.17817419319E+03  0.22259958307E+03  0.12613044674E+03 0.  0.
          5    1    4    4  502    0 -0.26362638575E+02 -0.81292362113E+02  0.64336513514E+02  0.10707340390E+03  0.47000000000E+01 0. -1.
         -5    1    4    4    0  502  0.57558909210E+01  0.42938697109E+02  0.11544044739E+02  0.45080117110E+02  0.47000000000E+01 0. -1.
          5    1    5    5  503    0  0.15644606571E+02 -0.40910099038E+02  0.10753240539E+03  0.11620541350E+03  0.47000000000E+01 0. -1.
         -5    1    5    5    0  503  0.49621410835E+01  0.79263764042E+02  0.70641787802E+02  0.10639416957E+03  0.47000000000E+01 0. -1.
<mgrwt>
<rscale>  0 0.27549242E+03</rscale>
<asrwt>0</asrwt>
<pdfrwt beam="1">  1        2 0.48369834E-01 0.27549242E+03</pdfrwt>
<pdfrwt beam="2">  1       -2 0.92844889E-02 0.27549242E+03</pdfrwt>
<totfact> 0.77050680E+03</totfact>
</mgrwt>
</event>
<event>
 9    1  0.2051157E-002  0.2745653E+03  0.7818608E-02  0.1098695E+00
          2   -1    0    0  501    0  0.00000000000E+00  0.00000000000E+00  0.30894961933E+04  0.30894961933E+04  0.00000000000E+00 0. -1.
         -2   -1    0    0    0  501 -0.00000000000E+00 -0.00000000000E+00 -0.61001959486E+01  0.61001959486E+01  0.00000000000E+00 0. -1.
         36    2    1    2    0    0  0.71054273576E-14  0.00000000000E+00  0.30833959974E+04  0.30955963893E+04  0.27456534495E+03 0.  0.
         25    2    3    3    0    0  0.45201053135E+02 -0.23519561107E+02  0.12773385553E+04  0.12846455994E+04  0.12698120410E+03 0.  0.
         25    2    3    3    0    0 -0.45201053135E+02  0.23519561107E+02  0.18060574421E+04  0.18109507899E+04  0.12289415923E+03 0.  0.
          5    1    4    4  502    0  0.84677159395E+02  0.25486748191E+01  0.96327527799E+03  0.96700468885E+03  0.47000000000E+01 0.  1.
         -5    1    4    4    0  502 -0.39476106261E+02 -0.26068235926E+02  0.31406327729E+03  0.31764091052E+03  0.47000000000E+01 0.  1.
          5    1    5    5  503    0 -0.83540854599E+02  0.10709769873E+01  0.93080262604E+03  0.93455649375E+03  0.47000000000E+01 0. -1.
         -5    1    5    5    0  503  0.38339801465E+02  0.22448584119E+02  0.87525481604E+03  0.87639429614E+03  0.47000000000E+01 0. -1.
<mgrwt>
<rscale>  0 0.27456534E+03</rscale>
<asrwt>0</asrwt>
<pdfrwt beam="1">  1        2 0.47530586E+00 0.27456534E+03</pdfrwt>
<pdfrwt beam="2">  1       -2 0.93849415E-03 0.27456534E+03</pdfrwt>
<totfact> 0.43068893E+03</totfact>
</mgrwt>
</event>
<event>
 9    1  0.2051157E-002  0.2757164E+03  0.7818608E-02  0.1098052E+00
          2   -1    0    0  501    0  0.00000000000E+00  0.00000000000E+00  0.55085251518E+03  0.55085251518E+03  0.00000000000E+00 0.  1.
         -2   -1    0    0    0  501 -0.00000000000E+00 -0.00000000000E+00 -0.34500865025E+02  0.34500865025E+02  0.00000000000E+00 0.  1.
         36    2    1    2    0    0  0.00000000000E+00  0.00000000000E+00  0.51635165016E+03  0.58535338021E+03  0.27571643604E+03 0.  0.
         25    2    3    3    0    0  0.50728389797E+02 -0.90373611296E+01  0.31286630861E+03  0.34107896023E+03  0.12567611795E+03 0.  0.
         25    2    3    3    0    0 -0.50728389797E+02  0.90373611296E+01  0.20348534155E+03  0.24427441998E+03  0.12493464132E+03 0.  0.
          5    1    4    4  502    0  0.23163413861E+02  0.57987696408E+02  0.16073231956E+03  0.17249952240E+03  0.47000000000E+01 0.  1.
         -5    1    4    4    0  502  0.27564975936E+02 -0.67025057538E+02  0.15213398905E+03  0.16857943784E+03  0.47000000000E+01 0.  1.
          5    1    5    5  503    0 -0.36020208172E+02 -0.43099929912E+02  0.32973595781E+02  0.65302430076E+02  0.47000000000E+01 0.  1.
         -5    1    5    5    0  503 -0.14708181626E+02  0.52137291042E+02  0.17051174577E+03  0.17897198990E+03  0.47000000000E+01 0.  1.
<mgrwt>
<rscale>  0 0.27571644E+03</rscale>
<asrwt>0</asrwt>
<pdfrwt beam="1">  1        2 0.84746535E-01 0.27571644E+03</pdfrwt>
<pdfrwt beam="2">  1       -2 0.53078258E-02 0.27571644E+03</pdfrwt>
<totfact> 0.99083984E+03</totfact>
</mgrwt>
</event>
<event>
 9    1  0.2051157E-002  0.2760746E+03  0.7818608E-02  0.1097852E+00
         -1   -1    0    0    0  501 -0.00000000000E+00  0.00000000000E+00  0.20671179385E+03  0.20671179385E+03  0.00000000000E+00 0. -1.
          1   -1    0    0  501    0  0.00000000000E+00 -0.00000000000E+00 -0.92178110121E+02  0.92178110121E+02  0.00000000000E+00 0. -1.
         36    2    1    2    0    0  0.00000000000E+00  0.71054273576E-14  0.11453368373E+03  0.29888990397E+03  0.27607464568E+03 0.  0.
         25    2    3    3    0    0  0.14289872361E+02  0.37528786842E+02  0.24332206139E+02  0.13481723632E+03  0.12637650359E+03 0.  0.
         25    2    3    3    0    0 -0.14289872361E+02 -0.37528786842E+02  0.90201477588E+02  0.16407266765E+03  0.13103787016E+03 0.  0.
          5    1    4    4  502    0  0.16157675907E+02  0.38815217026E+02 -0.47033591230E+02  0.63260890505E+02  0.47000000000E+01 0.  1.
         -5    1    4    4    0  502 -0.18678035460E+01 -0.12864301838E+01  0.71365797369E+02  0.71556345818E+02  0.47000000000E+01 0.  1.
          5    1    5    5  503    0  0.53506893605E+01 -0.17187265331E+00 -0.32998724865E+02  0.33758928590E+02  0.47000000000E+01 0.  1.
         -5    1    5    5    0  503 -0.19640561722E+02 -0.37356914189E+02  0.12320020245E+03  0.13031373906E+03  0.47000000000E+01 0.  1.
<mgrwt>
<rscale>  0 0.27607465E+03</rscale>
<asrwt>0</asrwt>
<pdfrwt beam="1">  1        1 0.14181248E-01 0.27607465E+03</pdfrwt>
<pdfrwt beam="2">  1       -1 0.31801814E-01 0.27607465E+03</pdfrwt>
<totfact> 0.36908457E+03</totfact>
</mgrwt>
</event>
<event>
 9    1  0.2051157E-002  0.2756459E+03  0.7818608E-02  0.1098091E+00
         -1   -1    0    0    0  501 -0.00000000000E+00  0.00000000000E+00  0.87479753522E+01  0.87479753522E+01  0.00000000000E+00 0. -1.
          1   -1    0    0  501    0  0.00000000000E+00 -0.00000000000E+00 -0.21713777488E+04  0.21713777488E+04  0.00000000000E+00 0. -1.
         36    2    1    2    0    0  0.00000000000E+00  0.35527136788E-14 -0.21626297734E+04  0.21801257241E+04  0.27564585269E+03 0.  0.
         25    2    3    3    0    0  0.63926121690E+02 -0.14922650452E+02 -0.10250061267E+04  0.10342072914E+04  0.12098730260E+03 0.  0.
         25    2    3    3    0    0 -0.63926121690E+02  0.14922650452E+02 -0.11376236467E+04  0.11459184327E+04  0.12096387159E+03 0.  0.
          5    1    4    4  502    0 -0.58340080807E+01  0.44473103626E+02 -0.39249903003E+03  0.39508160065E+03  0.47000000000E+01 0.  1.
         -5    1    4    4    0  502  0.69760129771E+02 -0.59395754078E+02 -0.63250709665E+03  0.63912569078E+03  0.47000000000E+01 0.  1.
          5    1    5    5  503    0 -0.54949161127E+02  0.17267954753E+02 -0.19860124699E+03  0.20683843423E+03  0.47000000000E+01 0.  1.
         -5    1    5    5    0  503 -0.89769605633E+01 -0.23453043010E+01 -0.93902239974E+03  0.93907999845E+03  0.47000000000E+01 0.  1.
<mgrwt>
<rscale>  0 0.27564585E+03</rscale>
<asrwt>0</asrwt>
<pdfrwt beam="1">  1        1 0.33405821E+00 0.27564585E+03</pdfrwt>
<pdfrwt beam="2">  1       -1 0.13458420E-02 0.27564585E+03</pdfrwt>
<totfact> 0.31894138E+03</totfact>
</mgrwt>
</event>
<event>
 9    1  0.2051157E-002  0.2671085E+03  0.7818608E-02  0.1102946E+00
         -2   -1    0    0    0  501 -0.00000000000E+00  0.00000000000E+00  0.14573546113E+02  0.14573546113E+02  0.00000000000E+00 0.  1.
          2   -1    0    0  501    0  0.00000000000E+00 -0.00000000000E+00 -0.12239121011E+04  0.12239121011E+04  0.00000000000E+00 0.  1.
         36    2    1    2    0    0  0.00000000000E+00 -0.71054273576E-14 -0.12093385550E+04  0.12384856473E+04  0.26710851312E+03 0.  0.
         25    2    3    3    0    0  0.38088340214E+02 -0.23622061967E+02 -0.69956074264E+03  0.71155828336E+03  0.12215250508E+03 0.  0.
         25    2    3    3    0    0 -0.38088340214E+02  0.23622061967E+02 -0.50977781239E+03  0.52692736390E+03  0.12557987637E+03 0.  0.
          5    1    4    4  502    0  0.47502715418E+02  0.31137261656E+02 -0.17510087432E+03  0.18414245361E+03  0.47000000000E+01 0. -1.
         -5    1    4    4    0  502 -0.94143752038E+01 -0.54759323623E+02 -0.52445986833E+03  0.52741582975E+03  0.47000000000E+01 0. -1.
          5    1    5    5  503    0  0.26595519914E+02 -0.35370236469E+02 -0.20596474504E+03  0.21071768200E+03  0.47000000000E+01 0. -1.
         -5    1    5    5    0  503 -0.64683860128E+02  0.58992298436E+02 -0.30381306735E+03  0.31620968190E+03  0.47000000000E+01 0. -1.
<mgrwt>
<rscale>  0 0.26710851E+03</rscale>
<asrwt>0</asrwt>
<pdfrwt beam="1">  1        2 0.18829425E+00 0.26710851E+03</pdfrwt>
<pdfrwt beam="2">  1       -2 0.22420831E-02 0.26710851E+03</pdfrwt>
<totfact> 0.12616525E+04</totfact>
</mgrwt>
</event>
<event>
 9    1  0.2051157E-002  0.2749159E+03  0.7818608E-02  0.1098499E+00
         -4   -1    0    0    0  501 -0.00000000000E+00  0.00000000000E+00  0.21012499738E+03  0.21012499738E+03  0.00000000000E+00 0. -1.
          4   -1    0    0  501    0  0.00000000000E+00 -0.00000000000E+00 -0.89921194159E+02  0.89921194159E+02  0.00000000000E+00 0. -1.
         36    2    1    2    0    0 -0.71054273576E-14  0.35527136788E-14  0.12020380322E+03  0.30004619154E+03  0.27491591941E+03 0.  0.
         25    2    3    3    0    0  0.38001325268E+02  0.29818159124E+02  0.61908762670E+02  0.15419526094E+03  0.13270365581E+03 0.  0.
         25    2    3    3    0    0 -0.38001325268E+02 -0.29818159124E+02  0.58295040550E+02  0.14585093060E+03  0.12466338222E+03 0.  0.
          5    1    4    4  502    0  0.65028011754E+02  0.27200729334E+02 -0.15242798536E+02  0.72270013810E+02  0.47000000000E+01 0.  1.
         -5    1    4    4    0  502 -0.27026686486E+02  0.26174297905E+01  0.77151561206E+02  0.81925247132E+02  0.47000000000E+01 0.  1.
          5    1    5    5  503    0 -0.76208216084E+02  0.61820668180E+01  0.52414120350E+02  0.92818318025E+02  0.47000000000E+01 0. -1.
         -5    1    5    5    0  503  0.38206890816E+02 -0.36000225942E+02  0.58809202000E+01  0.53032612571E+02  0.47000000000E+01 0. -1.
<mgrwt>
<rscale>  0 0.27491592E+03</rscale>
<asrwt>0</asrwt>
<pdfrwt beam="1">  1        4 0.13834030E-01 0.27491592E+03</pdfrwt>
<pdfrwt beam="2">  1       -4 0.32326922E-01 0.27491592E+03</pdfrwt>
<totfact> 0.75060252E+02</totfact>
</mgrwt>
</event>
<event>
 9    1  0.2051157E-002  0.2757645E+03  0.7818608E-02  0.1098025E+00
         -2   -1    0    0    0  501 -0.00000000000E+00  0.00000000000E+00  0.66330131409E+02  0.66330131409E+02  0.00000000000E+00 0. -1.
          2   -1    0    0  501    0  0.00000000000E+00 -0.00000000000E+00 -0.28661956626E+03  0.28661956626E+03  0.00000000000E+00 0. -1.
         36    2    1    2    0    0  0.14210854715E-13  0.00000000000E+00 -0.22028943485E+03  0.35294969767E+03  0.27576449006E+03 0.  0.
         25    2    3    3    0    0  0.67375036780E+02 -0.15151096311E+02 -0.13289011960E+03  0.20043935050E+03  0.13321860996E+03 0.  0.
         25    2    3    3    0    0 -0.67375036780E+02  0.15151096311E+02 -0.87399315248E+02  0.15251034717E+03  0.10417204225E+03 0.  0.
          5    1    4    4  502    0  0.78227036180E+02 -0.19708126174E+02 -0.15393697118E+02  0.82261384244E+02  0.47000000000E+01 0.  1.
         -5    1    4    4    0  502 -0.10851999400E+02  0.45570298630E+01 -0.11749642248E+03  0.11817796626E+03  0.47000000000E+01 0.  1.
          5    1    5    5  503    0  0.26884031509E+02  0.12011297231E+02 -0.14165286307E+02  0.33011630489E+02  0.47000000000E+01 0. -1.
         -5    1    5    5    0  503 -0.94259068289E+02  0.31397990799E+01 -0.73234028941E+02  0.11949871668E+03  0.47000000000E+01 0. -1.
<mgrwt>
<rscale>  0 0.27576449E+03</rscale>
<asrwt>0</asrwt>
<pdfrwt beam="1">  1        2 0.44095318E-01 0.27576449E+03</pdfrwt>
<pdfrwt beam="2">  1       -2 0.10204635E-01 0.27576449E+03</pdfrwt>
<totfact> 0.73268899E+03</totfact>
</mgrwt>
</event>
<event>
 9    1  0.2051157E-002  0.2765135E+03  0.7818608E-02  0.1097609E+00
         -2   -1    0    0    0  501 -0.00000000000E+00  0.00000000000E+00  0.58142973082E+02  0.58142973082E+02  0.00000000000E+00 0. -1.
          2   -1    0    0  501    0  0.00000000000E+00 -0.00000000000E+00 -0.32875734661E+03  0.32875734661E+03  0.00000000000E+00 0. -1.
         36    2    1    2    0    0 -0.71054273576E-14  0.00000000000E+00 -0.27061437353E+03  0.38690031969E+03  0.27651350458E+03 0.  0.
         25    2    3    3    0    0 -0.41328730466E+02  0.38421329525E+02 -0.68108537498E+02  0.14189057515E+03  0.11094998834E+03 0.  0.
         25    2    3    3    0    0  0.41328730466E+02 -0.38421329525E+02 -0.20250583603E+03  0.24500974454E+03  0.12584474073E+03 0.  0.
          5    1    4    4  502    0 -0.68101624741E+02  0.58803779881E+02 -0.44277958589E+02  0.10039095297E+03  0.47000000000E+01 0. -1.
         -5    1    4    4    0  502  0.26772894275E+02 -0.20382450357E+02 -0.23830578909E+02  0.41499622185E+02  0.47000000000E+01 0. -1.
          5    1    5    5  503    0  0.73647421114E+02 -0.14823857552E+02 -0.18744767440E+03  0.20199606439E+03  0.47000000000E+01 0.  1.
         -5    1    5    5    0  503 -0.32318690648E+02 -0.23597471973E+02 -0.15058161631E+02  0.43013680154E+02  0.47000000000E+01 0.  1.
<mgrwt>
<rscale>  0 0.27651350E+03</rscale>
<asrwt>0</asrwt>
<pdfrwt beam="1">  1        2 0.50578053E-01 0.27651350E+03</pdfrwt>
<pdfrwt beam="2">  1       -2 0.89450729E-02 0.27651350E+03</pdfrwt>
<totfact> 0.77891243E+03</totfact>
</mgrwt>
</event>
<event>
 9    1  0.2051157E-002  0.2749569E+03  0.7818608E-02  0.1098476E+00
          1   -1    0    0  501    0  0.00000000000E+00  0.00000000000E+00  0.65083717056E+03  0.65083717056E+03  0.00000000000E+00 0.  1.
         -1   -1    0    0    0  501 -0.00000000000E+00 -0.00000000000E+00 -0.29040029570E+02  0.29040029570E+02  0.00000000000E+00 0.  1.
         36    2    1    2    0    0  0.00000000000E+00  0.71054273576E-14  0.62179714099E+03  0.67987720013E+03  0.27495694702E+03 0.  0.
         25    2    3    3    0    0 -0.41547803742E+02  0.22558009509E+02  0.39933035034E+03  0.42174396302E+03  0.12715407133E+03 0.  0.
         25    2    3    3    0    0  0.41547803742E+02 -0.22558009509E+02  0.22246679065E+03  0.25813323710E+03  0.12209099626E+03 0.  0.
          5    1    4    4  502    0 -0.15039902391E+01 -0.49219532202E+02  0.10418468797E+03  0.11533153751E+03  0.47000000000E+01 0.  1.
         -5    1    4    4    0  502 -0.40043813503E+02  0.71777541711E+02  0.29514566237E+03  0.30641242552E+03  0.47000000000E+01 0.  1.
          5    1    5    5  503    0 -0.26377992828E+02 -0.19820790405E+01  0.16363641738E+03  0.16582730245E+03  0.47000000000E+01 0.  1.
         -5    1    5    5    0  503  0.67925796570E+02 -0.20575930468E+02  0.58830373267E+02  0.92305934658E+02  0.47000000000E+01 0.  1.
<mgrwt>
<rscale>  0 0.27495695E+03</rscale>
<asrwt>0</asrwt>
<pdfrwt beam="1">  1        1 0.10012878E+00 0.27495695E+03</pdfrwt>
<pdfrwt beam="2">  1       -1 0.44676973E-02 0.27495695E+03</pdfrwt>
<totfact> 0.65108454E+03</totfact>
</mgrwt>
</event>
<event>
 9    1  0.2051157E-002  0.2741192E+03  0.7818608E-02  0.1098945E+00
         -2   -1    0    0    0  501 -0.00000000000E+00  0.00000000000E+00  0.25200368359E+03  0.25200368359E+03  0.00000000000E+00 0.  1.
          2   -1    0    0  501    0  0.00000000000E+00 -0.00000000000E+00 -0.74543871964E+02  0.74543871964E+02  0.00000000000E+00 0.  1.
         36    2    1    2    0    0  0.00000000000E+00 -0.88817841970E-15  0.17745981163E+03  0.32654755556E+03  0.27411917353E+03 0.  0.
         25    2    3    3    0    0  0.59515958023E+02  0.65964554249E+00  0.11296293893E+03  0.17619079725E+03  0.12140834845E+03 0.  0.
         25    2    3    3    0    0 -0.59515958023E+02 -0.65964554249E+00  0.64496872696E+02  0.15035675830E+03  0.12208490402E+03 0.  0.
          5    1    4    4  502    0 -0.15648606976E+02  0.17886205275E+02  0.93407371278E+02  0.96497783646E+02  0.47000000000E+01 0. -1.
         -5    1    4    4    0  502  0.75164564999E+02 -0.17226559733E+02  0.19555567655E+02  0.79693013608E+02  0.47000000000E+01 0. -1.
          5    1    5    5  503    0  0.30755556227E+02  0.50869420279E+01  0.49294735277E+02  0.58513606486E+02  0.47000000000E+01 0. -1.
         -5    1    5    5    0  503 -0.90271514250E+02 -0.57465875704E+01  0.15202137420E+02  0.91843151818E+02  0.47000000000E+01 0. -1.
<mgrwt>
<rscale>  0 0.27411917E+03</rscale>
<asrwt>0</asrwt>
<pdfrwt beam="1">  1        2 0.11468288E-01 0.27411917E+03</pdfrwt>
<pdfrwt beam="2">  1       -2 0.38769797E-01 0.27411917E+03</pdfrwt>
<totfact> 0.34019484E+03</totfact>
</mgrwt>
</event>
<event>
 9    1  0.2051157E-002  0.2772014E+03  0.7818608E-02  0.1097227E+00
         -2   -1    0    0    0  501 -0.00000000000E+00  0.00000000000E+00  0.45674702152E+02  0.45674702152E+02  0.00000000000E+00 0.  1.
          2   -1    0    0  501    0  0.00000000000E+00 -0.00000000000E+00 -0.42058629941E+03  0.42058629941E+03  0.00000000000E+00 0.  1.
         36    2    1    2    0    0 -0.71054273576E-14 -0.35527136788E-14 -0.37491159726E+03  0.46626100157E+03  0.27720139938E+03 0.  0.
         25    2    3    3    0    0  0.35910793487E+02 -0.28705579650E+02 -0.22740297312E+03  0.26813578454E+03  0.13442875949E+03 0.  0.
         25    2    3    3    0    0 -0.35910793487E+02  0.28705579650E+02 -0.14750862414E+03  0.19812521702E+03  0.12402101447E+03 0.  0.
          5    1    4    4  502    0 -0.41734471339E+02  0.13382090060E+02 -0.12649181033E+03  0.13395191120E+03  0.47000000000E+01 0. -1.
         -5    1    4    4    0  502  0.77645264826E+02 -0.42087669711E+02 -0.10091116278E+03  0.13418387335E+03  0.47000000000E+01 0. -1.
          5    1    5    5  503    0 -0.31882463299E+02  0.47058775155E+02 -0.16340191171E+03  0.17307020118E+03  0.47000000000E+01 0. -1.
         -5    1    5    5    0  503 -0.40283301881E+01 -0.18353195504E+02  0.15893287566E+02  0.25055015844E+02  0.47000000000E+01 0. -1.
<mgrwt>
<rscale>  0 0.27720140E+03</rscale>
<asrwt>0</asrwt>
<pdfrwt beam="1">  1        2 0.64705586E-01 0.27720140E+03</pdfrwt>
<pdfrwt beam="2">  1       -2 0.70268771E-02 0.27720140E+03</pdfrwt>
<totfact> 0.86969766E+03</totfact>
</mgrwt>
</event>
<event>
 9    1  0.2051157E-002  0.2750104E+03  0.7818608E-02  0.1098446E+00
         -2   -1    0    0    0  501 -0.00000000000E+00  0.00000000000E+00  0.41952925560E+03  0.41952925560E+03  0.00000000000E+00 0. -1.
          2   -1    0    0  501    0  0.00000000000E+00 -0.00000000000E+00 -0.45068814730E+02  0.45068814730E+02  0.00000000000E+00 0. -1.
         36    2    1    2    0    0  0.71054273576E-14 -0.14210854715E-13  0.37446044087E+03  0.46459807033E+03  0.27501044558E+03 0.  0.
         25    2    3    3    0    0 -0.30487718421E+02 -0.35469332277E+02  0.15153087108E+03  0.20192006836E+03  0.12499013805E+03 0.  0.
         25    2    3    3    0    0  0.30487718421E+02  0.35469332277E+02  0.22292956979E+03  0.26267800197E+03  0.13082264760E+03 0.  0.
          5    1    4    4  502    0 -0.43431928154E+02 -0.17495215546E+02  0.16764751332E+03  0.17412694700E+03  0.47000000000E+01 0. -1.
         -5    1    4    4    0  502  0.12944209733E+02 -0.17974116731E+02 -0.16116642239E+02  0.27793121360E+02  0.47000000000E+01 0. -1.
          5    1    5    5  503    0  0.37680868098E+02  0.60589997632E+02  0.22495988930E+03  0.23605092126E+03  0.47000000000E+01 0.  1.
         -5    1    5    5    0  503 -0.71931496767E+01 -0.25120665355E+02 -0.20303195040E+01  0.26627080715E+02  0.47000000000E+01 0.  1.
<mgrwt>
<rscale>  0 0.27501045E+03</rscale>
<asrwt>0</asrwt>
<pdfrwt beam="1">  1        2 0.69336641E-02 0.27501045E+03</pdfrwt>
<pdfrwt beam="2">  1       -2 0.64542960E-01 0.27501045E+03</pdfrwt>
<totfact> 0.23140485E+03</totfact>
</mgrwt>
</event>
<event>
 9    1  0.2051157E-002  0.2665093E+03  0.7818608E-02  0.1103294E+00
          2   -1    0    0  501    0  0.00000000000E+00  0.00000000000E+00  0.26515124596E+04  0.26515124596E+04  0.00000000000E+00 0. -1.
         -2   -1    0    0    0  501 -0.00000000000E+00 -0.00000000000E+00 -0.66968561441E+01  0.66968561441E+01  0.00000000000E+00 0. -1.
         36    2    1    2    0    0 -0.71054273576E-14  0.00000000000E+00  0.26448156035E+04  0.26582093158E+04  0.26650926818E+03 0.  0.
         25    2    3    3    0    0 -0.20690661958E+02  0.32529342791E+02  0.15510761362E+04  0.15566257559E+04  0.12554004214E+03 0.  0.
         25    2    3    3    0    0  0.20690661958E+02 -0.32529342791E+02  0.10937394673E+04  0.11015835599E+04  0.12543546281E+03 0.  0.
          5    1    4    4  502    0  0.64601590216E+01  0.73100355207E+02  0.63614174233E+03  0.64037785871E+03  0.47000000000E+01 0.  1.
         -5    1    4    4    0  502 -0.27150820980E+02 -0.40571012417E+02  0.91493439383E+03  0.91624789721E+03  0.47000000000E+01 0.  1.
          5    1    5    5  503    0  0.43455749050E+02  0.13165317777E+02  0.15857039893E+03  0.16501026978E+03  0.47000000000E+01 0.  1.
         -5    1    5    5    0  503 -0.22765087092E+02 -0.45694660567E+02  0.93516906839E+03  0.93657329007E+03  0.47000000000E+01 0.  1.
<mgrwt>
<rscale>  0 0.26650927E+03</rscale>
<asrwt>0</asrwt>
<pdfrwt beam="1">  1        2 0.40792415E+00 0.26650927E+03</pdfrwt>
<pdfrwt beam="2">  1       -2 0.10302877E-02 0.26650927E+03</pdfrwt>
<totfact> 0.67504557E+03</totfact>
</mgrwt>
</event>
<event>
 9    1  0.2051157E-002  0.2753376E+03  0.7818608E-02  0.1098263E+00
         -1   -1    0    0    0  501 -0.00000000000E+00  0.00000000000E+00  0.14632753114E+02  0.14632753114E+02  0.00000000000E+00 0. -1.
          1   -1    0    0  501    0  0.00000000000E+00 -0.00000000000E+00 -0.12952246598E+04  0.12952246598E+04  0.00000000000E+00 0. -1.
         36    2    1    2    0    0  0.00000000000E+00 -0.35527136788E-14 -0.12805919067E+04  0.13098574129E+04  0.27533763036E+03 0.  0.
         25    2    3    3    0    0  0.36851803983E+02 -0.27495586919E+02 -0.55070878403E+03  0.56776179832E+03  0.13022761638E+03 0.  0.
         25    2    3    3    0    0 -0.36851803983E+02  0.27495586919E+02 -0.72988312263E+03  0.74209561457E+03  0.12594628102E+03 0.  0.
          5    1    4    4  502    0 -0.71215607407E+01 -0.55989145363E+02 -0.45530986004E+03  0.45881876561E+03  0.47000000000E+01 0. -1.
         -5    1    4    4    0  502  0.43973364723E+02  0.28493558444E+02 -0.95398923994E+02  0.10894303271E+03  0.47000000000E+01 0. -1.
          5    1    5    5  503    0  0.27913891390E+02  0.56300254017E+02 -0.33628299509E+03  0.34213629845E+03  0.47000000000E+01 0. -1.
         -5    1    5    5    0  503 -0.64765695373E+02 -0.28804667097E+02 -0.39360012755E+03  0.39995931612E+03  0.47000000000E+01 0. -1.
<mgrwt>
<rscale>  0 0.27533763E+03</rscale>
<asrwt>0</asrwt>
<pdfrwt beam="1">  1        1 0.19926532E+00 0.27533763E+03</pdfrwt>
<pdfrwt beam="2">  1       -1 0.22511929E-02 0.27533763E+03</pdfrwt>
<totfact> 0.56670267E+03</totfact>
</mgrwt>
</event>
<event>
 9    1  0.2051157E-002  0.2762812E+03  0.7818608E-02  0.1097738E+00
          2   -1    0    0  501    0  0.00000000000E+00  0.00000000000E+00  0.15385092811E+04  0.15385092811E+04  0.00000000000E+00 0.  1.
         -2   -1    0    0    0  501 -0.00000000000E+00 -0.00000000000E+00 -0.12403453504E+02  0.12403453504E+02  0.00000000000E+00 0.  1.
         36    2    1    2    0    0  0.00000000000E+00  0.00000000000E+00  0.15261058275E+04  0.15509127346E+04  0.27628122146E+03 0.  0.
         25    2    3    3    0    0  0.47357459331E+02 -0.58738792864E+02  0.69744597195E+03  0.70964700531E+03  0.10712149000E+03 0.  0.
         25    2    3    3    0    0 -0.47357459331E+02  0.58738792864E+02  0.82865985560E+03  0.84126572924E+03  0.12392697921E+03 0.  0.
          5    1    4    4  502    0  0.38105239646E+02  0.18152962646E+02  0.39999224185E+03  0.40224050378E+03  0.47000000000E+01 0.  1.
         -5    1    4    4    0  502  0.92522196849E+01 -0.76891755510E+02  0.29745373009E+03  0.30740650153E+03  0.47000000000E+01 0.  1.
          5    1    5    5  503    0  0.25986777597E+02 -0.26810989322E+01  0.48851855350E+02  0.55597613910E+02  0.47000000000E+01 0.  1.
         -5    1    5    5    0  503 -0.73344236928E+02  0.61419891796E+02  0.77980800025E+03  0.78566811533E+03  0.47000000000E+01 0.  1.
<mgrwt>
<rscale>  0 0.27628122E+03</rscale>
<asrwt>0</asrwt>
<pdfrwt beam="1">  1        2 0.23669358E+00 0.27628122E+03</pdfrwt>
<pdfrwt beam="2">  1       -2 0.19082248E-02 0.27628122E+03</pdfrwt>
<totfact> 0.10780901E+04</totfact>
</mgrwt>
</event>
<event>
 9    1  0.2051157E-002  0.2735447E+03  0.7818608E-02  0.1099268E+00
         -1   -1    0    0    0  501 -0.00000000000E+00  0.00000000000E+00  0.16294672655E+02  0.16294672655E+02  0.00000000000E+00 0. -1.
          1   -1    0    0  501    0  0.00000000000E+00 -0.00000000000E+00 -0.11480238175E+04  0.11480238175E+04  0.00000000000E+00 0. -1.
         36    2    1    2    0    0 -0.35527136788E-14  0.88817841970E-15 -0.11317291448E+04  0.11643184901E+04  0.27354467500E+03 0.  0.
         25    2    3    3    0    0 -0.24717976288E+02 -0.30389567982E+01 -0.37814985046E+03  0.39939203232E+03  0.12608121377E+03 0.  0.
         25    2    3    3    0    0  0.24717976288E+02  0.30389567982E+01 -0.75357929434E+03  0.76492645779E+03  0.12888180384E+03 0.  0.
          5    1    4    4  502    0 -0.75718335863E+02  0.64369227984E+01 -0.21109562766E+03  0.22440622625E+03  0.47000000000E+01 0.  1.
         -5    1    4    4    0  502  0.51000359575E+02 -0.94758795967E+01 -0.16705422280E+03  0.17498580607E+03  0.47000000000E+01 0.  1.
          5    1    5    5  503    0  0.17663025613E+02  0.52000649394E+02 -0.15916443174E+03  0.16843828645E+03  0.47000000000E+01 0.  1.
         -5    1    5    5    0  503  0.70549506741E+01 -0.48961692595E+02 -0.59441486260E+03  0.59648817134E+03  0.47000000000E+01 0.  1.
<mgrwt>
<rscale>  0 0.27354467E+03</rscale>
<asrwt>0</asrwt>
<pdfrwt beam="1">  1        1 0.17661907E+00 0.27354467E+03</pdfrwt>
<pdfrwt beam="2">  1       -1 0.25068724E-02 0.27354467E+03</pdfrwt>
<totfact> 0.61269578E+03</totfact>
</mgrwt>
</event>
<event>
 9    1  0.2051157E-002  0.2751891E+03  0.7818608E-02  0.1098346E+00
          1   -1    0    0  501    0  0.00000000000E+00  0.00000000000E+00  0.32505623408E+03  0.32505623408E+03  0.00000000000E+00 0. -1.
         -1   -1    0    0    0  501 -0.00000000000E+00 -0.00000000000E+00 -0.58243015281E+02  0.58243015281E+02  0.00000000000E+00 0. -1.
         36    2    1    2    0    0 -0.71054273576E-14  0.00000000000E+00  0.26681321880E+03  0.38329924936E+03  0.27518906380E+03 0.  0.
         25    2    3    3    0    0  0.35218660868E+02 -0.58438720217E+02  0.22107578488E+03  0.26356464361E+03  0.12623937818E+03 0.  0.
         25    2    3    3    0    0 -0.35218660868E+02  0.58438720217E+02  0.45737433914E+02  0.11973460576E+03  0.87115009386E+02 0.  0.
          5    1    4    4  502    0  0.50450474507E+02  0.49220885366E+01  0.17841330331E+03  0.18553402419E+03  0.47000000000E+01 0.  1.
         -5    1    4    4    0  502 -0.15231813639E+02 -0.63360808753E+02  0.42662481575E+02  0.78030619418E+02  0.47000000000E+01 0.  1.
          5    1    5    5  503    0 -0.27251444354E+02  0.28758643898E+01 -0.19187335239E+02  0.33780995382E+02  0.47000000000E+01 0.  1.
         -5    1    5    5    0  503 -0.79672165139E+01  0.55562855827E+02  0.64924769153E+02  0.85953610373E+02  0.47000000000E+01 0.  1.
<mgrwt>
<rscale>  0 0.27518906E+03</rscale>
<asrwt>0</asrwt>
<pdfrwt beam="1">  1        1 0.50008651E-01 0.27518906E+03</pdfrwt>
<pdfrwt beam="2">  1       -1 0.89604640E-02 0.27518906E+03</pdfrwt>
<totfact> 0.56814789E+03</totfact>
</mgrwt>
</event>
<event>
 9    1  0.2051157E-002  0.2737753E+03  0.7818608E-02  0.1099138E+00
          4   -1    0    0  501    0  0.00000000000E+00  0.00000000000E+00  0.64542041835E+03  0.64542041835E+03  0.00000000000E+00 0.  1.
         -4   -1    0    0    0  501 -0.00000000000E+00 -0.00000000000E+00 -0.29032586561E+02  0.29032586561E+02  0.00000000000E+00 0.  1.
         36    2    1    2    0    0  0.00000000000E+00  0.00000000000E+00  0.61638783179E+03  0.67445300491E+03  0.27377526670E+03 0.  0.
         25    2    3    3    0    0 -0.36908431245E+02 -0.35152238028E+02  0.35194448006E+03  0.37687510898E+03  0.12478789442E+03 0.  0.
         25    2    3    3    0    0  0.36908431245E+02  0.35152238028E+02  0.26444335173E+03  0.29757789593E+03  0.12658754178E+03 0.  0.
          5    1    4    4  502    0 -0.65526093908E+02 -0.79053108308E+01  0.88814142684E+02  0.11075290002E+03  0.47000000000E+01 0.  1.
         -5    1    4    4    0  502  0.28617662663E+02 -0.27246927198E+02  0.26313033737E+03  0.26612220896E+03  0.47000000000E+01 0.  1.
          5    1    5    5  503    0 -0.27624657852E+02  0.12128451538E+02  0.20344026775E+03  0.20571887030E+03  0.47000000000E+01 0.  1.
         -5    1    5    5    0  503  0.64533089097E+02  0.23023786491E+02  0.61003083989E+02  0.91859025626E+02  0.47000000000E+01 0.  1.
<mgrwt>
<rscale>  0 0.27377527E+03</rscale>
<asrwt>0</asrwt>
<pdfrwt beam="1">  1        4 0.99295438E-01 0.27377527E+03</pdfrwt>
<pdfrwt beam="2">  1       -4 0.44665523E-02 0.27377527E+03</pdfrwt>
<totfact> 0.46550383E+02</totfact>
</mgrwt>
</event>
<event>
 9    1  0.2051157E-002  0.2748063E+03  0.7818608E-02  0.1098560E+00
         -2   -1    0    0    0  501 -0.00000000000E+00  0.00000000000E+00  0.26555296338E+02  0.26555296338E+02  0.00000000000E+00 0. -1.
          2   -1    0    0  501    0  0.00000000000E+00 -0.00000000000E+00 -0.71095503227E+03  0.71095503227E+03  0.00000000000E+00 0. -1.
         36    2    1    2    0    0  0.17763568394E-14  0.71054273576E-14 -0.68439973593E+03  0.73751032861E+03  0.27480627042E+03 0.  0.
         25    2    3    3    0    0  0.85418588299E+01 -0.37737559738E+02 -0.46494181423E+03  0.48287354926E+03  0.12449452673E+03 0.  0.
         25    2    3    3    0    0 -0.85418588299E+01  0.37737559738E+02 -0.21945792170E+03  0.25463677935E+03  0.12321129507E+03 0.  0.
          5    1    4    4  502    0  0.14354960367E+02 -0.14851056962E+02 -0.45704433899E+03  0.45753495668E+03  0.47000000000E+01 0.  1.
         -5    1    4    4    0  502 -0.58131015368E+01 -0.22886502775E+02 -0.78974752435E+01  0.25338592581E+02  0.47000000000E+01 0.  1.
          5    1    5    5  503    0  0.13235332065E+02  0.80047293553E+02 -0.14178730491E+03  0.16342727145E+03  0.47000000000E+01 0.  1.
         -5    1    5    5    0  503 -0.21777190895E+02 -0.42309733816E+02 -0.77670616794E+02  0.91209507904E+02  0.47000000000E+01 0.  1.
<mgrwt>
<rscale>  0 0.27480627E+03</rscale>
<asrwt>0</asrwt>
<pdfrwt beam="1">  1        2 0.10937770E+00 0.27480627E+03</pdfrwt>
<pdfrwt beam="2">  1       -2 0.40854303E-02 0.27480627E+03</pdfrwt>
<totfact> 0.10910149E+04</totfact>
</mgrwt>
</event>
<event>
 9    1  0.2051157E-002  0.2751275E+03  0.7818608E-02  0.1098380E+00
          2   -1    0    0  501    0  0.00000000000E+00  0.00000000000E+00  0.80695092199E+03  0.80695092199E+03  0.00000000000E+00 0.  1.
         -2   -1    0    0    0  501 -0.00000000000E+00 -0.00000000000E+00 -0.23450980241E+02  0.23450980241E+02  0.00000000000E+00 0.  1.
         36    2    1    2    0    0  0.00000000000E+00  0.00000000000E+00  0.78349994175E+03  0.83040190223E+03  0.27512753499E+03 0.  0.
         25    2    3    3    0    0  0.20010312583E+02  0.89101369058E+01  0.19947286107E+03  0.23348225516E+03  0.11935132183E+03 0.  0.
         25    2    3    3    0    0 -0.20010312583E+02 -0.89101369058E+01  0.58402708068E+03  0.59691964707E+03  0.12143158956E+03 0.  0.
          5    1    4    4  502    0  0.41530573603E+02 -0.36640829197E+02  0.15978515754E+03  0.16917661031E+03  0.47000000000E+01 0. -1.
         -5    1    4    4    0  502 -0.21520261020E+02  0.45550966102E+02  0.39687703529E+02  0.64305644843E+02  0.47000000000E+01 0. -1.
          5    1    5    5  503    0 -0.47232324740E+02 -0.34288512524E+02  0.51534553469E+03  0.51866145482E+03  0.47000000000E+01 0. -1.
         -5    1    5    5    0  503  0.27222012157E+02  0.25378375618E+02  0.68681545988E+02  0.78258192250E+02  0.47000000000E+01 0. -1.
<mgrwt>
<rscale>  0 0.27512753E+03</rscale>
<asrwt>0</asrwt>
<pdfrwt beam="1">  1        2 0.12414627E+00 0.27512753E+03</pdfrwt>
<pdfrwt beam="2">  1       -2 0.36078437E-02 0.27512753E+03</pdfrwt>
<totfact> 0.11228435E+04</totfact>
</mgrwt>
</event>
<event>
 9    1  0.2051157E-002  0.2763474E+03  0.7818608E-02  0.1097701E+00
         -2   -1    0    0    0  501 -0.00000000000E+00  0.00000000000E+00  0.79175372304E+01  0.79175372304E+01  0.00000000000E+00 0.  1.
          2   -1    0    0  501    0  0.00000000000E+00 -0.00000000000E+00 -0.24113520656E+04  0.24113520656E+04  0.00000000000E+00 0.  1.
         36    2    1    2    0    0  0.00000000000E+00  0.71054273576E-14 -0.24034345284E+04  0.24192696029E+04  0.27634738830E+03 0.  0.
         25    2    3    3    0    0  0.47307924751E+02 -0.11686813826E+02 -0.13263894088E+04  0.13334579506E+04  0.12816638007E+03 0.  0.
         25    2    3    3    0    0 -0.47307924751E+02  0.11686813826E+02 -0.10770451196E+04  0.10858116523E+04  0.12878716197E+03 0.  0.
          5    1    4    4  502    0  0.52514400525E+02  0.40946811758E+02 -0.39869991505E+03  0.40425006607E+03  0.47000000000E+01 0.  1.
         -5    1    4    4    0  502 -0.52064757744E+01 -0.52633625584E+02 -0.92768949371E+03  0.92920788453E+03  0.47000000000E+01 0.  1.
          5    1    5    5  503    0 -0.16437477238E+02 -0.37896945259E+02 -0.12044352369E+03  0.12741703778E+03  0.47000000000E+01 0. -1.
         -5    1    5    5    0  503 -0.30870447513E+02  0.49583759085E+02 -0.95660159594E+03  0.95839461447E+03  0.47000000000E+01 0. -1.
<mgrwt>
<rscale>  0 0.27634739E+03</rscale>
<asrwt>0</asrwt>
<pdfrwt beam="1">  1        2 0.37097720E+00 0.27634739E+03</pdfrwt>
<pdfrwt beam="2">  1       -2 0.12180828E-02 0.27634739E+03</pdfrwt>
<totfact> 0.71711196E+03</totfact>
</mgrwt>
</event>
<event>
 9    1  0.2051157E-002  0.2749301E+03  0.7818608E-02  0.1098491E+00
         -3   -1    0    0    0  501 -0.00000000000E+00  0.00000000000E+00  0.31172997224E+03  0.31172997224E+03  0.00000000000E+00 0.  1.
          3   -1    0    0  501    0  0.00000000000E+00 -0.00000000000E+00 -0.60618625130E+02  0.60618625130E+02  0.00000000000E+00 0.  1.
         36    2    1    2    0    0  0.00000000000E+00  0.71054273576E-14  0.25111134711E+03  0.37234859737E+03  0.27493011715E+03 0.  0.
         25    2    3    3    0    0  0.27969824426E+02  0.25506376982E+02  0.66906779616E+02  0.14675570845E+03  0.12501133733E+03 0.  0.
         25    2    3    3    0    0 -0.27969824426E+02 -0.25506376982E+02  0.18420456749E+03  0.22559288891E+03  0.12461116522E+03 0.  0.
          5    1    4    4  502    0  0.34879849660E+02 -0.36151335122E+02 -0.61110850020E+01  0.50822812824E+02  0.47000000000E+01 0. -1.
         -5    1    4    4    0  502 -0.69100252339E+01  0.61657712104E+02  0.73017864618E+02  0.95932895630E+02  0.47000000000E+01 0. -1.
          5    1    5    5  503    0 -0.69913693942E+02 -0.18501876547E+02  0.59549664294E+02  0.93800301460E+02  0.47000000000E+01 0.  1.
         -5    1    5    5    0  503  0.41943869516E+02 -0.70045004353E+01  0.12465490320E+03  0.13179258745E+03  0.47000000000E+01 0.  1.
<mgrwt>
<rscale>  0 0.27493012E+03</rscale>
<asrwt>0</asrwt>
<pdfrwt beam="1">  1        3 0.93259425E-02 0.27493012E+03</pdfrwt>
<pdfrwt beam="2">  1       -3 0.47958456E-01 0.27493012E+03</pdfrwt>
<totfact> 0.91484857E+02</totfact>
</mgrwt>
</event>
<event>
 9    1  0.2051157E-002  0.2752044E+03  0.7818608E-02  0.1098337E+00
         -1   -1    0    0    0  501 -0.00000000000E+00  0.00000000000E+00  0.11928571779E+04  0.11928571779E+04  0.00000000000E+00 0. -1.
          1   -1    0    0  501    0  0.00000000000E+00 -0.00000000000E+00 -0.15873120498E+02  0.15873120498E+02  0.00000000000E+00 0. -1.
         36    2    1    2    0    0  0.00000000000E+00  0.26645352591E-14  0.11769840574E+04  0.12087302984E+04  0.27520440201E+03 0.  0.
         25    2    3    3    0    0 -0.16791200017E+02  0.28103488138E+01  0.39213560788E+03  0.41229507679E+03  0.12620242834E+03 0.  0.
         25    2    3    3    0    0  0.16791200017E+02 -0.28103488138E+01  0.78484844948E+03  0.79643522157E+03  0.13428377059E+03 0.  0.
          5    1    4    4  502    0 -0.70920013142E+02  0.22730711774E+00  0.18642558164E+03  0.19951513081E+03  0.47000000000E+01 0.  1.
         -5    1    4    4    0  502  0.54128813125E+02  0.25830416961E+01  0.20571002624E+03  0.21277994598E+03  0.47000000000E+01 0.  1.
          5    1    5    5  503    0 -0.22858632299E+02 -0.57441080913E+02  0.49085181060E+03  0.49475204378E+03  0.47000000000E+01 0. -1.
         -5    1    5    5    0  503  0.39649832316E+02  0.54630732099E+02  0.29399663888E+03  0.30168317780E+03  0.47000000000E+01 0. -1.
<mgrwt>
<rscale>  0 0.27520440E+03</rscale>
<asrwt>0</asrwt>
<pdfrwt beam="1">  1        1 0.24420195E-02 0.27520440E+03</pdfrwt>
<pdfrwt beam="2">  1       -1 0.18351642E+00 0.27520440E+03</pdfrwt>
<totfact> 0.98539037E+02</totfact>
</mgrwt>
</event>
<event>
 9    1  0.2051157E-002  0.2802811E+03  0.7818608E-02  0.1095536E+00
          2   -1    0    0  501    0  0.00000000000E+00  0.00000000000E+00  0.31087000834E+03  0.31087000834E+03  0.00000000000E+00 0.  1.
         -2   -1    0    0    0  501 -0.00000000000E+00 -0.00000000000E+00 -0.63175509727E+02  0.63175509727E+02  0.00000000000E+00 0.  1.
         36    2    1    2    0    0  0.00000000000E+00  0.71054273576E-14  0.24769449861E+03  0.37404551807E+03  0.28028108203E+03 0.  0.
         25    2    3    3    0    0  0.53045638595E+02  0.29333070356E+02  0.11342670700E+03  0.17703216363E+03  0.12165730684E+03 0.  0.
         25    2    3    3    0    0 -0.53045638595E+02 -0.29333070356E+02  0.13426779161E+03  0.19701335444E+03  0.13081342887E+03 0.  0.
          5    1    4    4  502    0 -0.90367387255E+01  0.42436429090E+02  0.10390705562E+03  0.11269995283E+03  0.47000000000E+01 0.  1.
         -5    1    4    4    0  502  0.62082377320E+02 -0.13103358735E+02  0.95196513889E+01  0.64332210800E+02  0.47000000000E+01 0.  1.
          5    1    5    5  503    0  0.43185414732E+02 -0.11111170951E+02  0.30392128771E+02  0.54168345523E+02  0.47000000000E+01 0.  1.
         -5    1    5    5    0  503 -0.96231053327E+02 -0.18221899405E+02  0.10387566284E+03  0.14284500892E+03  0.47000000000E+01 0.  1.
<mgrwt>
<rscale>  0 0.28028108E+03</rscale>
<asrwt>0</asrwt>
<pdfrwt beam="1">  1        2 0.47826154E-01 0.28028108E+03</pdfrwt>
<pdfrwt beam="2">  1       -2 0.97193094E-02 0.28028108E+03</pdfrwt>
<totfact> 0.72588967E+03</totfact>
</mgrwt>
</event>
<event>
 9    1  0.2051157E-002  0.2832466E+03  0.7818608E-02  0.1093929E+00
          2   -1    0    0  501    0  0.00000000000E+00  0.00000000000E+00  0.28778242404E+03  0.28778242404E+03  0.00000000000E+00 0. -1.
         -2   -1    0    0    0  501 -0.00000000000E+00 -0.00000000000E+00 -0.69695588013E+02  0.69695588013E+02  0.00000000000E+00 0. -1.
         36    2    1    2    0    0  0.71054273576E-14  0.00000000000E+00  0.21808683602E+03  0.35747801205E+03  0.28324664350E+03 0.  0.
         25    2    3    3    0    0 -0.19793739749E+02  0.42187686713E+02  0.42402168572E+02  0.13879137176E+03  0.12366692335E+03 0.  0.
         25    2    3    3    0    0  0.19793739749E+02 -0.42187686713E+02  0.17568466745E+03  0.21868664029E+03  0.12160243098E+03 0.  0.
          5    1    4    4  502    0 -0.41069887230E+01 -0.78812233477E+01  0.75769808477E+02  0.76433859739E+02  0.47000000000E+01 0. -1.
         -5    1    4    4    0  502 -0.15686751026E+02  0.50068910061E+02 -0.33367639905E+02  0.62357512019E+02  0.47000000000E+01 0. -1.
          5    1    5    5  503    0 -0.36241275095E+02 -0.39414907412E+02  0.27939047528E+02  0.60577597539E+02  0.47000000000E+01 0. -1.
         -5    1    5    5    0  503  0.56035014844E+02 -0.27727793008E+01  0.14774561992E+03  0.15810904275E+03  0.47000000000E+01 0. -1.
<mgrwt>
<rscale>  0 0.28324664E+03</rscale>
<asrwt>0</asrwt>
<pdfrwt beam="1">  1        2 0.44274219E-01 0.28324664E+03</pdfrwt>
<pdfrwt beam="2">  1       -2 0.10722398E-01 0.28324664E+03</pdfrwt>
<totfact> 0.67475420E+03</totfact>
</mgrwt>
</event>
<event>
 9    1  0.2051157E-002  0.2753170E+03  0.7818608E-02  0.1098275E+00
          2   -1    0    0  501    0  0.00000000000E+00  0.00000000000E+00  0.26001643809E+04  0.26001643809E+04  0.00000000000E+00 0. -1.
         -2   -1    0    0    0  501 -0.00000000000E+00 -0.00000000000E+00 -0.72879453952E+01  0.72879453952E+01  0.00000000000E+00 0. -1.
         36    2    1    2    0    0 -0.35527136788E-14  0.00000000000E+00  0.25928764355E+04  0.26074523263E+04  0.27531695209E+03 0.  0.
         25    2    3    3    0    0 -0.24725963503E+02  0.64651792763E+02  0.11981673735E+04  0.12056362779E+04  0.11472816611E+03 0.  0.
         25    2    3    3    0    0  0.24725963503E+02 -0.64651792763E+02  0.13947090620E+04  0.14018160484E+04  0.12281546447E+03 0.  0.
          5    1    4    4  502    0  0.39346189306E+01 -0.10799217964E+02  0.75823974336E+03  0.75834141568E+03  0.47000000000E+01 0.  1.
         -5    1    4    4    0  502 -0.28660582433E+02  0.75451010727E+02  0.43992763016E+03  0.44729486223E+03  0.47000000000E+01 0.  1.
          5    1    5    5  503    0  0.46083770619E+02  0.17238812835E+02  0.32293012698E+03  0.32669075208E+03  0.47000000000E+01 0. -1.
         -5    1    5    5    0  503 -0.21357807116E+02 -0.81890605597E+02  0.10717789350E+04  0.10751252963E+04  0.47000000000E+01 0. -1.
<mgrwt>
<rscale>  0 0.27531695E+03</rscale>
<asrwt>0</asrwt>
<pdfrwt beam="1">  1        2 0.40002455E+00 0.27531695E+03</pdfrwt>
<pdfrwt beam="2">  1       -2 0.11212245E-02 0.27531695E+03</pdfrwt>
<totfact> 0.63740816E+03</totfact>
</mgrwt>
</event>
<event>
 9    1  0.2051157E-002  0.2752566E+03  0.7818608E-02  0.1098308E+00
          2   -1    0    0  501    0  0.00000000000E+00  0.00000000000E+00  0.57530444373E+02  0.57530444373E+02  0.00000000000E+00 0.  1.
         -2   -1    0    0    0  501 -0.00000000000E+00 -0.00000000000E+00 -0.32924380966E+03  0.32924380966E+03  0.00000000000E+00 0.  1.
         36    2    1    2    0    0 -0.71054273576E-14  0.71054273576E-14 -0.27171336529E+03  0.38677425403E+03  0.27525655434E+03 0.  0.
         25    2    3    3    0    0 -0.20070843781E+02  0.54248974892E+02 -0.14299150361E+03  0.20101709076E+03  0.12890116612E+03 0.  0.
         25    2    3    3    0    0  0.20070843781E+02 -0.54248974892E+02 -0.12872186168E+03  0.18575716327E+03  0.12079162217E+03 0.  0.
          5    1    4    4  502    0 -0.63603809532E+02  0.27904411438E+02 -0.27726936977E+02  0.74933128847E+02  0.47000000000E+01 0. -1.
         -5    1    4    4    0  502  0.43532965750E+02  0.26344563455E+02 -0.11526456663E+03  0.12608396191E+03  0.47000000000E+01 0. -1.
          5    1    5    5  503    0 -0.34651702627E+02 -0.29026367577E+02 -0.21515352226E+01  0.45497138519E+02  0.47000000000E+01 0. -1.
         -5    1    5    5    0  503  0.54722546408E+02 -0.25222607316E+02 -0.12657032645E+03  0.14026002475E+03  0.47000000000E+01 0. -1.
<mgrwt>
<rscale>  0 0.27525655E+03</rscale>
<asrwt>0</asrwt>
<pdfrwt beam="1">  1        2 0.88508374E-02 0.27525655E+03</pdfrwt>
<pdfrwt beam="2">  1       -2 0.50652895E-01 0.27525655E+03</pdfrwt>
<totfact> 0.27874793E+03</totfact>
</mgrwt>
</event>
<event>
 9    1  0.2051157E-002  0.2760086E+03  0.7818608E-02  0.1097889E+00
          1   -1    0    0  501    0  0.00000000000E+00  0.00000000000E+00  0.47481897660E+03  0.47481897660E+03  0.00000000000E+00 0. -1.
         -1   -1    0    0    0  501 -0.00000000000E+00 -0.00000000000E+00 -0.40110407569E+02  0.40110407569E+02  0.00000000000E+00 0. -1.
         36    2    1    2    0    0  0.35527136788E-14  0.00000000000E+00  0.43470856903E+03  0.51492938417E+03  0.27600856996E+03 0.  0.
         25    2    3    3    0    0  0.10144656580E+02  0.47642872563E+02  0.25371232337E+03  0.28726903930E+03  0.12562165635E+03 0.  0.
         25    2    3    3    0    0 -0.10144656580E+02 -0.47642872563E+02  0.18099624566E+03  0.22766034488E+03  0.12921623087E+03 0.  0.
          5    1    4    4  502    0 -0.14691443936E+02  0.66399060291E+02  0.24543171808E+03  0.25472238216E+03  0.47000000000E+01 0. -1.
         -5    1    4    4    0  502  0.24836100516E+02 -0.18756187728E+02  0.82806052897E+01  0.32546657138E+02  0.47000000000E+01 0. -1.
          5    1    5    5  503    0 -0.60059800595E+02 -0.77023965004E+01  0.13715820618E+03  0.15000323358E+03  0.47000000000E+01 0.  1.
         -5    1    5    5    0  503  0.49915144015E+02 -0.39940476063E+02  0.43838039478E+02  0.77657111300E+02  0.47000000000E+01 0.  1.
<mgrwt>
<rscale>  0 0.27600857E+03</rscale>
<asrwt>0</asrwt>
<pdfrwt beam="1">  1        1 0.73049069E-01 0.27600857E+03</pdfrwt>
<pdfrwt beam="2">  1       -1 0.61708323E-02 0.27600857E+03</pdfrwt>
<totfact> 0.61649396E+03</totfact>
</mgrwt>
</event>
<event>
 9    1  0.2051157E-002  0.2745593E+03  0.7818608E-02  0.1098698E+00
          2   -1    0    0  501    0  0.00000000000E+00  0.00000000000E+00  0.16341653132E+04  0.16341653132E+04  0.00000000000E+00 0. -1.
         -2   -1    0    0    0  501 -0.00000000000E+00 -0.00000000000E+00 -0.11532313127E+02  0.11532313127E+02  0.00000000000E+00 0. -1.
         36    2    1    2    0    0  0.71054273576E-14  0.14210854715E-13  0.16226330001E+04  0.16456976263E+04  0.27455932760E+03 0.  0.
         25    2    3    3    0    0 -0.38802738111E+01 -0.83716311874E+02  0.99223934388E+03  0.10031442849E+04  0.12139218864E+03 0.  0.
         25    2    3    3    0    0  0.38802738111E+01  0.83716311874E+02  0.63039365618E+03  0.64255334138E+03  0.91951929632E+02 0.  0.
          5    1    4    4  502    0 -0.49346871273E+02 -0.55287498218E+02  0.80217539165E+03  0.80560490945E+03  0.47000000000E+01 0. -1.
         -5    1    4    4    0  502  0.45466597461E+02 -0.28428813656E+02  0.19006395223E+03  0.19753937549E+03  0.47000000000E+01 0. -1.
          5    1    5    5  503    0  0.17889331525E+02  0.70988148308E+02  0.60977722926E+03  0.61417400197E+03  0.47000000000E+01 0.  1.
         -5    1    5    5    0  503 -0.14009057714E+02  0.12728163565E+02  0.20616426927E+02  0.28379339405E+02  0.47000000000E+01 0.  1.
<mgrwt>
<rscale>  0 0.27455933E+03</rscale>
<asrwt>0</asrwt>
<pdfrwt beam="1">  1        2 0.25140986E+00 0.27455933E+03</pdfrwt>
<pdfrwt beam="2">  1       -2 0.17742033E-02 0.27455933E+03</pdfrwt>
<totfact> 0.10673012E+04</totfact>
</mgrwt>
</event>
<event>
 8    1  0.2051157E-002  0.3992558E+03  0.7818608E-02  0.1044038E+00
          2   -1    0    0  501    0  0.00000000000E+00  0.00000000000E+00  0.37659113508E+03  0.37659113508E+03  0.00000000000E+00 0.  1.
         -2   -1    0    0    0  501 -0.00000000000E+00 -0.00000000000E+00 -0.10582112477E+03  0.10582112477E+03  0.00000000000E+00 0.  1.
         25    2    1    2    0    0  0.43913034699E+02 -0.94428984463E+02  0.27624440926E+03  0.31972199402E+03  0.12274360304E+03 0.  0.
         25    2    1    2    0    0 -0.43913034699E+02  0.94428984463E+02 -0.54743989515E+01  0.16269026584E+03  0.12487179759E+03 0.  0.
          5    1    3    3  502    0  0.39381604447E+02 -0.12421339811E+03  0.22790195070E+03  0.26256669280E+03  0.47000000000E+01 0. -1.
         -5    1    3    3    0  502  0.45314302518E+01  0.29784413648E+02  0.48342458564E+02  0.57155301211E+02  0.47000000000E+01 0. -1.
          5    1    4    4  503    0 -0.33496414713E+01  0.11267680869E+03  0.14413385055E+02  0.11374145675E+03  0.47000000000E+01 0. -1.
         -5    1    4    4    0  503 -0.40563393228E+02 -0.18247824225E+02 -0.19887784007E+02  0.48948809095E+02  0.47000000000E+01 0. -1.
<mgrwt>
<rscale>  0 0.39925580E+03</rscale>
<asrwt>0</asrwt>
<pdfrwt beam="1">  1        2 0.57937097E-01 0.39925580E+03</pdfrwt>
<pdfrwt beam="2">  1       -2 0.16280173E-01 0.39925580E+03</pdfrwt>
<totfact> 0.25614732E+03</totfact>
</mgrwt>
</event>
<event>
 9    1  0.2051157E-002  0.2753893E+03  0.7818608E-02  0.1098234E+00
          2   -1    0    0  501    0  0.00000000000E+00  0.00000000000E+00  0.50664302469E+02  0.50664302469E+02  0.00000000000E+00 0. -1.
         -2   -1    0    0    0  501 -0.00000000000E+00 -0.00000000000E+00 -0.37422441048E+03  0.37422441048E+03  0.00000000000E+00 0. -1.
         36    2    1    2    0    0  0.00000000000E+00 -0.71054273576E-14 -0.32356010801E+03  0.42488871295E+03  0.27538931515E+03 0.  0.
         25    2    3    3    0    0 -0.29072495514E+01 -0.58447943803E+02 -0.16577121328E+03  0.21379493376E+03  0.12166989897E+03 0.  0.
         25    2    3    3    0    0  0.29072495514E+01  0.58447943803E+02 -0.15778889473E+03  0.21109377919E+03  0.12743089922E+03 0.  0.
          5    1    4    4  502    0  0.52094010774E+02 -0.56887840130E+02 -0.11640984933E+03  0.13972600092E+03  0.47000000000E+01 0. -1.
         -5    1    4    4    0  502 -0.55001260325E+02 -0.15601036724E+01 -0.49361363948E+02  0.74068932837E+02  0.47000000000E+01 0. -1.
          5    1    5    5  503    0  0.21067792630E+02 -0.33969366907E+01  0.15073106211E+02  0.26545801853E+02  0.47000000000E+01 0. -1.
         -5    1    5    5    0  503 -0.18160543079E+02  0.61844880493E+02 -0.17286200095E+03  0.18454797734E+03  0.47000000000E+01 0. -1.
<mgrwt>
<rscale>  0 0.27538932E+03</rscale>
<asrwt>0</asrwt>
<pdfrwt beam="1">  1        2 0.77945078E-02 0.27538932E+03</pdfrwt>
<pdfrwt beam="2">  1       -2 0.57572988E-01 0.27538932E+03</pdfrwt>
<totfact> 0.25258024E+03</totfact>
</mgrwt>
</event>
<event>
 9    1  0.2051157E-002  0.2654360E+03  0.7818608E-02  0.1103920E+00
          1   -1    0    0  501    0  0.00000000000E+00  0.00000000000E+00  0.55904192777E+02  0.55904192777E+02  0.00000000000E+00 0. -1.
         -1   -1    0    0    0  501 -0.00000000000E+00 -0.00000000000E+00 -0.31507589146E+03  0.31507589146E+03  0.00000000000E+00 0. -1.
         36    2    1    2    0    0  0.00000000000E+00  0.35527136788E-14 -0.25917169868E+03  0.37098008424E+03  0.26543596874E+03 0.  0.
         25    2    3    3    0    0  0.49854733658E+02 -0.23959964386E+01 -0.16308099472E+03  0.20568978143E+03  0.11498539072E+03 0.  0.
         25    2    3    3    0    0 -0.49854733658E+02  0.23959964386E+01 -0.96090703959E+02  0.16529030280E+03  0.12488484915E+03 0.  0.
          5    1    4    4  502    0  0.27351852240E+02  0.44817382101E+02 -0.25762502268E+02  0.58672975742E+02  0.47000000000E+01 0.  1.
         -5    1    4    4    0  502  0.22502881418E+02 -0.47213378540E+02 -0.13731849245E+03  0.14701680569E+03  0.47000000000E+01 0.  1.
          5    1    5    5  503    0 -0.29111482793E+02 -0.31498210994E+02 -0.11367045727E+03  0.12158403918E+03  0.47000000000E+01 0. -1.
         -5    1    5    5    0  503 -0.20743250865E+02  0.33894207432E+02  0.17579753312E+02  0.43706263629E+02  0.47000000000E+01 0. -1.
<mgrwt>
<rscale>  0 0.26543597E+03</rscale>
<asrwt>0</asrwt>
<pdfrwt beam="1">  1        1 0.86006452E-02 0.26543597E+03</pdfrwt>
<pdfrwt beam="2">  1       -1 0.48473213E-01 0.26543597E+03</pdfrwt>
<totfact> 0.34082318E+03</totfact>
</mgrwt>
</event>
<event>
 9    1  0.2051157E-002  0.2742844E+03  0.7818608E-02  0.1098852E+00
         -2   -1    0    0    0  501 -0.00000000000E+00  0.00000000000E+00  0.87775725750E+02  0.87775725750E+02  0.00000000000E+00 0.  1.
          2   -1    0    0  501    0  0.00000000000E+00 -0.00000000000E+00 -0.21427324483E+03  0.21427324483E+03  0.00000000000E+00 0.  1.
         36    2    1    2    0    0  0.00000000000E+00  0.00000000000E+00 -0.12649751908E+03  0.30204897058E+03  0.27428444778E+03 0.  0.
         25    2    3    3    0    0  0.12429057802E+02 -0.12021816804E+02 -0.13350373788E+01  0.12698268366E+03  0.12579274251E+03 0.  0.
         25    2    3    3    0    0 -0.12429057802E+02  0.12021816804E+02 -0.12516248170E+03  0.17506628691E+03  0.12117570891E+03 0.  0.
          5    1    4    4  502    0 -0.41147016054E+02 -0.47053874729E+02 -0.32646150364E+01  0.62768557164E+02  0.47000000000E+01 0. -1.
         -5    1    4    4    0  502  0.53576073856E+02  0.35032057925E+02  0.19295776576E+01  0.64214126500E+02  0.47000000000E+01 0. -1.
          5    1    5    5  503    0 -0.57323912149E+02 -0.20635960826E+02 -0.91318841875E+02  0.10987763496E+03  0.47000000000E+01 0. -1.
         -5    1    5    5    0  503  0.44894854347E+02  0.32657777630E+02 -0.33843639822E+02  0.65188651949E+02  0.47000000000E+01 0. -1.
<mgrwt>
<rscale>  0 0.27428445E+03</rscale>
<asrwt>0</asrwt>
<pdfrwt beam="1">  1        2 0.32965114E-01 0.27428445E+03</pdfrwt>
<pdfrwt beam="2">  1       -2 0.13503958E-01 0.27428445E+03</pdfrwt>
<totfact> 0.63874362E+03</totfact>
</mgrwt>
</event>
<event>
 9    1  0.2051157E-002  0.2750909E+03  0.7818608E-02  0.1098401E+00
          1   -1    0    0  501    0  0.00000000000E+00  0.00000000000E+00  0.79660287732E+03  0.79660287732E+03  0.00000000000E+00 0. -1.
         -1   -1    0    0    0  501 -0.00000000000E+00 -0.00000000000E+00 -0.23749295383E+02  0.23749295383E+02  0.00000000000E+00 0. -1.
         36    2    1    2    0    0 -0.71054273576E-14 -0.35527136788E-14  0.77285358194E+03  0.82035217271E+03  0.27509094523E+03 0.  0.
         25    2    3    3    0    0 -0.36414126870E+02  0.19526776846E+02  0.50455012307E+03  0.52231497800E+03  0.12858781397E+03 0.  0.
         25    2    3    3    0    0  0.36414126870E+02 -0.19526776846E+02  0.26830345887E+03  0.29803719471E+03  0.12301276250E+03 0.  0.
          5    1    4    4  502    0  0.43929704745E+02  0.11577474254E+02  0.27879711261E+03  0.28251332158E+03  0.47000000000E+01 0.  1.
         -5    1    4    4    0  502 -0.80343831616E+02  0.79493025919E+01  0.22575301046E+03  0.23980165642E+03  0.47000000000E+01 0.  1.
          5    1    5    5  503    0  0.26661712967E+02  0.49467558560E+00  0.27337947252E+03  0.27471715935E+03  0.47000000000E+01 0. -1.
         -5    1    5    5    0  503  0.97524139035E+01 -0.20021452432E+02 -0.50760136574E+01  0.23320035357E+02  0.47000000000E+01 0. -1.
<mgrwt>
<rscale>  0 0.27509095E+03</rscale>
<asrwt>0</asrwt>
<pdfrwt beam="1">  1        1 0.12255427E+00 0.27509095E+03</pdfrwt>
<pdfrwt beam="2">  1       -1 0.36537384E-02 0.27509095E+03</pdfrwt>
<totfact> 0.65160765E+03</totfact>
</mgrwt>
</event>
<event>
 9    1  0.2051157E-002  0.2785352E+03  0.7818608E-02  0.1096492E+00
          4   -1    0    0  501    0  0.00000000000E+00  0.00000000000E+00  0.46678322790E+03  0.46678322790E+03  0.00000000000E+00 0.  1.
         -4   -1    0    0    0  501 -0.00000000000E+00 -0.00000000000E+00 -0.41551327568E+02  0.41551327568E+02  0.00000000000E+00 0.  1.
         36    2    1    2    0    0 -0.17763568394E-14  0.35527136788E-14  0.42523190033E+03  0.50833455546E+03  0.27853518848E+03 0.  0.
         25    2    3    3    0    0 -0.94924124838E+01 -0.89425194505E+01  0.11792262717E+03  0.17394091363E+03  0.12719913871E+03 0.  0.
         25    2    3    3    0    0  0.94924124838E+01  0.89425194505E+01  0.30730927316E+03  0.33439364183E+03  0.13118705643E+03 0.  0.
          5    1    4    4  502    0  0.87010926267E+01  0.39346491206E+01 -0.26069273694E+02  0.28158258247E+02  0.47000000000E+01 0. -1.
         -5    1    4    4    0  502 -0.18193505111E+02 -0.12877168571E+02  0.14399190086E+03  0.14578265539E+03  0.47000000000E+01 0. -1.
          5    1    5    5  503    0  0.10282399300E+02  0.31001697012E+02  0.76347425891E+01  0.33870521806E+02  0.47000000000E+01 0.  1.
         -5    1    5    5    0  503 -0.78998681615E+00 -0.22059177561E+02  0.29967453057E+03  0.30052312002E+03  0.47000000000E+01 0.  1.
<mgrwt>
<rscale>  0 0.27853519E+03</rscale>
<asrwt>0</asrwt>
<pdfrwt beam="1">  1        4 0.71812801E-01 0.27853519E+03</pdfrwt>
<pdfrwt beam="2">  1       -4 0.63925123E-02 0.27853519E+03</pdfrwt>
<totfact> 0.54134471E+02</totfact>
</mgrwt>
</event>
<event>
 9    1  0.2051157E-002  0.2760199E+03  0.7818608E-02  0.1097883E+00
          2   -1    0    0  501    0  0.00000000000E+00  0.00000000000E+00  0.49566165886E+03  0.49566165886E+03  0.00000000000E+00 0.  1.
         -2   -1    0    0    0  501 -0.00000000000E+00 -0.00000000000E+00 -0.38426904479E+02  0.38426904479E+02  0.00000000000E+00 0.  1.
         36    2    1    2    0    0 -0.14210854715E-13  0.00000000000E+00  0.45723475438E+03  0.53408856334E+03  0.27601987768E+03 0.  0.
         25    2    3    3    0    0  0.43534429138E+02  0.22058653626E+02  0.23638983303E+03  0.27584594564E+03  0.13352528540E+03 0.  0.
         25    2    3    3    0    0 -0.43534429138E+02 -0.22058653626E+02  0.22084492134E+03  0.25824261770E+03  0.12463923778E+03 0.  0.
          5    1    4    4  502    0 -0.13422295861E+02 -0.47297080143E+02  0.58627045253E+02  0.76657630092E+02  0.47000000000E+01 0. -1.
         -5    1    4    4    0  502  0.56956724999E+02  0.69355733769E+02  0.17776278778E+03  0.19918831554E+03  0.47000000000E+01 0. -1.
          5    1    5    5  503    0 -0.36937597568E+02  0.24973394953E+02  0.15520954619E+02  0.47445195772E+02  0.47000000000E+01 0. -1.
         -5    1    5    5    0  503 -0.65968315701E+01 -0.47032048578E+02  0.20532396673E+03  0.21079742193E+03  0.47000000000E+01 0. -1.
<mgrwt>
<rscale>  0 0.27601988E+03</rscale>
<asrwt>0</asrwt>
<pdfrwt beam="1">  1        2 0.76255635E-01 0.27601988E+03</pdfrwt>
<pdfrwt beam="2">  1       -2 0.59118318E-02 0.27601988E+03</pdfrwt>
<totfact> 0.94665346E+03</totfact>
</mgrwt>
</event>
<event>
 9    1  0.2051157E-002  0.2744055E+03  0.7818608E-02  0.1098784E+00
         -1   -1    0    0    0  501 -0.00000000000E+00  0.00000000000E+00  0.67570931343E+02  0.67570931343E+02  0.00000000000E+00 0.  1.
          1   -1    0    0  501    0  0.00000000000E+00 -0.00000000000E+00 -0.27859023149E+03  0.27859023149E+03  0.00000000000E+00 0.  1.
         36    2    1    2    0    0  0.35527136788E-14  0.35527136788E-14 -0.21101930015E+03  0.34616116283E+03  0.27440554954E+03 0.  0.
         25    2    3    3    0    0 -0.14938731750E+02 -0.35520930433E+01 -0.18195585249E+03  0.22065097796E+03  0.12386742408E+03 0.  0.
         25    2    3    3    0    0  0.14938731750E+02  0.35520930433E+01 -0.29063447657E+02  0.12551018487E+03  0.12112943261E+03 0.  0.
          5    1    4    4  502    0  0.27766927875E+02 -0.31161486286E+02 -0.15936604870E+03  0.16480797308E+03  0.47000000000E+01 0.  1.
         -5    1    4    4    0  502 -0.42705659624E+02  0.27609393242E+02 -0.22589803785E+02  0.55843004882E+02  0.47000000000E+01 0.  1.
          5    1    5    5  503    0  0.59728473758E+02 -0.11961511093E+02 -0.44337688269E+02  0.75488336358E+02  0.47000000000E+01 0.  1.
         -5    1    5    5    0  503 -0.44789742009E+02  0.15513604136E+02  0.15274240611E+02  0.50021848514E+02  0.47000000000E+01 0.  1.
<mgrwt>
<rscale>  0 0.27440555E+03</rscale>
<asrwt>0</asrwt>
<pdfrwt beam="1">  1        1 0.42860036E-01 0.27440555E+03</pdfrwt>
<pdfrwt beam="2">  1       -1 0.10395528E-01 0.27440555E+03</pdfrwt>
<totfact> 0.54851524E+03</totfact>
</mgrwt>
</event>
<event>
 9    1  0.2051157E-002  0.2743760E+03  0.7818608E-02  0.1098801E+00
          1   -1    0    0  501    0  0.00000000000E+00  0.00000000000E+00  0.24134023068E+04  0.24134023068E+04  0.00000000000E+00 0.  1.
         -1   -1    0    0    0  501 -0.00000000000E+00 -0.00000000000E+00 -0.77983484408E+01  0.77983484408E+01  0.00000000000E+00 0.  1.
         36    2    1    2    0    0  0.17763568394E-14 -0.17763568394E-14  0.24056039584E+04  0.24212006552E+04  0.27437603479E+03 0.  0.
         25    2    3    3    0    0 -0.72146254853E+01 -0.11200579757E+02  0.16605367785E+04  0.16646665653E+04  0.11642541540E+03 0.  0.
         25    2    3    3    0    0  0.72146254853E+01  0.11200579757E+02  0.74506717989E+03  0.75653408989E+03  0.13054203462E+03 0.  0.
          5    1    4    4  502    0  0.80621975202E-01 -0.41297649062E+01  0.16473808228E+04  0.16473927057E+04  0.47000000000E+01 0. -1.
         -5    1    4    4    0  502 -0.72952474605E+01 -0.70708148503E+01  0.13155955706E+02  0.17273859693E+02  0.47000000000E+01 0. -1.
          5    1    5    5  503    0 -0.39855047363E+01 -0.45944205028E+02  0.57194054290E+03  0.57381602351E+03  0.47000000000E+01 0. -1.
         -5    1    5    5    0  503  0.11200130222E+02  0.57144784784E+02  0.17312663699E+03  0.18271806637E+03  0.47000000000E+01 0. -1.
<mgrwt>
<rscale>  0 0.27437603E+03</rscale>
<asrwt>0</asrwt>
<pdfrwt beam="1">  1        1 0.37129207E+00 0.27437603E+03</pdfrwt>
<pdfrwt beam="2">  1       -1 0.11997478E-02 0.27437603E+03</pdfrwt>
<totfact> 0.26144076E+03</totfact>
</mgrwt>
</event>
<event>
 9    1  0.2051157E-002  0.2753626E+03  0.7818608E-02  0.1098249E+00
         -1   -1    0    0    0  501 -0.00000000000E+00  0.00000000000E+00  0.37531467769E+03  0.37531467769E+03  0.00000000000E+00 0. -1.
          1   -1    0    0  501    0  0.00000000000E+00 -0.00000000000E+00 -0.50507320744E+02  0.50507320744E+02  0.00000000000E+00 0. -1.
         36    2    1    2    0    0  0.00000000000E+00  0.71054273576E-14  0.32480735695E+03  0.42582199843E+03  0.27536258864E+03 0.  0.
         25    2    3    3    0    0  0.64864204165E+02 -0.17576031211E+02  0.16592960837E+03  0.21881356269E+03  0.12581914969E+03 0.  0.
         25    2    3    3    0    0 -0.64864204165E+02  0.17576031211E+02  0.15887774857E+03  0.20700843574E+03  0.11442933025E+03 0.  0.
          5    1    4    4  502    0  0.21032709158E+02  0.11298380783E+02  0.16429869579E+03  0.16609087784E+03  0.47000000000E+01 0.  1.
         -5    1    4    4    0  502  0.43831495007E+02 -0.28874411995E+02  0.16309125836E+01  0.52722684856E+02  0.47000000000E+01 0.  1.
          5    1    5    5  503    0 -0.36084680431E+02  0.66114919467E+02  0.80842746410E+02  0.11059351873E+03  0.47000000000E+01 0.  1.
         -5    1    5    5    0  503 -0.28779523734E+02 -0.48538888256E+02  0.78035002164E+02  0.96414917011E+02  0.47000000000E+01 0.  1.
<mgrwt>
<rscale>  0 0.27536259E+03</rscale>
<asrwt>0</asrwt>
<pdfrwt beam="1">  1        1 0.77703573E-02 0.27536259E+03</pdfrwt>
<pdfrwt beam="2">  1       -1 0.57740718E-01 0.27536259E+03</pdfrwt>
<totfact> 0.28230966E+03</totfact>
</mgrwt>
</event>
<event>
 9    1  0.2051157E-002  0.2747084E+03  0.7818608E-02  0.1098615E+00
          1   -1    0    0  501    0  0.00000000000E+00  0.00000000000E+00  0.33860734407E+03  0.33860734407E+03  0.00000000000E+00 0. -1.
         -1   -1    0    0    0  501 -0.00000000000E+00 -0.00000000000E+00 -0.55716966171E+02  0.55716966171E+02  0.00000000000E+00 0. -1.
         36    2    1    2    0    0  0.14210854715E-13  0.00000000000E+00  0.28289037790E+03  0.39432431024E+03  0.27470838309E+03 0.  0.
         25    2    3    3    0    0 -0.35392416693E+02  0.15094810872E+02  0.82034022302E+02  0.15243919711E+03  0.12258732204E+03 0.  0.
         25    2    3    3    0    0  0.35392416693E+02 -0.15094810872E+02  0.20085635560E+03  0.24188511313E+03  0.12916909808E+03 0.  0.
          5    1    4    4  502    0 -0.79799745556E+02  0.13912620407E+02  0.37586080268E+02  0.89422389966E+02  0.47000000000E+01 0. -1.
         -5    1    4    4    0  502  0.44407328863E+02  0.11821904659E+01  0.44447942034E+02  0.63016807140E+02  0.47000000000E+01 0. -1.
          5    1    5    5  503    0 -0.25671787034E+02 -0.50173907420E+02  0.13050130624E+03  0.14222919027E+03  0.47000000000E+01 0.  1.
         -5    1    5    5    0  503  0.61064203727E+02  0.35079096548E+02  0.70355049359E+02  0.99655922863E+02  0.47000000000E+01 0.  1.
<mgrwt>
<rscale>  0 0.27470838E+03</rscale>
<asrwt>0</asrwt>
<pdfrwt beam="1">  1        1 0.52093436E-01 0.27470838E+03</pdfrwt>
<pdfrwt beam="2">  1       -1 0.85718412E-02 0.27470838E+03</pdfrwt>
<totfact> 0.57752176E+03</totfact>
</mgrwt>
</event>
<event>
 9    1  0.2051157E-002  0.2748119E+03  0.7818608E-02  0.1098557E+00
         -2   -1    0    0    0  501 -0.00000000000E+00  0.00000000000E+00  0.89730923770E+03  0.89730923770E+03  0.00000000000E+00 0. -1.
          2   -1    0    0  501    0  0.00000000000E+00 -0.00000000000E+00 -0.21041125677E+02  0.21041125677E+02  0.00000000000E+00 0. -1.
         36    2    1    2    0    0  0.71054273576E-14  0.00000000000E+00  0.87626811202E+03  0.91835036338E+03  0.27481190980E+03 0.  0.
         25    2    3    3    0    0 -0.38686813558E+02  0.42963220462E+02  0.35539302584E+03  0.37915918429E+03  0.11880646598E+03 0.  0.
         25    2    3    3    0    0  0.38686813558E+02 -0.42963220462E+02  0.52087508618E+03  0.53919117909E+03  0.12678235029E+03 0.  0.
          5    1    4    4  502    0 -0.71326397232E+02  0.43272038861E+02  0.32022827926E+03  0.33095039678E+03  0.47000000000E+01 0. -1.
         -5    1    4    4    0  502  0.32639583674E+02 -0.30881839969E+00  0.35164746578E+02  0.48208787509E+02  0.47000000000E+01 0. -1.
          5    1    5    5  503    0 -0.24206722993E+02  0.18655298920E+02  0.41379276673E+02  0.51655785289E+02  0.47000000000E+01 0. -1.
         -5    1    5    5    0  503  0.62893536551E+02 -0.61618519381E+02  0.47949580951E+03  0.48753539380E+03  0.47000000000E+01 0. -1.
<mgrwt>
<rscale>  0 0.27481191E+03</rscale>
<asrwt>0</asrwt>
<pdfrwt beam="1">  1        2 0.32370969E-02 0.27481191E+03</pdfrwt>
<pdfrwt beam="2">  1       -2 0.13804755E+00 0.27481191E+03</pdfrwt>
<totfact> 0.11078719E+03</totfact>
</mgrwt>
</event>
<event>
 9    1  0.2051157E-002  0.2751320E+03  0.7818608E-02  0.1098378E+00
         -2   -1    0    0    0  501 -0.00000000000E+00  0.00000000000E+00  0.11911511836E+02  0.11911511836E+02  0.00000000000E+00 0.  1.
          2   -1    0    0  501    0  0.00000000000E+00 -0.00000000000E+00 -0.15887487235E+04  0.15887487235E+04  0.00000000000E+00 0.  1.
         36    2    1    2    0    0  0.35527136788E-14  0.00000000000E+00 -0.15768372117E+04  0.16006602354E+04  0.27513196270E+03 0.  0.
         25    2    3    3    0    0  0.28408457263E+02  0.31316287474E+02 -0.77073678049E+03  0.78260986159E+03  0.12905526085E+03 0.  0.
         25    2    3    3    0    0 -0.28408457263E+02 -0.31316287474E+02 -0.80610043120E+03  0.81805037377E+03  0.13274320526E+03 0.  0.
          5    1    4    4  502    0 -0.30021072756E+02 -0.32379132820E+02 -0.17160472942E+03  0.17725672402E+03  0.47000000000E+01 0.  1.
         -5    1    4    4    0  502  0.58429530019E+02  0.63695420294E+02 -0.59913205107E+03  0.60535313757E+03  0.47000000000E+01 0.  1.
          5    1    5    5  503    0  0.24871252030E+02 -0.69124574560E+02 -0.44842205602E+03  0.45442404900E+03  0.47000000000E+01 0.  1.
         -5    1    5    5    0  503 -0.53279709292E+02  0.37808287085E+02 -0.35767837518E+03  0.36362632477E+03  0.47000000000E+01 0.  1.
<mgrwt>
<rscale>  0 0.27513196E+03</rscale>
<asrwt>0</asrwt>
<pdfrwt beam="1">  1        2 0.24442273E+00 0.27513196E+03</pdfrwt>
<pdfrwt beam="2">  1       -2 0.18325414E-02 0.27513196E+03</pdfrwt>
<totfact> 0.10757883E+04</totfact>
</mgrwt>
</event>
<event>
 9    1  0.2051157E-002  0.2763340E+03  0.7818608E-02  0.1097708E+00
          2   -1    0    0  501    0  0.00000000000E+00  0.00000000000E+00  0.19704345573E+04  0.19704345573E+04  0.00000000000E+00 0. -1.
         -2   -1    0    0    0  501 -0.00000000000E+00 -0.00000000000E+00 -0.96882793503E+01  0.96882793503E+01  0.00000000000E+00 0. -1.
         36    2    1    2    0    0  0.00000000000E+00 -0.71054273576E-14  0.19607462779E+04  0.19801228366E+04  0.27633400393E+03 0.  0.
         25    2    3    3    0    0  0.53912851823E+02  0.16818051243E+02  0.10985357781E+04  0.11071499532E+04  0.12574068759E+03 0.  0.
         25    2    3    3    0    0 -0.53912851823E+02 -0.16818051243E+02  0.86221049978E+03  0.87297288345E+03  0.12443981222E+03 0.  0.
          5    1    4    4  502    0  0.51549072901E+02  0.65302594358E+02  0.83431226902E+03  0.83846334922E+03  0.47000000000E+01 0.  1.
         -5    1    4    4    0  502  0.23637789218E+01 -0.48484543115E+02  0.26422350911E+03  0.26868660394E+03  0.47000000000E+01 0.  1.
          5    1    5    5  503    0  0.27180309861E+02  0.30791360479E+02  0.31830933086E+03  0.32098254974E+03  0.47000000000E+01 0. -1.
         -5    1    5    5    0  503 -0.81093161684E+02 -0.47609411722E+02  0.54390116892E+03  0.55199033370E+03  0.47000000000E+01 0. -1.
<mgrwt>
<rscale>  0 0.27633400E+03</rscale>
<asrwt>0</asrwt>
<pdfrwt beam="1">  1        2 0.30314346E+00 0.27633400E+03</pdfrwt>
<pdfrwt beam="2">  1       -2 0.14905061E-02 0.27633400E+03</pdfrwt>
<totfact> 0.91703975E+03</totfact>
</mgrwt>
</event>
<event>
 9    1  0.2051157E-002  0.2749604E+03  0.7818608E-02  0.1098474E+00
         -1   -1    0    0    0  501 -0.00000000000E+00  0.00000000000E+00  0.98825986737E+02  0.98825986737E+02  0.00000000000E+00 0.  1.
          1   -1    0    0  501    0  0.00000000000E+00 -0.00000000000E+00 -0.19125336651E+03  0.19125336651E+03  0.00000000000E+00 0.  1.
         36    2    1    2    0    0 -0.17763568394E-14 -0.88817841970E-15 -0.92427379770E+02  0.29007935324E+03  0.27496038014E+03 0.  0.
         25    2    3    3    0    0  0.12193068551E+02  0.59675923574E+01 -0.10260164019E+03  0.16361039023E+03  0.12671614003E+03 0.  0.
         25    2    3    3    0    0 -0.12193068551E+02 -0.59675923574E+01  0.10174260416E+02  0.12646896301E+03  0.12532597477E+03 0.  0.
          5    1    4    4  502    0 -0.28219811273E+02 -0.47848373000E+02 -0.67549581895E+02  0.87583449129E+02  0.47000000000E+01 0.  1.
         -5    1    4    4    0  502  0.40412879824E+02  0.53815965358E+02 -0.35052058291E+02  0.76026941103E+02  0.47000000000E+01 0.  1.
          5    1    5    5  503    0  0.12631750327E+02 -0.70810730698E+01 -0.54731760148E+02  0.56809843171E+02  0.47000000000E+01 0.  1.
         -5    1    5    5    0  503 -0.24824818878E+02  0.11134807124E+01  0.64906020565E+02  0.69659119842E+02  0.47000000000E+01 0.  1.
<mgrwt>
<rscale>  0 0.27496038E+03</rscale>
<asrwt>0</asrwt>
<pdfrwt beam="1">  1        1 0.29423594E-01 0.27496038E+03</pdfrwt>
<pdfrwt beam="2">  1       -1 0.15203998E-01 0.27496038E+03</pdfrwt>
<totfact> 0.48503587E+03</totfact>
</mgrwt>
</event>
<event>
 9    1  0.2051157E-002  0.2752339E+03  0.7818608E-02  0.1098321E+00
         -2   -1    0    0    0  501 -0.00000000000E+00  0.00000000000E+00  0.13233795516E+02  0.13233795516E+02  0.00000000000E+00 0.  1.
          2   -1    0    0  501    0  0.00000000000E+00 -0.00000000000E+00 -0.14310647674E+04  0.14310647674E+04  0.00000000000E+00 0.  1.
         36    2    1    2    0    0  0.00000000000E+00 -0.53290705182E-14 -0.14178309719E+04  0.14442985629E+04  0.27523385331E+03 0.  0.
         25    2    3    3    0    0 -0.27216976247E+02  0.15949168614E+02 -0.98946012904E+03  0.99716249671E+03  0.11961002514E+03 0.  0.
         25    2    3    3    0    0  0.27216976247E+02 -0.15949168614E+02 -0.42837084285E+03  0.44713606621E+03  0.12423342113E+03 0.  0.
          5    1    4    4  502    0 -0.62355767703E+02 -0.25754485382E+02 -0.61840551425E+03  0.62209244116E+03  0.47000000000E+01 0. -1.
         -5    1    4    4    0  502  0.35138791455E+02  0.41703653996E+02 -0.37105461479E+03  0.37507005556E+03  0.47000000000E+01 0. -1.
          5    1    5    5  503    0  0.31332519664E+02 -0.27883373035E+02 -0.43129230561E+03  0.43335245720E+03  0.47000000000E+01 0. -1.
         -5    1    5    5    0  503 -0.41155434164E+01  0.11934204421E+02  0.29214627590E+01  0.13783609013E+02  0.47000000000E+01 0. -1.
<mgrwt>
<rscale>  0 0.27523385E+03</rscale>
<asrwt>0</asrwt>
<pdfrwt beam="1">  1        2 0.22016366E+00 0.27523385E+03</pdfrwt>
<pdfrwt beam="2">  1       -2 0.20359699E-02 0.27523385E+03</pdfrwt>
<totfact> 0.11191034E+04</totfact>
</mgrwt>
</event>
<event>
 9    1  0.2051157E-002  0.2875801E+03  0.7818608E-02  0.1091619E+00
         -1   -1    0    0    0  501 -0.00000000000E+00  0.00000000000E+00  0.47514417843E+02  0.47514417843E+02  0.00000000000E+00 0.  1.
          1   -1    0    0  501    0  0.00000000000E+00 -0.00000000000E+00 -0.43514339944E+03  0.43514339944E+03  0.00000000000E+00 0.  1.
         36    2    1    2    0    0  0.00000000000E+00 -0.14210854715E-13 -0.38762898160E+03  0.48265781729E+03  0.28758014746E+03 0.  0.
         25    2    3    3    0    0  0.51461111826E+01  0.69589952295E+02 -0.18471474640E+03  0.23402987577E+03  0.12562325140E+03 0.  0.
         25    2    3    3    0    0 -0.51461111826E+01 -0.69589952295E+02 -0.20291423520E+03  0.24862794152E+03  0.12558830573E+03 0.  0.
          5    1    4    4  502    0 -0.35965857313E+02  0.28474917765E+01 -0.35240453008E+01  0.36553522360E+02  0.47000000000E+01 0. -1.
         -5    1    4    4    0  502  0.41111968495E+02  0.66742460518E+02 -0.18119070110E+03  0.19747635341E+03  0.47000000000E+01 0. -1.
          5    1    5    5  503    0 -0.51126646489E+02 -0.55399724820E+01 -0.13471519777E+03  0.14427369749E+03  0.47000000000E+01 0.  1.
         -5    1    5    5    0  503  0.45980535307E+02 -0.64049979812E+02 -0.68199037427E+02  0.10435424403E+03  0.47000000000E+01 0.  1.
<mgrwt>
<rscale>  0 0.28758015E+03</rscale>
<asrwt>0</asrwt>
<pdfrwt beam="1">  1        1 0.66945137E-01 0.28758015E+03</pdfrwt>
<pdfrwt beam="2">  1       -1 0.73099106E-02 0.28758015E+03</pdfrwt>
<totfact> 0.53505649E+03</totfact>
</mgrwt>
</event>
<event>
 9    1  0.2051157E-002  0.2752273E+03  0.7818608E-02  0.1098325E+00
          3   -1    0    0  501    0  0.00000000000E+00  0.00000000000E+00  0.33743542628E+02  0.33743542628E+02  0.00000000000E+00 0.  1.
         -3   -1    0    0    0  501 -0.00000000000E+00 -0.00000000000E+00 -0.56121907489E+03  0.56121907489E+03  0.00000000000E+00 0.  1.
         36    2    1    2    0    0  0.35527136788E-14  0.00000000000E+00 -0.52747553226E+03  0.59496261752E+03  0.27522732261E+03 0.  0.
         25    2    3    3    0    0 -0.74063671912E+01 -0.12536316515E+02 -0.18261287946E+03  0.22692055742E+03  0.13391587705E+03 0.  0.
         25    2    3    3    0    0  0.74063671912E+01  0.12536316515E+02 -0.34486265280E+03  0.36804206010E+03  0.12772116191E+03 0.  0.
          5    1    4    4  502    0 -0.37116704461E+02 -0.23455019764E+02 -0.27605824599E+01  0.44243626860E+02  0.47000000000E+01 0.  1.
         -5    1    4    4    0  502  0.29710337270E+02  0.10918703249E+02 -0.17985229700E+03  0.18267693056E+03  0.47000000000E+01 0.  1.
          5    1    5    5  503    0 -0.52816987151E+02  0.97514576496E+01 -0.24846669802E+03  0.25424892347E+03  0.47000000000E+01 0.  1.
         -5    1    5    5    0  503  0.60223354343E+02  0.27848588650E+01 -0.96395954778E+02  0.11379313663E+03  0.47000000000E+01 0.  1.
<mgrwt>
<rscale>  0 0.27522732E+03</rscale>
<asrwt>0</asrwt>
<pdfrwt beam="1">  1        3 0.51913143E-02 0.27522732E+03</pdfrwt>
<pdfrwt beam="2">  1       -3 0.86341395E-01 0.27522732E+03</pdfrwt>
<totfact> 0.68702475E+02</totfact>
</mgrwt>
</event>
<event>
 9    1  0.2051157E-002  0.2759929E+03  0.7818608E-02  0.1097898E+00
         -2   -1    0    0    0  501 -0.00000000000E+00  0.00000000000E+00  0.12832215180E+02  0.12832215180E+02  0.00000000000E+00 0.  1.
          2   -1    0    0  501    0  0.00000000000E+00 -0.00000000000E+00 -0.14840005585E+04  0.14840005585E+04  0.00000000000E+00 0.  1.
         36    2    1    2    0    0  0.00000000000E+00  0.00000000000E+00 -0.14711683433E+04  0.14968327737E+04  0.27599285856E+03 0.  0.
         25    2    3    3    0    0 -0.42885713519E+02  0.11657551406E+02 -0.97106205748E+03  0.97983145208E+03  0.12301655204E+03 0.  0.
         25    2    3    3    0    0  0.42885713519E+02 -0.11657551406E+02 -0.50010628582E+03  0.51700132159E+03  0.12332471963E+03 0.  0.
          5    1    4    4  502    0 -0.62907971241E+02 -0.93101615000E+01 -0.24457968710E+03  0.25275562367E+03  0.47000000000E+01 0.  1.
         -5    1    4    4    0  502  0.20022257722E+02  0.20967712906E+02 -0.72648237038E+03  0.72707582841E+03  0.47000000000E+01 0.  1.
          5    1    5    5  503    0  0.34801904179E+02 -0.62357270509E+02 -0.19819939498E+03  0.21072420813E+03  0.47000000000E+01 0.  1.
         -5    1    5    5    0  503  0.80838093408E+01  0.50699719103E+02 -0.30190689084E+03  0.30627711346E+03  0.47000000000E+01 0.  1.
<mgrwt>
<rscale>  0 0.27599286E+03</rscale>
<asrwt>0</asrwt>
<pdfrwt beam="1">  1        2 0.22830768E+00 0.27599286E+03</pdfrwt>
<pdfrwt beam="2">  1       -2 0.19741878E-02 0.27599286E+03</pdfrwt>
<totfact> 0.10967049E+04</totfact>
</mgrwt>
</event>
<event>
 9    1  0.2051157E-002  0.2770042E+03  0.7818608E-02  0.1097336E+00
         -1   -1    0    0    0  501 -0.00000000000E+00  0.00000000000E+00  0.12551233204E+03  0.12551233204E+03  0.00000000000E+00 0. -1.
          1   -1    0    0  501    0  0.00000000000E+00 -0.00000000000E+00 -0.15283627177E+03  0.15283627177E+03  0.00000000000E+00 0. -1.
         36    2    1    2    0    0 -0.71054273576E-14  0.71054273576E-14 -0.27323939733E+02  0.27834860381E+03  0.27700423744E+03 0.  0.
         25    2    3    3    0    0 -0.19361214449E+02  0.42105260145E+02  0.19139136283E+02  0.13498602060E+03  0.12532840725E+03 0.  0.
         25    2    3    3    0    0  0.19361214449E+02 -0.42105260145E+02 -0.46463076016E+02  0.14336258321E+03  0.12746098726E+03 0.  0.
          5    1    4    4  502    0  0.33594261446E+02  0.65557891528E+02  0.21342375809E+02  0.76837481407E+02  0.47000000000E+01 0.  1.
         -5    1    4    4    0  502 -0.52955475895E+02 -0.23452631383E+02 -0.22032395259E+01  0.58148539195E+02  0.47000000000E+01 0.  1.
          5    1    5    5  503    0 -0.37435569088E+02  0.19092199722E+02 -0.42030675521E+02  0.59620479769E+02  0.47000000000E+01 0. -1.
         -5    1    5    5    0  503  0.56796783537E+02 -0.61197459866E+02 -0.44324004945E+01  0.83742103439E+02  0.47000000000E+01 0. -1.
<mgrwt>
<rscale>  0 0.27700424E+03</rscale>
<asrwt>0</asrwt>
<pdfrwt beam="1">  1        1 0.23513273E-01 0.27700424E+03</pdfrwt>
<pdfrwt beam="2">  1       -1 0.19309590E-01 0.27700424E+03</pdfrwt>
<totfact> 0.43955779E+03</totfact>
</mgrwt>
</event>
<event>
 9    1  0.2051157E-002  0.2679418E+03  0.7818608E-02  0.1102463E+00
          2   -1    0    0  501    0  0.00000000000E+00  0.00000000000E+00  0.12589827289E+04  0.12589827289E+04  0.00000000000E+00 0.  1.
         -2   -1    0    0    0  501 -0.00000000000E+00 -0.00000000000E+00 -0.14256114509E+02  0.14256114509E+02  0.00000000000E+00 0.  1.
         36    2    1    2    0    0  0.71054273576E-14  0.48849813084E-14  0.12447266144E+04  0.12732388434E+04  0.26794179926E+03 0.  0.
         25    2    3    3    0    0  0.30586321550E+02 -0.31726409943E+01  0.73993306718E+03  0.75189177034E+03  0.12997962022E+03 0.  0.
         25    2    3    3    0    0 -0.30586321550E+02  0.31726409943E+01  0.50479354721E+03  0.52134707307E+03  0.12665171370E+03 0.  0.
          5    1    4    4  502    0  0.48755864477E+01  0.44952452074E+02  0.59853304337E+03  0.60025693523E+03  0.47000000000E+01 0. -1.
         -5    1    4    4    0  502  0.25710735102E+02 -0.48125093069E+02  0.14140002382E+03  0.15163483511E+03  0.47000000000E+01 0. -1.
          5    1    5    5  503    0 -0.74434445428E+02 -0.22252739413E+01  0.40902066678E+03  0.41577089167E+03  0.47000000000E+01 0. -1.
         -5    1    5    5    0  503  0.43848123878E+02  0.53979149356E+01  0.95772880424E+02  0.10557618140E+03  0.47000000000E+01 0. -1.
<mgrwt>
<rscale>  0 0.26794180E+03</rscale>
<asrwt>0</asrwt>
<pdfrwt beam="1">  1        2 0.19368956E+00 0.26794180E+03</pdfrwt>
<pdfrwt beam="2">  1       -2 0.21932494E-02 0.26794180E+03</pdfrwt>
<totfact> 0.12456509E+04</totfact>
</mgrwt>
</event>
<event>
 9    1  0.2051157E-002  0.2747201E+03  0.7818608E-02  0.1098608E+00
         -1   -1    0    0    0  501 -0.00000000000E+00  0.00000000000E+00  0.19008553253E+02  0.19008553253E+02  0.00000000000E+00 0.  1.
          1   -1    0    0  501    0  0.00000000000E+00 -0.00000000000E+00 -0.99259419255E+03  0.99259419255E+03  0.00000000000E+00 0.  1.
         36    2    1    2    0    0 -0.71054273576E-14  0.00000000000E+00 -0.97358563930E+03  0.10116027458E+04  0.27472007257E+03 0.  0.
         25    2    3    3    0    0 -0.54975214447E+02 -0.92927147035E+01 -0.43916878735E+03  0.46007101376E+03  0.12524969131E+03 0.  0.
         25    2    3    3    0    0  0.54975214447E+02  0.92927147035E+01 -0.53441685195E+03  0.55153173204E+03  0.12440760045E+03 0.  0.
          5    1    4    4  502    0 -0.23108525456E+02 -0.20320345430E+02 -0.15029259300E+02  0.34567166824E+02  0.47000000000E+01 0. -1.
         -5    1    4    4    0  502 -0.31866688991E+02  0.11027630726E+02 -0.42413952805E+03  0.42550384694E+03  0.47000000000E+01 0. -1.
          5    1    5    5  503    0  0.14470096257E+02  0.63877951869E+02 -0.31533777799E+03  0.32210212767E+03  0.47000000000E+01 0. -1.
         -5    1    5    5    0  503  0.40505118190E+02 -0.54585237165E+02 -0.21907907396E+03  0.22942960437E+03  0.47000000000E+01 0. -1.
<mgrwt>
<rscale>  0 0.27472007E+03</rscale>
<asrwt>0</asrwt>
<pdfrwt beam="1">  1        1 0.15270684E+00 0.27472007E+03</pdfrwt>
<pdfrwt beam="2">  1       -1 0.29243919E-02 0.27472007E+03</pdfrwt>
<totfact> 0.63404480E+03</totfact>
</mgrwt>
</event>
<event>
 9    1  0.2051157E-002  0.2770388E+03  0.7818608E-02  0.1097317E+00
          2   -1    0    0  501    0  0.00000000000E+00  0.00000000000E+00  0.81524924391E+03  0.81524924391E+03  0.00000000000E+00 0.  1.
         -2   -1    0    0    0  501 -0.00000000000E+00 -0.00000000000E+00 -0.23535904371E+02  0.23535904371E+02  0.00000000000E+00 0.  1.
         36    2    1    2    0    0  0.71054273576E-14 -0.88817841970E-15  0.79171333954E+03  0.83878514828E+03  0.27703882936E+03 0.  0.
         25    2    3    3    0    0  0.54485224447E+02  0.92240563698E+00  0.42295833343E+03  0.44506585712E+03  0.12735923537E+03 0.  0.
         25    2    3    3    0    0 -0.54485224447E+02 -0.92240563698E+00  0.36875500610E+03  0.39371929116E+03  0.12674831436E+03 0.  0.
          5    1    4    4  502    0  0.69396703664E+02 -0.45944090908E+01  0.42277733093E+03  0.42848544038E+03  0.47000000000E+01 0. -1.
         -5    1    4    4    0  502 -0.14911479217E+02  0.55168147278E+01  0.18100250907E+00  0.16580416734E+02  0.47000000000E+01 0. -1.
          5    1    5    5  503    0 -0.33841265624E+02 -0.71642854551E+01  0.36996944610E+03  0.37161275448E+03  0.47000000000E+01 0.  1.
         -5    1    5    5    0  503 -0.20643958824E+02  0.62418798181E+01 -0.12144399973E+01  0.22106536682E+02  0.47000000000E+01 0.  1.
<mgrwt>
<rscale>  0 0.27703883E+03</rscale>
<asrwt>0</asrwt>
<pdfrwt beam="1">  1        2 0.12542294E+00 0.27703883E+03</pdfrwt>
<pdfrwt beam="2">  1       -2 0.36209090E-02 0.27703883E+03</pdfrwt>
<totfact> 0.11025112E+04</totfact>
</mgrwt>
</event>
<event>
 9    1  0.2051157E-002  0.2745356E+03  0.7818608E-02  0.1098711E+00
         -1   -1    0    0    0  501 -0.00000000000E+00  0.00000000000E+00  0.11423949751E+02  0.11423949751E+02  0.00000000000E+00 0.  1.
          1   -1    0    0  501    0  0.00000000000E+00 -0.00000000000E+00 -0.16493809161E+04  0.16493809161E+04  0.00000000000E+00 0.  1.
         36    2    1    2    0    0 -0.71054273576E-14  0.00000000000E+00 -0.16379569664E+04  0.16608048659E+04  0.27453556933E+03 0.  0.
         25    2    3    3    0    0 -0.19704575670E+02  0.14364252728E+02 -0.77530831583E+03  0.78709881409E+03  0.13351762616E+03 0.  0.
         25    2    3    3    0    0  0.19704575670E+02 -0.14364252728E+02 -0.86264865055E+03  0.87370605179E+03  0.13640003144E+03 0.  0.
          5    1    4    4  502    0 -0.60243236872E+02 -0.18066463839E+02 -0.20674490857E+03  0.21615085455E+03  0.47000000000E+01 0. -1.
         -5    1    4    4    0  502  0.40538661202E+02  0.32430716567E+02 -0.56856340726E+03  0.57094795954E+03  0.47000000000E+01 0. -1.
          5    1    5    5  503    0  0.31606665145E+02  0.28257702539E+02 -0.76728814693E+03  0.76847294647E+03  0.47000000000E+01 0. -1.
         -5    1    5    5    0  503 -0.11902089475E+02 -0.42621955267E+02 -0.95360503625E+02  0.10523310533E+03  0.47000000000E+01 0. -1.
<mgrwt>
<rscale>  0 0.27453557E+03</rscale>
<asrwt>0</asrwt>
<pdfrwt beam="1">  1        1 0.25375059E+00 0.27453557E+03</pdfrwt>
<pdfrwt beam="2">  1       -1 0.17575330E-02 0.27453557E+03</pdfrwt>
<totfact> 0.47259953E+03</totfact>
</mgrwt>
</event>
<event>
 9    1  0.2051157E-002  0.2782829E+03  0.7818608E-02  0.1096630E+00
         -1   -1    0    0    0  501 -0.00000000000E+00  0.00000000000E+00  0.88677233109E+02  0.88677233109E+02  0.00000000000E+00 0. -1.
          1   -1    0    0  501    0  0.00000000000E+00 -0.00000000000E+00 -0.21832379482E+03  0.21832379482E+03  0.00000000000E+00 0. -1.
         36    2    1    2    0    0 -0.35527136788E-14 -0.14210854715E-13 -0.12964656171E+03  0.30700102793E+03  0.27828294987E+03 0.  0.
         25    2    3    3    0    0 -0.29846399797E+02 -0.49801930776E+02 -0.37960597878E+02  0.14252515407E+03  0.12450450859E+03 0.  0.
         25    2    3    3    0    0  0.29846399797E+02  0.49801930776E+02 -0.91685963836E+02  0.16447587387E+03  0.12359189791E+03 0.  0.
          5    1    4    4  502    0 -0.36677859719E+02  0.27970674732E+02 -0.44207592164E+02  0.64062666534E+02  0.47000000000E+01 0.  1.
         -5    1    4    4    0  502  0.68314599220E+01 -0.77772605508E+02  0.62469942853E+01  0.78462487532E+02  0.47000000000E+01 0.  1.
          5    1    5    5  503    0 -0.23981104503E+02  0.46499677511E+02 -0.96766134332E+02  0.11010489606E+03  0.47000000000E+01 0.  1.
         -5    1    5    5    0  503  0.53827504300E+02  0.33022532650E+01  0.50801704959E+01  0.54370977811E+02  0.47000000000E+01 0.  1.
<mgrwt>
<rscale>  0 0.27828295E+03</rscale>
<asrwt>0</asrwt>
<pdfrwt beam="1">  1        1 0.33588276E-01 0.27828295E+03</pdfrwt>
<pdfrwt beam="2">  1       -1 0.13642651E-01 0.27828295E+03</pdfrwt>
<totfact> 0.48746937E+03</totfact>
</mgrwt>
</event>
<event>
 9    1  0.2051157E-002  0.2745541E+03  0.7818608E-02  0.1098701E+00
          1   -1    0    0  501    0  0.00000000000E+00  0.00000000000E+00  0.15811232456E+04  0.15811232456E+04  0.00000000000E+00 0.  1.
         -1   -1    0    0    0  501 -0.00000000000E+00 -0.00000000000E+00 -0.11918731497E+02  0.11918731497E+02  0.00000000000E+00 0.  1.
         36    2    1    2    0    0  0.71054273576E-14  0.00000000000E+00  0.15692045141E+04  0.15930419771E+04  0.27455406336E+03 0.  0.
         25    2    3    3    0    0  0.30406879552E+01 -0.18020347210E+02  0.10889145498E+04  0.10962368389E+04  0.12516521643E+03 0.  0.
         25    2    3    3    0    0 -0.30406879552E+01  0.18020347210E+02  0.48028996423E+03  0.49680513817E+03  0.12570965306E+03 0.  0.
          5    1    4    4  502    0  0.42679607492E+02  0.48904292543E+00  0.14320596335E+03  0.14950527080E+03  0.47000000000E+01 0. -1.
         -5    1    4    4    0  502 -0.39638919536E+02 -0.18509390135E+02  0.94570858648E+03  0.94673156808E+03  0.47000000000E+01 0. -1.
          5    1    5    5  503    0 -0.62037156223E+02  0.20527353238E+01  0.18412514600E+03  0.19436301568E+03  0.47000000000E+01 0. -1.
         -5    1    5    5    0  503  0.58996468268E+02  0.15967611886E+02  0.29616481823E+03  0.30244212249E+03  0.47000000000E+01 0. -1.
<mgrwt>
<rscale>  0 0.27455406E+03</rscale>
<asrwt>0</asrwt>
<pdfrwt beam="1">  1        1 0.24324956E+00 0.27455406E+03</pdfrwt>
<pdfrwt beam="2">  1       -1 0.18336523E-02 0.27455406E+03</pdfrwt>
<totfact> 0.49248486E+03</totfact>
</mgrwt>
</event>
<event>
 9    1  0.2051157E-002  0.2754134E+03  0.7818608E-02  0.1098221E+00
          4   -1    0    0  501    0  0.00000000000E+00  0.00000000000E+00  0.56841818771E+02  0.56841818771E+02  0.00000000000E+00 0. -1.
         -4   -1    0    0    0  501 -0.00000000000E+00 -0.00000000000E+00 -0.33361232596E+03  0.33361232596E+03  0.00000000000E+00 0. -1.
         36    2    1    2    0    0  0.71054273576E-14  0.00000000000E+00 -0.27677050719E+03  0.39045414473E+03  0.27541337202E+03 0.  0.
         25    2    3    3    0    0 -0.21960770887E+02  0.69920086947E+02 -0.16482209353E+03  0.21560918281E+03  0.11810970823E+03 0.  0.
         25    2    3    3    0    0  0.21960770887E+02 -0.69920086947E+02 -0.11194841366E+03  0.17484496192E+03  0.11254874221E+03 0.  0.
          5    1    4    4  502    0  0.11699583387E+02  0.34183134567E+02  0.67809324316E+01  0.37059924243E+02  0.47000000000E+01 0. -1.
         -5    1    4    4    0  502 -0.33660354274E+02  0.35736952380E+02 -0.17160302596E+03  0.17854925857E+03  0.47000000000E+01 0. -1.
          5    1    5    5  503    0  0.25266417588E+02  0.24784632043E+02 -0.50348876580E+02  0.61723327973E+02  0.47000000000E+01 0. -1.
         -5    1    5    5    0  503 -0.33056467006E+01 -0.94704718990E+02 -0.61599537081E+02  0.11312163395E+03  0.47000000000E+01 0. -1.
<mgrwt>
<rscale>  0 0.27541337E+03</rscale>
<asrwt>0</asrwt>
<pdfrwt beam="1">  1        4 0.87448951E-02 0.27541337E+03</pdfrwt>
<pdfrwt beam="2">  1       -4 0.51324974E-01 0.27541337E+03</pdfrwt>
<totfact> 0.65564401E+02</totfact>
</mgrwt>
</event>
<event>
 9    1  0.2051157E-002  0.2744631E+03  0.7818608E-02  0.1098752E+00
          4   -1    0    0  501    0  0.00000000000E+00  0.00000000000E+00  0.14235744614E+03  0.14235744614E+03  0.00000000000E+00 0. -1.
         -4   -1    0    0    0  501 -0.00000000000E+00 -0.00000000000E+00 -0.13229019540E+03  0.13229019540E+03  0.00000000000E+00 0. -1.
         36    2    1    2    0    0  0.00000000000E+00  0.71054273576E-14  0.10067250735E+02  0.27464764154E+03  0.27446307123E+03 0.  0.
         25    2    3    3    0    0 -0.31119993186E+02 -0.50145598951E+02  0.30897447510E+01  0.13502802310E+03  0.12140834168E+03 0.  0.
         25    2    3    3    0    0  0.31119993186E+02  0.50145598951E+02  0.69775059840E+01  0.13961961844E+03  0.12634048121E+03 0.  0.
          5    1    4    4  502    0 -0.12624324419E+01 -0.37815128210E+02 -0.55867097350E+02  0.67637269487E+02  0.47000000000E+01 0.  1.
         -5    1    4    4    0  502 -0.29857560744E+02 -0.12330470740E+02  0.58956842102E+02  0.67390753615E+02  0.47000000000E+01 0.  1.
          5    1    5    5  503    0 -0.43572979629E+02  0.37978229736E+02  0.22535741016E+02  0.62216558172E+02  0.47000000000E+01 0. -1.
         -5    1    5    5    0  503  0.74692972815E+02  0.12167369215E+02 -0.15558235032E+02  0.77403060268E+02  0.47000000000E+01 0. -1.
<mgrwt>
<rscale>  0 0.27446307E+03</rscale>
<asrwt>0</asrwt>
<pdfrwt beam="1">  1        4 0.21901146E-01 0.27446307E+03</pdfrwt>
<pdfrwt beam="2">  1       -4 0.20352338E-01 0.27446307E+03</pdfrwt>
<totfact> 0.78377834E+02</totfact>
</mgrwt>
</event>
<event>
 9    1  0.2051157E-002  0.2890791E+03  0.7818608E-02  0.1090831E+00
          1   -1    0    0  501    0  0.00000000000E+00  0.00000000000E+00  0.50886718285E+03  0.50886718285E+03  0.00000000000E+00 0.  1.
         -1   -1    0    0    0  501 -0.00000000000E+00 -0.00000000000E+00 -0.41055267025E+02  0.41055267025E+02  0.00000000000E+00 0.  1.
         36    2    1    2    0    0 -0.35527136788E-14  0.00000000000E+00  0.46781191582E+03  0.54992244987E+03  0.28907907619E+03 0.  0.
         25    2    3    3    0    0  0.21227074326E+02  0.37690194877E+02  0.11708303590E+03  0.17536827929E+03  0.12318464438E+03 0.  0.
         25    2    3    3    0    0 -0.21227074326E+02 -0.37690194877E+02  0.35072887992E+03  0.37455417058E+03  0.12413275158E+03 0.  0.
          5    1    4    4  502    0 -0.25359023409E+02  0.50758446129E+02  0.10052702204E+02  0.57815627155E+02  0.47000000000E+01 0.  1.
         -5    1    4    4    0  502  0.46586097735E+02 -0.13068251252E+02  0.10703033370E+03  0.11755265214E+03  0.47000000000E+01 0.  1.
          5    1    5    5  503    0  0.47207286746E+02 -0.53417905377E+01  0.77761071803E+02  0.91246572188E+02  0.47000000000E+01 0. -1.
         -5    1    5    5    0  503 -0.68434361073E+02 -0.32348404339E+02  0.27296780812E+03  0.28330759839E+03  0.47000000000E+01 0. -1.
<mgrwt>
<rscale>  0 0.28907908E+03</rscale>
<asrwt>0</asrwt>
<pdfrwt beam="1">  1        1 0.78287254E-01 0.28907908E+03</pdfrwt>
<pdfrwt beam="2">  1       -1 0.63161953E-02 0.28907908E+03</pdfrwt>
<totfact> 0.54366153E+03</totfact>
</mgrwt>
</event>
<event>
 9    1  0.2051157E-002  0.2738678E+03  0.7818608E-02  0.1099086E+00
         -2   -1    0    0    0  501 -0.00000000000E+00  0.00000000000E+00  0.34882033968E+02  0.34882033968E+02  0.00000000000E+00 0. -1.
          2   -1    0    0  501    0  0.00000000000E+00 -0.00000000000E+00 -0.53755162164E+03  0.53755162164E+03  0.00000000000E+00 0. -1.
         36    2    1    2    0    0  0.00000000000E+00 -0.71054273576E-14 -0.50266958767E+03  0.57243365561E+03  0.27386780698E+03 0.  0.
         25    2    3    3    0    0  0.52216248487E+01  0.34686513955E+02 -0.35282572907E+03  0.37539725258E+03  0.12331537833E+03 0.  0.
         25    2    3    3    0    0 -0.52216248487E+01 -0.34686513955E+02 -0.14984385861E+03  0.19703640303E+03  0.12304366112E+03 0.  0.
          5    1    4    4  502    0  0.62261241211E+02  0.41965212869E+01 -0.15263866506E+03  0.16496886076E+03  0.47000000000E+01 0. -1.
         -5    1    4    4    0  502 -0.57039616362E+02  0.30489992668E+02 -0.20018706401E+03  0.21042839182E+03  0.47000000000E+01 0. -1.
          5    1    5    5  503    0  0.40415167019E+02 -0.22722423873E+02 -0.14139511584E+03  0.14887700647E+03  0.47000000000E+01 0. -1.
         -5    1    5    5    0  503 -0.45636791867E+02 -0.11964090082E+02 -0.84487427706E+01  0.48159396568E+02  0.47000000000E+01 0. -1.
<mgrwt>
<rscale>  0 0.27386781E+03</rscale>
<asrwt>0</asrwt>
<pdfrwt beam="1">  1        2 0.82700246E-01 0.27386781E+03</pdfrwt>
<pdfrwt beam="2">  1       -2 0.53664670E-02 0.27386781E+03</pdfrwt>
<totfact> 0.10015586E+04</totfact>
</mgrwt>
</event>
<event>
 9    1  0.2051157E-002  0.2761332E+03  0.7818608E-02  0.1097820E+00
         -1   -1    0    0    0  501 -0.00000000000E+00  0.00000000000E+00  0.23560797102E+02  0.23560797102E+02  0.00000000000E+00 0.  1.
          1   -1    0    0  501    0  0.00000000000E+00 -0.00000000000E+00 -0.80907217344E+03  0.80907217344E+03  0.00000000000E+00 0.  1.
         36    2    1    2    0    0  0.71054273576E-14  0.71054273576E-14 -0.78551137634E+03  0.83263297054E+03  0.27613319481E+03 0.  0.
         25    2    3    3    0    0 -0.55713339292E+02  0.22689237042E+02 -0.37011316612E+03  0.39518670522E+03  0.12477980044E+03 0.  0.
         25    2    3    3    0    0  0.55713339292E+02 -0.22689237042E+02 -0.41539821022E+03  0.43744626532E+03  0.12322655694E+03 0.  0.
          5    1    4    4  502    0 -0.55830098225E+02  0.61824035537E+02 -0.15064335291E+03  0.17220546162E+03  0.47000000000E+01 0. -1.
         -5    1    4    4    0  502  0.11675893316E+00 -0.39134798495E+02 -0.21946981321E+03  0.22298124360E+03  0.47000000000E+01 0. -1.
          5    1    5    5  503    0  0.22646319175E+02  0.46757181046E+02 -0.10020935248E+03  0.11297386457E+03  0.47000000000E+01 0.  1.
         -5    1    5    5    0  503  0.33067020117E+02 -0.69446418088E+02 -0.31518885775E+03  0.32447240076E+03  0.47000000000E+01 0.  1.
<mgrwt>
<rscale>  0 0.27613319E+03</rscale>
<asrwt>0</asrwt>
<pdfrwt beam="1">  1        1 0.12447265E+00 0.27613319E+03</pdfrwt>
<pdfrwt beam="2">  1       -1 0.36247378E-02 0.27613319E+03</pdfrwt>
<totfact> 0.64380598E+03</totfact>
</mgrwt>
</event>
<event>
 9    1  0.2051157E-002  0.2747462E+03  0.7818608E-02  0.1098594E+00
         -2   -1    0    0    0  501 -0.00000000000E+00  0.00000000000E+00  0.17340318843E+02  0.17340318843E+02  0.00000000000E+00 0. -1.
          2   -1    0    0  501    0  0.00000000000E+00 -0.00000000000E+00 -0.10882939528E+04  0.10882939528E+04  0.00000000000E+00 0. -1.
         36    2    1    2    0    0  0.35527136788E-14  0.00000000000E+00 -0.10709536340E+04  0.11056342717E+04  0.27474616748E+03 0.  0.
         25    2    3    3    0    0 -0.48442038389E+01  0.45435364645E+02 -0.38213735838E+03  0.40436509138E+03  0.12407388035E+03 0.  0.
         25    2    3    3    0    0  0.48442038389E+01 -0.45435364645E+02 -0.68881627559E+03  0.70126918028E+03  0.12338056174E+03 0.  0.
          5    1    4    4  502    0  0.13739762716E+02  0.60667838549E+02 -0.81015911609E+02  0.10224986869E+03  0.47000000000E+01 0.  1.
         -5    1    4    4    0  502 -0.18583966555E+02 -0.15232473905E+02 -0.30112144677E+03  0.30211522269E+03  0.47000000000E+01 0.  1.
          5    1    5    5  503    0  0.46983034406E+02 -0.25789284192E+02 -0.13268222080E+03  0.14317525770E+03  0.47000000000E+01 0.  1.
         -5    1    5    5    0  503 -0.42138830567E+02 -0.19646080453E+02 -0.55613405480E+03  0.55809392258E+03  0.47000000000E+01 0.  1.
<mgrwt>
<rscale>  0 0.27474617E+03</rscale>
<asrwt>0</asrwt>
<pdfrwt beam="1">  1        2 0.16742980E+00 0.27474617E+03</pdfrwt>
<pdfrwt beam="2">  1       -2 0.26677419E-02 0.27474617E+03</pdfrwt>
<totfact> 0.11690019E+04</totfact>
</mgrwt>
</event>
<event>
 9    1  0.2051157E-002  0.2754386E+03  0.7818608E-02  0.1098207E+00
         -1   -1    0    0    0  501 -0.00000000000E+00  0.00000000000E+00  0.12247065987E+02  0.12247065987E+02  0.00000000000E+00 0. -1.
          1   -1    0    0  501    0  0.00000000000E+00 -0.00000000000E+00 -0.15486647680E+04  0.15486647680E+04  0.00000000000E+00 0. -1.
         36    2    1    2    0    0 -0.71054273576E-14 -0.35527136788E-14 -0.15364177020E+04  0.15609118340E+04  0.27543855652E+03 0.  0.
         25    2    3    3    0    0 -0.29179228645E+02 -0.27423588656E+02 -0.57960141676E+03  0.59498675174E+03  0.12832751786E+03 0.  0.
         25    2    3    3    0    0  0.29179228645E+02  0.27423588656E+02 -0.95681628524E+03  0.96592508223E+03  0.12613635551E+03 0.  0.
          5    1    4    4  502    0 -0.62332664587E+02 -0.22984807601E+02 -0.53452831837E+03  0.53866155942E+03  0.47000000000E+01 0.  1.
         -5    1    4    4    0  502  0.33153435942E+02 -0.44387810551E+01 -0.45073098387E+02  0.56325192323E+02  0.47000000000E+01 0.  1.
          5    1    5    5  503    0 -0.49286514339E+02  0.15782173297E+02 -0.43503620472E+03  0.43812877891E+03  0.47000000000E+01 0.  1.
         -5    1    5    5    0  503  0.78465742983E+02  0.11641415360E+02 -0.52178008052E+03  0.52779630332E+03  0.47000000000E+01 0.  1.
<mgrwt>
<rscale>  0 0.27543856E+03</rscale>
<asrwt>0</asrwt>
<pdfrwt beam="1">  1        1 0.23825608E+00 0.27543856E+03</pdfrwt>
<pdfrwt beam="2">  1       -1 0.18841643E-02 0.27543856E+03</pdfrwt>
<totfact> 0.49721754E+03</totfact>
</mgrwt>
</event>
<event>
 9    1  0.2051157E-002  0.2747987E+03  0.7818608E-02  0.1098564E+00
          3   -1    0    0  501    0  0.00000000000E+00  0.00000000000E+00  0.24176714093E+03  0.24176714093E+03  0.00000000000E+00 0. -1.
         -3   -1    0    0    0  501 -0.00000000000E+00 -0.00000000000E+00 -0.78085798305E+02  0.78085798305E+02  0.00000000000E+00 0. -1.
         36    2    1    2    0    0  0.00000000000E+00 -0.35527136788E-14  0.16368134263E+03  0.31985293924E+03  0.27479869143E+03 0.  0.
         25    2    3    3    0    0  0.35528440894E+02 -0.15897218042E+02  0.13513560288E+03  0.18684073152E+03  0.12301559305E+03 0.  0.
         25    2    3    3    0    0 -0.35528440894E+02  0.15897218042E+02  0.28545739749E+02  0.13301220772E+03  0.12394513500E+03 0.  0.
          5    1    4    4  502    0  0.67862393035E+02 -0.52770110763E+01  0.26998055360E+02  0.73376673593E+02  0.47000000000E+01 0. -1.
         -5    1    4    4    0  502 -0.32333952141E+02 -0.10620206965E+02  0.10813754752E+03  0.11346405792E+03  0.47000000000E+01 0. -1.
          5    1    5    5  503    0 -0.46741177088E+02 -0.39604619127E+02 -0.12774952545E+02  0.62757891172E+02  0.47000000000E+01 0. -1.
         -5    1    5    5    0  503  0.11212736195E+02  0.55501837169E+02  0.41320692294E+02  0.70254316549E+02  0.47000000000E+01 0. -1.
<mgrwt>
<rscale>  0 0.27479869E+03</rscale>
<asrwt>0</asrwt>
<pdfrwt beam="1">  1        3 0.37194944E-01 0.27479869E+03</pdfrwt>
<pdfrwt beam="2">  1       -3 0.12013200E-01 0.27479869E+03</pdfrwt>
<totfact> 0.98576374E+02</totfact>
</mgrwt>
</event>
<event>
 9    1  0.2051157E-002  0.2747556E+03  0.7818608E-02  0.1098588E+00
         -4   -1    0    0    0  501 -0.00000000000E+00  0.00000000000E+00  0.73714673181E+02  0.73714673181E+02  0.00000000000E+00 0.  1.
          4   -1    0    0  501    0  0.00000000000E+00 -0.00000000000E+00 -0.25602313378E+03  0.25602313378E+03  0.00000000000E+00 0.  1.
         36    2    1    2    0    0 -0.35527136788E-14  0.14210854715E-13 -0.18230846060E+03  0.32973780696E+03  0.27475561238E+03 0.  0.
         25    2    3    3    0    0 -0.31687389186E+02  0.51054744498E+02 -0.14288265426E+03  0.20175603963E+03  0.12914863170E+03 0.  0.
         25    2    3    3    0    0  0.31687389186E+02 -0.51054744498E+02 -0.39425806335E+02  0.12798176732E+03  0.10589740787E+03 0.  0.
          5    1    4    4  502    0 -0.30398334144E+02  0.23811160144E+01  0.16534253070E+02  0.35002856409E+02  0.47000000000E+01 0. -1.
         -5    1    4    4    0  502 -0.12890550425E+01  0.48673628483E+02 -0.15941690733E+03  0.16675318323E+03  0.47000000000E+01 0. -1.
          5    1    5    5  503    0  0.14441059595E+00  0.12960082813E+02  0.27036562918E+02  0.30348811103E+02  0.47000000000E+01 0.  1.
         -5    1    5    5    0  503  0.31542978590E+02 -0.64014827310E+02 -0.66462369253E+02  0.97632956222E+02  0.47000000000E+01 0.  1.
<mgrwt>
<rscale>  0 0.27475561E+03</rscale>
<asrwt>0</asrwt>
<pdfrwt beam="1">  1        4 0.39388173E-01 0.27475561E+03</pdfrwt>
<pdfrwt beam="2">  1       -4 0.11340719E-01 0.27475561E+03</pdfrwt>
<totfact> 0.71987719E+02</totfact>
</mgrwt>
</event>
<event>
 9    1  0.2051157E-002  0.2754185E+03  0.7818608E-02  0.1098218E+00
         -2   -1    0    0    0  501 -0.00000000000E+00  0.00000000000E+00  0.18702465096E+02  0.18702465096E+02  0.00000000000E+00 0. -1.
          2   -1    0    0  501    0  0.00000000000E+00 -0.00000000000E+00 -0.10139755523E+04  0.10139755523E+04  0.00000000000E+00 0. -1.
         36    2    1    2    0    0 -0.71054273576E-14  0.35527136788E-14 -0.99527308721E+03  0.10326780174E+04  0.27541853514E+03 0.  0.
         25    2    3    3    0    0  0.25432397171E+02 -0.17160873734E+02 -0.33170373298E+03  0.35632730826E+03  0.12649301058E+03 0.  0.
         25    2    3    3    0    0 -0.25432397171E+02  0.17160873734E+02 -0.66356935424E+03  0.67635070915E+03  0.12721906881E+03 0.  0.
          5    1    4    4  502    0 -0.26282006965E+02 -0.28274309439E+02 -0.27760276537E+02  0.47779738569E+02  0.47000000000E+01 0. -1.
         -5    1    4    4    0  502  0.51714404136E+02  0.11113435705E+02 -0.30394345644E+03  0.30854756969E+03  0.47000000000E+01 0. -1.
          5    1    5    5  503    0  0.33858604686E+02 -0.37011313203E+02 -0.24797910489E+03  0.25304538897E+03  0.47000000000E+01 0.  1.
         -5    1    5    5    0  503 -0.59291001857E+02  0.54172186937E+02 -0.41559024935E+03  0.42330532018E+03  0.47000000000E+01 0.  1.
<mgrwt>
<rscale>  0 0.27541854E+03</rscale>
<asrwt>0</asrwt>
<pdfrwt beam="1">  1        2 0.15599625E+00 0.27541854E+03</pdfrwt>
<pdfrwt beam="2">  1       -2 0.28773020E-02 0.27541854E+03</pdfrwt>
<totfact> 0.11577463E+04</totfact>
</mgrwt>
</event>
<event>
 9    1  0.2051157E-002  0.2755904E+03  0.7818608E-02  0.1098122E+00
          1   -1    0    0  501    0  0.00000000000E+00  0.00000000000E+00  0.11376277336E+03  0.11376277336E+03  0.00000000000E+00 0.  1.
         -1   -1    0    0    0  501 -0.00000000000E+00 -0.00000000000E+00 -0.16690454189E+03  0.16690454189E+03  0.00000000000E+00 0.  1.
         36    2    1    2    0    0  0.00000000000E+00  0.00000000000E+00 -0.53141768532E+02  0.28066731525E+03  0.27559044665E+03 0.  0.
         25    2    3    3    0    0 -0.77201445603E+01  0.56149733606E+02 -0.23236690111E+02  0.13964195115E+03  0.12548919291E+03 0.  0.
         25    2    3    3    0    0  0.77201445603E+01 -0.56149733606E+02 -0.29905078420E+02  0.14102536410E+03  0.12562422691E+03 0.  0.
          5    1    4    4  502    0 -0.51939948349E+02 -0.11225538948E+02 -0.24958063217E+02  0.58896229750E+02  0.47000000000E+01 0.  1.
         -5    1    4    4    0  502  0.44219803789E+02  0.67375272555E+02  0.17213731059E+01  0.80745721399E+02  0.47000000000E+01 0.  1.
          5    1    5    5  503    0 -0.57069698696E+02 -0.42734059663E+02 -0.17123516605E+02  0.73474180399E+02  0.47000000000E+01 0. -1.
         -5    1    5    5    0  503  0.64789843256E+02 -0.13415673944E+02 -0.12781561816E+02  0.67551183697E+02  0.47000000000E+01 0. -1.
<mgrwt>
<rscale>  0 0.27559045E+03</rscale>
<asrwt>0</asrwt>
<pdfrwt beam="1">  1        1 0.17501965E-01 0.27559045E+03</pdfrwt>
<pdfrwt beam="2">  1       -1 0.25677622E-01 0.27559045E+03</pdfrwt>
<totfact> 0.40239025E+03</totfact>
</mgrwt>
</event>
<event>
 9    1  0.2051157E-002  0.2736827E+03  0.7818608E-02  0.1099190E+00
          2   -1    0    0  501    0  0.00000000000E+00  0.00000000000E+00  0.12754429953E+04  0.12754429953E+04  0.00000000000E+00 0. -1.
         -2   -1    0    0    0  501 -0.00000000000E+00 -0.00000000000E+00 -0.14681611080E+02  0.14681611080E+02  0.00000000000E+00 0. -1.
         36    2    1    2    0    0  0.00000000000E+00 -0.71054273576E-14  0.12607613842E+04  0.12901246064E+04  0.27368272150E+03 0.  0.
         25    2    3    3    0    0  0.16961927044E+02  0.29688539639E+02  0.91211291057E+03  0.92030052211E+03  0.11761791108E+03 0.  0.
         25    2    3    3    0    0 -0.16961927044E+02 -0.29688539639E+02  0.34864847363E+03  0.36982408425E+03  0.11851151325E+03 0.  0.
          5    1    4    4  502    0  0.10120379034E+02  0.75260920238E+02  0.58305965279E+03  0.58800278647E+03  0.47000000000E+01 0. -1.
         -5    1    4    4    0  502  0.68415480102E+01 -0.45572380599E+02  0.32905325778E+03  0.33229773564E+03  0.47000000000E+01 0. -1.
          5    1    5    5  503    0 -0.58127404778E+02 -0.46131411526E+02  0.26247086112E+03  0.27280019291E+03  0.47000000000E+01 0.  1.
         -5    1    5    5    0  503  0.41165477735E+02  0.16442871887E+02  0.86177612508E+02  0.97023891339E+02  0.47000000000E+01 0.  1.
<mgrwt>
<rscale>  0 0.27368272E+03</rscale>
<asrwt>0</asrwt>
<pdfrwt beam="1">  1        2 0.19622191E+00 0.27368272E+03</pdfrwt>
<pdfrwt beam="2">  1       -2 0.22587104E-02 0.27368272E+03</pdfrwt>
<totfact> 0.11685096E+04</totfact>
</mgrwt>
</event>
<event>
 9    1  0.2051157E-002  0.2748344E+03  0.7818608E-02  0.1098544E+00
          1   -1    0    0  501    0  0.00000000000E+00  0.00000000000E+00  0.94940756437E+03  0.94940756437E+03  0.00000000000E+00 0.  1.
         -1   -1    0    0    0  501 -0.00000000000E+00 -0.00000000000E+00 -0.19889756295E+02  0.19889756295E+02  0.00000000000E+00 0.  1.
         36    2    1    2    0    0 -0.35527136788E-14  0.00000000000E+00  0.92951780807E+03  0.96929732066E+03  0.27483438708E+03 0.  0.
         25    2    3    3    0    0  0.23844699339E+02  0.46813063191E+02  0.43453250564E+03  0.45552257657E+03  0.12618354383E+03 0.  0.
         25    2    3    3    0    0 -0.23844699339E+02 -0.46813063191E+02  0.49498530243E+03  0.51377474409E+03  0.12725566971E+03 0.  0.
          5    1    4    4  502    0  0.65796049557E+02  0.61687429025E+02  0.32170819015E+03  0.33414474206E+03  0.47000000000E+01 0. -1.
         -5    1    4    4    0  502 -0.41951350218E+02 -0.14874365834E+02  0.11282431549E+03  0.12137783451E+03  0.47000000000E+01 0. -1.
          5    1    5    5  503    0 -0.94683656944E+01  0.35368180611E+02  0.57137545250E+02  0.68024607502E+02  0.47000000000E+01 0. -1.
         -5    1    5    5    0  503 -0.14376333644E+02 -0.82181243802E+02  0.43784775718E+03  0.44575013659E+03  0.47000000000E+01 0. -1.
<mgrwt>
<rscale>  0 0.27483439E+03</rscale>
<asrwt>0</asrwt>
<pdfrwt beam="1">  1        1 0.14606267E+00 0.27483439E+03</pdfrwt>
<pdfrwt beam="2">  1       -1 0.30599632E-02 0.27483439E+03</pdfrwt>
<totfact> 0.63949038E+03</totfact>
</mgrwt>
</event>
<event>
 9    1  0.2051157E-002  0.2746876E+03  0.7818608E-02  0.1098626E+00
         -2   -1    0    0    0  501 -0.00000000000E+00  0.00000000000E+00  0.11388827846E+02  0.11388827846E+02  0.00000000000E+00 0. -1.
          2   -1    0    0  501    0  0.00000000000E+00 -0.00000000000E+00 -0.16563004460E+04  0.16563004460E+04  0.00000000000E+00 0. -1.
         36    2    1    2    0    0  0.00000000000E+00  0.35527136788E-14 -0.16449116182E+04  0.16676892739E+04  0.27468760905E+03 0.  0.
         25    2    3    3    0    0  0.35338319226E+01 -0.20760006113E+02 -0.11819170185E+04  0.11881200836E+04  0.11940698688E+03 0.  0.
         25    2    3    3    0    0 -0.35338319226E+01  0.20760006113E+02 -0.46299459964E+03  0.47956919027E+03  0.12320366529E+03 0.  0.
          5    1    4    4  502    0  0.57328523551E+02 -0.19453980472E+02 -0.43010475982E+03  0.43436990156E+03  0.47000000000E+01 0. -1.
         -5    1    4    4    0  502 -0.53794691628E+02 -0.13060256408E+01 -0.75181225870E+03  0.75375018201E+03  0.47000000000E+01 0. -1.
          5    1    5    5  503    0 -0.46799146890E+02  0.48335818257E+02 -0.33252300123E+03  0.33929360121E+03  0.47000000000E+01 0. -1.
         -5    1    5    5    0  503  0.43265314968E+02 -0.27575812144E+02 -0.13047159841E+03  0.14027558906E+03  0.47000000000E+01 0. -1.
<mgrwt>
<rscale>  0 0.27468761E+03</rscale>
<asrwt>0</asrwt>
<pdfrwt beam="1">  1        2 0.25481550E+00 0.27468761E+03</pdfrwt>
<pdfrwt beam="2">  1       -2 0.17521270E-02 0.27468761E+03</pdfrwt>
<totfact> 0.10582209E+04</totfact>
</mgrwt>
</event>
<event>
 9    1  0.2051157E-002  0.2754313E+03  0.7818608E-02  0.1098211E+00
          1   -1    0    0  501    0  0.00000000000E+00  0.00000000000E+00  0.93989230889E+02  0.93989230889E+02  0.00000000000E+00 0.  1.
         -1   -1    0    0    0  501 -0.00000000000E+00 -0.00000000000E+00 -0.20178475797E+03  0.20178475797E+03  0.00000000000E+00 0.  1.
         36    2    1    2    0    0  0.00000000000E+00  0.71054273576E-14 -0.10779552708E+03  0.29577398886E+03  0.27543125608E+03 0.  0.
         25    2    3    3    0    0 -0.54841385655E+02  0.43195241495E+02 -0.70758563042E+02  0.14783400454E+03  0.10942902807E+03 0.  0.
         25    2    3    3    0    0  0.54841385655E+02 -0.43195241495E+02 -0.37036964042E+02  0.14793998433E+03  0.12506436658E+03 0.  0.
          5    1    4    4  502    0 -0.68202130149E+01 -0.22867215110E+02  0.15588390609E+02  0.28887934406E+02  0.47000000000E+01 0. -1.
         -5    1    4    4    0  502 -0.48021172640E+02  0.66062456606E+02 -0.86346953651E+02  0.11894607013E+03  0.47000000000E+01 0. -1.
          5    1    5    5  503    0  0.53292903161E+02  0.30843124997E+02  0.61908499153E+01  0.62063262157E+02  0.47000000000E+01 0. -1.
         -5    1    5    5    0  503  0.15484824936E+01 -0.74038366493E+02 -0.43227813957E+02  0.85876722169E+02  0.47000000000E+01 0. -1.
<mgrwt>
<rscale>  0 0.27543126E+03</rscale>
<asrwt>0</asrwt>
<pdfrwt beam="1">  1        1 0.14459882E-01 0.27543126E+03</pdfrwt>
<pdfrwt beam="2">  1       -1 0.31043809E-01 0.27543126E+03</pdfrwt>
<totfact> 0.37489507E+03</totfact>
</mgrwt>
</event>
<event>
 9    1  0.2051157E-002  0.2747678E+03  0.7818608E-02  0.1098581E+00
          1   -1    0    0  501    0  0.00000000000E+00  0.00000000000E+00  0.15616409533E+04  0.15616409533E+04  0.00000000000E+00 0. -1.
         -1   -1    0    0    0  501 -0.00000000000E+00 -0.00000000000E+00 -0.12086222460E+02  0.12086222460E+02  0.00000000000E+00 0. -1.
         36    2    1    2    0    0  0.71054273576E-14 -0.35527136788E-14  0.15495547308E+04  0.15737271757E+04  0.27476782900E+03 0.  0.
         25    2    3    3    0    0  0.53704456740E+02 -0.11642725818E+02  0.84683401419E+03  0.85794783779E+03  0.12620191377E+03 0.  0.
         25    2    3    3    0    0 -0.53704456740E+02  0.11642725818E+02  0.70272071660E+03  0.71577933792E+03  0.12451479157E+03 0.  0.
          5    1    4    4  502    0  0.70385114621E+02 -0.36182549876E+02  0.30030238320E+03  0.31059113418E+03  0.47000000000E+01 0. -1.
         -5    1    4    4    0  502 -0.16680657880E+02  0.24539824058E+02  0.54653163100E+03  0.54735670362E+03  0.47000000000E+01 0. -1.
          5    1    5    5  503    0 -0.72174394423E+02 -0.37287393346E+02  0.48753790949E+03  0.49428210174E+03  0.47000000000E+01 0.  1.
         -5    1    5    5    0  503  0.18469937683E+02  0.48930119164E+02  0.21518280711E+03  0.22149723618E+03  0.47000000000E+01 0.  1.
<mgrwt>
<rscale>  0 0.27476783E+03</rscale>
<asrwt>0</asrwt>
<pdfrwt beam="1">  1        1 0.24025229E+00 0.27476783E+03</pdfrwt>
<pdfrwt beam="2">  1       -1 0.18594201E-02 0.27476783E+03</pdfrwt>
<totfact> 0.49701596E+03</totfact>
</mgrwt>
</event>
<event>
 9    1  0.2051157E-002  0.2757579E+03  0.7818608E-02  0.1098029E+00
         -2   -1    0    0    0  501 -0.00000000000E+00  0.00000000000E+00  0.11444130941E+02  0.11444130941E+02  0.00000000000E+00 0.  1.
          2   -1    0    0  501    0  0.00000000000E+00 -0.00000000000E+00 -0.16611664621E+04  0.16611664621E+04  0.00000000000E+00 0.  1.
         36    2    1    2    0    0  0.14210854715E-13  0.00000000000E+00 -0.16497223311E+04  0.16726105930E+04  0.27575791199E+03 0.  0.
         25    2    3    3    0    0 -0.42830366526E+02  0.45883483687E+01 -0.69159226455E+03  0.70560504311E+03  0.13312822106E+03 0.  0.
         25    2    3    3    0    0  0.42830366526E+02 -0.45883483687E+01 -0.95813006658E+03  0.96700554990E+03  0.12341400169E+03 0.  0.
          5    1    4    4  502    0  0.39847046270E+02 -0.28841528389E+02 -0.20376213843E+03  0.20966811849E+03  0.47000000000E+01 0.  1.
         -5    1    4    4    0  502 -0.82677412796E+02  0.33429876758E+02 -0.48783012613E+03  0.49593692462E+03  0.47000000000E+01 0.  1.
          5    1    5    5  503    0 -0.20370493187E+02  0.26256130082E+02 -0.90595410779E+02  0.96612420598E+02  0.47000000000E+01 0. -1.
         -5    1    5    5    0  503  0.63200859713E+02 -0.30844478451E+02 -0.86753465581E+03  0.87039312931E+03  0.47000000000E+01 0. -1.
<mgrwt>
<rscale>  0 0.27575791E+03</rscale>
<asrwt>0</asrwt>
<pdfrwt beam="1">  1        2 0.25556394E+00 0.27575791E+03</pdfrwt>
<pdfrwt beam="2">  1       -2 0.17606365E-02 0.27575791E+03</pdfrwt>
<totfact> 0.10446021E+04</totfact>
</mgrwt>
</event>
<event>
 9    1  0.2051157E-002  0.2743538E+03  0.7818608E-02  0.1098813E+00
         -1   -1    0    0    0  501 -0.00000000000E+00  0.00000000000E+00  0.93166340722E+01  0.93166340722E+01  0.00000000000E+00 0.  1.
          1   -1    0    0  501    0  0.00000000000E+00 -0.00000000000E+00 -0.20197739787E+04  0.20197739787E+04  0.00000000000E+00 0.  1.
         36    2    1    2    0    0 -0.35527136788E-14  0.71054273576E-14 -0.20104573446E+04  0.20290906127E+04  0.27435375024E+03 0.  0.
         25    2    3    3    0    0  0.26996908372E+02  0.31736048975E+02 -0.66133013245E+03  0.67346344521E+03  0.12024748679E+03 0.  0.
         25    2    3    3    0    0 -0.26996908372E+02 -0.31736048975E+02 -0.13491272122E+04  0.13556271675E+04  0.12587602207E+03 0.  0.
          5    1    4    4  502    0 -0.34923938605E+02 -0.24835117456E+02 -0.23985939791E+03  0.24370286275E+03  0.47000000000E+01 0. -1.
         -5    1    4    4    0  502  0.61920846976E+02  0.56571166430E+02 -0.42147073454E+03  0.42976058245E+03  0.47000000000E+01 0. -1.
          5    1    5    5  503    0  0.22200125288E+02  0.39674858936E+02 -0.44908214376E+03  0.45140204013E+03  0.47000000000E+01 0. -1.
         -5    1    5    5    0  503 -0.49197033659E+02 -0.71410907910E+02 -0.90004506840E+03  0.90422512741E+03  0.47000000000E+01 0. -1.
<mgrwt>
<rscale>  0 0.27435375E+03</rscale>
<asrwt>0</asrwt>
<pdfrwt beam="1">  1        1 0.31073489E+00 0.27435375E+03</pdfrwt>
<pdfrwt beam="2">  1       -1 0.14333263E-02 0.27435375E+03</pdfrwt>
<totfact> 0.36526790E+03</totfact>
</mgrwt>
</event>
<event>
 9    1  0.2051157E-002  0.2779646E+03  0.7818608E-02  0.1096806E+00
          2   -1    0    0  501    0  0.00000000000E+00  0.00000000000E+00  0.25677136557E+02  0.25677136557E+02  0.00000000000E+00 0. -1.
         -2   -1    0    0    0  501 -0.00000000000E+00 -0.00000000000E+00 -0.75226751014E+03  0.75226751014E+03  0.00000000000E+00 0. -1.
         36    2    1    2    0    0 -0.17763568394E-14  0.00000000000E+00 -0.72659037359E+03  0.77794464670E+03  0.27796457030E+03 0.  0.
         25    2    3    3    0    0 -0.11920363610E+02 -0.74611898389E+02 -0.38625773236E+03  0.41094771837E+03  0.11821150947E+03 0.  0.
         25    2    3    3    0    0  0.11920363610E+02  0.74611898389E+02 -0.34033264122E+03  0.36699692833E+03  0.11467958962E+03 0.  0.
          5    1    4    4  502    0  0.20850641544E+01 -0.21635711724E+02 -0.33509525900E+03  0.33583236015E+03  0.47000000000E+01 0. -1.
         -5    1    4    4    0  502 -0.14005427765E+02 -0.52976186664E+02 -0.51162473360E+02  0.75115358221E+02  0.47000000000E+01 0. -1.
          5    1    5    5  503    0  0.21282460244E+02 -0.27197358024E+02 -0.79571356909E+02  0.86869616310E+02  0.47000000000E+01 0.  1.
         -5    1    5    5    0  503 -0.93620966331E+01  0.10180925641E+03 -0.26076128431E+03  0.28012731202E+03  0.47000000000E+01 0.  1.
<mgrwt>
<rscale>  0 0.27796457E+03</rscale>
<asrwt>0</asrwt>
<pdfrwt beam="1">  1        2 0.39503290E-02 0.27796457E+03</pdfrwt>
<pdfrwt beam="2">  1       -2 0.11573345E+00 0.27796457E+03</pdfrwt>
<totfact> 0.13069660E+03</totfact>
</mgrwt>
</event>
<event>
 9    1  0.2051157E-002  0.2732536E+03  0.7818608E-02  0.1099432E+00
          1   -1    0    0  501    0  0.00000000000E+00  0.00000000000E+00  0.65522174955E+02  0.65522174955E+02  0.00000000000E+00 0. -1.
         -1   -1    0    0    0  501 -0.00000000000E+00 -0.00000000000E+00 -0.28489411632E+03  0.28489411632E+03  0.00000000000E+00 0. -1.
         36    2    1    2    0    0 -0.71054273576E-14  0.71054273576E-14 -0.21937194136E+03  0.35041629127E+03  0.27325359747E+03 0.  0.
         25    2    3    3    0    0 -0.13915911324E+01 -0.45779720710E+02 -0.96347091199E+02  0.16525216715E+03  0.12620537791E+03 0.  0.
         25    2    3    3    0    0  0.13915911324E+01  0.45779720710E+02 -0.12302485016E+03  0.18516412412E+03  0.13058682839E+03 0.  0.
          5    1    4    4  502    0  0.43635668410E+02 -0.67388950488E+02 -0.40028981555E+02  0.89831795985E+02  0.47000000000E+01 0. -1.
         -5    1    4    4    0  502 -0.45027259542E+02  0.21609229779E+02 -0.56318109644E+02  0.75420371170E+02  0.47000000000E+01 0. -1.
          5    1    5    5  503    0  0.42104389506E+02  0.72536351081E+02 -0.51620300329E+02  0.98595371341E+02  0.47000000000E+01 0.  1.
         -5    1    5    5    0  503 -0.40712798374E+02 -0.26756630371E+02 -0.71404549836E+02  0.86568752778E+02  0.47000000000E+01 0.  1.
<mgrwt>
<rscale>  0 0.27325360E+03</rscale>
<asrwt>0</asrwt>
<pdfrwt beam="1">  1        1 0.10080334E-01 0.27325360E+03</pdfrwt>
<pdfrwt beam="2">  1       -1 0.43829865E-01 0.27325360E+03</pdfrwt>
<totfact> 0.33074597E+03</totfact>
</mgrwt>
</event>
<event>
 9    1  0.2051157E-002  0.2737629E+03  0.7818608E-02  0.1099145E+00
          1   -1    0    0  501    0  0.00000000000E+00  0.00000000000E+00  0.22724971933E+04  0.22724971933E+04  0.00000000000E+00 0.  1.
         -1   -1    0    0    0  501 -0.00000000000E+00 -0.00000000000E+00 -0.82449111749E+01  0.82449111749E+01  0.00000000000E+00 0.  1.
         36    2    1    2    0    0  0.71054273576E-14  0.71054273576E-14  0.22642522821E+04  0.22807421044E+04  0.27376294493E+03 0.  0.
         25    2    3    3    0    0 -0.38448737089E+02  0.34472084998E+02  0.13615241833E+04  0.13681870718E+04  0.12458383403E+03 0.  0.
         25    2    3    3    0    0  0.38448737089E+02 -0.34472084998E+02  0.90272809873E+03  0.91255503258E+03  0.12317482382E+03 0.  0.
          5    1    4    4  502    0 -0.48417936576E+02 -0.19978480925E+02  0.10773913052E+04  0.10786739780E+04  0.47000000000E+01 0. -1.
         -5    1    4    4    0  502  0.99691994872E+01  0.54450565922E+02  0.28413287816E+03  0.28951309386E+03  0.47000000000E+01 0. -1.
          5    1    5    5  503    0  0.31021667131E+02 -0.55333087403E+02  0.87237111757E+03  0.87468711615E+03  0.47000000000E+01 0. -1.
         -5    1    5    5    0  503  0.74270699580E+01  0.20861002405E+02  0.30356981166E+02  0.37867916434E+02  0.47000000000E+01 0. -1.
<mgrwt>
<rscale>  0 0.27376294E+03</rscale>
<asrwt>0</asrwt>
<pdfrwt beam="1">  1        1 0.34961445E+00 0.27376294E+03</pdfrwt>
<pdfrwt beam="2">  1       -1 0.12684497E-02 0.27376294E+03</pdfrwt>
<totfact> 0.29853635E+03</totfact>
</mgrwt>
</event>
<event>
 9    1  0.2051157E-002  0.2768971E+03  0.7818608E-02  0.1097396E+00
          2   -1    0    0  501    0  0.00000000000E+00  0.00000000000E+00  0.82051842459E+02  0.82051842459E+02  0.00000000000E+00 0.  1.
         -2   -1    0    0    0  501 -0.00000000000E+00 -0.00000000000E+00 -0.23360842840E+03  0.23360842840E+03  0.00000000000E+00 0.  1.
         36    2    1    2    0    0  0.00000000000E+00  0.00000000000E+00 -0.15155658594E+03  0.31566027085E+03  0.27689710698E+03 0.  0.
         25    2    3    3    0    0 -0.45187659445E+01  0.10587321887E+02 -0.14186759188E+03  0.18994085070E+03  0.12577202594E+03 0.  0.
         25    2    3    3    0    0  0.45187659445E+01 -0.10587321887E+02 -0.96889940534E+01  0.12571942015E+03  0.12481580576E+03 0.  0.
          5    1    4    4  502    0 -0.58032063233E+02 -0.16309917036E+02 -0.42793617418E+02  0.74075079808E+02  0.47000000000E+01 0.  1.
         -5    1    4    4    0  502  0.53513297289E+02  0.26897238923E+02 -0.99073974465E+02  0.11586577089E+03  0.47000000000E+01 0.  1.
          5    1    5    5  503    0  0.35765195866E+02 -0.58038922974E+02 -0.54380844510E+01  0.68551648979E+02  0.47000000000E+01 0.  1.
         -5    1    5    5    0  503 -0.31246429921E+02  0.47451601087E+02 -0.42509096024E+01  0.57167771174E+02  0.47000000000E+01 0.  1.
<mgrwt>
<rscale>  0 0.27689711E+03</rscale>
<asrwt>0</asrwt>
<pdfrwt beam="1">  1        2 0.12623360E-01 0.27689711E+03</pdfrwt>
<pdfrwt beam="2">  1       -2 0.35939758E-01 0.27689711E+03</pdfrwt>
<totfact> 0.34931926E+03</totfact>
</mgrwt>
</event>
<event>
 9    1  0.2051157E-002  0.2752317E+03  0.7818608E-02  0.1098322E+00
          1   -1    0    0  501    0  0.00000000000E+00  0.00000000000E+00  0.25954637795E+02  0.25954637795E+02  0.00000000000E+00 0. -1.
         -1   -1    0    0    0  501 -0.00000000000E+00 -0.00000000000E+00 -0.72966242437E+03  0.72966242437E+03  0.00000000000E+00 0. -1.
         36    2    1    2    0    0  0.35527136788E-14  0.00000000000E+00 -0.70370778658E+03  0.75561706217E+03  0.27523171283E+03 0.  0.
         25    2    3    3    0    0  0.25267856753E+02  0.37861329883E+02 -0.41590629418E+03  0.43670393192E+03  0.12514125510E+03 0.  0.
         25    2    3    3    0    0 -0.25267856753E+02 -0.37861329883E+02 -0.28780149239E+03  0.31891313025E+03  0.12963001479E+03 0.  0.
          5    1    4    4  502    0  0.13163543497E+02  0.47966161087E+02 -0.50885050643E+02  0.71312059750E+02  0.47000000000E+01 0.  1.
         -5    1    4    4    0  502  0.12104313256E+02 -0.10104831204E+02 -0.36502124354E+03  0.36539187217E+03  0.47000000000E+01 0.  1.
          5    1    5    5  503    0 -0.64301674045E+02  0.18180729745E+02 -0.11565249443E+03  0.13365191239E+03  0.47000000000E+01 0.  1.
         -5    1    5    5    0  503  0.39033817292E+02 -0.56042059628E+02 -0.17214899796E+03  0.18526121785E+03  0.47000000000E+01 0.  1.
<mgrwt>
<rscale>  0 0.27523171E+03</rscale>
<asrwt>0</asrwt>
<pdfrwt beam="1">  1        1 0.39930215E-02 0.27523171E+03</pdfrwt>
<pdfrwt beam="2">  1       -1 0.11225575E+00 0.27523171E+03</pdfrwt>
<totfact> 0.17629376E+03</totfact>
</mgrwt>
</event>
<event>
 9    1  0.2051157E-002  0.2767524E+03  0.7818608E-02  0.1097476E+00
          2   -1    0    0  501    0  0.00000000000E+00  0.00000000000E+00  0.83647021597E+03  0.83647021597E+03  0.00000000000E+00 0. -1.
         -2   -1    0    0    0  501 -0.00000000000E+00 -0.00000000000E+00 -0.22891393104E+02  0.22891393104E+02  0.00000000000E+00 0. -1.
         36    2    1    2    0    0  0.35527136788E-14  0.00000000000E+00  0.81357882287E+03  0.85936160907E+03  0.27675236970E+03 0.  0.
         25    2    3    3    0    0  0.26928518771E+02  0.39579898674E+02  0.46010578013E+03  0.47934051739E+03  0.12561166026E+03 0.  0.
         25    2    3    3    0    0 -0.26928518771E+02 -0.39579898674E+02  0.35347304273E+03  0.38002109169E+03  0.13107678927E+03 0.  0.
          5    1    4    4  502    0  0.42673874251E+02  0.61790119771E+02  0.14812726637E+03  0.16614107104E+03  0.47000000000E+01 0. -1.
         -5    1    4    4    0  502 -0.15745355480E+02 -0.22210221098E+02  0.31197851376E+03  0.31319944634E+03  0.47000000000E+01 0. -1.
          5    1    5    5  503    0 -0.34754358981E+02 -0.82199647261E+02  0.28649060691E+03  0.30010599015E+03  0.47000000000E+01 0. -1.
         -5    1    5    5    0  503  0.78258402094E+01  0.42619748587E+02  0.66982435825E+02  0.79915101537E+02  0.47000000000E+01 0. -1.
<mgrwt>
<rscale>  0 0.27675237E+03</rscale>
<asrwt>0</asrwt>
<pdfrwt beam="1">  1        2 0.12868770E+00 0.27675237E+03</pdfrwt>
<pdfrwt beam="2">  1       -2 0.35217534E-02 0.27675237E+03</pdfrwt>
<totfact> 0.11118225E+04</totfact>
</mgrwt>
</event>
<event>
 9    1  0.2051157E-002  0.2751198E+03  0.7818608E-02  0.1098385E+00
          2   -1    0    0  501    0  0.00000000000E+00  0.00000000000E+00  0.91053721501E+03  0.91053721501E+03  0.00000000000E+00 0. -1.
         -2   -1    0    0    0  501 -0.00000000000E+00 -0.00000000000E+00 -0.20781942997E+02  0.20781942997E+02  0.00000000000E+00 0. -1.
         36    2    1    2    0    0  0.71054273576E-14 -0.71054273576E-14  0.88975527202E+03  0.93131915801E+03  0.27511984660E+03 0.  0.
         25    2    3    3    0    0 -0.34448169779E+01  0.32027765830E+02  0.59208360481E+03  0.60642039822E+03  0.12706321159E+03 0.  0.
         25    2    3    3    0    0  0.34448169779E+01 -0.32027765830E+02  0.29767166721E+03  0.32489875979E+03  0.12614728737E+03 0.  0.
          5    1    4    4  502    0 -0.55783786434E+02 -0.96540479913E+01  0.37294575750E+03  0.37724747780E+03  0.47000000000E+01 0. -1.
         -5    1    4    4    0  502  0.52338969456E+02  0.41681813821E+02  0.21913784731E+03  0.22917292042E+03  0.47000000000E+01 0. -1.
          5    1    5    5  503    0 -0.56730620744E+02 -0.39480125145E+02  0.16492499957E+03  0.17888373066E+03  0.47000000000E+01 0. -1.
         -5    1    5    5    0  503  0.60175437722E+02  0.74523593154E+01  0.13274666764E+03  0.14601502913E+03  0.47000000000E+01 0. -1.
<mgrwt>
<rscale>  0 0.27511985E+03</rscale>
<asrwt>0</asrwt>
<pdfrwt beam="1">  1        2 0.14008262E+00 0.27511985E+03</pdfrwt>
<pdfrwt beam="2">  1       -2 0.31972227E-02 0.27511985E+03</pdfrwt>
<totfact> 0.11482149E+04</totfact>
</mgrwt>
</event>
<event>
 9    1  0.2051157E-002  0.2751203E+03  0.7818608E-02  0.1098384E+00
          2   -1    0    0  501    0  0.00000000000E+00  0.00000000000E+00  0.11952003421E+04  0.11952003421E+04  0.00000000000E+00 0.  1.
         -2   -1    0    0    0  501 -0.00000000000E+00 -0.00000000000E+00 -0.15832316070E+02  0.15832316070E+02  0.00000000000E+00 0.  1.
         36    2    1    2    0    0  0.00000000000E+00  0.00000000000E+00  0.11793680260E+04  0.12110326582E+04  0.27512026158E+03 0.  0.
         25    2    3    3    0    0 -0.41158644743E+02  0.17926821828E+01  0.42270183472E+03  0.44332198109E+03  0.12712312967E+03 0.  0.
         25    2    3    3    0    0  0.41158644743E+02 -0.17926821828E+01  0.75666619129E+03  0.76771067706E+03  0.12303946881E+03 0.  0.
          5    1    4    4  502    0 -0.31404932402E+02 -0.60645225530E+02  0.18298794225E+03  0.19537346331E+03  0.47000000000E+01 0. -1.
         -5    1    4    4    0  502 -0.97537123404E+01  0.62437907713E+02  0.23971389247E+03  0.24794851778E+03  0.47000000000E+01 0. -1.
          5    1    5    5  503    0  0.69384356704E+01  0.21596761964E+02  0.68029407386E+03  0.68068838608E+03  0.47000000000E+01 0.  1.
         -5    1    5    5    0  503  0.34220209072E+02 -0.23389444147E+02  0.76372117432E+02  0.87022290980E+02  0.47000000000E+01 0.  1.
<mgrwt>
<rscale>  0 0.27512026E+03</rscale>
<asrwt>0</asrwt>
<pdfrwt beam="1">  1        2 0.18387691E+00 0.27512026E+03</pdfrwt>
<pdfrwt beam="2">  1       -2 0.24357419E-02 0.27512026E+03</pdfrwt>
<totfact> 0.11599533E+04</totfact>
</mgrwt>
</event>
<event>
 9    1  0.2051157E-002  0.2748954E+03  0.7818608E-02  0.1098510E+00
          1   -1    0    0  501    0  0.00000000000E+00  0.00000000000E+00  0.53093719345E+03  0.53093719345E+03  0.00000000000E+00 0. -1.
         -1   -1    0    0    0  501 -0.00000000000E+00 -0.00000000000E+00 -0.35582126231E+02  0.35582126231E+02  0.00000000000E+00 0. -1.
         36    2    1    2    0    0 -0.71054273576E-14  0.35527136788E-14  0.49535506722E+03  0.56651931969E+03  0.27489542912E+03 0.  0.
         25    2    3    3    0    0 -0.22190108894E+02  0.23679781665E+02  0.32704528280E+03  0.35283901796E+03  0.12838856102E+03 0.  0.
         25    2    3    3    0    0  0.22190108894E+02 -0.23679781665E+02  0.16830978443E+03  0.21368030173E+03  0.12758508855E+03 0.  0.
          5    1    4    4  502    0 -0.69525618332E+02  0.18670396669E+02  0.11730007146E+03  0.13770908496E+03  0.47000000000E+01 0. -1.
         -5    1    4    4    0  502  0.47335509439E+02  0.50093849953E+01  0.20974521134E+03  0.21512993300E+03  0.47000000000E+01 0. -1.
          5    1    5    5  503    0 -0.39400187327E+02  0.35690416287E+01  0.13018974043E+03  0.13614907761E+03  0.47000000000E+01 0.  1.
         -5    1    5    5    0  503  0.61590296221E+02 -0.27248823293E+02  0.38120043994E+02  0.77531224120E+02  0.47000000000E+01 0.  1.
<mgrwt>
<rscale>  0 0.27489543E+03</rscale>
<asrwt>0</asrwt>
<pdfrwt beam="1">  1        1 0.81682639E-01 0.27489543E+03</pdfrwt>
<pdfrwt beam="2">  1       -1 0.54741737E-02 0.27489543E+03</pdfrwt>
<totfact> 0.63638164E+03</totfact>
</mgrwt>
</event>
<event>
 9    1  0.2051157E-002  0.2751404E+03  0.7818608E-02  0.1098373E+00
         -2   -1    0    0    0  501 -0.00000000000E+00  0.00000000000E+00  0.29733915396E+02  0.29733915396E+02  0.00000000000E+00 0. -1.
          2   -1    0    0  501    0  0.00000000000E+00 -0.00000000000E+00 -0.63649743097E+03  0.63649743097E+03  0.00000000000E+00 0. -1.
         36    2    1    2    0    0  0.10658141036E-13  0.00000000000E+00 -0.60676351558E+03  0.66623134637E+03  0.27514040606E+03 0.  0.
         25    2    3    3    0    0  0.31954566390E+02 -0.17856063239E+02 -0.41286418633E+03  0.43242689986E+03  0.12327308734E+03 0.  0.
         25    2    3    3    0    0 -0.31954566390E+02  0.17856063239E+02 -0.19389932925E+03  0.23380444651E+03  0.12540987209E+03 0.  0.
          5    1    4    4  502    0 -0.31270484963E+02 -0.15749116217E+02 -0.30690016262E+03  0.30892665426E+03  0.47000000000E+01 0.  1.
         -5    1    4    4    0  502  0.63225051353E+02 -0.21069470221E+01 -0.10596402371E+03  0.12350024561E+03  0.47000000000E+01 0.  1.
          5    1    5    5  503    0 -0.62229448837E+02 -0.33063401955E+02 -0.11630377654E+03  0.13606745125E+03  0.47000000000E+01 0. -1.
         -5    1    5    5    0  503  0.30274882446E+02  0.50919465194E+02 -0.77595552704E+02  0.97736995259E+02  0.47000000000E+01 0. -1.
<mgrwt>
<rscale>  0 0.27514041E+03</rscale>
<asrwt>0</asrwt>
<pdfrwt beam="1">  1        2 0.97922667E-01 0.27514041E+03</pdfrwt>
<pdfrwt beam="2">  1       -2 0.45744492E-02 0.27514041E+03</pdfrwt>
<totfact> 0.10503723E+04</totfact>
</mgrwt>
</event>
<event>
 9    1  0.2051157E-002  0.2756927E+03  0.7818608E-02  0.1098065E+00
          1   -1    0    0  501    0  0.00000000000E+00  0.00000000000E+00  0.63898134480E+02  0.63898134480E+02  0.00000000000E+00 0. -1.
         -1   -1    0    0    0  501 -0.00000000000E+00 -0.00000000000E+00 -0.29737350628E+03  0.29737350628E+03  0.00000000000E+00 0. -1.
         36    2    1    2    0    0  0.00000000000E+00 -0.35527136788E-14 -0.23347537180E+03  0.36127164076E+03  0.27569267161E+03 0.  0.
         25    2    3    3    0    0 -0.23560645786E+02 -0.13331528506E+02 -0.18170561496E+03  0.22185512371E+03  0.12437818027E+03 0.  0.
         25    2    3    3    0    0  0.23560645786E+02  0.13331528506E+02 -0.51769756837E+02  0.13941651705E+03  0.12658603327E+03 0.  0.
          5    1    4    4  502    0 -0.89576263010E+01 -0.34395759196E+02 -0.19088839071E+03  0.19422609255E+03  0.47000000000E+01 0.  1.
         -5    1    4    4    0  502 -0.14603019485E+02  0.21064230691E+02  0.91827757465E+01  0.27629031165E+02  0.47000000000E+01 0.  1.
          5    1    5    5  503    0  0.31235802185E+02 -0.31990446861E+02 -0.75195995234E+02  0.87610454443E+02  0.47000000000E+01 0. -1.
         -5    1    5    5    0  503 -0.76751563980E+01  0.45321975367E+02  0.23426238398E+02  0.51806062602E+02  0.47000000000E+01 0. -1.
<mgrwt>
<rscale>  0 0.27569267E+03</rscale>
<asrwt>0</asrwt>
<pdfrwt beam="1">  1        1 0.98304825E-02 0.27569267E+03</pdfrwt>
<pdfrwt beam="2">  1       -1 0.45749769E-01 0.27569267E+03</pdfrwt>
<totfact> 0.31662123E+03</totfact>
</mgrwt>
</event>
<event>
 9    1  0.2051157E-002  0.2755711E+03  0.7818608E-02  0.1098133E+00
         -1   -1    0    0    0  501 -0.00000000000E+00  0.00000000000E+00  0.11983046670E+03  0.11983046670E+03  0.00000000000E+00 0. -1.
          1   -1    0    0  501    0  0.00000000000E+00 -0.00000000000E+00 -0.15843101223E+03  0.15843101223E+03  0.00000000000E+00 0. -1.
         36    2    1    2    0    0  0.00000000000E+00  0.00000000000E+00 -0.38600545524E+02  0.27826147893E+03  0.27557113155E+03 0.  0.
         25    2    3    3    0    0  0.58431163371E+02 -0.10505228566E+02 -0.29591215141E+02  0.14174982998E+03  0.12527096075E+03 0.  0.
         25    2    3    3    0    0 -0.58431163371E+02  0.10505228566E+02 -0.90093303834E+01  0.13651164894E+03  0.12259568338E+03 0.  0.
          5    1    4    4  502    0  0.77970702680E+02  0.22588754207E+02  0.15010926105E+02  0.82686759493E+02  0.47000000000E+01 0. -1.
         -5    1    4    4    0  502 -0.19539539308E+02 -0.33093982772E+02 -0.44602141245E+02  0.59063070491E+02  0.47000000000E+01 0. -1.
          5    1    5    5  503    0  0.88546070376E+00  0.38088952649E+02 -0.47025894618E+02  0.60704836044E+02  0.47000000000E+01 0.  1.
         -5    1    5    5    0  503 -0.59316624075E+02 -0.27583724083E+02  0.38016564234E+02  0.75806812901E+02  0.47000000000E+01 0.  1.
<mgrwt>
<rscale>  0 0.27557113E+03</rscale>
<asrwt>0</asrwt>
<pdfrwt beam="1">  1        1 0.24374002E-01 0.27557113E+03</pdfrwt>
<pdfrwt beam="2">  1       -1 0.18435457E-01 0.27557113E+03</pdfrwt>
<totfact> 0.45244154E+03</totfact>
</mgrwt>
</event>
<event>
 9    1  0.2051157E-002  0.2783186E+03  0.7818608E-02  0.1096611E+00
          2   -1    0    0  501    0  0.00000000000E+00  0.00000000000E+00  0.64191467638E+03  0.64191467638E+03  0.00000000000E+00 0. -1.
         -2   -1    0    0    0  501 -0.00000000000E+00 -0.00000000000E+00 -0.30168049292E+02  0.30168049292E+02  0.00000000000E+00 0. -1.
         36    2    1    2    0    0  0.71054273576E-14 -0.71054273576E-14  0.61174662709E+03  0.67208272567E+03  0.27831862028E+03 0.  0.
         25    2    3    3    0    0 -0.22602111953E+02  0.26892340101E+02  0.18364566627E+03  0.22461624220E+03  0.12446956293E+03 0.  0.
         25    2    3    3    0    0  0.22602111953E+02 -0.26892340101E+02  0.42810096082E+03  0.44746648348E+03  0.12538647360E+03 0.  0.
          5    1    4    4  502    0  0.21928813777E+02 -0.38654506034E+02  0.37650405444E+02  0.58435321001E+02  0.47000000000E+01 0. -1.
         -5    1    4    4    0  502 -0.44530925730E+02  0.65546846135E+02  0.14599526083E+03  0.16618092119E+03  0.47000000000E+01 0. -1.
          5    1    5    5  503    0  0.66610558898E+02 -0.11803351834E+02  0.13957400435E+03  0.15517499271E+03  0.47000000000E+01 0.  1.
         -5    1    5    5    0  503 -0.44008446945E+02 -0.15088988267E+02  0.28852695646E+03  0.29229149077E+03  0.47000000000E+01 0.  1.
<mgrwt>
<rscale>  0 0.27831862E+03</rscale>
<asrwt>0</asrwt>
<pdfrwt beam="1">  1        2 0.98756094E-01 0.27831862E+03</pdfrwt>
<pdfrwt beam="2">  1       -2 0.46412388E-02 0.27831862E+03</pdfrwt>
<totfact> 0.10177666E+04</totfact>
</mgrwt>
</event>
<event>
 9    1  0.2051157E-002  0.2787350E+03  0.7818608E-02  0.1096382E+00
          2   -1    0    0  501    0  0.00000000000E+00  0.00000000000E+00  0.10994895514E+04  0.10994895514E+04  0.00000000000E+00 0.  1.
         -2   -1    0    0    0  501 -0.00000000000E+00 -0.00000000000E+00 -0.17665746264E+02  0.17665746264E+02  0.00000000000E+00 0.  1.
         36    2    1    2    0    0 -0.35527136788E-14  0.14210854715E-13  0.10818238051E+04  0.11171552977E+04  0.27873502424E+03 0.  0.
         25    2    3    3    0    0  0.78749557669E+01 -0.48145370718E+02  0.33542226405E+03  0.35978981702E+03  0.12066741714E+03 0.  0.
         25    2    3    3    0    0 -0.78749557669E+01  0.48145370718E+02  0.74640154108E+03  0.75736548065E+03  0.11877381484E+03 0.  0.
          5    1    4    4  502    0  0.29779183120E+02  0.29496842962E+02  0.64448214384E+02  0.77022891593E+02  0.47000000000E+01 0. -1.
         -5    1    4    4    0  502 -0.21904227353E+02 -0.77642213680E+02  0.27097404967E+03  0.28276692542E+03  0.47000000000E+01 0. -1.
          5    1    5    5  503    0 -0.32246844942E+02  0.75186572011E+02  0.35922603462E+03  0.36845395040E+03  0.47000000000E+01 0. -1.
         -5    1    5    5    0  503  0.24371889175E+02 -0.27041201293E+02  0.38717550647E+03  0.38891153024E+03  0.47000000000E+01 0. -1.
<mgrwt>
<rscale>  0 0.27873502E+03</rscale>
<asrwt>0</asrwt>
<pdfrwt beam="1">  1        2 0.16915219E+00 0.27873502E+03</pdfrwt>
<pdfrwt beam="2">  1       -2 0.27178080E-02 0.27873502E+03</pdfrwt>
<totfact> 0.11205417E+04</totfact>
</mgrwt>
</event>
<event>
 9    1  0.2051157E-002  0.2744255E+03  0.7818608E-02  0.1098773E+00
         -1   -1    0    0    0  501 -0.00000000000E+00  0.00000000000E+00  0.17916397653E+03  0.17916397653E+03  0.00000000000E+00 0. -1.
          1   -1    0    0  501    0  0.00000000000E+00 -0.00000000000E+00 -0.10508442982E+03  0.10508442982E+03  0.00000000000E+00 0. -1.
         36    2    1    2    0    0  0.00000000000E+00  0.00000000000E+00  0.74079546718E+02  0.28424840635E+03  0.27442554049E+03 0.  0.
         25    2    3    3    0    0 -0.45656532399E+02 -0.39366252947E+02  0.60612456230E+02  0.14501536050E+03  0.11713822651E+03 0.  0.
         25    2    3    3    0    0  0.45656532399E+02  0.39366252947E+02  0.13467090488E+02  0.13923304585E+03  0.12478083870E+03 0.  0.
          5    1    4    4  502    0 -0.19755616876E+02  0.39388961469E+02  0.39430856097E+02  0.59318269498E+02  0.47000000000E+01 0. -1.
         -5    1    4    4    0  502 -0.25900915522E+02 -0.78755214415E+02  0.21181600133E+02  0.85697091005E+02  0.47000000000E+01 0. -1.
          5    1    5    5  503    0 -0.27015895857E+01  0.50296173899E+02 -0.41230104110E+02  0.65261130698E+02  0.47000000000E+01 0. -1.
         -5    1    5    5    0  503  0.48358121985E+02 -0.10929920952E+02  0.54697194598E+02  0.73971915149E+02  0.47000000000E+01 0. -1.
<mgrwt>
<rscale>  0 0.27442554E+03</rscale>
<asrwt>0</asrwt>
<pdfrwt beam="1">  1        1 0.16166835E-01 0.27442554E+03</pdfrwt>
<pdfrwt beam="2">  1       -1 0.27563689E-01 0.27442554E+03</pdfrwt>
<totfact> 0.39620191E+03</totfact>
</mgrwt>
</event>
<event>
 9    1  0.2051157E-002  0.2746182E+03  0.7818608E-02  0.1098665E+00
         -1   -1    0    0    0  501 -0.00000000000E+00  0.00000000000E+00  0.73598178813E+01  0.73598178813E+01  0.00000000000E+00 0. -1.
          1   -1    0    0  501    0  0.00000000000E+00 -0.00000000000E+00 -0.25617202478E+04  0.25617202478E+04  0.00000000000E+00 0. -1.
         36    2    1    2    0    0  0.26645352591E-14  0.00000000000E+00 -0.25543604300E+04  0.25690800657E+04  0.27461824038E+03 0.  0.
         25    2    3    3    0    0  0.71112185400E+01 -0.31591022278E+02 -0.16462587515E+04  0.16513144237E+04  0.12499154734E+03 0.  0.
         25    2    3    3    0    0 -0.71112185400E+01  0.31591022278E+02 -0.90810167844E+03  0.91776564201E+03  0.12882761016E+03 0.  0.
          5    1    4    4  502    0  0.83657529032E+01 -0.54750458100E+02 -0.31642232074E+03  0.32126744862E+03  0.47000000000E+01 0.  1.
         -5    1    4    4    0  502 -0.12545343631E+01  0.23159435822E+02 -0.13298364308E+04  0.13300469751E+04  0.47000000000E+01 0.  1.
          5    1    5    5  503    0 -0.54112081189E+02  0.38192286751E+02 -0.74162932327E+03  0.74459580393E+03  0.47000000000E+01 0.  1.
         -5    1    5    5    0  503  0.47000862649E+02 -0.66012644728E+01 -0.16647235517E+03  0.17316983807E+03  0.47000000000E+01 0.  1.
<mgrwt>
<rscale>  0 0.27461824E+03</rscale>
<asrwt>0</asrwt>
<pdfrwt beam="1">  1        1 0.39411145E+00 0.27461824E+03</pdfrwt>
<pdfrwt beam="2">  1       -1 0.11322778E-02 0.27461824E+03</pdfrwt>
<totfact> 0.22659575E+03</totfact>
</mgrwt>
</event>
<event>
 9    1  0.2051157E-002  0.2747932E+03  0.7818608E-02  0.1098567E+00
          2   -1    0    0  501    0  0.00000000000E+00  0.00000000000E+00  0.11434373819E+03  0.11434373819E+03  0.00000000000E+00 0.  1.
         -2   -1    0    0    0  501 -0.00000000000E+00 -0.00000000000E+00 -0.16509716311E+03  0.16509716311E+03  0.00000000000E+00 0.  1.
         36    2    1    2    0    0  0.14210854715E-13 -0.17763568394E-14 -0.50753424918E+02  0.27944090129E+03  0.27479320802E+03 0.  0.
         25    2    3    3    0    0  0.61805485978E+02 -0.11864150848E+02 -0.12668982022E+02  0.13824073819E+03  0.12243088833E+03 0.  0.
         25    2    3    3    0    0 -0.61805485978E+02  0.11864150848E+02 -0.38084442896E+02  0.14120016310E+03  0.12052545414E+03 0.  0.
          5    1    4    4  502    0 -0.27016070816E+02  0.41251077124E+01 -0.35483471906E+02  0.45033891398E+02  0.47000000000E+01 0. -1.
         -5    1    4    4    0  502  0.88821556794E+02 -0.15989258560E+02  0.22814489884E+02  0.93206846794E+02  0.47000000000E+01 0. -1.
          5    1    5    5  503    0 -0.90729071861E+00  0.27226028212E+00  0.40620798437E+02  0.40902769683E+02  0.47000000000E+01 0.  1.
         -5    1    5    5    0  503 -0.60898195260E+02  0.11591890566E+02 -0.78705241333E+02  0.10029739342E+03  0.47000000000E+01 0.  1.
<mgrwt>
<rscale>  0 0.27479321E+03</rscale>
<asrwt>0</asrwt>
<pdfrwt beam="1">  1        2 0.17591344E-01 0.27479321E+03</pdfrwt>
<pdfrwt beam="2">  1       -2 0.25399563E-01 0.27479321E+03</pdfrwt>
<totfact> 0.44294239E+03</totfact>
</mgrwt>
</event>
<event>
 9    1  0.2051157E-002  0.2767526E+03  0.7818608E-02  0.1097476E+00
          1   -1    0    0  501    0  0.00000000000E+00  0.00000000000E+00  0.48028239387E+02  0.48028239387E+02  0.00000000000E+00 0. -1.
         -1   -1    0    0    0  501 -0.00000000000E+00 -0.00000000000E+00 -0.39868201508E+03  0.39868201508E+03  0.00000000000E+00 0. -1.
         36    2    1    2    0    0 -0.14210854715E-13  0.35527136788E-14 -0.35065377570E+03  0.44671025447E+03  0.27675256284E+03 0.  0.
         25    2    3    3    0    0 -0.61173467724E+02 -0.12032144503E+02 -0.18484361348E+03  0.23028436525E+03  0.12237958073E+03 0.  0.
         25    2    3    3    0    0  0.61173467724E+02  0.12032144503E+02 -0.16581016221E+03  0.21642588922E+03  0.12433901228E+03 0.  0.
          5    1    4    4  502    0  0.93044464879E+01 -0.50611867245E+02 -0.10441600532E+03  0.11650290124E+03  0.47000000000E+01 0. -1.
         -5    1    4    4    0  502 -0.70477914212E+02  0.38579722742E+02 -0.80427608163E+02  0.11378146401E+03  0.47000000000E+01 0. -1.
          5    1    5    5  503    0  0.43126070065E+02  0.11276566775E+02  0.45435149125E+01  0.45052773558E+02  0.47000000000E+01 0.  1.
         -5    1    5    5    0  503  0.18047397658E+02  0.75557772735E+00 -0.17035367713E+03  0.17137311566E+03  0.47000000000E+01 0.  1.
<mgrwt>
<rscale>  0 0.27675256E+03</rscale>
<asrwt>0</asrwt>
<pdfrwt beam="1">  1        1 0.73889598E-02 0.27675256E+03</pdfrwt>
<pdfrwt beam="2">  1       -1 0.61335696E-01 0.27675256E+03</pdfrwt>
<totfact> 0.26926929E+03</totfact>
</mgrwt>
</event>
<event>
 9    1  0.2051157E-002  0.2768728E+03  0.7818608E-02  0.1097409E+00
          3   -1    0    0  501    0  0.00000000000E+00  0.00000000000E+00  0.40432403857E+03  0.40432403857E+03  0.00000000000E+00 0. -1.
         -3   -1    0    0    0  501 -0.00000000000E+00 -0.00000000000E+00 -0.47399218200E+02  0.47399218200E+02  0.00000000000E+00 0. -1.
         36    2    1    2    0    0 -0.17763568394E-14  0.00000000000E+00  0.35692482037E+03  0.45172325677E+03  0.27687284683E+03 0.  0.
         25    2    3    3    0    0 -0.14671968704E+02 -0.50978059206E+02  0.12749314606E+03  0.18751987562E+03  0.12686675008E+03 0.  0.
         25    2    3    3    0    0  0.14671968704E+02  0.50978059206E+02  0.22943167431E+03  0.26420338115E+03  0.11979359017E+03 0.  0.
          5    1    4    4  502    0 -0.19958987567E+02  0.40561461979E+02  0.36988645916E+02  0.58599004336E+02  0.47000000000E+01 0. -1.
         -5    1    4    4    0  502  0.52870188627E+01 -0.91539521185E+02  0.90504500144E+02  0.12892087129E+03  0.47000000000E+01 0. -1.
          5    1    5    5  503    0 -0.35133668737E+02  0.14967456236E+02  0.18308249346E+03  0.18708203772E+03  0.47000000000E+01 0. -1.
         -5    1    5    5    0  503  0.49805637441E+02  0.36010602970E+02  0.46349180857E+02  0.77121343435E+02  0.47000000000E+01 0. -1.
<mgrwt>
<rscale>  0 0.27687285E+03</rscale>
<asrwt>0</asrwt>
<pdfrwt beam="1">  1        3 0.62203696E-01 0.27687285E+03</pdfrwt>
<pdfrwt beam="2">  1       -3 0.72921877E-02 0.27687285E+03</pdfrwt>
<totfact> 0.80655403E+02</totfact>
</mgrwt>
</event>
<event>
 9    1  0.2051157E-002  0.2741246E+03  0.7818608E-02  0.1098942E+00
          1   -1    0    0  501    0  0.00000000000E+00  0.00000000000E+00  0.13469747579E+04  0.13469747579E+04  0.00000000000E+00 0. -1.
         -1   -1    0    0    0  501 -0.00000000000E+00 -0.00000000000E+00 -0.13946864454E+02  0.13946864454E+02  0.00000000000E+00 0. -1.
         36    2    1    2    0    0 -0.35527136788E-14  0.00000000000E+00  0.13330278935E+04  0.13609216224E+04  0.27412460212E+03 0.  0.
         25    2    3    3    0    0 -0.48482040287E+01  0.30305360922E+02  0.39158575262E+03  0.40792741865E+03  0.11010657223E+03 0.  0.
         25    2    3    3    0    0  0.48482040287E+01 -0.30305360922E+02  0.94144214086E+03  0.95299420374E+03  0.14471602465E+03 0.  0.
          5    1    4    4  502    0  0.30238888729E+02  0.48481822409E+02  0.32758262074E+03  0.33256178509E+03  0.47000000000E+01 0. -1.
         -5    1    4    4    0  502 -0.35087092757E+02 -0.18176461487E+02  0.64003131886E+02  0.75365633558E+02  0.47000000000E+01 0. -1.
          5    1    5    5  503    0 -0.73955787270E+01 -0.42949703810E+02  0.78893749508E+02  0.90253450646E+02  0.47000000000E+01 0. -1.
         -5    1    5    5    0  503  0.12243782756E+02  0.12644342888E+02  0.86254839135E+03  0.86274075309E+03  0.47000000000E+01 0. -1.
<mgrwt>
<rscale>  0 0.27412460E+03</rscale>
<asrwt>0</asrwt>
<pdfrwt beam="1">  1        1 0.20722678E+00 0.27412460E+03</pdfrwt>
<pdfrwt beam="2">  1       -1 0.21456725E-02 0.27412460E+03</pdfrwt>
<totfact> 0.56058048E+03</totfact>
</mgrwt>
</event>
<event>
 9    1  0.2051157E-002  0.2749309E+03  0.7818608E-02  0.1098490E+00
          3   -1    0    0  501    0  0.00000000000E+00  0.00000000000E+00  0.20085810567E+03  0.20085810567E+03  0.00000000000E+00 0.  1.
         -3   -1    0    0    0  501 -0.00000000000E+00 -0.00000000000E+00 -0.94080085122E+02  0.94080085122E+02  0.00000000000E+00 0.  1.
         36    2    1    2    0    0 -0.71054273576E-14  0.00000000000E+00  0.10677802054E+03  0.29493819079E+03  0.27493088352E+03 0.  0.
         25    2    3    3    0    0 -0.22678370150E+02  0.92888849918E+01 -0.16636883921E+01  0.12922584691E+03  0.12686985376E+03 0.  0.
         25    2    3    3    0    0  0.22678370150E+02 -0.92888849918E+01  0.10844170894E+03  0.16571234388E+03  0.12288362308E+03 0.  0.
          5    1    4    4  502    0  0.31405887508E+02 -0.26256847138E+02  0.35551230383E+02  0.54421795023E+02  0.47000000000E+01 0.  1.
         -5    1    4    4    0  502 -0.54084257657E+02  0.35545732130E+02 -0.37214918775E+02  0.74804051885E+02  0.47000000000E+01 0.  1.
          5    1    5    5  503    0  0.54617022221E+02  0.19202654393E+02  0.10911942474E+02  0.59100943652E+02  0.47000000000E+01 0. -1.
         -5    1    5    5    0  503 -0.31938652071E+02 -0.28491539384E+02  0.97529766463E+02  0.10661140023E+03  0.47000000000E+01 0. -1.
<mgrwt>
<rscale>  0 0.27493088E+03</rscale>
<asrwt>0</asrwt>
<pdfrwt beam="1">  1        3 0.30901247E-01 0.27493088E+03</pdfrwt>
<pdfrwt beam="2">  1       -3 0.14473859E-01 0.27493088E+03</pdfrwt>
<totfact> 0.10198560E+03</totfact>
</mgrwt>
</event>
<event>
 9    1  0.2051157E-002  0.2748731E+03  0.7818608E-02  0.1098523E+00
          2   -1    0    0  501    0  0.00000000000E+00  0.00000000000E+00  0.11008898237E+04  0.11008898237E+04  0.00000000000E+00 0.  1.
         -2   -1    0    0    0  501 -0.00000000000E+00 -0.00000000000E+00 -0.17157761534E+02  0.17157761534E+02  0.00000000000E+00 0.  1.
         36    2    1    2    0    0  0.00000000000E+00  0.00000000000E+00  0.10837320622E+04  0.11180475853E+04  0.27487309851E+03 0.  0.
         25    2    3    3    0    0  0.38929329342E+02  0.33414700929E+02  0.36973551458E+03  0.39223232360E+03  0.12045667276E+03 0.  0.
         25    2    3    3    0    0 -0.38929329342E+02 -0.33414700929E+02  0.71399654762E+03  0.72581526166E+03  0.11993618777E+03 0.  0.
          5    1    4    4  502    0  0.18334140341E+02  0.12375367691E+02  0.36023013194E+03  0.36093923088E+03  0.47000000000E+01 0. -1.
         -5    1    4    4    0  502  0.20595189001E+02  0.21039333238E+02  0.95053826396E+01  0.31293092724E+02  0.47000000000E+01 0. -1.
          5    1    5    5  503    0 -0.49545391181E+02 -0.69838868450E+02  0.37557915618E+03  0.38524538400E+03  0.47000000000E+01 0. -1.
         -5    1    5    5    0  503  0.10616061839E+02  0.36424167522E+02  0.33841739143E+03  0.34056987767E+03  0.47000000000E+01 0. -1.
<mgrwt>
<rscale>  0 0.27487310E+03</rscale>
<asrwt>0</asrwt>
<pdfrwt beam="1">  1        2 0.16936761E+00 0.27487310E+03</pdfrwt>
<pdfrwt beam="2">  1       -2 0.26396565E-02 0.27487310E+03</pdfrwt>
<totfact> 0.11674050E+04</totfact>
</mgrwt>
</event>
<event>
 9    1  0.2051157E-002  0.2757876E+03  0.7818608E-02  0.1098012E+00
          1   -1    0    0  501    0  0.00000000000E+00  0.00000000000E+00  0.48303064381E+03  0.48303064381E+03  0.00000000000E+00 0. -1.
         -1   -1    0    0    0  501 -0.00000000000E+00 -0.00000000000E+00 -0.39365414568E+02  0.39365414568E+02  0.00000000000E+00 0. -1.
         36    2    1    2    0    0 -0.71054273576E-14  0.00000000000E+00  0.44366522924E+03  0.52239605838E+03  0.27578761062E+03 0.  0.
         25    2    3    3    0    0  0.43851024423E+02 -0.42691528069E+01  0.26081909880E+03  0.29506718033E+03  0.13075511692E+03 0.  0.
         25    2    3    3    0    0 -0.43851024423E+02  0.42691528069E+01  0.18284613044E+03  0.22732887805E+03  0.12768936279E+03 0.  0.
          5    1    4    4  502    0  0.73276012169E+01 -0.62282355591E+02  0.16945099607E+03  0.18074433775E+03  0.47000000000E+01 0.  1.
         -5    1    4    4    0  502  0.36523423206E+02  0.58013202784E+02  0.91368102728E+02  0.11432284258E+03  0.47000000000E+01 0.  1.
          5    1    5    5  503    0 -0.32283878932E+02  0.64010688022E+02  0.11898460072E+03  0.13899295748E+03  0.47000000000E+01 0. -1.
         -5    1    5    5    0  503 -0.11567145492E+02 -0.59741535215E+02  0.63861529719E+02  0.88335920569E+02  0.47000000000E+01 0. -1.
<mgrwt>
<rscale>  0 0.27578761E+03</rscale>
<asrwt>0</asrwt>
<pdfrwt beam="1">  1        1 0.74312402E-01 0.27578761E+03</pdfrwt>
<pdfrwt beam="2">  1       -1 0.60562180E-02 0.27578761E+03</pdfrwt>
<totfact> 0.62000654E+03</totfact>
</mgrwt>
</event>
<event>
 9    1  0.2051157E-002  0.2746450E+03  0.7818608E-02  0.1098650E+00
          1   -1    0    0  501    0  0.00000000000E+00  0.00000000000E+00  0.16828265774E+03  0.16828265774E+03  0.00000000000E+00 0. -1.
         -1   -1    0    0    0  501 -0.00000000000E+00 -0.00000000000E+00 -0.11205827610E+03  0.11205827610E+03  0.00000000000E+00 0. -1.
         36    2    1    2    0    0  0.00000000000E+00 -0.71054273576E-14  0.56224381640E+02  0.28034093384E+03  0.27464496736E+03 0.  0.
         25    2    3    3    0    0 -0.32287409720E+02 -0.15103847884E+02 -0.15780276916E+02  0.13091305172E+03  0.12497442507E+03 0.  0.
         25    2    3    3    0    0  0.32287409720E+02  0.15103847884E+02  0.72004658555E+02  0.14942788212E+03  0.12598975377E+03 0.  0.
          5    1    4    4  502    0 -0.60818549425E+02 -0.33980965003E+02 -0.47154374744E+02  0.84256910661E+02  0.47000000000E+01 0. -1.
         -5    1    4    4    0  502  0.28531139705E+02  0.18877117119E+02  0.31374097828E+02  0.46656141055E+02  0.47000000000E+01 0. -1.
          5    1    5    5  503    0  0.56213666449E+02 -0.33980460221E+02  0.98934299004E+01  0.66592927010E+02  0.47000000000E+01 0.  1.
         -5    1    5    5    0  503 -0.23926256729E+02  0.49084308106E+02  0.62111228655E+02  0.82834955112E+02  0.47000000000E+01 0.  1.
<mgrwt>
<rscale>  0 0.27464497E+03</rscale>
<asrwt>0</asrwt>
<pdfrwt beam="1">  1        1 0.25889640E-01 0.27464497E+03</pdfrwt>
<pdfrwt beam="2">  1       -1 0.17239735E-01 0.27464497E+03</pdfrwt>
<totfact> 0.46669009E+03</totfact>
</mgrwt>
</event>
<event>
 9    1  0.2051157E-002  0.2817192E+03  0.7818608E-02  0.1094754E+00
         -1   -1    0    0    0  501 -0.00000000000E+00  0.00000000000E+00  0.17149636140E+02  0.17149636140E+02  0.00000000000E+00 0. -1.
          1   -1    0    0  501    0  0.00000000000E+00 -0.00000000000E+00 -0.11569589467E+04  0.11569589467E+04  0.00000000000E+00 0. -1.
         36    2    1    2    0    0  0.00000000000E+00  0.00000000000E+00 -0.11398093106E+04  0.11741085829E+04  0.28171918618E+03 0.  0.
         25    2    3    3    0    0 -0.18735717876E+02 -0.15778064195E+02 -0.86038267378E+03  0.86897088831E+03  0.11938209645E+03 0.  0.
         25    2    3    3    0    0  0.18735717876E+02  0.15778064195E+02 -0.27942663681E+03  0.30513769456E+03  0.12012407273E+03 0.  0.
          5    1    4    4  502    0 -0.54688756626E+01 -0.43277627426E+02 -0.11714644985E+03  0.12509293484E+03  0.47000000000E+01 0. -1.
         -5    1    4    4    0  502 -0.13266842214E+02  0.27499563231E+02 -0.74323622393E+03  0.74387795346E+03  0.47000000000E+01 0. -1.
          5    1    5    5  503    0  0.11313260869E+02  0.68051526681E+02 -0.17089820058E+03  0.18435640785E+03  0.47000000000E+01 0. -1.
         -5    1    5    5    0  503  0.74224570075E+01 -0.52273462486E+02 -0.10852843623E+03  0.12078128671E+03  0.47000000000E+01 0. -1.
<mgrwt>
<rscale>  0 0.28171919E+03</rscale>
<asrwt>0</asrwt>
<pdfrwt beam="1">  1        1 0.17799366E+00 0.28171919E+03</pdfrwt>
<pdfrwt beam="2">  1       -1 0.26384060E-02 0.28171919E+03</pdfrwt>
<totfact> 0.56035341E+03</totfact>
</mgrwt>
</event>
<event>
 9    1  0.2051157E-002  0.2749041E+03  0.7818608E-02  0.1098505E+00
         -2   -1    0    0    0  501 -0.00000000000E+00  0.00000000000E+00  0.21760709133E+02  0.21760709133E+02  0.00000000000E+00 0. -1.
          2   -1    0    0  501    0  0.00000000000E+00 -0.00000000000E+00 -0.86821918132E+03  0.86821918132E+03  0.00000000000E+00 0. -1.
         36    2    1    2    0    0 -0.35527136788E-14  0.00000000000E+00 -0.84645847219E+03  0.88997989046E+03  0.27490409286E+03 0.  0.
         25    2    3    3    0    0  0.25619963561E+02  0.36007361777E+02 -0.53201878244E+03  0.54843844689E+03  0.12564964196E+03 0.  0.
         25    2    3    3    0    0 -0.25619963561E+02 -0.36007361777E+02 -0.31443968975E+03  0.34154144357E+03  0.12579875416E+03 0.  0.
          5    1    4    4  502    0 -0.47437776621E+02  0.76424833625E+01 -0.12671972589E+03  0.13560504833E+03  0.47000000000E+01 0.  1.
         -5    1    4    4    0  502  0.73057740182E+02  0.28364878414E+02 -0.40529905655E+03  0.41283339856E+03  0.47000000000E+01 0.  1.
          5    1    5    5  503    0 -0.29504305176E+02 -0.63015665247E+02 -0.30408656827E+03  0.31198110374E+03  0.47000000000E+01 0. -1.
         -5    1    5    5    0  503  0.38843416144E+01  0.27008303471E+02 -0.10353121484E+02  0.29560339825E+02  0.47000000000E+01 0. -1.
<mgrwt>
<rscale>  0 0.27490409E+03</rscale>
<asrwt>0</asrwt>
<pdfrwt beam="1">  1        2 0.13357217E+00 0.27490409E+03</pdfrwt>
<pdfrwt beam="2">  1       -2 0.33478017E-02 0.27490409E+03</pdfrwt>
<totfact> 0.11420731E+04</totfact>
</mgrwt>
</event>
<event>
 9    1  0.2051157E-002  0.2754608E+03  0.7818608E-02  0.1098194E+00
          1   -1    0    0  501    0  0.00000000000E+00  0.00000000000E+00  0.84773428150E+03  0.84773428150E+03  0.00000000000E+00 0. -1.
         -1   -1    0    0    0  501 -0.00000000000E+00 -0.00000000000E+00 -0.22376899948E+02  0.22376899948E+02  0.00000000000E+00 0. -1.
         36    2    1    2    0    0 -0.35527136788E-14 -0.71054273576E-14  0.82535738155E+03  0.87011118145E+03  0.27546081536E+03 0.  0.
         25    2    3    3    0    0  0.19048013667E+02 -0.34119530835E+02  0.51118208261E+03  0.52839403471E+03  0.12793031355E+03 0.  0.
         25    2    3    3    0    0 -0.19048013667E+02  0.34119530835E+02  0.31417529894E+03  0.34171714674E+03  0.12859829198E+03 0.  0.
          5    1    4    4  502    0 -0.18652730394E+02 -0.61887684098E+02  0.14037951037E+03  0.15461729116E+03  0.47000000000E+01 0.  1.
         -5    1    4    4    0  502  0.37700744060E+02  0.27768153263E+02  0.37080257224E+03  0.37377674354E+03  0.47000000000E+01 0.  1.
          5    1    5    5  503    0  0.51121816819E+02  0.37911338729E+02  0.15760329098E+03  0.17003410565E+03  0.47000000000E+01 0.  1.
         -5    1    5    5    0  503 -0.70169830486E+02 -0.37918078939E+01  0.15657200796E+03  0.17168304108E+03  0.47000000000E+01 0.  1.
<mgrwt>
<rscale>  0 0.27546082E+03</rscale>
<asrwt>0</asrwt>
<pdfrwt beam="1">  1        1 0.13042063E+00 0.27546082E+03</pdfrwt>
<pdfrwt beam="2">  1       -1 0.34426006E-02 0.27546082E+03</pdfrwt>
<totfact> 0.64595152E+03</totfact>
</mgrwt>
</event>
<event>
 9    1  0.2051157E-002  0.2750611E+03  0.7818608E-02  0.1098417E+00
          1   -1    0    0  501    0  0.00000000000E+00  0.00000000000E+00  0.37044169894E+03  0.37044169894E+03  0.00000000000E+00 0.  1.
         -1   -1    0    0    0  501 -0.00000000000E+00 -0.00000000000E+00 -0.51059726109E+02  0.51059726109E+02  0.00000000000E+00 0.  1.
         36    2    1    2    0    0  0.71054273576E-14  0.00000000000E+00  0.31938197283E+03  0.42150142505E+03  0.27506109639E+03 0.  0.
         25    2    3    3    0    0  0.20783632316E+02 -0.34483371883E+02  0.20866363147E+03  0.24464277693E+03  0.12119618351E+03 0.  0.
         25    2    3    3    0    0 -0.20783632316E+02  0.34483371883E+02  0.11071834137E+03  0.17685864812E+03  0.13190666394E+03 0.  0.
          5    1    4    4  502    0 -0.32952094023E+02 -0.58840467214E+02  0.96526658708E+02  0.11784535173E+03  0.47000000000E+01 0.  1.
         -5    1    4    4    0  502  0.53735726339E+02  0.24357095331E+02  0.11213697276E+03  0.12679742520E+03  0.47000000000E+01 0.  1.
          5    1    5    5  503    0 -0.24490104030E+02  0.71468110163E+02  0.11651845515E+03  0.13894637942E+03  0.47000000000E+01 0.  1.
         -5    1    5    5    0  503  0.37064717135E+01 -0.36984738280E+02 -0.58001137765E+01  0.37912268700E+02  0.47000000000E+01 0.  1.
<mgrwt>
<rscale>  0 0.27506110E+03</rscale>
<asrwt>0</asrwt>
<pdfrwt beam="1">  1        1 0.56991029E-01 0.27506110E+03</pdfrwt>
<pdfrwt beam="2">  1       -1 0.78553427E-02 0.27506110E+03</pdfrwt>
<totfact> 0.58887660E+03</totfact>
</mgrwt>
</event>
<event>
 9    1  0.2051157E-002  0.2733564E+03  0.7818608E-02  0.1099374E+00
          2   -1    0    0  501    0  0.00000000000E+00  0.00000000000E+00  0.41811029685E+03  0.41811029685E+03  0.00000000000E+00 0. -1.
         -2   -1    0    0    0  501 -0.00000000000E+00 -0.00000000000E+00 -0.44679440931E+02  0.44679440931E+02  0.00000000000E+00 0. -1.
         36    2    1    2    0    0  0.00000000000E+00  0.00000000000E+00  0.37343085592E+03  0.46278973778E+03  0.27335642894E+03 0.  0.
         25    2    3    3    0    0 -0.89853507259E+01 -0.22595465141E+02  0.97536077636E+02  0.15906001924E+03  0.12327007629E+03 0.  0.
         25    2    3    3    0    0  0.89853507259E+01  0.22595465141E+02  0.27589477828E+03  0.30372971854E+03  0.12466965014E+03 0.  0.
          5    1    4    4  502    0  0.11716323461E+02 -0.22040004094E+02 -0.24440572957E+02  0.35248625823E+02  0.47000000000E+01 0. -1.
         -5    1    4    4    0  502 -0.20701674187E+02 -0.55546104669E+00  0.12197665059E+03  0.12381139342E+03  0.47000000000E+01 0. -1.
          5    1    5    5  503    0 -0.20337048564E+02 -0.14298022050E+02  0.24691172365E+03  0.24820458951E+03  0.47000000000E+01 0. -1.
         -5    1    5    5    0  503  0.29322399290E+02  0.36893487191E+02  0.28983054628E+02  0.55525129021E+02  0.47000000000E+01 0. -1.
<mgrwt>
<rscale>  0 0.27335643E+03</rscale>
<asrwt>0</asrwt>
<pdfrwt beam="1">  1        2 0.64324658E-01 0.27335643E+03</pdfrwt>
<pdfrwt beam="2">  1       -2 0.68737604E-02 0.27335643E+03</pdfrwt>
<totfact> 0.90520060E+03</totfact>
</mgrwt>
</event>
<event>
 9    1  0.2051157E-002  0.2768610E+03  0.7818608E-02  0.1097416E+00
          2   -1    0    0  501    0  0.00000000000E+00  0.00000000000E+00  0.85535839226E+02  0.85535839226E+02  0.00000000000E+00 0.  1.
         -2   -1    0    0    0  501 -0.00000000000E+00 -0.00000000000E+00 -0.22403480643E+03  0.22403480643E+03  0.00000000000E+00 0.  1.
         36    2    1    2    0    0 -0.35527136788E-14 -0.17763568394E-14 -0.13849896720E+03  0.30957064566E+03  0.27686101339E+03 0.  0.
         25    2    3    3    0    0  0.56176812473E+01  0.11791066321E+02 -0.13384518175E+03  0.18306573395E+03  0.12420926971E+03 0.  0.
         25    2    3    3    0    0 -0.56176812473E+01 -0.11791066321E+02 -0.46537854505E+01  0.12650491170E+03  0.12574278261E+03 0.  0.
          5    1    4    4  502    0  0.20830112506E+02  0.41512760497E+02 -0.14106058267E+03  0.14858459157E+03  0.47000000000E+01 0.  1.
         -5    1    4    4    0  502 -0.15212431259E+02 -0.29721694176E+02  0.72154009124E+01  0.34481142380E+02  0.47000000000E+01 0.  1.
          5    1    5    5  503    0 -0.43008784079E+02  0.58074795546E+01 -0.49055366505E+02  0.65665830610E+02  0.47000000000E+01 0. -1.
         -5    1    5    5    0  503  0.37391102832E+02 -0.17598545876E+02  0.44401581055E+02  0.60839081092E+02  0.47000000000E+01 0. -1.
<mgrwt>
<rscale>  0 0.27686101E+03</rscale>
<asrwt>0</asrwt>
<pdfrwt beam="1">  1        2 0.13159360E-01 0.27686101E+03</pdfrwt>
<pdfrwt beam="2">  1       -2 0.34466893E-01 0.27686101E+03</pdfrwt>
<totfact> 0.35919755E+03</totfact>
</mgrwt>
</event>
<event>
 9    1  0.2051157E-002  0.2736521E+03  0.7818608E-02  0.1099207E+00
         -1   -1    0    0    0  501 -0.00000000000E+00  0.00000000000E+00  0.15785458417E+02  0.15785458417E+02  0.00000000000E+00 0. -1.
          1   -1    0    0  501    0  0.00000000000E+00 -0.00000000000E+00 -0.11859885606E+04  0.11859885606E+04  0.00000000000E+00 0. -1.
         36    2    1    2    0    0  0.14210854715E-13  0.71054273576E-14 -0.11702031022E+04  0.12017740190E+04  0.27365213762E+03 0.  0.
         25    2    3    3    0    0 -0.39190021828E+02 -0.19906917398E+02 -0.48292912742E+03  0.50186111728E+03  0.12927449771E+03 0.  0.
         25    2    3    3    0    0  0.39190021828E+02  0.19906917398E+02 -0.68727397477E+03  0.69991290175E+03  0.12490160309E+03 0.  0.
          5    1    4    4  502    0 -0.36029496537E+02 -0.66460766284E+02 -0.39510595276E+03  0.40230083517E+03  0.47000000000E+01 0.  1.
         -5    1    4    4    0  502 -0.31605252913E+01  0.46553848886E+02 -0.87823174658E+02  0.99560282107E+02  0.47000000000E+01 0.  1.
          5    1    5    5  503    0  0.51756505001E+02 -0.28170874542E+02 -0.16519354543E+03  0.17545179233E+03  0.47000000000E+01 0.  1.
         -5    1    5    5    0  503 -0.12566483172E+02  0.48077791941E+02 -0.52208042935E+03  0.52446110941E+03  0.47000000000E+01 0.  1.
<mgrwt>
<rscale>  0 0.27365214E+03</rscale>
<asrwt>0</asrwt>
<pdfrwt beam="1">  1        1 0.18245976E+00 0.27365214E+03</pdfrwt>
<pdfrwt beam="2">  1       -1 0.24285323E-02 0.27365214E+03</pdfrwt>
<totfact> 0.60352396E+03</totfact>
</mgrwt>
</event>
<event>
 9    1  0.2051157E-002  0.2762527E+03  0.7818608E-02  0.1097753E+00
         -2   -1    0    0    0  501 -0.00000000000E+00  0.00000000000E+00  0.53988331973E+02  0.53988331973E+02  0.00000000000E+00 0.  1.
          2   -1    0    0  501    0  0.00000000000E+00 -0.00000000000E+00 -0.35338917605E+03  0.35338917605E+03  0.00000000000E+00 0.  1.
         36    2    1    2    0    0  0.71054273576E-14 -0.71054273576E-14 -0.29940084408E+03  0.40737750802E+03  0.27625272598E+03 0.  0.
         25    2    3    3    0    0  0.51303717054E+02 -0.25878280353E+02 -0.14879815035E+03  0.20338216679E+03  0.12618105818E+03 0.  0.
         25    2    3    3    0    0 -0.51303717054E+02  0.25878280353E+02 -0.15060269373E+03  0.20399534123E+03  0.12502468200E+03 0.  0.
          5    1    4    4  502    0 -0.18451147115E+02  0.38789377604E+02 -0.51620165148E+02  0.67318586547E+02  0.47000000000E+01 0.  1.
         -5    1    4    4    0  502  0.69754864169E+02 -0.64667657958E+02 -0.97177985198E+02  0.13606358024E+03  0.47000000000E+01 0.  1.
          5    1    5    5  503    0  0.38006567967E+00 -0.45813073198E+02 -0.72858618303E+02  0.86194259593E+02  0.47000000000E+01 0. -1.
         -5    1    5    5    0  503 -0.51683782733E+02  0.71691353551E+02 -0.77744075427E+02  0.11780108164E+03  0.47000000000E+01 0. -1.
<mgrwt>
<rscale>  0 0.27625273E+03</rscale>
<asrwt>0</asrwt>
<pdfrwt beam="1">  1        2 0.54367567E-01 0.27625273E+03</pdfrwt>
<pdfrwt beam="2">  1       -2 0.83058970E-02 0.27625273E+03</pdfrwt>
<totfact> 0.80948872E+03</totfact>
</mgrwt>
</event>
<event>
 8    1  0.2051157E-002  0.2906924E+03  0.7818608E-02  0.1089988E+00
         -1   -1    0    0    0  501 -0.00000000000E+00  0.00000000000E+00  0.83491608075E+02  0.83491608075E+02  0.00000000000E+00 0. -1.
          1   -1    0    0  501    0  0.00000000000E+00 -0.00000000000E+00 -0.25302557698E+03  0.25302557698E+03  0.00000000000E+00 0. -1.
         25    2    1    2    0    0  0.40228812013E+02 -0.13704475149E+02 -0.15305122497E+03  0.20397049549E+03  0.12795747579E+03 0.  0.
         25    2    1    2    0    0 -0.40228812013E+02  0.13704475149E+02 -0.16482743939E+02  0.13254668957E+03  0.12446193841E+03 0.  0.
          5    1    3    3  502    0  0.15590704629E+02 -0.69903439286E+02 -0.97461325903E+02  0.12103867540E+03  0.47000000000E+01 0. -1.
         -5    1    3    3    0  502  0.24638107383E+02  0.56198964137E+02 -0.55589899062E+02  0.82931820089E+02  0.47000000000E+01 0. -1.
          5    1    4    4  503    0 -0.73853171372E+02  0.36750777111E+02 -0.32098418947E+02  0.88641463430E+02  0.47000000000E+01 0. -1.
         -5    1    4    4    0  503  0.33624359359E+02 -0.23046301962E+02  0.15615675009E+02  0.43905226140E+02  0.47000000000E+01 0. -1.
<mgrwt>
<rscale>  0 0.29069236E+03</rscale>
<asrwt>0</asrwt>
<pdfrwt beam="1">  1        1 0.38927011E-01 0.29069236E+03</pdfrwt>
<pdfrwt beam="2">  1       -1 0.12844863E-01 0.29069236E+03</pdfrwt>
<totfact> 0.44576144E+03</totfact>
</mgrwt>
</event>
<event>
 9    1  0.2051157E-002  0.2704398E+03  0.7818608E-02  0.1101028E+00
          3   -1    0    0  501    0  0.00000000000E+00  0.00000000000E+00  0.23940539076E+03  0.23940539076E+03  0.00000000000E+00 0.  1.
         -3   -1    0    0    0  501 -0.00000000000E+00 -0.00000000000E+00 -0.76374334826E+02  0.76374334826E+02  0.00000000000E+00 0.  1.
         36    2    1    2    0    0 -0.71054273576E-14  0.71054273576E-14  0.16303105593E+03  0.31577972558E+03  0.27043984524E+03 0.  0.
         25    2    3    3    0    0 -0.46556684852E+01  0.46471182239E+02  0.59121120298E+02  0.14447633953E+03  0.12327554417E+03 0.  0.
         25    2    3    3    0    0  0.46556684852E+01 -0.46471182239E+02  0.10390993563E+03  0.17130338605E+03  0.12793095529E+03 0.  0.
          5    1    4    4  502    0  0.55543181987E+02  0.19709141117E+02  0.54543860781E+01  0.59374536936E+02  0.47000000000E+01 0. -1.
         -5    1    4    4    0  502 -0.60198850473E+02  0.26762041121E+02  0.53666734220E+02  0.85101802596E+02  0.47000000000E+01 0. -1.
          5    1    5    5  503    0 -0.33002807714E+02 -0.77251488502E+02  0.47299993551E+02  0.96521278393E+02  0.47000000000E+01 0.  1.
         -5    1    5    5    0  503  0.37658476199E+02  0.30780306263E+02  0.56609942082E+02  0.74782107658E+02  0.47000000000E+01 0.  1.
<mgrwt>
<rscale>  0 0.27043985E+03</rscale>
<asrwt>0</asrwt>
<pdfrwt beam="1">  1        3 0.36831598E-01 0.27043985E+03</pdfrwt>
<pdfrwt beam="2">  1       -3 0.11749898E-01 0.27043985E+03</pdfrwt>
<totfact> 0.10411303E+03</totfact>
</mgrwt>
</event>
<event>
 9    1  0.2051157E-002  0.2750896E+03  0.7818608E-02  0.1098402E+00
          2   -1    0    0  501    0  0.00000000000E+00  0.00000000000E+00  0.18895666626E+04  0.18895666626E+04  0.00000000000E+00 0.  1.
         -2   -1    0    0    0  501 -0.00000000000E+00 -0.00000000000E+00 -0.10012122830E+02  0.10012122830E+02  0.00000000000E+00 0.  1.
         36    2    1    2    0    0 -0.35527136788E-14  0.00000000000E+00  0.18795545398E+04  0.18995787854E+04  0.27508961101E+03 0.  0.
         25    2    3    3    0    0 -0.56616529153E+01 -0.32294104674E+02  0.12741145983E+04  0.12803763423E+04  0.12214992802E+03 0.  0.
         25    2    3    3    0    0  0.56616529153E+01  0.32294104674E+02  0.60543994153E+03  0.61920244315E+03  0.12561520326E+03 0.  0.
          5    1    4    4  502    0  0.31719905914E+02 -0.72671548607E+01  0.10997296765E+04  0.11002210757E+04  0.47000000000E+01 0. -1.
         -5    1    4    4    0  502 -0.37381558829E+02 -0.25026949813E+02  0.17438492170E+03  0.18015526658E+03  0.47000000000E+01 0. -1.
          5    1    5    5  503    0  0.23709773073E+02 -0.33078472592E+02  0.41453837010E+03  0.41655790590E+03  0.47000000000E+01 0.  1.
         -5    1    5    5    0  503 -0.18048120158E+02  0.65372577266E+02  0.19090157144E+03  0.20264453725E+03  0.47000000000E+01 0.  1.
<mgrwt>
<rscale>  0 0.27508961E+03</rscale>
<asrwt>0</asrwt>
<pdfrwt beam="1">  1        2 0.29070228E+00 0.27508961E+03</pdfrwt>
<pdfrwt beam="2">  1       -2 0.15403281E-02 0.27508961E+03</pdfrwt>
<totfact> 0.96371798E+03</totfact>
</mgrwt>
</event>
<event>
 9    1  0.2051157E-002  0.2755334E+03  0.7818608E-02  0.1098154E+00
          2   -1    0    0  501    0  0.00000000000E+00  0.00000000000E+00  0.25446763493E+04  0.25446763493E+04  0.00000000000E+00 0. -1.
         -2   -1    0    0    0  501 -0.00000000000E+00 -0.00000000000E+00 -0.74585742831E+01  0.74585742831E+01  0.00000000000E+00 0. -1.
         36    2    1    2    0    0  0.00000000000E+00  0.17763568394E-14  0.25372177750E+04  0.25521349236E+04  0.27553335608E+03 0.  0.
         25    2    3    3    0    0 -0.46714856169E+02  0.58825225745E+00  0.15914487215E+04  0.15971972173E+04  0.12707200263E+03 0.  0.
         25    2    3    3    0    0  0.46714856169E+02 -0.58825225745E+00  0.94576905349E+03  0.95493770629E+03  0.12346779551E+03 0.  0.
          5    1    4    4  502    0 -0.22198189134E+02 -0.11858889878E+02  0.56896143105E+02  0.62391136952E+02  0.47000000000E+01 0. -1.
         -5    1    4    4    0  502 -0.24516667036E+02  0.12447142135E+02  0.15345525784E+04  0.15348060804E+04  0.47000000000E+01 0. -1.
          5    1    5    5  503    0 -0.10410545939E+02 -0.41166098849E+02  0.14685224192E+03  0.15294017824E+03  0.47000000000E+01 0.  1.
         -5    1    5    5    0  503  0.57125402108E+02  0.40577846591E+02  0.79891681157E+03  0.80199752806E+03  0.47000000000E+01 0.  1.
<mgrwt>
<rscale>  0 0.27553336E+03</rscale>
<asrwt>0</asrwt>
<pdfrwt beam="1">  1        2 0.39148798E+00 0.27553336E+03</pdfrwt>
<pdfrwt beam="2">  1       -2 0.11474750E-02 0.27553336E+03</pdfrwt>
<totfact> 0.66142479E+03</totfact>
</mgrwt>
</event>
<event>
 9    1  0.2051157E-002  0.2752536E+03  0.7818608E-02  0.1098310E+00
          2   -1    0    0  501    0  0.00000000000E+00  0.00000000000E+00  0.42549704633E+02  0.42549704633E+02  0.00000000000E+00 0. -1.
         -2   -1    0    0    0  501 -0.00000000000E+00 -0.00000000000E+00 -0.44515327475E+03  0.44515327475E+03  0.00000000000E+00 0. -1.
         36    2    1    2    0    0  0.00000000000E+00 -0.14210854715E-13 -0.40260357012E+03  0.48770297938E+03  0.27525363109E+03 0.  0.
         25    2    3    3    0    0 -0.27329727677E+02 -0.46759881796E+02 -0.24280192186E+03  0.27854620834E+03  0.12530688872E+03 0.  0.
         25    2    3    3    0    0  0.27329727677E+02  0.46759881796E+02 -0.15980164826E+03  0.20915677104E+03  0.12359849322E+03 0.  0.
          5    1    4    4  502    0  0.38455725490E+02  0.60401060453E+01 -0.14049988810E+03  0.14586855131E+03  0.47000000000E+01 0. -1.
         -5    1    4    4    0  502 -0.65785453167E+02 -0.52799987841E+02 -0.10230203375E+03  0.13267765703E+03  0.47000000000E+01 0. -1.
          5    1    5    5  503    0  0.54747193197E+02  0.24366966150E+02 -0.17735158181E+02  0.62670806905E+02  0.47000000000E+01 0.  1.
         -5    1    5    5    0  503 -0.27417465521E+02  0.22392915646E+02 -0.14206649008E+03  0.14648596414E+03  0.47000000000E+01 0.  1.
<mgrwt>
<rscale>  0 0.27525363E+03</rscale>
<asrwt>0</asrwt>
<pdfrwt beam="1">  1        2 0.65461081E-02 0.27525363E+03</pdfrwt>
<pdfrwt beam="2">  1       -2 0.68485123E-01 0.27525363E+03</pdfrwt>
<totfact> 0.21984969E+03</totfact>
</mgrwt>
</event>
<event>
 9    1  0.2051157E-002  0.2758196E+03  0.7818608E-02  0.1097994E+00
          2   -1    0    0  501    0  0.00000000000E+00  0.00000000000E+00  0.18190097088E+04  0.18190097088E+04  0.00000000000E+00 0.  1.
         -2   -1    0    0    0  501 -0.00000000000E+00 -0.00000000000E+00 -0.10455750657E+02  0.10455750657E+02  0.00000000000E+00 0.  1.
         36    2    1    2    0    0  0.00000000000E+00  0.00000000000E+00  0.18085539582E+04  0.18294654595E+04  0.27581959291E+03 0.  0.
         25    2    3    3    0    0  0.17438541086E+02 -0.52288670561E+02  0.92590545588E+03  0.93611394565E+03  0.12637324967E+03 0.  0.
         25    2    3    3    0    0 -0.17438541086E+02  0.52288670561E+02  0.88264850230E+03  0.89335151384E+03  0.12637381409E+03 0.  0.
          5    1    4    4  502    0  0.54276973493E+02 -0.64492983763E+02  0.79572297706E+03  0.80018902831E+03  0.47000000000E+01 0. -1.
         -5    1    4    4    0  502 -0.36838432407E+02  0.12204313202E+02  0.13018247882E+03  0.13592491735E+03  0.47000000000E+01 0. -1.
          5    1    5    5  503    0 -0.58080196668E+02 -0.14021004027E+02  0.37569926640E+03  0.38044963737E+03  0.47000000000E+01 0. -1.
         -5    1    5    5    0  503  0.40641655582E+02  0.66309674588E+02  0.50694923590E+03  0.51290187647E+03  0.47000000000E+01 0. -1.
<mgrwt>
<rscale>  0 0.27581959E+03</rscale>
<asrwt>0</asrwt>
<pdfrwt beam="1">  1        2 0.27984740E+00 0.27581959E+03</pdfrwt>
<pdfrwt beam="2">  1       -2 0.16085785E-02 0.27581959E+03</pdfrwt>
<totfact> 0.98498440E+03</totfact>
</mgrwt>
</event>
<event>
 9    1  0.2051157E-002  0.2751855E+03  0.7818608E-02  0.1098348E+00
         -1   -1    0    0    0  501 -0.00000000000E+00  0.00000000000E+00  0.34964769027E+02  0.34964769027E+02  0.00000000000E+00 0.  1.
          1   -1    0    0  501    0  0.00000000000E+00 -0.00000000000E+00 -0.54145261158E+03  0.54145261158E+03  0.00000000000E+00 0.  1.
         36    2    1    2    0    0  0.00000000000E+00  0.00000000000E+00 -0.50648784255E+03  0.57641738061E+03  0.27518550473E+03 0.  0.
         25    2    3    3    0    0  0.42820931193E+02  0.51902017448E+02 -0.22731919121E+03  0.26258694083E+03  0.11291782517E+03 0.  0.
         25    2    3    3    0    0 -0.42820931193E+02 -0.51902017448E+02 -0.27916865134E+03  0.31383043977E+03  0.12659762033E+03 0.  0.
          5    1    4    4  502    0  0.11987442589E+02  0.71282118572E+02 -0.68910553406E+02  0.99977965466E+02  0.47000000000E+01 0.  1.
         -5    1    4    4    0  502  0.30833488604E+02 -0.19380101125E+02 -0.15840863780E+03  0.16260897537E+03  0.47000000000E+01 0.  1.
          5    1    5    5  503    0  0.10889838524E+02 -0.42508370462E+02 -0.19138227021E+02  0.48103137901E+02  0.47000000000E+01 0.  1.
         -5    1    5    5    0  503 -0.53710769717E+02 -0.93936469860E+01 -0.26003042432E+03  0.26572730187E+03  0.47000000000E+01 0.  1.
<mgrwt>
<rscale>  0 0.27518550E+03</rscale>
<asrwt>0</asrwt>
<pdfrwt beam="1">  1        1 0.83300399E-01 0.27518550E+03</pdfrwt>
<pdfrwt beam="2">  1       -1 0.53791954E-02 0.27518550E+03</pdfrwt>
<totfact> 0.63630084E+03</totfact>
</mgrwt>
</event>
<event>
 9    1  0.2051157E-002  0.2748610E+03  0.7818608E-02  0.1098529E+00
         -3   -1    0    0    0  501 -0.00000000000E+00  0.00000000000E+00  0.37224187793E+02  0.37224187793E+02  0.00000000000E+00 0.  1.
          3   -1    0    0  501    0  0.00000000000E+00 -0.00000000000E+00 -0.50738892460E+03  0.50738892460E+03  0.00000000000E+00 0.  1.
         36    2    1    2    0    0 -0.71054273576E-14  0.00000000000E+00 -0.47016473680E+03  0.54461311239E+03  0.27486098751E+03 0.  0.
         25    2    3    3    0    0  0.43271815092E+02  0.22537498353E+02 -0.28274079331E+03  0.31260507816E+03  0.12409347232E+03 0.  0.
         25    2    3    3    0    0 -0.43271815092E+02 -0.22537498353E+02 -0.18742394349E+03  0.23200803423E+03  0.12774820759E+03 0.  0.
          5    1    4    4  502    0 -0.36369277235E+02  0.15242334259E+02 -0.37536649734E+02  0.54645614221E+02  0.47000000000E+01 0.  1.
         -5    1    4    4    0  502  0.79641092327E+02  0.72951640939E+01 -0.24520414358E+03  0.25795946394E+03  0.47000000000E+01 0.  1.
          5    1    5    5  503    0  0.41164449724E+02 -0.22770467946E+02 -0.98693686944E+02  0.10943281032E+03  0.47000000000E+01 0.  1.
         -5    1    5    5    0  503 -0.84436264816E+02  0.23296959231E+00 -0.88730256547E+02  0.12257522391E+03  0.47000000000E+01 0.  1.
<mgrwt>
<rscale>  0 0.27486099E+03</rscale>
<asrwt>0</asrwt>
<pdfrwt beam="1">  1        3 0.78059828E-01 0.27486099E+03</pdfrwt>
<pdfrwt beam="2">  1       -3 0.57267986E-02 0.27486099E+03</pdfrwt>
<totfact> 0.73396348E+02</totfact>
</mgrwt>
</event>
<event>
 9    1  0.2051157E-002  0.2748816E+03  0.7818608E-02  0.1098518E+00
          4   -1    0    0  501    0  0.00000000000E+00  0.00000000000E+00  0.13690342946E+03  0.13690342946E+03  0.00000000000E+00 0. -1.
         -4   -1    0    0    0  501 -0.00000000000E+00 -0.00000000000E+00 -0.13798032679E+03  0.13798032679E+03  0.00000000000E+00 0. -1.
         36    2    1    2    0    0 -0.71054273576E-14  0.00000000000E+00 -0.10768973253E+01  0.27488375625E+03  0.27488164679E+03 0.  0.
         25    2    3    3    0    0 -0.47388960737E+02 -0.32527796116E+02 -0.31381687051E+02  0.14105821891E+03  0.12493534216E+03 0.  0.
         25    2    3    3    0    0  0.47388960737E+02  0.32527796116E+02  0.30304789725E+02  0.13382553734E+03  0.11699197854E+03 0.  0.
          5    1    4    4  502    0 -0.46745845410E+02 -0.75553556094E+02 -0.24692598803E+01  0.89003938934E+02  0.47000000000E+01 0. -1.
         -5    1    4    4    0  502 -0.64311532706E+00  0.43025759978E+02 -0.28912427170E+02  0.52054279976E+02  0.47000000000E+01 0. -1.
          5    1    5    5  503    0  0.31811979601E+02 -0.22096123583E+02 -0.31210851665E+02  0.49964467226E+02  0.47000000000E+01 0. -1.
         -5    1    5    5    0  503  0.15576981136E+02  0.54623919699E+02  0.61515641390E+02  0.83861070111E+02  0.47000000000E+01 0. -1.
<mgrwt>
<rscale>  0 0.27488165E+03</rscale>
<asrwt>0</asrwt>
<pdfrwt beam="1">  1        4 0.21062066E-01 0.27488165E+03</pdfrwt>
<pdfrwt beam="2">  1       -4 0.21227743E-01 0.27488165E+03</pdfrwt>
<totfact> 0.77980847E+02</totfact>
</mgrwt>
</event>
<event>
 9    1  0.2051157E-002  0.2875582E+03  0.7818608E-02  0.1091631E+00
         -2   -1    0    0    0  501 -0.00000000000E+00  0.00000000000E+00  0.11445368892E+03  0.11445368892E+03  0.00000000000E+00 0. -1.
          2   -1    0    0  501    0  0.00000000000E+00 -0.00000000000E+00 -0.18061823271E+03  0.18061823271E+03  0.00000000000E+00 0. -1.
         36    2    1    2    0    0  0.00000000000E+00 -0.71054273576E-14 -0.66164543786E+02  0.29507192162E+03  0.28755815425E+03 0.  0.
         25    2    3    3    0    0 -0.22272708882E+02 -0.26273275294E+02  0.20389159038E+02  0.13851482368E+03  0.13260573146E+03 0.  0.
         25    2    3    3    0    0  0.22272708882E+02  0.26273275294E+02 -0.86553702824E+02  0.15655709795E+03  0.12582616139E+03 0.  0.
          5    1    4    4  502    0  0.36531730283E+02 -0.27644267494E+00  0.54345980438E+02  0.65652260645E+02  0.47000000000E+01 0. -1.
         -5    1    4    4    0  502 -0.58804439165E+02 -0.25996832619E+02 -0.33956821401E+02  0.72862563030E+02  0.47000000000E+01 0. -1.
          5    1    5    5  503    0  0.30232027180E+02  0.72810672845E+02 -0.34677020202E+02  0.86255175368E+02  0.47000000000E+01 0.  1.
         -5    1    5    5    0  503 -0.79593182986E+01 -0.46537397551E+02 -0.51876682622E+02  0.70301922580E+02  0.47000000000E+01 0.  1.
<mgrwt>
<rscale>  0 0.28755815E+03</rscale>
<asrwt>0</asrwt>
<pdfrwt beam="1">  1        2 0.27787420E-01 0.28755815E+03</pdfrwt>
<pdfrwt beam="2">  1       -2 0.17608260E-01 0.28755815E+03</pdfrwt>
<totfact> 0.49698378E+03</totfact>
</mgrwt>
</event>
<event>
 9    1  0.2051157E-002  0.2752036E+03  0.7818608E-02  0.1098338E+00
          1   -1    0    0  501    0  0.00000000000E+00  0.00000000000E+00  0.15769199034E+03  0.15769199034E+03  0.00000000000E+00 0.  1.
         -1   -1    0    0    0  501 -0.00000000000E+00 -0.00000000000E+00 -0.12007115068E+03  0.12007115068E+03  0.00000000000E+00 0.  1.
         36    2    1    2    0    0  0.35527136788E-14  0.00000000000E+00  0.37620839660E+02  0.27776314102E+03  0.27520362449E+03 0.  0.
         25    2    3    3    0    0 -0.85489787680E+01  0.33009220359E+02  0.53335948933E+02  0.14003706973E+03  0.12491182403E+03 0.  0.
         25    2    3    3    0    0  0.85489787680E+01 -0.33009220359E+02 -0.15715109273E+02  0.13772607129E+03  0.13250966904E+03 0.  0.
          5    1    4    4  502    0  0.49944197585E+02  0.47402666983E+02  0.30234999642E+02  0.75350387609E+02  0.47000000000E+01 0. -1.
         -5    1    4    4    0  502 -0.58493176353E+02 -0.14393446624E+02  0.23100949291E+02  0.64686682120E+02  0.47000000000E+01 0. -1.
          5    1    5    5  503    0  0.29033789891E+02 -0.28456237974E+02 -0.69023455837E+02  0.80243665736E+02  0.47000000000E+01 0. -1.
         -5    1    5    5    0  503 -0.20484811123E+02 -0.45529823849E+01  0.53308346564E+02  0.57482405558E+02  0.47000000000E+01 0. -1.
<mgrwt>
<rscale>  0 0.27520362E+03</rscale>
<asrwt>0</asrwt>
<pdfrwt beam="1">  1        1 0.24260306E-01 0.27520362E+03</pdfrwt>
<pdfrwt beam="2">  1       -1 0.18472485E-01 0.27520362E+03</pdfrwt>
<totfact> 0.45365588E+03</totfact>
</mgrwt>
</event>
<event>
 9    1  0.2051157E-002  0.2706669E+03  0.7818608E-02  0.1100899E+00
         -4   -1    0    0    0  501 -0.00000000000E+00  0.00000000000E+00  0.18182837595E+03  0.18182837595E+03  0.00000000000E+00 0. -1.
          4   -1    0    0  501    0  0.00000000000E+00 -0.00000000000E+00 -0.10072764792E+03  0.10072764792E+03  0.00000000000E+00 0. -1.
         36    2    1    2    0    0 -0.35527136788E-14 -0.14210854715E-13  0.81100728037E+02  0.28255602387E+03  0.27066691437E+03 0.  0.
         25    2    3    3    0    0  0.77815258831E+01  0.47129142071E+02  0.48789803623E+02  0.14078720163E+03  0.12312141580E+03 0.  0.
         25    2    3    3    0    0 -0.77815258831E+01 -0.47129142071E+02  0.32310924413E+02  0.14176882224E+03  0.12950943960E+03 0.  0.
          5    1    4    4  502    0  0.40297949421E+02 -0.17742958540E+02 -0.12142649284E+02  0.45915914855E+02  0.47000000000E+01 0.  1.
         -5    1    4    4    0  502 -0.32516423538E+02  0.64872100611E+02  0.60932452907E+02  0.94871286776E+02  0.47000000000E+01 0.  1.
          5    1    5    5  503    0 -0.24927921137E+02  0.34730600219E+02  0.38566407100E+02  0.57767409500E+02  0.47000000000E+01 0. -1.
         -5    1    5    5    0  503  0.17146395254E+02 -0.81859742290E+02 -0.62554826862E+01  0.84001412736E+02  0.47000000000E+01 0. -1.
<mgrwt>
<rscale>  0 0.27066691E+03</rscale>
<asrwt>0</asrwt>
<pdfrwt beam="1">  1        4 0.15496561E-01 0.27066691E+03</pdfrwt>
<pdfrwt beam="2">  1       -4 0.27973596E-01 0.27066691E+03</pdfrwt>
<totfact> 0.80852035E+02</totfact>
</mgrwt>
</event>
<event>
 9    1  0.2051157E-002  0.2752690E+03  0.7818608E-02  0.1098301E+00
          2   -1    0    0  501    0  0.00000000000E+00  0.00000000000E+00  0.19575676250E+03  0.19575676250E+03  0.00000000000E+00 0.  1.
         -2   -1    0    0    0  501 -0.00000000000E+00 -0.00000000000E+00 -0.96769357182E+02  0.96769357182E+02  0.00000000000E+00 0.  1.
         36    2    1    2    0    0  0.00000000000E+00  0.71054273576E-14  0.98987405323E+02  0.29252611969E+03  0.27526900350E+03 0.  0.
         25    2    3    3    0    0  0.24066279752E+02 -0.37164255217E+02  0.64448182499E+01  0.13444194982E+03  0.12677828877E+03 0.  0.
         25    2    3    3    0    0 -0.24066279752E+02  0.37164255217E+02  0.92542587073E+02  0.15808416987E+03  0.12027512899E+03 0.  0.
          5    1    4    4  502    0  0.23363210534E+02 -0.69286114518E+02 -0.35483614048E+02  0.81409963379E+02  0.47000000000E+01 0.  1.
         -5    1    4    4    0  502  0.70306921784E+00  0.32121859300E+02  0.41928432297E+02  0.53031986444E+02  0.47000000000E+01 0.  1.
          5    1    5    5  503    0 -0.68337102456E+02  0.17412002030E+01  0.34153504217E+02  0.76560715779E+02  0.47000000000E+01 0.  1.
         -5    1    5    5    0  503  0.44270822704E+02  0.35423055014E+02  0.58389082856E+02  0.81523454086E+02  0.47000000000E+01 0.  1.
<mgrwt>
<rscale>  0 0.27526900E+03</rscale>
<asrwt>0</asrwt>
<pdfrwt beam="1">  1        2 0.30116425E-01 0.27526900E+03</pdfrwt>
<pdfrwt beam="2">  1       -2 0.14887593E-01 0.27526900E+03</pdfrwt>
<totfact> 0.60079685E+03</totfact>
</mgrwt>
</event>
<event>
 9    1  0.2051157E-002  0.2769185E+03  0.7818608E-02  0.1097384E+00
         -2   -1    0    0    0  501 -0.00000000000E+00  0.00000000000E+00  0.38206261231E+02  0.38206261231E+02  0.00000000000E+00 0. -1.
          2   -1    0    0  501    0  0.00000000000E+00 -0.00000000000E+00 -0.50177541097E+03  0.50177541097E+03  0.00000000000E+00 0. -1.
         36    2    1    2    0    0 -0.71054273576E-14  0.00000000000E+00 -0.46356914974E+03  0.53998167220E+03  0.27691848931E+03 0.  0.
         25    2    3    3    0    0  0.44701599097E+02  0.20203285831E+00 -0.21458752960E+03  0.25809502671E+03  0.13626063691E+03 0.  0.
         25    2    3    3    0    0 -0.44701599097E+02 -0.20203285831E+00 -0.24898162014E+03  0.28188664549E+03  0.12437829377E+03 0.  0.
          5    1    4    4  502    0  0.68548935579E+01 -0.20872429771E+02  0.13280717001E+02  0.26098186418E+02  0.47000000000E+01 0.  1.
         -5    1    4    4    0  502  0.37846705539E+02  0.21074462629E+02 -0.22786824660E+03  0.23199684029E+03  0.47000000000E+01 0.  1.
          5    1    5    5  503    0 -0.59851748471E+02  0.48361687240E+02 -0.11455997453E+03  0.13808389606E+03  0.47000000000E+01 0.  1.
         -5    1    5    5    0  503  0.15150149374E+02 -0.48563720098E+02 -0.13442164561E+03  0.14380274943E+03  0.47000000000E+01 0.  1.
<mgrwt>
<rscale>  0 0.27691849E+03</rscale>
<asrwt>0</asrwt>
<pdfrwt beam="1">  1        2 0.77196212E-01 0.27691849E+03</pdfrwt>
<pdfrwt beam="2">  1       -2 0.58778867E-02 0.27691849E+03</pdfrwt>
<totfact> 0.94215674E+03</totfact>
</mgrwt>
</event>
<event>
 9    1  0.2051157E-002  0.2746616E+03  0.7818608E-02  0.1098641E+00
          2   -1    0    0  501    0  0.00000000000E+00  0.00000000000E+00  0.96164740489E+03  0.96164740489E+03  0.00000000000E+00 0. -1.
         -2   -1    0    0    0  501 -0.00000000000E+00 -0.00000000000E+00 -0.19611921330E+02  0.19611921330E+02  0.00000000000E+00 0. -1.
         36    2    1    2    0    0  0.00000000000E+00  0.00000000000E+00  0.94203548355E+03  0.98125932622E+03  0.27466163367E+03 0.  0.
         25    2    3    3    0    0 -0.20897470947E+02  0.52746893944E+02  0.40790394495E+03  0.42965139829E+03  0.12245716246E+03 0.  0.
         25    2    3    3    0    0  0.20897470947E+02 -0.52746893944E+02  0.53413153861E+03  0.55160792792E+03  0.12552237450E+03 0.  0.
          5    1    4    4  502    0 -0.69870598674E+02  0.27634533649E+02  0.17919887850E+03  0.19437051233E+03  0.47000000000E+01 0.  1.
         -5    1    4    4    0  502  0.48973127727E+02  0.25112360295E+02  0.22870506645E+03  0.23528088597E+03  0.47000000000E+01 0.  1.
          5    1    5    5  503    0 -0.42472103137E+02 -0.14305109690E+02  0.35266454609E+03  0.35553183792E+03  0.47000000000E+01 0. -1.
         -5    1    5    5    0  503  0.63369574084E+02 -0.38441784254E+02  0.18146699252E+03  0.19607609000E+03  0.47000000000E+01 0. -1.
<mgrwt>
<rscale>  0 0.27466163E+03</rscale>
<asrwt>0</asrwt>
<pdfrwt beam="1">  1        2 0.14794572E+00 0.27466163E+03</pdfrwt>
<pdfrwt beam="2">  1       -2 0.30172194E-02 0.27466163E+03</pdfrwt>
<totfact> 0.11618503E+04</totfact>
</mgrwt>
</event>
<event>
 9    1  0.2051157E-002  0.2758792E+03  0.7818608E-02  0.1097961E+00
          2   -1    0    0  501    0  0.00000000000E+00  0.00000000000E+00  0.71609809345E+03  0.71609809345E+03  0.00000000000E+00 0. -1.
         -2   -1    0    0    0  501 -0.00000000000E+00 -0.00000000000E+00 -0.26570844638E+02  0.26570844638E+02  0.00000000000E+00 0. -1.
         36    2    1    2    0    0  0.71054273576E-14 -0.35527136788E-14  0.68952724881E+03  0.74266893809E+03  0.27587918505E+03 0.  0.
         25    2    3    3    0    0  0.32514910262E+02 -0.89361615830E-01  0.26623281950E+03  0.29994445302E+03  0.13427409781E+03 0.  0.
         25    2    3    3    0    0 -0.32514910262E+02  0.89361615830E-01  0.42329442931E+03  0.44272448507E+03  0.12557694222E+03 0.  0.
          5    1    4    4  502    0 -0.23115877892E+02  0.52890274093E+02  0.83032744225E+02  0.10123364815E+03  0.47000000000E+01 0.  1.
         -5    1    4    4    0  502  0.55630788154E+02 -0.52979635709E+02  0.18320007528E+03  0.19871080487E+03  0.47000000000E+01 0.  1.
          5    1    5    5  503    0 -0.67474752982E+02  0.22830856824E+02  0.14877921379E+03  0.16501949815E+03  0.47000000000E+01 0.  1.
         -5    1    5    5    0  503  0.34959842720E+02 -0.22741495208E+02  0.27451521552E+03  0.27770498692E+03  0.47000000000E+01 0.  1.
<mgrwt>
<rscale>  0 0.27587919E+03</rscale>
<asrwt>0</asrwt>
<pdfrwt beam="1">  1        2 0.11016892E+00 0.27587919E+03</pdfrwt>
<pdfrwt beam="2">  1       -2 0.40878228E-02 0.27587919E+03</pdfrwt>
<totfact> 0.10806539E+04</totfact>
</mgrwt>
</event>
<event>
 9    1  0.2051157E-002  0.2747227E+03  0.7818608E-02  0.1098607E+00
          2   -1    0    0  501    0  0.00000000000E+00  0.00000000000E+00  0.33875523995E+03  0.33875523995E+03  0.00000000000E+00 0.  1.
         -2   -1    0    0    0  501 -0.00000000000E+00 -0.00000000000E+00 -0.55698459004E+02  0.55698459004E+02  0.00000000000E+00 0.  1.
         36    2    1    2    0    0  0.71054273576E-14  0.00000000000E+00  0.28305678095E+03  0.39445369896E+03  0.27472273182E+03 0.  0.
         25    2    3    3    0    0  0.19741070927E+02 -0.21847914618E+02  0.79923594643E+02  0.15419638506E+03  0.12853677657E+03 0.  0.
         25    2    3    3    0    0 -0.19741070927E+02  0.21847914618E+02  0.20313318630E+03  0.24025731389E+03  0.12487371320E+03 0.  0.
          5    1    4    4  502    0 -0.29658126065E+02 -0.54887088683E+02  0.11792884904E+02  0.63665996263E+02  0.47000000000E+01 0. -1.
         -5    1    4    4    0  502  0.49399196991E+02  0.33039174065E+02  0.68130709739E+02  0.90530388797E+02  0.47000000000E+01 0. -1.
          5    1    5    5  503    0 -0.22159083755E+01 -0.31415236991E+02  0.25645929583E+01  0.31945179639E+02  0.47000000000E+01 0. -1.
         -5    1    5    5    0  503 -0.17525162551E+02  0.53263151609E+02  0.20056859334E+03  0.20831213426E+03  0.47000000000E+01 0. -1.
<mgrwt>
<rscale>  0 0.27472273E+03</rscale>
<asrwt>0</asrwt>
<pdfrwt beam="1">  1        2 0.52116190E-01 0.27472273E+03</pdfrwt>
<pdfrwt beam="2">  1       -2 0.85689939E-02 0.27472273E+03</pdfrwt>
<totfact> 0.80667091E+03</totfact>
</mgrwt>
</event>
<event>
 9    1  0.2051157E-002  0.2748822E+03  0.7818608E-02  0.1098517E+00
         -2   -1    0    0    0  501 -0.00000000000E+00  0.00000000000E+00  0.81892457113E+01  0.81892457113E+01  0.00000000000E+00 0.  1.
          2   -1    0    0  501    0  0.00000000000E+00 -0.00000000000E+00 -0.23066898195E+04  0.23066898195E+04  0.00000000000E+00 0.  1.
         36    2    1    2    0    0  0.00000000000E+00 -0.35527136788E-14 -0.22985005738E+04  0.23148790652E+04  0.27488215447E+03 0.  0.
         25    2    3    3    0    0 -0.46871399002E+02 -0.84898418441E+01 -0.90135686016E+03  0.91149033515E+03  0.12689143495E+03 0.  0.
         25    2    3    3    0    0  0.46871399002E+02  0.84898418441E+01 -0.13971437136E+04  0.14033887300E+04  0.12337084607E+03 0.  0.
          5    1    4    4  502    0 -0.31805465112E+02 -0.31356402857E+02 -0.86278802880E+03  0.86395606615E+03  0.47000000000E+01 0. -1.
         -5    1    4    4    0  502 -0.15065933889E+02  0.22866561013E+02 -0.38568831362E+02  0.47534268998E+02  0.47000000000E+01 0. -1.
          5    1    5    5  503    0  0.61887025245E+02 -0.24049572739E+02 -0.39316041403E+03  0.39875504636E+03  0.47000000000E+01 0.  1.
         -5    1    5    5    0  503 -0.15015626244E+02  0.32539414583E+02 -0.10039832996E+04  0.10046336837E+04  0.47000000000E+01 0.  1.
<mgrwt>
<rscale>  0 0.27488215E+03</rscale>
<asrwt>0</asrwt>
<pdfrwt beam="1">  1        2 0.35487592E+00 0.27488215E+03</pdfrwt>
<pdfrwt beam="2">  1       -2 0.12598819E-02 0.27488215E+03</pdfrwt>
<totfact> 0.77749085E+03</totfact>
</mgrwt>
</event>
<event>
 9    1  0.2051157E-002  0.2750157E+03  0.7818608E-02  0.1098443E+00
          1   -1    0    0  501    0  0.00000000000E+00  0.00000000000E+00  0.10032684019E+04  0.10032684019E+04  0.00000000000E+00 0.  1.
         -1   -1    0    0    0  501 -0.00000000000E+00 -0.00000000000E+00 -0.18846809282E+02  0.18846809282E+02  0.00000000000E+00 0.  1.
         36    2    1    2    0    0  0.00000000000E+00 -0.35527136788E-14  0.98442159266E+03  0.10221152112E+04  0.27501569577E+03 0.  0.
         25    2    3    3    0    0 -0.49620689663E+02 -0.18257093671E+02  0.44984168844E+03  0.46890555353E+03  0.12132328366E+03 0.  0.
         25    2    3    3    0    0  0.49620689663E+02  0.18257093671E+02  0.53457990422E+03  0.55320965769E+03  0.13217305724E+03 0.  0.
          5    1    4    4  502    0 -0.61360110486E+02  0.18228627973E+02  0.11379375856E+03  0.13064629931E+03  0.47000000000E+01 0. -1.
         -5    1    4    4    0  502  0.11739420822E+02 -0.36485721643E+02  0.33604792988E+03  0.33825925422E+03  0.47000000000E+01 0. -1.
          5    1    5    5  503    0 -0.63520326694E+00  0.13945074556E+02 -0.14413321092E+01  0.14799865736E+02  0.47000000000E+01 0. -1.
         -5    1    5    5    0  503  0.50255892930E+02  0.43120191144E+01  0.53602123633E+03  0.53840979196E+03  0.47000000000E+01 0. -1.
<mgrwt>
<rscale>  0 0.27501570E+03</rscale>
<asrwt>0</asrwt>
<pdfrwt beam="1">  1        1 0.15434894E+00 0.27501570E+03</pdfrwt>
<pdfrwt beam="2">  1       -1 0.28995099E-02 0.27501570E+03</pdfrwt>
<totfact> 0.63038279E+03</totfact>
</mgrwt>
</event>
<event>
 9    1  0.2051157E-002  0.2739424E+03  0.7818608E-02  0.1099044E+00
          2   -1    0    0  501    0  0.00000000000E+00  0.00000000000E+00  0.10572970444E+03  0.10572970444E+03  0.00000000000E+00 0.  1.
         -2   -1    0    0    0  501 -0.00000000000E+00 -0.00000000000E+00 -0.17744403629E+03  0.17744403629E+03  0.00000000000E+00 0.  1.
         36    2    1    2    0    0  0.00000000000E+00  0.00000000000E+00 -0.71714331859E+02  0.28317374073E+03  0.27394236993E+03 0.  0.
         25    2    3    3    0    0  0.39297156938E+02  0.21677412439E+02 -0.69270383033E+02  0.15153001344E+03  0.12707785902E+03 0.  0.
         25    2    3    3    0    0 -0.39297156938E+02 -0.21677412439E+02 -0.24439488260E+01  0.13164372729E+03  0.12373326673E+03 0.  0.
          5    1    4    4  502    0  0.69371928950E+02 -0.50057809259E+01  0.18067523708E+01  0.69734329587E+02  0.47000000000E+01 0. -1.
         -5    1    4    4    0  502 -0.30074772012E+02  0.26683193364E+02 -0.71077135403E+02  0.81795683852E+02  0.47000000000E+01 0. -1.
          5    1    5    5  503    0  0.29538104394E+02 -0.15572717476E+02 -0.40429625952E+02  0.52646498415E+02  0.47000000000E+01 0.  1.
         -5    1    5    5    0  503 -0.68835261332E+02 -0.61046949624E+01  0.37985677126E+02  0.78997228875E+02  0.47000000000E+01 0.  1.
<mgrwt>
<rscale>  0 0.27394237E+03</rscale>
<asrwt>0</asrwt>
<pdfrwt beam="1">  1        2 0.16266108E-01 0.27394237E+03</pdfrwt>
<pdfrwt beam="2">  1       -2 0.27299082E-01 0.27394237E+03</pdfrwt>
<totfact> 0.42692723E+03</totfact>
</mgrwt>
</event>
<event>
 9    1  0.2051157E-002  0.2747401E+03  0.7818608E-02  0.1098597E+00
         -2   -1    0    0    0  501 -0.00000000000E+00  0.00000000000E+00  0.15098567643E+03  0.15098567643E+03  0.00000000000E+00 0. -1.
          2   -1    0    0  501    0  0.00000000000E+00 -0.00000000000E+00 -0.12498227606E+03  0.12498227606E+03  0.00000000000E+00 0. -1.
         36    2    1    2    0    0  0.00000000000E+00  0.00000000000E+00  0.26003400369E+02  0.27596795250E+03  0.27474012080E+03 0.  0.
         25    2    3    3    0    0 -0.53862628098E+02  0.12924200720E+02  0.41361429789E+02  0.13877629677E+03  0.12033235226E+03 0.  0.
         25    2    3    3    0    0  0.53862628098E+02 -0.12924200720E+02 -0.15358029420E+02  0.13719165573E+03  0.12456911200E+03 0.  0.
          5    1    4    4  502    0  0.38228849918E+01 -0.47994034553E+02  0.13006585410E+02  0.50092944277E+02  0.47000000000E+01 0. -1.
         -5    1    4    4    0  502 -0.57685513090E+02  0.60918235273E+02  0.28354844380E+02  0.88683352491E+02  0.47000000000E+01 0. -1.
          5    1    5    5  503    0 -0.14170444612E+02 -0.54125271529E+02 -0.12184261324E+02  0.57453396267E+02  0.47000000000E+01 0.  1.
         -5    1    5    5    0  503  0.68033072710E+02  0.41201070809E+02 -0.31737680965E+01  0.79738259462E+02  0.47000000000E+01 0.  1.
<mgrwt>
<rscale>  0 0.27474012E+03</rscale>
<asrwt>0</asrwt>
<pdfrwt beam="1">  1        2 0.19228042E-01 0.27474012E+03</pdfrwt>
<pdfrwt beam="2">  1       -2 0.23228566E-01 0.27474012E+03</pdfrwt>
<totfact> 0.46754938E+03</totfact>
</mgrwt>
</event>
<event>
 9    1  0.2051157E-002  0.2759831E+03  0.7818608E-02  0.1097903E+00
         -1   -1    0    0    0  501 -0.00000000000E+00  0.00000000000E+00  0.10592477172E+02  0.10592477172E+02  0.00000000000E+00 0. -1.
          1   -1    0    0  501    0  0.00000000000E+00 -0.00000000000E+00 -0.17976596468E+04  0.17976596468E+04  0.00000000000E+00 0. -1.
         36    2    1    2    0    0  0.00000000000E+00  0.00000000000E+00 -0.17870671697E+04  0.18082521240E+04  0.27598310652E+03 0.  0.
         25    2    3    3    0    0  0.30414680645E+02  0.46043422133E+02 -0.10582945929E+04  0.10669444951E+04  0.12384692421E+03 0.  0.
         25    2    3    3    0    0 -0.30414680645E+02 -0.46043422133E+02 -0.72877257671E+03  0.74130762891E+03  0.12402613671E+03 0.  0.
          5    1    4    4  502    0  0.37583523621E+02  0.82008137191E+02 -0.89343377369E+03  0.89798878266E+03  0.47000000000E+01 0.  1.
         -5    1    4    4    0  502 -0.71688429769E+01 -0.35964715058E+02 -0.16486081925E+03  0.16895571243E+03  0.47000000000E+01 0.  1.
          5    1    5    5  503    0 -0.24334982961E+02 -0.88054683695E+02 -0.44143753477E+03  0.45081593342E+03  0.47000000000E+01 0. -1.
         -5    1    5    5    0  503 -0.60796976839E+01  0.42011261562E+02 -0.28733504194E+03  0.29049169549E+03  0.47000000000E+01 0. -1.
<mgrwt>
<rscale>  0 0.27598311E+03</rscale>
<asrwt>0</asrwt>
<pdfrwt beam="1">  1        1 0.27656298E+00 0.27598311E+03</pdfrwt>
<pdfrwt beam="2">  1       -1 0.16296121E-02 0.27598311E+03</pdfrwt>
<totfact> 0.42235713E+03</totfact>
</mgrwt>
</event>
<event>
 9    1  0.2051157E-002  0.2748736E+03  0.7818608E-02  0.1098522E+00
         -3   -1    0    0    0  501 -0.00000000000E+00  0.00000000000E+00  0.70685533245E+03  0.70685533245E+03  0.00000000000E+00 0. -1.
          3   -1    0    0  501    0  0.00000000000E+00 -0.00000000000E+00 -0.26722404542E+02  0.26722404542E+02  0.00000000000E+00 0. -1.
         36    2    1    2    0    0  0.00000000000E+00 -0.71054273576E-14  0.68013292790E+03  0.73357773699E+03  0.27487360111E+03 0.  0.
         25    2    3    3    0    0 -0.18992817052E+01  0.28220542938E+02  0.42467730740E+03  0.44348137874E+03  0.12459900303E+03 0.  0.
         25    2    3    3    0    0  0.18992817052E+01 -0.28220542938E+02  0.25545562051E+03  0.29009635825E+03  0.13452998441E+03 0.  0.
          5    1    4    4  502    0  0.47481459833E+02 -0.20661390727E+02  0.25163890276E+03  0.25695448911E+03  0.47000000000E+01 0.  1.
         -5    1    4    4    0  502 -0.49380741539E+02  0.48881933664E+02  0.17303840464E+03  0.18652688963E+03  0.47000000000E+01 0.  1.
          5    1    5    5  503    0 -0.21365404323E+02 -0.68793763682E+02  0.21905902108E+03  0.23064693178E+03  0.47000000000E+01 0. -1.
         -5    1    5    5    0  503  0.23264686028E+02  0.40573220744E+02  0.36396599430E+02  0.59449426470E+02  0.47000000000E+01 0. -1.
<mgrwt>
<rscale>  0 0.27487360E+03</rscale>
<asrwt>0</asrwt>
<pdfrwt beam="1">  1        3 0.41111397E-02 0.27487360E+03</pdfrwt>
<pdfrwt beam="2">  1       -3 0.10874696E+00 0.27487360E+03</pdfrwt>
<totfact> 0.58793307E+02</totfact>
</mgrwt>
</event>
<event>
 9    1  0.2051157E-002  0.2754345E+03  0.7818608E-02  0.1098209E+00
          2   -1    0    0  501    0  0.00000000000E+00  0.00000000000E+00  0.12723783325E+03  0.12723783325E+03  0.00000000000E+00 0. -1.
         -2   -1    0    0    0  501 -0.00000000000E+00 -0.00000000000E+00 -0.14905971155E+03  0.14905971155E+03  0.00000000000E+00 0. -1.
         36    2    1    2    0    0  0.00000000000E+00  0.00000000000E+00 -0.21821878305E+02  0.27629754480E+03  0.27543445479E+03 0.  0.
         25    2    3    3    0    0 -0.31391987935E+02  0.48862122531E+02  0.19111065244E+00  0.13460772104E+03  0.12143408960E+03 0.  0.
         25    2    3    3    0    0  0.31391987935E+02 -0.48862122531E+02 -0.22012988957E+02  0.14168982375E+03  0.12735175911E+03 0.  0.
          5    1    4    4  502    0 -0.49901681687E+02  0.19959861494E+02  0.50252644314E+02  0.73729181242E+02  0.47000000000E+01 0. -1.
         -5    1    4    4    0  502  0.18509693752E+02  0.28902261037E+02 -0.50061533662E+02  0.60878539802E+02  0.47000000000E+01 0. -1.
          5    1    5    5  503    0  0.78776403523E+02 -0.28199356209E+02 -0.30325545592E+02  0.89121569545E+02  0.47000000000E+01 0. -1.
         -5    1    5    5    0  503 -0.47384415588E+02 -0.20662766322E+02  0.83125566342E+01  0.52568254208E+02  0.47000000000E+01 0. -1.
<mgrwt>
<rscale>  0 0.27543445E+03</rscale>
<asrwt>0</asrwt>
<pdfrwt beam="1">  1        2 0.19575051E-01 0.27543445E+03</pdfrwt>
<pdfrwt beam="2">  1       -2 0.22932263E-01 0.27543445E+03</pdfrwt>
<totfact> 0.46845040E+03</totfact>
</mgrwt>
</event>
<event>
 9    1  0.2051157E-002  0.2752788E+03  0.7818608E-02  0.1098296E+00
          2   -1    0    0  501    0  0.00000000000E+00  0.00000000000E+00  0.46282210918E+03  0.46282210918E+03  0.00000000000E+00 0.  1.
         -2   -1    0    0    0  501 -0.00000000000E+00 -0.00000000000E+00 -0.40932786873E+02  0.40932786873E+02  0.00000000000E+00 0.  1.
         36    2    1    2    0    0 -0.71054273576E-14  0.00000000000E+00  0.42188932231E+03  0.50375489605E+03  0.27527875875E+03 0.  0.
         25    2    3    3    0    0  0.29320696316E+02  0.20497195538E+02  0.30354879299E+03  0.32939493612E+03  0.12279786626E+03 0.  0.
         25    2    3    3    0    0 -0.29320696316E+02 -0.20497195538E+02  0.11834052932E+03  0.17435995994E+03  0.12295152090E+03 0.  0.
          5    1    4    4  502    0 -0.19834562962E+02  0.56575184029E+02  0.20289569103E+03  0.21161973625E+03  0.47000000000E+01 0.  1.
         -5    1    4    4    0  502  0.49155259278E+02 -0.36077988491E+02  0.10065310196E+03  0.11777519986E+03  0.47000000000E+01 0.  1.
          5    1    5    5  503    0 -0.68008382242E+02 -0.21647008363E+01  0.26962571518E+02  0.73340958869E+02  0.47000000000E+01 0.  1.
         -5    1    5    5    0  503  0.38687685927E+02 -0.18332494702E+02  0.91377957805E+02  0.10101900107E+03  0.47000000000E+01 0.  1.
<mgrwt>
<rscale>  0 0.27527876E+03</rscale>
<asrwt>0</asrwt>
<pdfrwt beam="1">  1        2 0.71203398E-01 0.27527876E+03</pdfrwt>
<pdfrwt beam="2">  1       -2 0.62973522E-02 0.27527876E+03</pdfrwt>
<totfact> 0.92702358E+03</totfact>
</mgrwt>
</event>
<event>
 9    1  0.2051157E-002  0.2734360E+03  0.7818608E-02  0.1099329E+00
          2   -1    0    0  501    0  0.00000000000E+00  0.00000000000E+00  0.20996756693E+03  0.20996756693E+03  0.00000000000E+00 0. -1.
         -2   -1    0    0    0  501 -0.00000000000E+00 -0.00000000000E+00 -0.89022393945E+02  0.89022393945E+02  0.00000000000E+00 0. -1.
         36    2    1    2    0    0  0.00000000000E+00  0.00000000000E+00  0.12094517298E+03  0.29898996087E+03  0.27343602878E+03 0.  0.
         25    2    3    3    0    0  0.40665344152E+02  0.22883835543E+02  0.70670871237E+02  0.15573774101E+03  0.13070015987E+03 0.  0.
         25    2    3    3    0    0 -0.40665344152E+02 -0.22883835543E+02  0.50274301747E+02  0.14325221986E+03  0.12576308256E+03 0.  0.
          5    1    4    4  502    0 -0.40565196298E+02 -0.20659755971E+02  0.16039718558E+02  0.48494569169E+02  0.47000000000E+01 0.  1.
         -5    1    4    4    0  502  0.81230540450E+02  0.43543591513E+02  0.54631152679E+02  0.10724317184E+03  0.47000000000E+01 0.  1.
          5    1    5    5  503    0 -0.29272729734E+02  0.29426742415E+02  0.73629928051E+02  0.84653896426E+02  0.47000000000E+01 0.  1.
         -5    1    5    5    0  503 -0.11392614417E+02 -0.52310577957E+02 -0.23355626304E+02  0.58598323436E+02  0.47000000000E+01 0.  1.
<mgrwt>
<rscale>  0 0.27343603E+03</rscale>
<asrwt>0</asrwt>
<pdfrwt beam="1">  1        2 0.32302703E-01 0.27343603E+03</pdfrwt>
<pdfrwt beam="2">  1       -2 0.13695753E-01 0.27343603E+03</pdfrwt>
<totfact> 0.63808093E+03</totfact>
</mgrwt>
</event>
<event>
 9    1  0.2051157E-002  0.2753796E+03  0.7818608E-02  0.1098240E+00
          3   -1    0    0  501    0  0.00000000000E+00  0.00000000000E+00  0.41238546867E+02  0.41238546867E+02  0.00000000000E+00 0. -1.
         -3   -1    0    0    0  501 -0.00000000000E+00 -0.00000000000E+00 -0.45972733991E+03  0.45972733991E+03  0.00000000000E+00 0. -1.
         36    2    1    2    0    0  0.35527136788E-14 -0.71054273576E-14 -0.41848879304E+03  0.50096588678E+03  0.27537964669E+03 0.  0.
         25    2    3    3    0    0 -0.13412966954E+02  0.57702509248E+02 -0.22106101033E+03  0.25975800402E+03  0.12286888585E+03 0.  0.
         25    2    3    3    0    0  0.13412966954E+02 -0.57702509248E+02 -0.19742778271E+03  0.24120788275E+03  0.12527579997E+03 0.  0.
          5    1    4    4  502    0  0.44756901799E+02  0.63059485768E+02 -0.13470790463E+03  0.15539623088E+03  0.47000000000E+01 0.  1.
         -5    1    4    4    0  502 -0.58169868753E+02 -0.53569765205E+01 -0.86353105702E+02  0.10436177314E+03  0.47000000000E+01 0.  1.
          5    1    5    5  503    0 -0.22631506369E+02 -0.87840829412E+01 -0.17426339167E+03  0.17600899088E+03  0.47000000000E+01 0. -1.
         -5    1    5    5    0  503  0.36044473322E+02 -0.48918426306E+02 -0.23164391044E+02  0.65198891875E+02  0.47000000000E+01 0. -1.
<mgrwt>
<rscale>  0 0.27537965E+03</rscale>
<asrwt>0</asrwt>
<pdfrwt beam="1">  1        3 0.63443917E-02 0.27537965E+03</pdfrwt>
<pdfrwt beam="2">  1       -3 0.70727285E-01 0.27537965E+03</pdfrwt>
<totfact> 0.76936579E+02</totfact>
</mgrwt>
</event>
<event>
 9    1  0.2051157E-002  0.2738854E+03  0.7818608E-02  0.1099076E+00
         -2   -1    0    0    0  501 -0.00000000000E+00  0.00000000000E+00  0.13862630245E+02  0.13862630245E+02  0.00000000000E+00 0.  1.
          2   -1    0    0  501    0  0.00000000000E+00 -0.00000000000E+00 -0.13527958086E+04  0.13527958086E+04  0.00000000000E+00 0.  1.
         36    2    1    2    0    0  0.35527136788E-14  0.00000000000E+00 -0.13389331784E+04  0.13666584389E+04  0.27388543657E+03 0.  0.
         25    2    3    3    0    0 -0.19906883132E+02  0.46640561401E+02 -0.60472039257E+03  0.61960346172E+03  0.12510024229E+03 0.  0.
         25    2    3    3    0    0  0.19906883132E+02 -0.46640561401E+02 -0.73421278581E+03  0.74705497715E+03  0.12826183405E+03 0.  0.
          5    1    4    4  502    0  0.49337369746E+02  0.18082801119E+01 -0.16935582105E+03  0.17646792925E+03  0.47000000000E+01 0. -1.
         -5    1    4    4    0  502 -0.69244252878E+02  0.44832281289E+02 -0.43536457152E+03  0.44313553247E+03  0.47000000000E+01 0. -1.
          5    1    5    5  503    0  0.11933254463E+02  0.28654282735E+02 -0.49736163902E+03  0.49835144271E+03  0.47000000000E+01 0. -1.
         -5    1    5    5    0  503  0.79736286692E+01 -0.75294844136E+02 -0.23685114679E+03  0.24870353444E+03  0.47000000000E+01 0. -1.
<mgrwt>
<rscale>  0 0.27388544E+03</rscale>
<asrwt>0</asrwt>
<pdfrwt beam="1">  1        2 0.20812243E+00 0.27388544E+03</pdfrwt>
<pdfrwt beam="2">  1       -2 0.21327123E-02 0.27388544E+03</pdfrwt>
<totfact> 0.11526390E+04</totfact>
</mgrwt>
</event>
<event>
 9    1  0.2051157E-002  0.2654092E+03  0.7818608E-02  0.1103936E+00
          2   -1    0    0  501    0  0.00000000000E+00  0.00000000000E+00  0.31095836928E+03  0.31095836928E+03  0.00000000000E+00 0.  1.
         -2   -1    0    0    0  501 -0.00000000000E+00 -0.00000000000E+00 -0.56633033457E+02  0.56633033457E+02  0.00000000000E+00 0.  1.
         36    2    1    2    0    0  0.00000000000E+00  0.14210854715E-13  0.25432533582E+03  0.36759140274E+03  0.26540923670E+03 0.  0.
         25    2    3    3    0    0 -0.11201764739E+02  0.36226148826E+02  0.99490901545E+02  0.16515584367E+03  0.12625450415E+03 0.  0.
         25    2    3    3    0    0  0.11201764739E+02 -0.36226148826E+02  0.15483443428E+03  0.20243555906E+03  0.12477435691E+03 0.  0.
          5    1    4    4  502    0 -0.52337384834E+02  0.19100910459E+02  0.10603714024E+03  0.11987498380E+03  0.47000000000E+01 0.  1.
         -5    1    4    4    0  502  0.41135620095E+02  0.17125238366E+02 -0.65462386942E+01  0.45280859872E+02  0.47000000000E+01 0.  1.
          5    1    5    5  503    0  0.18430198484E+02  0.30804647467E+02  0.31062298728E+01  0.36336444319E+02  0.47000000000E+01 0.  1.
         -5    1    5    5    0  503 -0.72284337453E+01 -0.67030796293E+02  0.15172820441E+03  0.16609911474E+03  0.47000000000E+01 0.  1.
<mgrwt>
<rscale>  0 0.26540924E+03</rscale>
<asrwt>0</asrwt>
<pdfrwt beam="1">  1        2 0.47839748E-01 0.26540924E+03</pdfrwt>
<pdfrwt beam="2">  1       -2 0.87127746E-02 0.26540924E+03</pdfrwt>
<totfact> 0.86052761E+03</totfact>
</mgrwt>
</event>
<event>
 9    1  0.2051157E-002  0.2762005E+03  0.7818608E-02  0.1097782E+00
         -4   -1    0    0    0  501 -0.00000000000E+00  0.00000000000E+00  0.14232645724E+03  0.14232645724E+03  0.00000000000E+00 0. -1.
          4   -1    0    0  501    0  0.00000000000E+00 -0.00000000000E+00 -0.13399957804E+03  0.13399957804E+03  0.00000000000E+00 0. -1.
         36    2    1    2    0    0 -0.71054273576E-14 -0.35527136788E-14  0.83268791975E+01  0.27632603528E+03  0.27620054463E+03 0.  0.
         25    2    3    3    0    0  0.30353733002E+02 -0.45017702329E+01  0.51566353012E+02  0.13964663854E+03  0.12609710485E+03 0.  0.
         25    2    3    3    0    0 -0.30353733002E+02  0.45017702329E+01 -0.43239473815E+02  0.13667939673E+03  0.12597614994E+03 0.  0.
          5    1    4    4  502    0  0.21999824100E+02  0.26673879784E+02 -0.33604539038E+02  0.48444227387E+02  0.47000000000E+01 0.  1.
         -5    1    4    4    0  502  0.83539089024E+01 -0.31175650017E+02  0.85170892051E+02  0.91202411156E+02  0.47000000000E+01 0.  1.
          5    1    5    5  503    0  0.38528118764E+02  0.35905002952E+02 -0.25888567375E+02  0.58871836163E+02  0.47000000000E+01 0. -1.
         -5    1    5    5    0  503 -0.68881851766E+02 -0.31403232719E+02 -0.17350906440E+02  0.77807560572E+02  0.47000000000E+01 0. -1.
<mgrwt>
<rscale>  0 0.27620054E+03</rscale>
<asrwt>0</asrwt>
<pdfrwt beam="1">  1        4 0.20615320E-01 0.27620054E+03</pdfrwt>
<pdfrwt beam="2">  1       -4 0.21896378E-01 0.27620054E+03</pdfrwt>
<totfact> 0.76665893E+02</totfact>
</mgrwt>
</event>
<event>
 9    1  0.2051157E-002  0.2748756E+03  0.7818608E-02  0.1098521E+00
          1   -1    0    0  501    0  0.00000000000E+00  0.00000000000E+00  0.85309679501E+02  0.85309679501E+02  0.00000000000E+00 0. -1.
         -1   -1    0    0    0  501 -0.00000000000E+00 -0.00000000000E+00 -0.22141866797E+03  0.22141866797E+03  0.00000000000E+00 0. -1.
         36    2    1    2    0    0  0.53290705182E-14  0.14210854715E-13 -0.13610898847E+03  0.30672834747E+03  0.27487564897E+03 0.  0.
         25    2    3    3    0    0  0.47342021620E+00 -0.46955380353E+02 -0.45959124885E+02  0.14195535522E+03  0.12583342102E+03 0.  0.
         25    2    3    3    0    0 -0.47342021620E+00  0.46955380353E+02 -0.90149863581E+02  0.16477299225E+03  0.12968465291E+03 0.  0.
          5    1    4    4  502    0 -0.52937500159E+02 -0.39194123516E+02  0.67370453586E+01  0.66377978438E+02  0.47000000000E+01 0. -1.
         -5    1    4    4    0  502  0.53410920375E+02 -0.77612568369E+01 -0.52696170244E+02  0.75577376783E+02  0.47000000000E+01 0. -1.
          5    1    5    5  503    0 -0.15631349040E+02  0.81454357758E+02 -0.20691515446E+02  0.85611799900E+02  0.47000000000E+01 0. -1.
         -5    1    5    5    0  503  0.15157928824E+02 -0.34498977405E+02 -0.69458348134E+02  0.79161192347E+02  0.47000000000E+01 0. -1.
<mgrwt>
<rscale>  0 0.27487565E+03</rscale>
<asrwt>0</asrwt>
<pdfrwt beam="1">  1        1 0.13124566E-01 0.27487565E+03</pdfrwt>
<pdfrwt beam="2">  1       -1 0.34064410E-01 0.27487565E+03</pdfrwt>
<totfact> 0.36310988E+03</totfact>
</mgrwt>
</event>
<event>
 9    1  0.2051157E-002  0.2746888E+03  0.7818608E-02  0.1098626E+00
          1   -1    0    0  501    0  0.00000000000E+00  0.00000000000E+00  0.11717111279E+04  0.11717111279E+04  0.00000000000E+00 0. -1.
         -1   -1    0    0    0  501 -0.00000000000E+00 -0.00000000000E+00 -0.16099093989E+02  0.16099093989E+02  0.00000000000E+00 0. -1.
         36    2    1    2    0    0  0.00000000000E+00 -0.71054273576E-14  0.11556120340E+04  0.11878102219E+04  0.27468882450E+03 0.  0.
         25    2    3    3    0    0 -0.40762224797E+02  0.90401824641E+01  0.72784055638E+03  0.73955929993E+03  0.12430928657E+03 0.  0.
         25    2    3    3    0    0  0.40762224797E+02 -0.90401824641E+01  0.42777147758E+03  0.44825092201E+03  0.12726809570E+03 0.  0.
          5    1    4    4  502    0 -0.40004934624E+02  0.43116883047E+02  0.66746233911E+03  0.67006531363E+03  0.47000000000E+01 0. -1.
         -5    1    4    4    0  502 -0.75729017319E+00 -0.34076700583E+02  0.60378217269E+02  0.69493986298E+02  0.47000000000E+01 0. -1.
          5    1    5    5  503    0  0.49022949268E+02  0.48954873372E+02  0.16553209681E+03  0.17950708692E+03  0.47000000000E+01 0.  1.
         -5    1    5    5    0  503 -0.82607244712E+01 -0.57995055836E+02  0.26223938077E+03  0.26874383509E+03  0.47000000000E+01 0.  1.
<mgrwt>
<rscale>  0 0.27468882E+03</rscale>
<asrwt>0</asrwt>
<pdfrwt beam="1">  1        1 0.18026318E+00 0.27468882E+03</pdfrwt>
<pdfrwt beam="2">  1       -1 0.24767846E-02 0.27468882E+03</pdfrwt>
<totfact> 0.60009809E+03</totfact>
</mgrwt>
</event>
<event>
 9    1  0.2051157E-002  0.2748199E+03  0.7818608E-02  0.1098552E+00
          2   -1    0    0  501    0  0.00000000000E+00  0.00000000000E+00  0.43867557785E+02  0.43867557785E+02  0.00000000000E+00 0.  1.
         -2   -1    0    0    0  501 -0.00000000000E+00 -0.00000000000E+00 -0.43042044785E+03  0.43042044785E+03  0.00000000000E+00 0.  1.
         36    2    1    2    0    0  0.71054273576E-14 -0.71054273576E-14 -0.38655289006E+03  0.47428800563E+03  0.27481989642E+03 0.  0.
         25    2    3    3    0    0 -0.16879069251E+02 -0.60656739048E+02 -0.21666370498E+03  0.25478020053E+03  0.11834545432E+03 0.  0.
         25    2    3    3    0    0  0.16879069251E+02  0.60656739048E+02 -0.16988918509E+03  0.21950780510E+03  0.12392416358E+03 0.  0.
          5    1    4    4  502    0 -0.71635139825E+01 -0.93868936621E+02 -0.12403050844E+03  0.15578302289E+03  0.47000000000E+01 0. -1.
         -5    1    4    4    0  502 -0.97155552690E+01  0.33212197573E+02 -0.92633196534E+02  0.98997177647E+02  0.47000000000E+01 0. -1.
          5    1    5    5  503    0 -0.24259331258E+02  0.13926617066E+02  0.92222932157E+01  0.29826272112E+02  0.47000000000E+01 0. -1.
         -5    1    5    5    0  503  0.41138400509E+02  0.46730121982E+02 -0.17911147830E+03  0.18968153299E+03  0.47000000000E+01 0. -1.
<mgrwt>
<rscale>  0 0.27481990E+03</rscale>
<asrwt>0</asrwt>
<pdfrwt beam="1">  1        2 0.67488551E-02 0.27481990E+03</pdfrwt>
<pdfrwt beam="2">  1       -2 0.66218530E-01 0.27481990E+03</pdfrwt>
<totfact> 0.22699409E+03</totfact>
</mgrwt>
</event>
<event>
 9    1  0.2051157E-002  0.2751047E+03  0.7818608E-02  0.1098393E+00
         -2   -1    0    0    0  501 -0.00000000000E+00  0.00000000000E+00  0.12387647503E+02  0.12387647503E+02  0.00000000000E+00 0.  1.
          2   -1    0    0  501    0  0.00000000000E+00 -0.00000000000E+00 -0.15273807109E+04  0.15273807109E+04  0.00000000000E+00 0.  1.
         36    2    1    2    0    0  0.17763568394E-14 -0.71054273576E-14 -0.15149930634E+04  0.15397683585E+04  0.27510473533E+03 0.  0.
         25    2    3    3    0    0  0.46699512812E+01  0.20553705511E+02 -0.47108014481E+03  0.48789310013E+03  0.12521545855E+03 0.  0.
         25    2    3    3    0    0 -0.46699512812E+01 -0.20553705511E+02 -0.10439129186E+04  0.10518752583E+04  0.12744847637E+03 0.  0.
          5    1    4    4  502    0 -0.12980710981E+02 -0.22438229253E+02 -0.41074630391E+03  0.41159031715E+03  0.47000000000E+01 0. -1.
         -5    1    4    4    0  502  0.17650662262E+02  0.42991934765E+02 -0.60333840897E+02  0.76302782980E+02  0.47000000000E+01 0. -1.
          5    1    5    5  503    0 -0.83382914586E+01 -0.74208414057E+02 -0.56657462725E+03  0.57149393178E+03  0.47000000000E+01 0.  1.
         -5    1    5    5    0  503  0.36683401774E+01  0.53654708545E+02 -0.47733829139E+03  0.48038132655E+03  0.47000000000E+01 0.  1.
<mgrwt>
<rscale>  0 0.27510474E+03</rscale>
<asrwt>0</asrwt>
<pdfrwt beam="1">  1        2 0.23498157E+00 0.27510474E+03</pdfrwt>
<pdfrwt beam="2">  1       -2 0.19057926E-02 0.27510474E+03</pdfrwt>
<totfact> 0.10948814E+04</totfact>
</mgrwt>
</event>
<event>
 9    1  0.2051157E-002  0.2748503E+03  0.7818608E-02  0.1098535E+00
         -4   -1    0    0    0  501 -0.00000000000E+00  0.00000000000E+00  0.56037226767E+03  0.56037226767E+03  0.00000000000E+00 0.  1.
          4   -1    0    0  501    0  0.00000000000E+00 -0.00000000000E+00 -0.33702005310E+02  0.33702005310E+02  0.00000000000E+00 0.  1.
         36    2    1    2    0    0  0.71054273576E-14  0.17763568394E-14  0.52667026236E+03  0.59407427298E+03  0.27485028026E+03 0.  0.
         25    2    3    3    0    0  0.40137370272E+02  0.15884815766E+02  0.18501904472E+03  0.22770505977E+03  0.12551578177E+03 0.  0.
         25    2    3    3    0    0 -0.40137370272E+02 -0.15884815766E+02  0.34165121764E+03  0.36636921320E+03  0.12505003001E+03 0.  0.
          5    1    4    4  502    0  0.79157362148E+02 -0.17156421299E+02  0.12008997118E+03  0.14492729885E+03  0.47000000000E+01 0. -1.
         -5    1    4    4    0  502 -0.39019991876E+02  0.33041237065E+02  0.64929073532E+02  0.82777760917E+02  0.47000000000E+01 0. -1.
          5    1    5    5  503    0 -0.76437686228E+02 -0.70393191959E+01  0.12723336263E+03  0.14866973618E+03  0.47000000000E+01 0. -1.
         -5    1    5    5    0  503  0.36300315956E+02 -0.88454965699E+01  0.21441785501E+03  0.21769947702E+03  0.47000000000E+01 0. -1.
<mgrwt>
<rscale>  0 0.27485028E+03</rscale>
<asrwt>0</asrwt>
<pdfrwt beam="1">  1        4 0.51849243E-02 0.27485028E+03</pdfrwt>
<pdfrwt beam="2">  1       -4 0.86211111E-01 0.27485028E+03</pdfrwt>
<totfact> 0.50640960E+02</totfact>
</mgrwt>
</event>
<event>
 9    1  0.2051157E-002  0.2752331E+03  0.7818608E-02  0.1098321E+00
          1   -1    0    0  501    0  0.00000000000E+00  0.00000000000E+00  0.45441543205E+03  0.45441543205E+03  0.00000000000E+00 0.  1.
         -1   -1    0    0    0  501 -0.00000000000E+00 -0.00000000000E+00 -0.41676217575E+02  0.41676217575E+02  0.00000000000E+00 0.  1.
         36    2    1    2    0    0  0.71054273576E-14  0.71054273576E-14  0.41273921447E+03  0.49609164962E+03  0.27523311149E+03 0.  0.
         25    2    3    3    0    0  0.52254571279E+02  0.31579806234E+02  0.24861381520E+03  0.28651419429E+03  0.12866129970E+03 0.  0.
         25    2    3    3    0    0 -0.52254571279E+02 -0.31579806234E+02  0.16412539928E+03  0.20957745534E+03  0.11514225426E+03 0.  0.
          5    1    4    4  502    0  0.56523280553E+02 -0.98546133639E+01  0.23573477694E+03  0.24266225439E+03  0.47000000000E+01 0.  1.
         -5    1    4    4    0  502 -0.42687092738E+01  0.41434419598E+02  0.12879038259E+02  0.43851939897E+02  0.47000000000E+01 0.  1.
          5    1    5    5  503    0  0.27348090558E+02  0.93552063316E+01  0.93846773255E+01  0.30750611558E+02  0.47000000000E+01 0.  1.
         -5    1    5    5    0  503 -0.79602661837E+02 -0.40935012565E+02  0.15474072195E+03  0.17882684378E+03  0.47000000000E+01 0.  1.
<mgrwt>
<rscale>  0 0.27523311E+03</rscale>
<asrwt>0</asrwt>
<pdfrwt beam="1">  1        1 0.69910063E-01 0.27523311E+03</pdfrwt>
<pdfrwt beam="2">  1       -1 0.64117261E-02 0.27523311E+03</pdfrwt>
<totfact> 0.61624659E+03</totfact>
</mgrwt>
</event>
<event>
 9    1  0.2051157E-002  0.2741942E+03  0.7818608E-02  0.1098903E+00
          1   -1    0    0  501    0  0.00000000000E+00  0.00000000000E+00  0.43957808786E+03  0.43957808786E+03  0.00000000000E+00 0.  1.
         -1   -1    0    0    0  501 -0.00000000000E+00 -0.00000000000E+00 -0.42758316934E+02  0.42758316934E+02  0.00000000000E+00 0.  1.
         36    2    1    2    0    0  0.00000000000E+00  0.00000000000E+00  0.39681977092E+03  0.48233640479E+03  0.27419423187E+03 0.  0.
         25    2    3    3    0    0 -0.36351394361E+02  0.50795166145E+02  0.21885427937E+03  0.26027176688E+03  0.12626410519E+03 0.  0.
         25    2    3    3    0    0  0.36351394361E+02 -0.50795166145E+02  0.17796549155E+03  0.22206463791E+03  0.11721524837E+03 0.  0.
          5    1    4    4  502    0  0.17470930393E+02  0.57665670680E+02  0.18843554404E+03  0.19789039198E+03  0.47000000000E+01 0.  1.
         -5    1    4    4    0  502 -0.53822324754E+02 -0.68705045351E+01  0.30418735334E+02  0.62381374895E+02  0.47000000000E+01 0.  1.
          5    1    5    5  503    0 -0.34932411729E+00  0.32843532770E+02  0.17867300128E+02  0.37684878745E+02  0.47000000000E+01 0.  1.
         -5    1    5    5    0  503  0.36700718478E+02 -0.83638698915E+02  0.16009819142E+03  0.18437975917E+03  0.47000000000E+01 0.  1.
<mgrwt>
<rscale>  0 0.27419423E+03</rscale>
<asrwt>0</asrwt>
<pdfrwt beam="1">  1        1 0.67627395E-01 0.27419423E+03</pdfrwt>
<pdfrwt beam="2">  1       -1 0.65782029E-02 0.27419423E+03</pdfrwt>
<totfact> 0.61891476E+03</totfact>
</mgrwt>
</event>
<event>
 9    1  0.2051157E-002  0.2749702E+03  0.7818608E-02  0.1098468E+00
          1   -1    0    0  501    0  0.00000000000E+00  0.00000000000E+00  0.25432547937E+03  0.25432547937E+03  0.00000000000E+00 0.  1.
         -1   -1    0    0    0  501 -0.00000000000E+00 -0.00000000000E+00 -0.74322672076E+02  0.74322672076E+02  0.00000000000E+00 0.  1.
         36    2    1    2    0    0  0.00000000000E+00  0.00000000000E+00  0.18000280730E+03  0.32864815145E+03  0.27497017441E+03 0.  0.
         25    2    3    3    0    0 -0.45179933619E+02  0.17596616680E+02  0.45572607672E+02  0.13982232564E+03  0.12297378931E+03 0.  0.
         25    2    3    3    0    0  0.45179933619E+02 -0.17596616680E+02  0.13443019962E+03  0.18882582580E+03  0.12342141872E+03 0.  0.
          5    1    4    4  502    0 -0.15901662354E+02 -0.22715626916E+02 -0.35045409215E+02  0.44934766928E+02  0.47000000000E+01 0.  1.
         -5    1    4    4    0  502 -0.29278271265E+02  0.40312243597E+02  0.80618016887E+02  0.94887558715E+02  0.47000000000E+01 0.  1.
          5    1    5    5  503    0 -0.38281984765E+02  0.20420484524E+01  0.14353165816E+02  0.41204170765E+02  0.47000000000E+01 0. -1.
         -5    1    5    5    0  503  0.83461918384E+02 -0.19638665133E+02  0.12007703381E+03  0.14762165504E+03  0.47000000000E+01 0. -1.
<mgrwt>
<rscale>  0 0.27497017E+03</rscale>
<asrwt>0</asrwt>
<pdfrwt beam="1">  1        1 0.39126996E-01 0.27497017E+03</pdfrwt>
<pdfrwt beam="2">  1       -1 0.11434257E-01 0.27497017E+03</pdfrwt>
<totfact> 0.53043644E+03</totfact>
</mgrwt>
</event>
<event>
 9    1  0.2051157E-002  0.2745176E+03  0.7818608E-02  0.1098722E+00
         -2   -1    0    0    0  501 -0.00000000000E+00  0.00000000000E+00  0.38030195591E+02  0.38030195591E+02  0.00000000000E+00 0. -1.
          2   -1    0    0  501    0  0.00000000000E+00 -0.00000000000E+00 -0.49539512018E+03  0.49539512018E+03  0.00000000000E+00 0. -1.
         36    2    1    2    0    0 -0.88817841970E-15  0.00000000000E+00 -0.45736492459E+03  0.53342531577E+03  0.27451756458E+03 0.  0.
         25    2    3    3    0    0  0.54690520495E+01 -0.23517331696E+01 -0.11111011327E+03  0.16576868554E+03  0.12287537856E+03 0.  0.
         25    2    3    3    0    0 -0.54690520495E+01  0.23517331696E+01 -0.34625481132E+03  0.36765663023E+03  0.12346482175E+03 0.  0.
          5    1    4    4  502    0  0.17564491624E+02  0.43228621906E+02 -0.21473976712E+01  0.46945994874E+02  0.47000000000E+01 0. -1.
         -5    1    4    4    0  502 -0.12095439575E+02 -0.45580355076E+02 -0.10896271559E+03  0.11882269067E+03  0.47000000000E+01 0. -1.
          5    1    5    5  503    0 -0.91377946629E+01  0.59728735019E+02 -0.12372545574E+03  0.13777191105E+03  0.47000000000E+01 0. -1.
         -5    1    5    5    0  503  0.36687426134E+01 -0.57377001850E+02 -0.22252935559E+03  0.22988471918E+03  0.47000000000E+01 0. -1.
<mgrwt>
<rscale>  0 0.27451756E+03</rscale>
<asrwt>0</asrwt>
<pdfrwt beam="1">  1        2 0.76214629E-01 0.27451756E+03</pdfrwt>
<pdfrwt beam="2">  1       -2 0.58507997E-02 0.27451756E+03</pdfrwt>
<totfact> 0.96220425E+03</totfact>
</mgrwt>
</event>
<event>
 9    1  0.2051157E-002  0.2732662E+03  0.7818608E-02  0.1099425E+00
          1   -1    0    0  501    0  0.00000000000E+00  0.00000000000E+00  0.46849576643E+03  0.46849576643E+03  0.00000000000E+00 0. -1.
         -1   -1    0    0    0  501 -0.00000000000E+00 -0.00000000000E+00 -0.39847976641E+02  0.39847976641E+02  0.00000000000E+00 0. -1.
         36    2    1    2    0    0  0.35527136788E-14  0.71054273576E-14  0.42864778979E+03  0.50834374308E+03  0.27326623178E+03 0.  0.
         25    2    3    3    0    0 -0.10954956202E+02 -0.34107553954E+02  0.28860598618E+03  0.31596277766E+03  0.12351406926E+03 0.  0.
         25    2    3    3    0    0  0.10954956202E+02  0.34107553954E+02  0.14004180361E+03  0.19238096542E+03  0.12694641702E+03 0.  0.
          5    1    4    4  502    0 -0.22540069493E+02 -0.78764438557E+02  0.19208346119E+03  0.20887804475E+03  0.47000000000E+01 0. -1.
         -5    1    4    4    0  502  0.11585113290E+02  0.44656884603E+02  0.96522524990E+02  0.10708473291E+03  0.47000000000E+01 0. -1.
          5    1    5    5  503    0 -0.54186271493E+02  0.34920804936E+02  0.86158017943E+02  0.10770751455E+03  0.47000000000E+01 0.  1.
         -5    1    5    5    0  503  0.65141227696E+02 -0.81325098262E+00  0.53883785669E+02  0.84673450862E+02  0.47000000000E+01 0.  1.
<mgrwt>
<rscale>  0 0.27326623E+03</rscale>
<asrwt>0</asrwt>
<pdfrwt beam="1">  1        1 0.72076268E-01 0.27326623E+03</pdfrwt>
<pdfrwt beam="2">  1       -1 0.61304583E-02 0.27326623E+03</pdfrwt>
<totfact> 0.63350320E+03</totfact>
</mgrwt>
</event>
<event>
 9    1  0.2051157E-002  0.2757130E+03  0.7818608E-02  0.1098054E+00
          1   -1    0    0  501    0  0.00000000000E+00  0.00000000000E+00  0.52610526740E+03  0.52610526740E+03  0.00000000000E+00 0. -1.
         -1   -1    0    0    0  501 -0.00000000000E+00 -0.00000000000E+00 -0.36122831284E+02  0.36122831284E+02  0.00000000000E+00 0. -1.
         36    2    1    2    0    0  0.14210854715E-13  0.00000000000E+00  0.48998243612E+03  0.56222809869E+03  0.27571297983E+03 0.  0.
         25    2    3    3    0    0 -0.46018520787E+02  0.25927742530E+01  0.32077267784E+03  0.34715317500E+03  0.12448208438E+03 0.  0.
         25    2    3    3    0    0  0.46018520787E+02 -0.25927742530E+01  0.16920975828E+03  0.21507492369E+03  0.12450242475E+03 0.  0.
          5    1    4    4  502    0  0.31757062698E+02 -0.25587753458E+02  0.17232322925E+03  0.17714578600E+03  0.47000000000E+01 0. -1.
         -5    1    4    4    0  502 -0.77775583485E+02  0.28180527711E+02  0.14844944859E+03  0.17000738900E+03  0.47000000000E+01 0. -1.
          5    1    5    5  503    0  0.48443030166E+01 -0.15148680339E+02  0.17093597485E+03  0.17173860162E+03  0.47000000000E+01 0.  1.
         -5    1    5    5    0  503  0.41174217770E+02  0.12555906086E+02 -0.17262165723E+01  0.43336322067E+02  0.47000000000E+01 0.  1.
<mgrwt>
<rscale>  0 0.27571298E+03</rscale>
<asrwt>0</asrwt>
<pdfrwt beam="1">  1        1 0.80939266E-01 0.27571298E+03</pdfrwt>
<pdfrwt beam="2">  1       -1 0.55573590E-02 0.27571298E+03</pdfrwt>
<totfact> 0.62986502E+03</totfact>
</mgrwt>
</event>
<event>
 9    1  0.2051157E-002  0.2749509E+03  0.7818608E-02  0.1098479E+00
         -2   -1    0    0    0  501 -0.00000000000E+00  0.00000000000E+00  0.13507615816E+02  0.13507615816E+02  0.00000000000E+00 0. -1.
          2   -1    0    0  501    0  0.00000000000E+00 -0.00000000000E+00 -0.13991739377E+04  0.13991739377E+04  0.00000000000E+00 0. -1.
         36    2    1    2    0    0  0.00000000000E+00 -0.71054273576E-14 -0.13856663218E+04  0.14126815535E+04  0.27495093388E+03 0.  0.
         25    2    3    3    0    0  0.41216809762E+02  0.31981354665E+02 -0.52493517491E+03  0.54190212614E+03  0.12401348317E+03 0.  0.
         25    2    3    3    0    0 -0.41216809762E+02 -0.31981354665E+02 -0.86073114693E+03  0.87077942733E+03  0.12114896331E+03 0.  0.
          5    1    4    4  502    0  0.77009881833E+02  0.23120095065E+02 -0.21229974195E+03  0.22706459682E+03  0.47000000000E+01 0. -1.
         -5    1    4    4    0  502 -0.35793072071E+02  0.88612595998E+01 -0.31263543295E+03  0.31483752932E+03  0.47000000000E+01 0. -1.
          5    1    5    5  503    0  0.14745120396E+02 -0.61333866873E+02 -0.55197899583E+03  0.55559172388E+03  0.47000000000E+01 0.  1.
         -5    1    5    5    0  503 -0.55961930157E+02  0.29352512208E+02 -0.30875215110E+03  0.31518770346E+03  0.47000000000E+01 0.  1.
<mgrwt>
<rscale>  0 0.27495093E+03</rscale>
<asrwt>0</asrwt>
<pdfrwt beam="1">  1        2 0.21525740E+00 0.27495093E+03</pdfrwt>
<pdfrwt beam="2">  1       -2 0.20780960E-02 0.27495093E+03</pdfrwt>
<totfact> 0.11299004E+04</totfact>
</mgrwt>
</event>
<event>
 9    1  0.2051157E-002  0.2763701E+03  0.7818608E-02  0.1097688E+00
          2   -1    0    0  501    0  0.00000000000E+00  0.00000000000E+00  0.11786401949E+04  0.11786401949E+04  0.00000000000E+00 0.  1.
         -2   -1    0    0    0  501 -0.00000000000E+00 -0.00000000000E+00 -0.16200964166E+02  0.16200964166E+02  0.00000000000E+00 0.  1.
         36    2    1    2    0    0 -0.35527136788E-14  0.71054273576E-14  0.11624392307E+04  0.11948411590E+04  0.27637009651E+03 0.  0.
         25    2    3    3    0    0  0.89703951437E+01 -0.49546143498E+02  0.46009096578E+03  0.47857725038E+03  0.12172591944E+03 0.  0.
         25    2    3    3    0    0 -0.89703951437E+01  0.49546143498E+02  0.70234826492E+03  0.71626390865E+03  0.13117016916E+03 0.  0.
          5    1    4    4  502    0 -0.19388995612E+02  0.33538863472E+02  0.20712124093E+03  0.21076547857E+03  0.47000000000E+01 0. -1.
         -5    1    4    4    0  502  0.28359390755E+02 -0.83085006970E+02  0.25296972485E+03  0.26781177181E+03  0.47000000000E+01 0. -1.
          5    1    5    5  503    0  0.52704689322E+02  0.41879686127E+02  0.50002529470E+03  0.50455829963E+03  0.47000000000E+01 0. -1.
         -5    1    5    5    0  503 -0.61675084466E+02  0.76664573712E+01  0.20232297021E+03  0.21170560901E+03  0.47000000000E+01 0. -1.
<mgrwt>
<rscale>  0 0.27637010E+03</rscale>
<asrwt>0</asrwt>
<pdfrwt beam="1">  1        2 0.18132919E+00 0.27637010E+03</pdfrwt>
<pdfrwt beam="2">  1       -2 0.24924570E-02 0.27637010E+03</pdfrwt>
<totfact> 0.11459205E+04</totfact>
</mgrwt>
</event>
<event>
 9    1  0.2051157E-002  0.2745807E+03  0.7818608E-02  0.1098686E+00
         -1   -1    0    0    0  501 -0.00000000000E+00  0.00000000000E+00  0.10050656882E+02  0.10050656882E+02  0.00000000000E+00 0. -1.
          1   -1    0    0  501    0  0.00000000000E+00 -0.00000000000E+00 -0.18753639872E+04  0.18753639872E+04  0.00000000000E+00 0. -1.
         36    2    1    2    0    0  0.71054273576E-14 -0.71054273576E-14 -0.18653133304E+04  0.18854146441E+04  0.27458069827E+03 0.  0.
         25    2    3    3    0    0  0.31570168602E+02 -0.47864484991E+02 -0.75376981370E+03  0.76565015738E+03  0.12150533726E+03 0.  0.
         25    2    3    3    0    0 -0.31570168602E+02  0.47864484991E+02 -0.11115435167E+04  0.11197644867E+04  0.12270220811E+03 0.  0.
          5    1    4    4  502    0  0.47205369910E+02 -0.39827960416E+01 -0.65076113358E+03  0.65250007861E+03  0.47000000000E+01 0.  1.
         -5    1    4    4    0  502 -0.15635201308E+02 -0.43881688949E+02 -0.10300868012E+03  0.11315007877E+03  0.47000000000E+01 0.  1.
          5    1    5    5  503    0 -0.52763766743E+02  0.74078053948E+02 -0.57740778619E+03  0.58454547702E+03  0.47000000000E+01 0.  1.
         -5    1    5    5    0  503  0.21193598141E+02 -0.26213568957E+02 -0.53413573047E+03  0.53521900972E+03  0.47000000000E+01 0.  1.
<mgrwt>
<rscale>  0 0.27458070E+03</rscale>
<asrwt>0</asrwt>
<pdfrwt beam="1">  1        1 0.28851768E+00 0.27458070E+03</pdfrwt>
<pdfrwt beam="2">  1       -1 0.15462541E-02 0.27458070E+03</pdfrwt>
<totfact> 0.40590134E+03</totfact>
</mgrwt>
</event>
<event>
 9    1  0.2051157E-002  0.2746508E+03  0.7818608E-02  0.1098647E+00
         -2   -1    0    0    0  501 -0.00000000000E+00  0.00000000000E+00  0.25164202428E+02  0.25164202428E+02  0.00000000000E+00 0. -1.
          2   -1    0    0  501    0  0.00000000000E+00 -0.00000000000E+00 -0.74940848947E+03  0.74940848947E+03  0.00000000000E+00 0. -1.
         36    2    1    2    0    0 -0.35527136788E-14 -0.71054273576E-14 -0.72424428704E+03  0.77457269189E+03  0.27465081052E+03 0.  0.
         25    2    3    3    0    0 -0.18156240760E+00 -0.56004305505E+02 -0.42906004956E+03  0.45003284011E+03  0.12369525394E+03 0.  0.
         25    2    3    3    0    0  0.18156240760E+00  0.56004305505E+02 -0.29518423748E+03  0.32453985179E+03  0.12270234774E+03 0.  0.
          5    1    4    4  502    0  0.33993153841E+02 -0.81867212404E+02 -0.33501145963E+03  0.34657256536E+03  0.47000000000E+01 0.  1.
         -5    1    4    4    0  502 -0.34174716248E+02  0.25862906899E+02 -0.94048589930E+02  0.10346027475E+03  0.47000000000E+01 0.  1.
          5    1    5    5  503    0 -0.14633546917E+02 -0.20038509176E+02 -0.71719464117E+01  0.26252797198E+02  0.47000000000E+01 0. -1.
         -5    1    5    5    0  503  0.14815109324E+02  0.76042814681E+02 -0.28801229107E+03  0.29828705459E+03  0.47000000000E+01 0. -1.
<mgrwt>
<rscale>  0 0.27465081E+03</rscale>
<asrwt>0</asrwt>
<pdfrwt beam="1">  1        2 0.11529360E+00 0.27465081E+03</pdfrwt>
<pdfrwt beam="2">  1       -2 0.38714163E-02 0.27465081E+03</pdfrwt>
<totfact> 0.11086962E+04</totfact>
</mgrwt>
</event>
<event>
 9    1  0.2051157E-002  0.2780510E+03  0.7818608E-02  0.1096758E+00
          2   -1    0    0  501    0  0.00000000000E+00  0.00000000000E+00  0.19321379346E+04  0.19321379346E+04  0.00000000000E+00 0. -1.
         -2   -1    0    0    0  501 -0.00000000000E+00 -0.00000000000E+00 -0.10003471727E+02  0.10003471727E+02  0.00000000000E+00 0. -1.
         36    2    1    2    0    0  0.00000000000E+00  0.00000000000E+00  0.19221344629E+04  0.19421414064E+04  0.27805098239E+03 0.  0.
         25    2    3    3    0    0  0.48528113977E+02 -0.31527538032E+02  0.87546255176E+03  0.88590184238E+03  0.12263128188E+03 0.  0.
         25    2    3    3    0    0 -0.48528113977E+02  0.31527538032E+02  0.10466719112E+04  0.10562395640E+04  0.12950275456E+03 0.  0.
          5    1    4    4  502    0 -0.36522101754E+02 -0.97878732021E+01  0.13614917317E+03  0.14138017447E+03  0.47000000000E+01 0. -1.
         -5    1    4    4    0  502  0.85050215731E+02 -0.21739664830E+02  0.73931337858E+03  0.74452166790E+03  0.47000000000E+01 0. -1.
          5    1    5    5  503    0  0.83311829810E+01  0.35335557040E+02  0.81136977371E+02  0.89012972640E+02  0.47000000000E+01 0.  1.
         -5    1    5    5    0  503 -0.56859296958E+02 -0.38080190080E+01  0.96553493379E+03  0.96722659136E+03  0.47000000000E+01 0.  1.
<mgrwt>
<rscale>  0 0.27805098E+03</rscale>
<asrwt>0</asrwt>
<pdfrwt beam="1">  1        2 0.29725169E+00 0.27805098E+03</pdfrwt>
<pdfrwt beam="2">  1       -2 0.15389972E-02 0.27805098E+03</pdfrwt>
<totfact> 0.91663160E+03</totfact>
</mgrwt>
</event>
<event>
 9    1  0.2051157E-002  0.2743055E+03  0.7818608E-02  0.1098840E+00
          2   -1    0    0  501    0  0.00000000000E+00  0.00000000000E+00  0.12407251253E+04  0.12407251253E+04  0.00000000000E+00 0. -1.
         -2   -1    0    0    0  501 -0.00000000000E+00 -0.00000000000E+00 -0.15161199723E+02  0.15161199723E+02  0.00000000000E+00 0. -1.
         36    2    1    2    0    0  0.00000000000E+00 -0.17763568394E-14  0.12255639255E+04  0.12558863250E+04  0.27430553349E+03 0.  0.
         25    2    3    3    0    0  0.33381992820E+02 -0.74553572473E+01  0.74651314249E+03  0.76007724495E+03  0.13880060008E+03 0.  0.
         25    2    3    3    0    0 -0.33381992820E+02  0.74553572473E+01  0.47905078305E+03  0.49580908004E+03  0.12315458299E+03 0.  0.
          5    1    4    4  502    0 -0.53956659758E+02 -0.10801771552E+02  0.30842744772E+03  0.31333301758E+03  0.47000000000E+01 0. -1.
         -5    1    4    4    0  502  0.87338652578E+02  0.33464143042E+01  0.43808569477E+03  0.44674422736E+03  0.47000000000E+01 0. -1.
          5    1    5    5  503    0 -0.60181145657E+02 -0.13727126963E+02  0.43730038917E+03  0.44166041783E+03  0.47000000000E+01 0. -1.
         -5    1    5    5    0  503  0.26799152837E+02  0.21182484211E+02  0.41750393885E+02  0.54148662215E+02  0.47000000000E+01 0. -1.
<mgrwt>
<rscale>  0 0.27430553E+03</rscale>
<asrwt>0</asrwt>
<pdfrwt beam="1">  1        2 0.19088071E+00 0.27430553E+03</pdfrwt>
<pdfrwt beam="2">  1       -2 0.23324932E-02 0.27430553E+03</pdfrwt>
<totfact> 0.11653786E+04</totfact>
</mgrwt>
</event>
<event>
 9    1  0.2051157E-002  0.2755523E+03  0.7818608E-02  0.1098143E+00
         -2   -1    0    0    0  501 -0.00000000000E+00  0.00000000000E+00  0.20301889140E+02  0.20301889140E+02  0.00000000000E+00 0.  1.
          2   -1    0    0  501    0  0.00000000000E+00 -0.00000000000E+00 -0.93500020151E+03  0.93500020151E+03  0.00000000000E+00 0.  1.
         36    2    1    2    0    0 -0.14210854715E-13  0.71054273576E-14 -0.91469831237E+03  0.95530209065E+03  0.27555232125E+03 0.  0.
         25    2    3    3    0    0  0.42104629853E+02 -0.23051007690E+02 -0.46471685517E+03  0.48562231184E+03  0.13252594262E+03 0.  0.
         25    2    3    3    0    0 -0.42104629853E+02  0.23051007690E+02 -0.44998145721E+03  0.46967977882E+03  0.12574431991E+03 0.  0.
          5    1    4    4  502    0  0.42392657347E+02 -0.62769029492E+02 -0.41466882908E+03  0.42155594679E+03  0.47000000000E+01 0.  1.
         -5    1    4    4    0  502 -0.28802749323E+00  0.39718021802E+02 -0.50048026089E+02  0.64066365053E+02  0.47000000000E+01 0.  1.
          5    1    5    5  503    0  0.38496706129E+02  0.77771490242E+01 -0.65508533708E+02  0.76524103512E+02  0.47000000000E+01 0. -1.
         -5    1    5    5    0  503 -0.80601335982E+02  0.15273858665E+02 -0.38447292350E+03  0.39315567530E+03  0.47000000000E+01 0. -1.
<mgrwt>
<rscale>  0 0.27555232E+03</rscale>
<asrwt>0</asrwt>
<pdfrwt beam="1">  1        2 0.14384614E+00 0.27555232E+03</pdfrwt>
<pdfrwt beam="2">  1       -2 0.31233686E-02 0.27555232E+03</pdfrwt>
<totfact> 0.11470479E+04</totfact>
</mgrwt>
</event>
<event>
 9    1  0.2051157E-002  0.2745329E+03  0.7818608E-02  0.1098713E+00
          4   -1    0    0  501    0  0.00000000000E+00  0.00000000000E+00  0.15929286852E+03  0.15929286852E+03  0.00000000000E+00 0. -1.
         -4   -1    0    0    0  501 -0.00000000000E+00 -0.00000000000E+00 -0.11828573041E+03  0.11828573041E+03  0.00000000000E+00 0. -1.
         36    2    1    2    0    0  0.71054273576E-14  0.00000000000E+00  0.41007138107E+02  0.27757859894E+03  0.27453286363E+03 0.  0.
         25    2    3    3    0    0  0.57053440373E+02  0.78204303246E+01  0.63730004228E+00  0.13947534088E+03  0.12703035217E+03 0.  0.
         25    2    3    3    0    0 -0.57053440373E+02 -0.78204303246E+01  0.40369838064E+02  0.13810325806E+03  0.11885508770E+03 0.  0.
          5    1    4    4  502    0  0.35562826745E+02  0.19942603212E+02 -0.60654974589E+02  0.73236179661E+02  0.47000000000E+01 0. -1.
         -5    1    4    4    0  502  0.21490613628E+02 -0.12122172887E+02  0.61292274631E+02  0.66239161219E+02  0.47000000000E+01 0. -1.
          5    1    5    5  503    0 -0.13784470736E+02 -0.37552099319E+02 -0.29971156082E+02  0.50204900095E+02  0.47000000000E+01 0. -1.
         -5    1    5    5    0  503 -0.43268969637E+02  0.29731668994E+02  0.70340994146E+02  0.87898357960E+02  0.47000000000E+01 0. -1.
<mgrwt>
<rscale>  0 0.27453286E+03</rscale>
<asrwt>0</asrwt>
<pdfrwt beam="1">  1        4 0.24506595E-01 0.27453286E+03</pdfrwt>
<pdfrwt beam="2">  1       -4 0.18197805E-01 0.27453286E+03</pdfrwt>
<totfact> 0.77970063E+02</totfact>
</mgrwt>
</event>
<event>
 9    1  0.2051157E-002  0.2809307E+03  0.7818608E-02  0.1095182E+00
          1   -1    0    0  501    0  0.00000000000E+00  0.00000000000E+00  0.15933178699E+03  0.15933178699E+03  0.00000000000E+00 0. -1.
         -1   -1    0    0    0  501 -0.00000000000E+00 -0.00000000000E+00 -0.12383288236E+03  0.12383288236E+03  0.00000000000E+00 0. -1.
         36    2    1    2    0    0 -0.71054273576E-14 -0.17763568394E-14  0.35498904637E+02  0.28316466935E+03  0.28093069917E+03 0.  0.
         25    2    3    3    0    0 -0.40208001807E+02  0.41149113779E+01  0.63767384423E+02  0.14811819799E+03  0.12743274836E+03 0.  0.
         25    2    3    3    0    0  0.40208001807E+02 -0.41149113779E+01 -0.28268479786E+02  0.13504647136E+03  0.12571724851E+03 0.  0.
          5    1    4    4  502    0 -0.67320038496E+02  0.11630303749E+02  0.87430786186E+02  0.11105621964E+03  0.47000000000E+01 0.  1.
         -5    1    4    4    0  502  0.27112036688E+02 -0.75153923714E+01 -0.23663401763E+02  0.37061978346E+02  0.47000000000E+01 0.  1.
          5    1    5    5  503    0  0.20439388822E+02 -0.64712185120E+02 -0.17395144050E+02  0.70214788720E+02  0.47000000000E+01 0.  1.
         -5    1    5    5    0  503  0.19768612985E+02  0.60597273742E+02 -0.10873335736E+02  0.64831682643E+02  0.47000000000E+01 0.  1.
<mgrwt>
<rscale>  0 0.28093070E+03</rscale>
<asrwt>0</asrwt>
<pdfrwt beam="1">  1        1 0.24512583E-01 0.28093070E+03</pdfrwt>
<pdfrwt beam="2">  1       -1 0.19051213E-01 0.28093070E+03</pdfrwt>
<totfact> 0.42620175E+03</totfact>
</mgrwt>
</event>
<event>
 9    1  0.2051157E-002  0.2755322E+03  0.7818608E-02  0.1098154E+00
         -1   -1    0    0    0  501 -0.00000000000E+00  0.00000000000E+00  0.45137557369E+02  0.45137557369E+02  0.00000000000E+00 0. -1.
          1   -1    0    0  501    0  0.00000000000E+00 -0.00000000000E+00 -0.42048126395E+03  0.42048126395E+03  0.00000000000E+00 0. -1.
         36    2    1    2    0    0  0.00000000000E+00 -0.71054273576E-14 -0.37534370658E+03  0.46561882131E+03  0.27553219176E+03 0.  0.
         25    2    3    3    0    0 -0.16790973219E+01  0.14317463388E+02 -0.27612724490E+03  0.30491933829E+03  0.12853691438E+03 0.  0.
         25    2    3    3    0    0  0.16790973219E+01 -0.14317463388E+02 -0.99216461672E+02  0.16069948303E+03  0.12558904591E+03 0.  0.
          5    1    4    4  502    0 -0.31519575264E+02  0.54281622008E+02 -0.76323784172E+02  0.98931229361E+02  0.47000000000E+01 0.  1.
         -5    1    4    4    0  502  0.29840477942E+02 -0.39964158621E+02 -0.19980346073E+03  0.20598810893E+03  0.47000000000E+01 0.  1.
          5    1    5    5  503    0 -0.16779044046E+02  0.50052055326E+02 -0.69205744349E+02  0.87168053852E+02  0.47000000000E+01 0. -1.
         -5    1    5    5    0  503  0.18458141368E+02 -0.64369518714E+02 -0.30010717323E+02  0.73531429174E+02  0.47000000000E+01 0. -1.
<mgrwt>
<rscale>  0 0.27553219E+03</rscale>
<asrwt>0</asrwt>
<pdfrwt beam="1">  1        1 0.64689424E-01 0.27553219E+03</pdfrwt>
<pdfrwt beam="2">  1       -1 0.69442397E-02 0.27553219E+03</pdfrwt>
<totfact> 0.60398154E+03</totfact>
</mgrwt>
</event>
<event>
 8    1  0.2051157E-002  0.2568781E+03  0.7818608E-02  0.1109034E+00
          2   -1    0    0  501    0  0.00000000000E+00  0.00000000000E+00  0.37877836102E+03  0.37877836102E+03  0.00000000000E+00 0. -1.
         -2   -1    0    0    0  501 -0.00000000000E+00 -0.00000000000E+00 -0.43552084936E+02  0.43552084936E+02  0.00000000000E+00 0. -1.
         25    2    1    2    0    0  0.28948409267E+02  0.18188351653E+02  0.20399656831E+03  0.24198240624E+03  0.12558685646E+03 0.  0.
         25    2    1    2    0    0 -0.28948409267E+02 -0.18188351653E+02  0.13122970777E+03  0.18034803971E+03  0.11889218935E+03 0.  0.
          5    1    3    3  502    0  0.53523423301E+02 -0.39696223284E+02  0.11304220426E+03  0.13130566221E+03  0.47000000000E+01 0. -1.
         -5    1    3    3    0  502 -0.24575014034E+02  0.57884574937E+02  0.90954364051E+02  0.11067674404E+03  0.47000000000E+01 0. -1.
          5    1    4    4  503    0  0.85000626516E+01 -0.61537501238E+02  0.45549982127E+02  0.77175164370E+02  0.47000000000E+01 0.  1.
         -5    1    4    4    0  503 -0.37448471919E+02  0.43349149586E+02  0.85679725646E+02  0.10317287534E+03  0.47000000000E+01 0.  1.
<mgrwt>
<rscale>  0 0.25687808E+03</rscale>
<asrwt>0</asrwt>
<pdfrwt beam="1">  1        2 0.58273592E-01 0.25687808E+03</pdfrwt>
<pdfrwt beam="2">  1       -2 0.67003210E-02 0.25687808E+03</pdfrwt>
<totfact> 0.10455310E+04</totfact>
</mgrwt>
</event>
<event>
 9    1  0.2051157E-002  0.2851394E+03  0.7818608E-02  0.1092915E+00
         -1   -1    0    0    0  501 -0.00000000000E+00  0.00000000000E+00  0.10277162919E+03  0.10277162919E+03  0.00000000000E+00 0. -1.
          1   -1    0    0  501    0  0.00000000000E+00 -0.00000000000E+00 -0.19777947223E+03  0.19777947223E+03  0.00000000000E+00 0. -1.
         36    2    1    2    0    0  0.17763568394E-14 -0.71054273576E-14 -0.95007843043E+02  0.30055110141E+03  0.28513939455E+03 0.  0.
         25    2    3    3    0    0  0.79615304099E+01 -0.80182739208E+01 -0.11249812669E+03  0.16744209183E+03  0.12350444091E+03 0.  0.
         25    2    3    3    0    0 -0.79615304099E+01  0.80182739208E+01  0.17490283651E+02  0.13310900958E+03  0.13147022372E+03 0.  0.
          5    1    4    4  502    0  0.18996966865E+02 -0.53131280836E+02 -0.10618377927E+03  0.12033662258E+03  0.47000000000E+01 0. -1.
         -5    1    4    4    0  502 -0.11035436455E+02  0.45113006915E+02 -0.63143474253E+01  0.47105469259E+02  0.47000000000E+01 0. -1.
          5    1    5    5  503    0 -0.32876443452E+02  0.62347265939E+02  0.18945691363E+02  0.73137345627E+02  0.47000000000E+01 0. -1.
         -5    1    5    5    0  503  0.24914913042E+02 -0.54328992018E+02 -0.14554077114E+01  0.59971663952E+02  0.47000000000E+01 0. -1.
<mgrwt>
<rscale>  0 0.28513939E+03</rscale>
<asrwt>0</asrwt>
<pdfrwt beam="1">  1        1 0.30427611E-01 0.28513939E+03</pdfrwt>
<pdfrwt beam="2">  1       -1 0.15811020E-01 0.28513939E+03</pdfrwt>
<totfact> 0.43730786E+03</totfact>
</mgrwt>
</event>
<event>
 9    1  0.2051157E-002  0.2748871E+03  0.7818608E-02  0.1098515E+00
          3   -1    0    0  501    0  0.00000000000E+00  0.00000000000E+00  0.15267120085E+03  0.15267120085E+03  0.00000000000E+00 0. -1.
         -3   -1    0    0    0  501 -0.00000000000E+00 -0.00000000000E+00 -0.12373469430E+03  0.12373469430E+03  0.00000000000E+00 0. -1.
         36    2    1    2    0    0  0.00000000000E+00  0.00000000000E+00  0.28936506557E+02  0.27640589515E+03  0.27488706311E+03 0.  0.
         25    2    3    3    0    0 -0.42410740692E+02 -0.22435735405E+02  0.13010716920E+02  0.14044384298E+03  0.13135128902E+03 0.  0.
         25    2    3    3    0    0  0.42410740692E+02  0.22435735405E+02  0.15925789638E+02  0.13596205217E+03  0.12621416603E+03 0.  0.
          5    1    4    4  502    0 -0.44599244983E+02 -0.12942991239E+02 -0.54680795589E+02  0.71893623372E+02  0.47000000000E+01 0. -1.
         -5    1    4    4    0  502  0.21885042908E+01 -0.94927441662E+01  0.67691512508E+02  0.68550219610E+02  0.47000000000E+01 0. -1.
          5    1    5    5  503    0  0.18353910081E+02  0.10992664935E+02  0.71162368318E+02  0.74457218335E+02  0.47000000000E+01 0. -1.
         -5    1    5    5    0  503  0.24056830611E+02  0.11443070470E+02 -0.55236578680E+02  0.61504833836E+02  0.47000000000E+01 0. -1.
<mgrwt>
<rscale>  0 0.27488706E+03</rscale>
<asrwt>0</asrwt>
<pdfrwt beam="1">  1        3 0.23487877E-01 0.27488706E+03</pdfrwt>
<pdfrwt beam="2">  1       -3 0.19036107E-01 0.27488706E+03</pdfrwt>
<totfact> 0.10481053E+03</totfact>
</mgrwt>
</event>
<event>
 9    1  0.2051157E-002  0.2740270E+03  0.7818608E-02  0.1098997E+00
          2   -1    0    0  501    0  0.00000000000E+00  0.00000000000E+00  0.10034462278E+04  0.10034462278E+04  0.00000000000E+00 0.  1.
         -2   -1    0    0    0  501 -0.00000000000E+00 -0.00000000000E+00 -0.18708226349E+02  0.18708226349E+02  0.00000000000E+00 0.  1.
         36    2    1    2    0    0  0.71054273576E-14  0.00000000000E+00  0.98473800146E+03  0.10221544542E+04  0.27402699983E+03 0.  0.
         25    2    3    3    0    0 -0.55663624774E+02  0.52630854068E+01  0.44278330636E+03  0.46334193667E+03  0.12450925545E+03 0.  0.
         25    2    3    3    0    0  0.55663624774E+02 -0.52630854068E+01  0.54195469510E+03  0.55881251749E+03  0.12421915702E+03 0.  0.
          5    1    4    4  502    0  0.27359452727E+02  0.26555262108E+02  0.61475754363E+02  0.72491930403E+02  0.47000000000E+01 0.  1.
         -5    1    4    4    0  502 -0.83023077501E+02 -0.21292176701E+02  0.38130755200E+03  0.39085000626E+03  0.47000000000E+01 0.  1.
          5    1    5    5  503    0  0.46189443205E+02 -0.58906771562E+02  0.22487993500E+03  0.23705811010E+03  0.47000000000E+01 0. -1.
         -5    1    5    5    0  503  0.94741815689E+01  0.53643686155E+02  0.31707476011E+03  0.32175440739E+03  0.47000000000E+01 0. -1.
<mgrwt>
<rscale>  0 0.27402700E+03</rscale>
<asrwt>0</asrwt>
<pdfrwt beam="1">  1        2 0.15437630E+00 0.27402700E+03</pdfrwt>
<pdfrwt beam="2">  1       -2 0.28781895E-02 0.27402700E+03</pdfrwt>
<totfact> 0.11742724E+04</totfact>
</mgrwt>
</event>
<event>
 9    1  0.2051157E-002  0.2709099E+03  0.7818608E-02  0.1100760E+00
         -3   -1    0    0    0  501 -0.00000000000E+00  0.00000000000E+00  0.55010065033E+02  0.55010065033E+02  0.00000000000E+00 0. -1.
          3   -1    0    0  501    0  0.00000000000E+00 -0.00000000000E+00 -0.33353967326E+03  0.33353967326E+03  0.00000000000E+00 0. -1.
         36    2    1    2    0    0  0.00000000000E+00 -0.35527136788E-14 -0.27852960823E+03  0.38854973829E+03  0.27090986780E+03 0.  0.
         25    2    3    3    0    0 -0.46511293981E+02 -0.29445555553E+01 -0.17373190403E+03  0.21937458025E+03  0.12558049652E+03 0.  0.
         25    2    3    3    0    0  0.46511293981E+02  0.29445555553E+01 -0.10479770420E+03  0.16917515804E+03  0.12436118534E+03 0.  0.
          5    1    4    4  502    0 -0.46993280547E+02 -0.19861103349E+02 -0.69882025704E+01  0.51708382473E+02  0.47000000000E+01 0.  1.
         -5    1    4    4    0  502  0.48198656590E+00  0.16916547794E+02 -0.16674370146E+03  0.16766619778E+03  0.47000000000E+01 0.  1.
          5    1    5    5  503    0  0.14018522369E+01 -0.45462083225E+02 -0.69063457423E+00  0.45731096389E+02  0.47000000000E+01 0.  1.
         -5    1    5    5    0  503  0.45109441744E+02  0.48406638780E+02 -0.10410706962E+03  0.12344406165E+03  0.47000000000E+01 0.  1.
<mgrwt>
<rscale>  0 0.27090987E+03</rscale>
<asrwt>0</asrwt>
<pdfrwt beam="1">  1        3 0.51313796E-01 0.27090987E+03</pdfrwt>
<pdfrwt beam="2">  1       -3 0.84630870E-02 0.27090987E+03</pdfrwt>
<totfact> 0.93655913E+02</totfact>
</mgrwt>
</event>
<event>
 9    1  0.2051157E-002  0.2751845E+03  0.7818608E-02  0.1098349E+00
         -2   -1    0    0    0  501 -0.00000000000E+00  0.00000000000E+00  0.16604058623E+02  0.16604058623E+02  0.00000000000E+00 0.  1.
          2   -1    0    0  501    0  0.00000000000E+00 -0.00000000000E+00 -0.11401803378E+04  0.11401803378E+04  0.00000000000E+00 0.  1.
         36    2    1    2    0    0  0.00000000000E+00  0.00000000000E+00 -0.11235762792E+04  0.11567843965E+04  0.27518445574E+03 0.  0.
         25    2    3    3    0    0 -0.72120623676E+02 -0.14952981852E+02 -0.49199628702E+03  0.50905492475E+03  0.10794254929E+03 0.  0.
         25    2    3    3    0    0  0.72120623676E+02  0.14952981852E+02 -0.63157999219E+03  0.64772947170E+03  0.12343097647E+03 0.  0.
          5    1    4    4  502    0 -0.80227214160E+02  0.18075208146E+02 -0.22026686654E+03  0.23516526431E+03  0.47000000000E+01 0. -1.
         -5    1    4    4    0  502  0.81065904845E+01 -0.33028189998E+02 -0.27172942048E+03  0.27388966044E+03  0.47000000000E+01 0. -1.
          5    1    5    5  503    0  0.65785719759E+02  0.15722775953E+02 -0.13484457274E+03  0.15093082987E+03  0.47000000000E+01 0.  1.
         -5    1    5    5    0  503  0.63349039163E+01 -0.76979410067E+00 -0.49673541945E+03  0.49679864184E+03  0.47000000000E+01 0.  1.
<mgrwt>
<rscale>  0 0.27518446E+03</rscale>
<asrwt>0</asrwt>
<pdfrwt beam="1">  1        2 0.17541232E+00 0.27518446E+03</pdfrwt>
<pdfrwt beam="2">  1       -2 0.25544711E-02 0.27518446E+03</pdfrwt>
<totfact> 0.11626087E+04</totfact>
</mgrwt>
</event>
<event>
 9    1  0.2051157E-002  0.2760822E+03  0.7818608E-02  0.1097848E+00
          2   -1    0    0  501    0  0.00000000000E+00  0.00000000000E+00  0.27613884985E+04  0.27613884985E+04  0.00000000000E+00 0. -1.
         -2   -1    0    0    0  501 -0.00000000000E+00 -0.00000000000E+00 -0.69006398409E+01  0.69006398409E+01  0.00000000000E+00 0. -1.
         36    2    1    2    0    0  0.00000000000E+00  0.00000000000E+00  0.27544878587E+04  0.27682891384E+04  0.27608221594E+03 0.  0.
         25    2    3    3    0    0  0.36271638128E+02 -0.38589333435E+02  0.18741901251E+04  0.18791143295E+04  0.12520890583E+03 0.  0.
         25    2    3    3    0    0 -0.36271638128E+02  0.38589333435E+02  0.88029773364E+03  0.88917480888E+03  0.11359125186E+03 0.  0.
          5    1    4    4  502    0  0.11108882917E+02 -0.10273567607E+02  0.17264523639E+04  0.17265250674E+04  0.47000000000E+01 0. -1.
         -5    1    4    4    0  502  0.25162755210E+02 -0.28315765828E+02  0.14773776115E+03  0.15258926212E+03  0.47000000000E+01 0. -1.
          5    1    5    5  503    0  0.31675392228E+02  0.45002225149E+02  0.32218425715E+03  0.32688425520E+03  0.47000000000E+01 0. -1.
         -5    1    5    5    0  503 -0.67947030356E+02 -0.64128917137E+01  0.55811347649E+03  0.56229055368E+03  0.47000000000E+01 0. -1.
<mgrwt>
<rscale>  0 0.27608222E+03</rscale>
<asrwt>0</asrwt>
<pdfrwt beam="1">  1        2 0.42482812E+00 0.27608222E+03</pdfrwt>
<pdfrwt beam="2">  1       -2 0.10616391E-02 0.27608222E+03</pdfrwt>
<totfact> 0.56018028E+03</totfact>
</mgrwt>
</event>
<event>
 9    1  0.2051157E-002  0.2750356E+03  0.7818608E-02  0.1098432E+00
         -2   -1    0    0    0  501 -0.00000000000E+00  0.00000000000E+00  0.16661025383E+02  0.16661025383E+02  0.00000000000E+00 0. -1.
          2   -1    0    0  501    0  0.00000000000E+00 -0.00000000000E+00 -0.11350531396E+04  0.11350531396E+04  0.00000000000E+00 0. -1.
         36    2    1    2    0    0  0.00000000000E+00  0.17763568394E-14 -0.11183921142E+04  0.11517141649E+04  0.27503562801E+03 0.  0.
         25    2    3    3    0    0 -0.28075928300E+02 -0.13222862804E+02 -0.37317795684E+03  0.39545724600E+03  0.12712806179E+03 0.  0.
         25    2    3    3    0    0  0.28075928300E+02  0.13222862804E+02 -0.74521415733E+03  0.75625691893E+03  0.12496913737E+03 0.  0.
          5    1    4    4  502    0  0.37890659847E+02  0.11228345873E+02 -0.25308810912E+03  0.25619808514E+03  0.47000000000E+01 0. -1.
         -5    1    4    4    0  502 -0.65966588148E+02 -0.24451208677E+02 -0.12008984772E+03  0.13925916086E+03  0.47000000000E+01 0. -1.
          5    1    5    5  503    0  0.26928839892E+02 -0.52735648405E+02 -0.43764569340E+03  0.44165830003E+03  0.47000000000E+01 0.  1.
         -5    1    5    5    0  503  0.11470884079E+01  0.65958511209E+02 -0.30756846393E+03  0.31459861891E+03  0.47000000000E+01 0.  1.
<mgrwt>
<rscale>  0 0.27503563E+03</rscale>
<asrwt>0</asrwt>
<pdfrwt beam="1">  1        2 0.17462354E+00 0.27503563E+03</pdfrwt>
<pdfrwt beam="2">  1       -2 0.25632349E-02 0.27503563E+03</pdfrwt>
<totfact> 0.11646501E+04</totfact>
</mgrwt>
</event>
<event>
 9    1  0.2051157E-002  0.2754270E+03  0.7818608E-02  0.1098213E+00
          2   -1    0    0  501    0  0.00000000000E+00  0.00000000000E+00  0.19355681075E+04  0.19355681075E+04  0.00000000000E+00 0.  1.
         -2   -1    0    0    0  501 -0.00000000000E+00 -0.00000000000E+00 -0.97981593942E+01  0.97981593942E+01  0.00000000000E+00 0.  1.
         36    2    1    2    0    0  0.00000000000E+00 -0.71054273576E-14  0.19257699481E+04  0.19453662669E+04  0.27542697643E+03 0.  0.
         25    2    3    3    0    0  0.56771619336E+02  0.23767390492E+02  0.10926292609E+04  0.11008419542E+04  0.11927447720E+03 0.  0.
         25    2    3    3    0    0 -0.56771619336E+02 -0.23767390492E+02  0.83314068725E+03  0.84452431266E+03  0.12373360219E+03 0.  0.
          5    1    4    4  502    0  0.93108003173E+02  0.27984982155E+02  0.79185832268E+03  0.79781824539E+03  0.47000000000E+01 0. -1.
         -5    1    4    4    0  502 -0.36336383837E+02 -0.42175916637E+01  0.30077093818E+03  0.30302370885E+03  0.47000000000E+01 0. -1.
          5    1    5    5  503    0  0.17187648529E+02  0.34696341211E+00  0.56517447667E+03  0.56545540472E+03  0.47000000000E+01 0.  1.
         -5    1    5    5    0  503 -0.73959267866E+02 -0.24114353904E+02  0.26796621057E+03  0.27906890794E+03  0.47000000000E+01 0.  1.
<mgrwt>
<rscale>  0 0.27542698E+03</rscale>
<asrwt>0</asrwt>
<pdfrwt beam="1">  1        2 0.29777940E+00 0.27542698E+03</pdfrwt>
<pdfrwt beam="2">  1       -2 0.15074107E-02 0.27542698E+03</pdfrwt>
<totfact> 0.94087250E+03</totfact>
</mgrwt>
</event>
<event>
 9    1  0.2051157E-002  0.2751579E+03  0.7818608E-02  0.1098363E+00
          1   -1    0    0  501    0  0.00000000000E+00  0.00000000000E+00  0.23847977589E+03  0.23847977589E+03  0.00000000000E+00 0. -1.
         -1   -1    0    0    0  501 -0.00000000000E+00 -0.00000000000E+00 -0.79369294568E+02  0.79369294568E+02  0.00000000000E+00 0. -1.
         36    2    1    2    0    0  0.71054273576E-14 -0.71054273576E-14  0.15911048132E+03  0.31784907045E+03  0.27515792978E+03 0.  0.
         25    2    3    3    0    0 -0.12730699066E+02  0.39630150238E+02  0.59215573276E+02  0.15349694170E+03  0.13535954893E+03 0.  0.
         25    2    3    3    0    0  0.12730699066E+02 -0.39630150238E+02  0.99894908041E+02  0.16435212875E+03  0.12369320946E+03 0.  0.
          5    1    4    4  502    0  0.42801814872E+02  0.60284686186E+02  0.57936759017E+02  0.94047843092E+02  0.47000000000E+01 0. -1.
         -5    1    4    4    0  502 -0.55532513938E+02 -0.20654535948E+02  0.12788142596E+01  0.59449098609E+02  0.47000000000E+01 0. -1.
          5    1    5    5  503    0  0.65697019015E+02 -0.13069683867E+02  0.32852435931E+02  0.74754849277E+02  0.47000000000E+01 0.  1.
         -5    1    5    5    0  503 -0.52966319949E+02 -0.26560466371E+02  0.67042472110E+02  0.89597279475E+02  0.47000000000E+01 0.  1.
<mgrwt>
<rscale>  0 0.27515793E+03</rscale>
<asrwt>0</asrwt>
<pdfrwt beam="1">  1        1 0.36689196E-01 0.27515793E+03</pdfrwt>
<pdfrwt beam="2">  1       -1 0.12210661E-01 0.27515793E+03</pdfrwt>
<totfact> 0.51903631E+03</totfact>
</mgrwt>
</event>
<event>
 9    1  0.2051157E-002  0.2764798E+03  0.7818608E-02  0.1097627E+00
         -1   -1    0    0    0  501 -0.00000000000E+00  0.00000000000E+00  0.74801189663E+02  0.74801189663E+02  0.00000000000E+00 0.  1.
          1   -1    0    0  501    0  0.00000000000E+00 -0.00000000000E+00 -0.25548074872E+03  0.25548074872E+03  0.00000000000E+00 0.  1.
         36    2    1    2    0    0 -0.35527136788E-14  0.00000000000E+00 -0.18067955906E+03  0.33028193839E+03  0.27647975651E+03 0.  0.
         25    2    3    3    0    0  0.23307684844E+02  0.31337527760E+02 -0.33611098512E+02  0.13419497418E+03  0.12390841914E+03 0.  0.
         25    2    3    3    0    0 -0.23307684844E+02 -0.31337527760E+02 -0.14706846055E+03  0.19608696421E+03  0.12367569132E+03 0.  0.
          5    1    4    4  502    0  0.68340296916E+02  0.41979721040E+02 -0.70900975175E+01  0.80653906564E+02  0.47000000000E+01 0. -1.
         -5    1    4    4    0  502 -0.45032612072E+02 -0.10642193280E+02 -0.26521000995E+02  0.53541067617E+02  0.47000000000E+01 0. -1.
          5    1    5    5  503    0 -0.17642961223E+02  0.26554872042E+02 -0.13191348751E+03  0.13579283301E+03  0.47000000000E+01 0.  1.
         -5    1    5    5    0  503 -0.56647236210E+01 -0.57892399802E+02 -0.15154973035E+02  0.60294131192E+02  0.47000000000E+01 0.  1.
<mgrwt>
<rscale>  0 0.27647976E+03</rscale>
<asrwt>0</asrwt>
<pdfrwt beam="1">  1        1 0.39304731E-01 0.27647976E+03</pdfrwt>
<pdfrwt beam="2">  1       -1 0.11507875E-01 0.27647976E+03</pdfrwt>
<totfact> 0.52227202E+03</totfact>
</mgrwt>
</event>
<event>
 9    1  0.2051157E-002  0.2752440E+03  0.7818608E-02  0.1098315E+00
          2   -1    0    0  501    0  0.00000000000E+00  0.00000000000E+00  0.14068075846E+04  0.14068075846E+04  0.00000000000E+00 0.  1.
         -2   -1    0    0    0  501 -0.00000000000E+00 -0.00000000000E+00 -0.13462976734E+02  0.13462976734E+02  0.00000000000E+00 0.  1.
         36    2    1    2    0    0 -0.17763568394E-14 -0.14210854715E-13  0.13933446079E+04  0.14202705614E+04  0.27524402105E+03 0.  0.
         25    2    3    3    0    0  0.20771401224E+01  0.78300079728E+02  0.89093350372E+03  0.90115241692E+03  0.11035376514E+03 0.  0.
         25    2    3    3    0    0 -0.20771401224E+01 -0.78300079728E+02  0.50241110419E+03  0.51911814445E+03  0.10455387745E+03 0.  0.
          5    1    4    4  502    0  0.47752980432E+02  0.10391442430E+02  0.23190008360E+03  0.23704022442E+03  0.47000000000E+01 0. -1.
         -5    1    4    4    0  502 -0.45675840310E+02  0.67908637298E+02  0.65903342011E+03  0.66411219251E+03  0.47000000000E+01 0. -1.
          5    1    5    5  503    0  0.10663675922E+02 -0.34841205164E+01  0.33530344917E+03  0.33552398738E+03  0.47000000000E+01 0. -1.
         -5    1    5    5    0  503 -0.12740816045E+02 -0.74815959212E+02  0.16710765502E+03  0.18359415708E+03  0.47000000000E+01 0. -1.
<mgrwt>
<rscale>  0 0.27524402E+03</rscale>
<asrwt>0</asrwt>
<pdfrwt beam="1">  1        2 0.21643182E+00 0.27524402E+03</pdfrwt>
<pdfrwt beam="2">  1       -2 0.20712283E-02 0.27524402E+03</pdfrwt>
<totfact> 0.11246685E+04</totfact>
</mgrwt>
</event>
<event>
 9    1  0.2051157E-002  0.2746664E+03  0.7818608E-02  0.1098638E+00
         -1   -1    0    0    0  501 -0.00000000000E+00  0.00000000000E+00  0.75596794948E+01  0.75596794948E+01  0.00000000000E+00 0.  1.
          1   -1    0    0  501    0  0.00000000000E+00 -0.00000000000E+00 -0.24948686568E+04  0.24948686568E+04  0.00000000000E+00 0.  1.
         36    2    1    2    0    0  0.35527136788E-14  0.00000000000E+00 -0.24873089773E+04  0.25024283363E+04  0.27466639712E+03 0.  0.
         25    2    3    3    0    0 -0.53435553984E+01  0.41836974625E+02 -0.16148573712E+04  0.16204826563E+04  0.12814376363E+03 0.  0.
         25    2    3    3    0    0  0.53435553984E+01 -0.41836974625E+02 -0.87245160610E+03  0.88194567995E+03  0.12197332233E+03 0.  0.
          5    1    4    4  502    0 -0.32107133411E+02 -0.38192445897E+02 -0.55209724483E+03  0.55436719662E+03  0.47000000000E+01 0.  1.
         -5    1    4    4    0  502  0.26763578012E+02  0.80029420522E+02 -0.10627601264E+04  0.10661154597E+04  0.47000000000E+01 0.  1.
          5    1    5    5  503    0 -0.48483709880E+02 -0.53637802957E+02 -0.55545231625E+03  0.56015805775E+03  0.47000000000E+01 0. -1.
         -5    1    5    5    0  503  0.53827265279E+02  0.11800828332E+02 -0.31699928985E+03  0.32178762220E+03  0.47000000000E+01 0. -1.
<mgrwt>
<rscale>  0 0.27466640E+03</rscale>
<asrwt>0</asrwt>
<pdfrwt beam="1">  1        1 0.38382584E+00 0.27466640E+03</pdfrwt>
<pdfrwt beam="2">  1       -1 0.11630279E-02 0.27466640E+03</pdfrwt>
<totfact> 0.24151601E+03</totfact>
</mgrwt>
</event>
<event>
 9    1  0.2051157E-002  0.2699365E+03  0.7818608E-02  0.1101316E+00
          4   -1    0    0  501    0  0.00000000000E+00  0.00000000000E+00  0.29691419139E+02  0.29691419139E+02  0.00000000000E+00 0. -1.
         -4   -1    0    0    0  501 -0.00000000000E+00 -0.00000000000E+00 -0.61352507050E+03  0.61352507050E+03  0.00000000000E+00 0. -1.
         36    2    1    2    0    0  0.00000000000E+00  0.00000000000E+00 -0.58383365136E+03  0.64321648964E+03  0.26993651121E+03 0.  0.
         25    2    3    3    0    0  0.33595589095E+01 -0.58674149515E+02 -0.23960292689E+03  0.27689448969E+03  0.12572610464E+03 0.  0.
         25    2    3    3    0    0 -0.33595589095E+01  0.58674149515E+02 -0.34423072447E+03  0.36632199995E+03  0.11064842304E+03 0.  0.
          5    1    4    4  502    0 -0.38799293424E+02 -0.11257732712E+02 -0.14830743410E+02  0.43291600411E+02  0.47000000000E+01 0.  1.
         -5    1    4    4    0  502  0.42158852333E+02 -0.47416416803E+02 -0.22477218348E+03  0.23360288928E+03  0.47000000000E+01 0.  1.
          5    1    5    5  503    0 -0.43467726460E+02  0.43639086570E+02 -0.29270694587E+03  0.29915423995E+03  0.47000000000E+01 0.  1.
         -5    1    5    5    0  503  0.40108167550E+02  0.15035062945E+02 -0.51523778596E+02  0.67167759996E+02  0.47000000000E+01 0.  1.
<mgrwt>
<rscale>  0 0.26993651E+03</rscale>
<asrwt>0</asrwt>
<pdfrwt beam="1">  1        4 0.45679108E-02 0.26993651E+03</pdfrwt>
<pdfrwt beam="2">  1       -4 0.94388470E-01 0.26993651E+03</pdfrwt>
<totfact> 0.50409241E+02</totfact>
</mgrwt>
</event>
<event>
 9    1  0.2051157E-002  0.2752435E+03  0.7818608E-02  0.1098316E+00
         -2   -1    0    0    0  501 -0.00000000000E+00  0.00000000000E+00  0.20143620276E+03  0.20143620276E+03  0.00000000000E+00 0.  1.
          2   -1    0    0  501    0  0.00000000000E+00 -0.00000000000E+00 -0.94023535769E+02  0.94023535769E+02  0.00000000000E+00 0.  1.
         36    2    1    2    0    0 -0.71054273576E-14  0.00000000000E+00  0.10741266699E+03  0.29545973853E+03  0.27524348505E+03 0.  0.
         25    2    3    3    0    0 -0.39590593771E+02  0.34022020273E+02  0.54658547037E+02  0.14667469363E+03  0.12570201275E+03 0.  0.
         25    2    3    3    0    0  0.39590593771E+02 -0.34022020273E+02  0.52754119950E+02  0.14878504489E+03  0.12895378797E+03 0.  0.
          5    1    4    4  502    0 -0.41799217141E+02 -0.39765077541E+02  0.61308139338E+01  0.58207498013E+02  0.47000000000E+01 0.  1.
         -5    1    4    4    0  502  0.22086233697E+01  0.73787097814E+02  0.48527733103E+02  0.88467195622E+02  0.47000000000E+01 0.  1.
          5    1    5    5  503    0 -0.40293737324E+02  0.20845739531E+01 -0.88025642727E+01  0.41563275303E+02  0.47000000000E+01 0.  1.
         -5    1    5    5    0  503  0.79884331095E+02 -0.36106594226E+02  0.61556684222E+02  0.10722176959E+03  0.47000000000E+01 0.  1.
<mgrwt>
<rscale>  0 0.27524349E+03</rscale>
<asrwt>0</asrwt>
<pdfrwt beam="1">  1        2 0.14465159E-01 0.27524349E+03</pdfrwt>
<pdfrwt beam="2">  1       -2 0.30990185E-01 0.27524349E+03</pdfrwt>
<totfact> 0.39006583E+03</totfact>
</mgrwt>
</event>
<event>
 9    1  0.2051157E-002  0.2750714E+03  0.7818608E-02  0.1098412E+00
         -1   -1    0    0    0  501 -0.00000000000E+00  0.00000000000E+00  0.17439711074E+03  0.17439711074E+03  0.00000000000E+00 0. -1.
          1   -1    0    0  501    0  0.00000000000E+00 -0.00000000000E+00 -0.10846551623E+03  0.10846551623E+03  0.00000000000E+00 0. -1.
         36    2    1    2    0    0  0.00000000000E+00  0.71054273576E-14  0.65931594518E+02  0.28286262697E+03  0.27507142814E+03 0.  0.
         25    2    3    3    0    0  0.36131110358E+02  0.45617004521E+02  0.68944007735E+02  0.15400335586E+03  0.12480941141E+03 0.  0.
         25    2    3    3    0    0 -0.36131110358E+02 -0.45617004521E+02 -0.30124132163E+01  0.12885927111E+03  0.11493158348E+03 0.  0.
          5    1    4    4  502    0  0.15897344183E+02 -0.43249906287E+02  0.20089026812E+02  0.50487017580E+02  0.47000000000E+01 0.  1.
         -5    1    4    4    0  502  0.20233766175E+02  0.88866910807E+02  0.48854980922E+02  0.10351633828E+03  0.47000000000E+01 0.  1.
          5    1    5    5  503    0  0.28598125077E+02  0.74146313750E+01  0.26539331487E+02  0.39990694319E+02  0.47000000000E+01 0.  1.
         -5    1    5    5    0  503 -0.64729235435E+02 -0.53031635896E+02 -0.29551744703E+02  0.88868576791E+02  0.47000000000E+01 0.  1.
<mgrwt>
<rscale>  0 0.27507143E+03</rscale>
<asrwt>0</asrwt>
<pdfrwt beam="1">  1        1 0.16687002E-01 0.27507143E+03</pdfrwt>
<pdfrwt beam="2">  1       -1 0.26830325E-01 0.27507143E+03</pdfrwt>
<totfact> 0.39781163E+03</totfact>
</mgrwt>
</event>
<event>
 9    1  0.2051157E-002  0.2746904E+03  0.7818608E-02  0.1098625E+00
         -2   -1    0    0    0  501 -0.00000000000E+00  0.00000000000E+00  0.57717719317E+02  0.57717719317E+02  0.00000000000E+00 0.  1.
          2   -1    0    0  501    0  0.00000000000E+00 -0.00000000000E+00 -0.32682691431E+03  0.32682691431E+03  0.00000000000E+00 0.  1.
         36    2    1    2    0    0  0.00000000000E+00  0.71054273576E-14 -0.26910919499E+03  0.38454463363E+03  0.27469040104E+03 0.  0.
         25    2    3    3    0    0  0.37358702893E+02  0.46499177167E+02 -0.16302810075E+03  0.20906464008E+03  0.11649899545E+03 0.  0.
         25    2    3    3    0    0 -0.37358702893E+02 -0.46499177167E+02 -0.10608109425E+03  0.17547999354E+03  0.12642066057E+03 0.  0.
          5    1    4    4  502    0 -0.17473010908E+01 -0.37200725671E+02 -0.36770907310E+02  0.52546519161E+02  0.47000000000E+01 0. -1.
         -5    1    4    4    0  502  0.39106003984E+02  0.83699902838E+02 -0.12625719344E+03  0.15651812092E+03  0.47000000000E+01 0. -1.
          5    1    5    5  503    0 -0.62104187996E+01  0.28801700926E+02  0.11810807323E+02  0.32088821223E+02  0.47000000000E+01 0. -1.
         -5    1    5    5    0  503 -0.31148284093E+02 -0.75300878093E+02 -0.11789190157E+03  0.14339117232E+03  0.47000000000E+01 0. -1.
<mgrwt>
<rscale>  0 0.27469040E+03</rscale>
<asrwt>0</asrwt>
<pdfrwt beam="1">  1        2 0.50281063E-01 0.27469040E+03</pdfrwt>
<pdfrwt beam="2">  1       -2 0.88796493E-02 0.27469040E+03</pdfrwt>
<totfact> 0.79278227E+03</totfact>
</mgrwt>
</event>
<event>
 9    1  0.2051157E-002  0.2743542E+03  0.7818608E-02  0.1098813E+00
          2   -1    0    0  501    0  0.00000000000E+00  0.00000000000E+00  0.15184123438E+03  0.15184123438E+03  0.00000000000E+00 0.  1.
         -2   -1    0    0    0  501 -0.00000000000E+00 -0.00000000000E+00 -0.12392916687E+03  0.12392916687E+03  0.00000000000E+00 0.  1.
         36    2    1    2    0    0  0.00000000000E+00 -0.35527136788E-14  0.27912067503E+02  0.27577040125E+03  0.27435420662E+03 0.  0.
         25    2    3    3    0    0 -0.79635525440E+01 -0.10612709657E+02  0.71187278585E+02  0.14486003939E+03  0.12546216404E+03 0.  0.
         25    2    3    3    0    0  0.79635525440E+01  0.10612709657E+02 -0.43275211082E+02  0.13091036186E+03  0.12283619650E+03 0.  0.
          5    1    4    4  502    0 -0.43268222345E+02  0.41676580036E+02  0.20038650906E+02  0.63503652797E+02  0.47000000000E+01 0. -1.
         -5    1    4    4    0  502  0.35304669802E+02 -0.52289289692E+02  0.51148627680E+02  0.81356386595E+02  0.47000000000E+01 0. -1.
          5    1    5    5  503    0  0.19519662699E+02 -0.20136595340E+02  0.35468681495E+02  0.45460060171E+02  0.47000000000E+01 0.  1.
         -5    1    5    5    0  503 -0.11556110155E+02  0.30749304997E+02 -0.78743892578E+02  0.85450301684E+02  0.47000000000E+01 0.  1.
<mgrwt>
<rscale>  0 0.27435421E+03</rscale>
<asrwt>0</asrwt>
<pdfrwt beam="1">  1        2 0.23360190E-01 0.27435421E+03</pdfrwt>
<pdfrwt beam="2">  1       -2 0.19066026E-01 0.27435421E+03</pdfrwt>
<totfact> 0.52644003E+03</totfact>
</mgrwt>
</event>
<event>
 9    1  0.2051157E-002  0.2757292E+03  0.7818608E-02  0.1098045E+00
         -1   -1    0    0    0  501 -0.00000000000E+00  0.00000000000E+00  0.23251949803E+03  0.23251949803E+03  0.00000000000E+00 0. -1.
          1   -1    0    0  501    0  0.00000000000E+00 -0.00000000000E+00 -0.81742157003E+02  0.81742157003E+02  0.00000000000E+00 0. -1.
         36    2    1    2    0    0  0.71054273576E-14  0.00000000000E+00  0.15077734103E+03  0.31426165503E+03  0.27572918100E+03 0.  0.
         25    2    3    3    0    0  0.24943301560E+02  0.12038444317E+02  0.12998285136E+03  0.18262664795E+03  0.12525916516E+03 0.  0.
         25    2    3    3    0    0 -0.24943301560E+02 -0.12038444317E+02  0.20794489667E+02  0.13163500709E+03  0.12699713326E+03 0.  0.
          5    1    4    4  502    0 -0.41239131031E+02  0.30796934542E+02  0.25985058231E+02  0.57848339273E+02  0.47000000000E+01 0. -1.
         -5    1    4    4    0  502  0.66182432591E+02 -0.18758490225E+02  0.10399779313E+03  0.12477830867E+03  0.47000000000E+01 0. -1.
          5    1    5    5  503    0 -0.46536662194E+02  0.16902444907E+02  0.60130095306E+02  0.78032505621E+02  0.47000000000E+01 0.  1.
         -5    1    5    5    0  503  0.21593360633E+02 -0.28940889225E+02 -0.39335605639E+02  0.53602501467E+02  0.47000000000E+01 0.  1.
<mgrwt>
<rscale>  0 0.27572918E+03</rscale>
<asrwt>0</asrwt>
<pdfrwt beam="1">  1        1 0.12575717E-01 0.27572918E+03</pdfrwt>
<pdfrwt beam="2">  1       -1 0.35772230E-01 0.27572918E+03</pdfrwt>
<totfact> 0.35297689E+03</totfact>
</mgrwt>
</event>
<event>
 9    1  0.2051157E-002  0.2759024E+03  0.7818608E-02  0.1097948E+00
         -2   -1    0    0    0  501 -0.00000000000E+00  0.00000000000E+00  0.80633547948E+01  0.80633547948E+01  0.00000000000E+00 0.  1.
          2   -1    0    0  501    0  0.00000000000E+00 -0.00000000000E+00 -0.23601260762E+04  0.23601260762E+04  0.00000000000E+00 0.  1.
         36    2    1    2    0    0 -0.71054273576E-14  0.00000000000E+00 -0.23520627214E+04  0.23681894310E+04  0.27590240240E+03 0.  0.
         25    2    3    3    0    0 -0.34741013503E+02 -0.47074734043E+02 -0.13334455501E+04  0.13403180359E+04  0.12228014404E+03 0.  0.
         25    2    3    3    0    0  0.34741013503E+02  0.47074734043E+02 -0.10186171713E+04  0.10278713951E+04  0.12456201109E+03 0.  0.
          5    1    4    4  502    0 -0.49627107186E+02 -0.73376865522E+02 -0.63077186428E+03  0.63697900195E+03  0.47000000000E+01 0.  1.
         -5    1    4    4    0  502  0.14886093683E+02  0.26302131479E+02 -0.70267368580E+03  0.70333903391E+03  0.47000000000E+01 0.  1.
          5    1    5    5  503    0  0.29961624780E+02  0.63179718792E+02 -0.26676937843E+03  0.27582125932E+03  0.47000000000E+01 0.  1.
         -5    1    5    5    0  503  0.47793887222E+01 -0.16104984749E+02 -0.75184779291E+03  0.75205013582E+03  0.47000000000E+01 0.  1.
<mgrwt>
<rscale>  0 0.27590240E+03</rscale>
<asrwt>0</asrwt>
<pdfrwt beam="1">  1        2 0.36309658E+00 0.27590240E+03</pdfrwt>
<pdfrwt beam="2">  1       -2 0.12405152E-02 0.27590240E+03</pdfrwt>
<totfact> 0.74430351E+03</totfact>
</mgrwt>
</event>
<event>
 9    1  0.2051157E-002  0.2753591E+03  0.7818608E-02  0.1098251E+00
         -1   -1    0    0    0  501 -0.00000000000E+00  0.00000000000E+00  0.18132351617E+03  0.18132351617E+03  0.00000000000E+00 0. -1.
          1   -1    0    0  501    0  0.00000000000E+00 -0.00000000000E+00 -0.10454057468E+03  0.10454057468E+03  0.00000000000E+00 0. -1.
         36    2    1    2    0    0  0.00000000000E+00  0.00000000000E+00  0.76782941484E+02  0.28586409085E+03  0.27535914427E+03 0.  0.
         25    2    3    3    0    0 -0.47901026016E+02 -0.27424082730E+02  0.27403014240E+02  0.14065178967E+03  0.12643342968E+03 0.  0.
         25    2    3    3    0    0  0.47901026016E+02  0.27424082730E+02  0.49379927244E+02  0.14521230118E+03  0.12490655144E+03 0.  0.
          5    1    4    4  502    0 -0.56705783134E+02 -0.36965279949E+02  0.69029949066E+02  0.96794636373E+02  0.47000000000E+01 0.  1.
         -5    1    4    4    0  502  0.88047571184E+01  0.95411972190E+01 -0.41626934826E+02  0.43857153296E+02  0.47000000000E+01 0.  1.
          5    1    5    5  503    0  0.22205297681E+02  0.44137733524E+02 -0.31368536018E+02  0.58713625486E+02  0.47000000000E+01 0. -1.
         -5    1    5    5    0  503  0.25695728334E+02 -0.16713650795E+02  0.80748463262E+02  0.86498675693E+02  0.47000000000E+01 0. -1.
<mgrwt>
<rscale>  0 0.27535914E+03</rscale>
<asrwt>0</asrwt>
<pdfrwt beam="1">  1        1 0.16083165E-01 0.27535914E+03</pdfrwt>
<pdfrwt beam="2">  1       -1 0.27895925E-01 0.27535914E+03</pdfrwt>
<totfact> 0.39096655E+03</totfact>
</mgrwt>
</event>
<event>
 9    1  0.2051157E-002  0.2769255E+03  0.7818608E-02  0.1097380E+00
          2   -1    0    0  501    0  0.00000000000E+00  0.00000000000E+00  0.18127507776E+03  0.18127507776E+03  0.00000000000E+00 0.  1.
         -2   -1    0    0    0  501 -0.00000000000E+00 -0.00000000000E+00 -0.10576155951E+03  0.10576155951E+03  0.00000000000E+00 0.  1.
         36    2    1    2    0    0  0.00000000000E+00  0.00000000000E+00  0.75513518252E+02  0.28703663727E+03  0.27692551290E+03 0.  0.
         25    2    3    3    0    0 -0.82504345856E+01 -0.40977081115E+02  0.10953120052E+03  0.16465564634E+03  0.11561663867E+03 0.  0.
         25    2    3    3    0    0  0.82504345856E+01  0.40977081115E+02 -0.34017682264E+02  0.12238099093E+03  0.10987589994E+03 0.  0.
          5    1    4    4  502    0  0.47398498155E+02 -0.46753468341E+02  0.61890046566E+02  0.91021823170E+02  0.47000000000E+01 0. -1.
         -5    1    4    4    0  502 -0.55648932741E+02  0.57763872256E+01  0.47641153950E+02  0.73633823167E+02  0.47000000000E+01 0. -1.
          5    1    5    5  503    0 -0.63329956410E+01  0.28011255851E+02 -0.72971524438E+02  0.78559981332E+02  0.47000000000E+01 0.  1.
         -5    1    5    5    0  503  0.14583430227E+02  0.12965825264E+02  0.38953842174E+02  0.43821009597E+02  0.47000000000E+01 0.  1.
<mgrwt>
<rscale>  0 0.27692551E+03</rscale>
<asrwt>0</asrwt>
<pdfrwt beam="1">  1        2 0.27888474E-01 0.27692551E+03</pdfrwt>
<pdfrwt beam="2">  1       -2 0.16271009E-01 0.27692551E+03</pdfrwt>
<totfact> 0.56434744E+03</totfact>
</mgrwt>
</event>
<event>
 9    1  0.2051157E-002  0.2751592E+03  0.7818608E-02  0.1098363E+00
          1   -1    0    0  501    0  0.00000000000E+00  0.00000000000E+00  0.79370021066E+03  0.79370021066E+03  0.00000000000E+00 0. -1.
         -1   -1    0    0    0  501 -0.00000000000E+00 -0.00000000000E+00 -0.23847982864E+02  0.23847982864E+02  0.00000000000E+00 0. -1.
         36    2    1    2    0    0  0.14210854715E-13  0.00000000000E+00  0.76985222780E+03  0.81754819353E+03  0.27515921953E+03 0.  0.
         25    2    3    3    0    0 -0.55049104113E+02  0.11484324621E+02  0.35360756942E+03  0.37919572380E+03  0.12485507689E+03 0.  0.
         25    2    3    3    0    0  0.55049104113E+02 -0.11484324621E+02  0.41624465838E+03  0.43835246973E+03  0.12542319764E+03 0.  0.
          5    1    4    4  502    0 -0.69588737904E+01  0.58276567908E+02  0.93189909939E+02  0.11023172686E+03  0.47000000000E+01 0. -1.
         -5    1    4    4    0  502 -0.48090230322E+02 -0.46792243287E+02  0.26041765948E+03  0.26896399695E+03  0.47000000000E+01 0. -1.
          5    1    5    5  503    0 -0.37391718308E+02 -0.16805599325E+02  0.86769443105E+02  0.96081189749E+02  0.47000000000E+01 0. -1.
         -5    1    5    5    0  503  0.92440822421E+02  0.53212747038E+01  0.32947521528E+03  0.34227127998E+03  0.47000000000E+01 0. -1.
<mgrwt>
<rscale>  0 0.27515922E+03</rscale>
<asrwt>0</asrwt>
<pdfrwt beam="1">  1        1 0.12210770E+00 0.27515922E+03</pdfrwt>
<pdfrwt beam="2">  1       -1 0.36689211E-02 0.27515922E+03</pdfrwt>
<totfact> 0.65125742E+03</totfact>
</mgrwt>
</event>
<event>
 9    1  0.2051157E-002  0.2766085E+03  0.7818608E-02  0.1097556E+00
         -2   -1    0    0    0  501 -0.00000000000E+00  0.00000000000E+00  0.54517485680E+01  0.54517485680E+01  0.00000000000E+00 0.  1.
          2   -1    0    0  501    0  0.00000000000E+00 -0.00000000000E+00 -0.35086121274E+04  0.35086121274E+04  0.00000000000E+00 0.  1.
         36    2    1    2    0    0  0.00000000000E+00  0.71054273576E-14 -0.35031603788E+04  0.35140638759E+04  0.27660854030E+03 0.  0.
         25    2    3    3    0    0 -0.42905243853E+02 -0.65873265936E+01 -0.14322648763E+04  0.14388442597E+04  0.13040657544E+03 0.  0.
         25    2    3    3    0    0  0.42905243853E+02  0.65873265936E+01 -0.20708955025E+04  0.20752196163E+04  0.12666499353E+03 0.  0.
          5    1    4    4  502    0 -0.18523297184E+02 -0.67441041978E+02 -0.62855654950E+03  0.63245302798E+03  0.47000000000E+01 0.  1.
         -5    1    4    4    0  502 -0.24381946670E+02  0.60853715385E+02 -0.80370832678E+03  0.80639123168E+03  0.47000000000E+01 0.  1.
          5    1    5    5  503    0 -0.28539297368E+02  0.24488058273E+02 -0.13550145356E+04  0.13555444066E+04  0.47000000000E+01 0.  1.
         -5    1    5    5    0  503  0.71444541222E+02 -0.17900731679E+02 -0.71588096691E+03  0.71967520970E+03  0.47000000000E+01 0.  1.
<mgrwt>
<rscale>  0 0.27660854E+03</rscale>
<asrwt>0</asrwt>
<pdfrwt beam="1">  1        2 0.53978668E+00 0.27660854E+03</pdfrwt>
<pdfrwt beam="2">  1       -2 0.83873024E-03 0.27660854E+03</pdfrwt>
<totfact> 0.27539990E+03</totfact>
</mgrwt>
</event>
<event>
 9    1  0.2051157E-002  0.2751685E+03  0.7818608E-02  0.1098357E+00
         -1   -1    0    0    0  501 -0.00000000000E+00  0.00000000000E+00  0.31864422448E+02  0.31864422448E+02  0.00000000000E+00 0.  1.
          1   -1    0    0  501    0  0.00000000000E+00 -0.00000000000E+00 -0.59406157976E+03  0.59406157976E+03  0.00000000000E+00 0.  1.
         36    2    1    2    0    0  0.35527136788E-14  0.71054273576E-14 -0.56219715731E+03  0.62592600221E+03  0.27516852391E+03 0.  0.
         25    2    3    3    0    0  0.14118098562E+02 -0.49740744253E+02 -0.26084559306E+03  0.29431343193E+03  0.12612101511E+03 0.  0.
         25    2    3    3    0    0 -0.14118098562E+02  0.49740744253E+02 -0.30135156425E+03  0.33161257028E+03  0.12837705847E+03 0.  0.
          5    1    4    4  502    0 -0.49612833996E+02 -0.51295341843E+02 -0.15419875660E+03  0.16997644522E+03  0.47000000000E+01 0.  1.
         -5    1    4    4    0  502  0.63730932558E+02  0.15545975896E+01 -0.10664683646E+03  0.12433698671E+03  0.47000000000E+01 0.  1.
          5    1    5    5  503    0 -0.33364883083E+02 -0.35184049743E+02 -0.79521753762E+02  0.93257343415E+02  0.47000000000E+01 0. -1.
         -5    1    5    5    0  503  0.19246784521E+02  0.84924793996E+02 -0.22182981049E+03  0.23835522686E+03  0.47000000000E+01 0. -1.
<mgrwt>
<rscale>  0 0.27516852E+03</rscale>
<asrwt>0</asrwt>
<pdfrwt beam="1">  1        1 0.91394082E-01 0.27516852E+03</pdfrwt>
<pdfrwt beam="2">  1       -1 0.49022192E-02 0.27516852E+03</pdfrwt>
<totfact> 0.64421671E+03</totfact>
</mgrwt>
</event>
<event>
 9    1  0.2051157E-002  0.2750320E+03  0.7818608E-02  0.1098434E+00
         -2   -1    0    0    0  501 -0.00000000000E+00  0.00000000000E+00  0.12088406157E+02  0.12088406157E+02  0.00000000000E+00 0. -1.
          2   -1    0    0  501    0  0.00000000000E+00 -0.00000000000E+00 -0.15643621461E+04  0.15643621461E+04  0.00000000000E+00 0. -1.
         36    2    1    2    0    0 -0.14210854715E-13  0.00000000000E+00 -0.15522737400E+04  0.15764505523E+04  0.27503196177E+03 0.  0.
         25    2    3    3    0    0  0.58995669441E+02  0.11568079799E+02 -0.91832691225E+03  0.92731407865E+03  0.11389808262E+03 0.  0.
         25    2    3    3    0    0 -0.58995669441E+02 -0.11568079799E+02 -0.63394682771E+03  0.64913647362E+03  0.12599710924E+03 0.  0.
          5    1    4    4  502    0  0.44670897257E+02 -0.28690176064E+02 -0.79358106199E+03  0.79536884979E+03  0.47000000000E+01 0.  1.
         -5    1    4    4    0  502  0.14324772184E+02  0.40258255863E+02 -0.12474585026E+03  0.13194522886E+03  0.47000000000E+01 0.  1.
          5    1    5    5  503    0 -0.88123859057E+02 -0.38689327828E+02 -0.37890683084E+03  0.39096694883E+03  0.47000000000E+01 0. -1.
         -5    1    5    5    0  503  0.29128189616E+02  0.27121248029E+02 -0.25503999687E+03  0.25816952478E+03  0.47000000000E+01 0. -1.
<mgrwt>
<rscale>  0 0.27503196E+03</rscale>
<asrwt>0</asrwt>
<pdfrwt beam="1">  1        2 0.24067095E+00 0.27503196E+03</pdfrwt>
<pdfrwt beam="2">  1       -2 0.18597560E-02 0.27503196E+03</pdfrwt>
<totfact> 0.10846054E+04</totfact>
</mgrwt>
</event>
<event>
 9    1  0.2051157E-002  0.2749038E+03  0.7818608E-02  0.1098505E+00
          1   -1    0    0  501    0  0.00000000000E+00  0.00000000000E+00  0.25537220338E+03  0.25537220338E+03  0.00000000000E+00 0.  1.
         -1   -1    0    0    0  501 -0.00000000000E+00 -0.00000000000E+00 -0.73982312043E+02  0.73982312043E+02  0.00000000000E+00 0.  1.
         36    2    1    2    0    0  0.00000000000E+00  0.00000000000E+00  0.18138989133E+03  0.32935451542E+03  0.27490380890E+03 0.  0.
         25    2    3    3    0    0 -0.49459521718E+02  0.18077216202E+02  0.68969846298E+02  0.15179423926E+03  0.12454565966E+03 0.  0.
         25    2    3    3    0    0  0.49459521718E+02 -0.18077216202E+02  0.11242004504E+03  0.17756027616E+03  0.12695020721E+03 0.  0.
          5    1    4    4  502    0 -0.72982060238E+01  0.65698719578E+02  0.55887344877E+02  0.86689508493E+02  0.47000000000E+01 0. -1.
         -5    1    4    4    0  502 -0.42161315695E+02 -0.47621503375E+02  0.13082501420E+02  0.65104730767E+02  0.47000000000E+01 0. -1.
          5    1    5    5  503    0 -0.33617927327E+02 -0.28185568461E+02  0.72139028013E+02  0.84561933929E+02  0.47000000000E+01 0. -1.
         -5    1    5    5    0  503  0.83077449046E+02  0.10108352259E+02  0.40281017024E+02  0.92998342232E+02  0.47000000000E+01 0. -1.
<mgrwt>
<rscale>  0 0.27490381E+03</rscale>
<asrwt>0</asrwt>
<pdfrwt beam="1">  1        1 0.39288031E-01 0.27490381E+03</pdfrwt>
<pdfrwt beam="2">  1       -1 0.11381894E-01 0.27490381E+03</pdfrwt>
<totfact> 0.53148938E+03</totfact>
</mgrwt>
</event>
<event>
 9    1  0.2051157E-002  0.2726791E+03  0.7818608E-02  0.1099756E+00
         -1   -1    0    0    0  501 -0.00000000000E+00  0.00000000000E+00  0.17411860432E+02  0.17411860432E+02  0.00000000000E+00 0.  1.
          1   -1    0    0  501    0  0.00000000000E+00 -0.00000000000E+00 -0.10675750056E+04  0.10675750056E+04  0.00000000000E+00 0.  1.
         36    2    1    2    0    0  0.00000000000E+00  0.35527136788E-14 -0.10501631452E+04  0.10849868660E+04  0.27267905676E+03 0.  0.
         25    2    3    3    0    0 -0.55715580718E+02  0.71153104829E+01 -0.41204066928E+03  0.43313228184E+03  0.12112475738E+03 0.  0.
         25    2    3    3    0    0  0.55715580718E+02 -0.71153104829E+01 -0.63812247590E+03  0.65185458421E+03  0.12066172188E+03 0.  0.
          5    1    4    4  502    0  0.26362853465E+02  0.24194872218E+02 -0.51139997334E+02  0.62592181715E+02  0.47000000000E+01 0. -1.
         -5    1    4    4    0  502 -0.82078434183E+02 -0.17079561735E+02 -0.36090067195E+03  0.37054010012E+03  0.47000000000E+01 0. -1.
          5    1    5    5  503    0  0.57763934878E+02 -0.42910742080E+02 -0.57167313656E+03  0.57620332264E+03  0.47000000000E+01 0. -1.
         -5    1    5    5    0  503 -0.20483541598E+01  0.35795431598E+02 -0.66449339344E+02  0.75651261571E+02  0.47000000000E+01 0. -1.
<mgrwt>
<rscale>  0 0.27267906E+03</rscale>
<asrwt>0</asrwt>
<pdfrwt beam="1">  1        1 0.16424229E+00 0.27267906E+03</pdfrwt>
<pdfrwt beam="2">  1       -1 0.26787481E-02 0.27267906E+03</pdfrwt>
<totfact> 0.63492312E+03</totfact>
</mgrwt>
</event>
<event>
 9    1  0.2051157E-002  0.2752257E+03  0.7818608E-02  0.1098325E+00
          2   -1    0    0  501    0  0.00000000000E+00  0.00000000000E+00  0.53757265828E+03  0.53757265828E+03  0.00000000000E+00 0. -1.
         -2   -1    0    0    0  501 -0.00000000000E+00 -0.00000000000E+00 -0.35227426795E+02  0.35227426795E+02  0.00000000000E+00 0. -1.
         36    2    1    2    0    0  0.35527136788E-14 -0.35527136788E-14  0.50234523148E+03  0.57280008507E+03  0.27522573620E+03 0.  0.
         25    2    3    3    0    0 -0.12080692837E+02 -0.21014098178E+02  0.36337543354E+03  0.38026661001E+03  0.10942327691E+03 0.  0.
         25    2    3    3    0    0  0.12080692837E+02  0.21014098178E+02  0.13896979794E+03  0.19253347506E+03  0.13103052628E+03 0.  0.
          5    1    4    4  502    0 -0.35961521227E+02 -0.39063862855E+02  0.33343366012E+03  0.33766745785E+03  0.47000000000E+01 0. -1.
         -5    1    4    4    0  502  0.23880828390E+02  0.18049764677E+02  0.29941773418E+02  0.42599152162E+02  0.47000000000E+01 0. -1.
          5    1    5    5  503    0  0.56211512118E+02 -0.12110517789E+02  0.12143732983E+03  0.13444520747E+03  0.47000000000E+01 0.  1.
         -5    1    5    5    0  503 -0.44130819281E+02  0.33124615967E+02  0.17532468116E+02  0.58088267591E+02  0.47000000000E+01 0.  1.
<mgrwt>
<rscale>  0 0.27522574E+03</rscale>
<asrwt>0</asrwt>
<pdfrwt beam="1">  1        2 0.82703480E-01 0.27522574E+03</pdfrwt>
<pdfrwt beam="2">  1       -2 0.54196045E-02 0.27522574E+03</pdfrwt>
<totfact> 0.98676253E+03</totfact>
</mgrwt>
</event>
<event>
 9    1  0.2051157E-002  0.2744879E+03  0.7818608E-02  0.1098738E+00
          2   -1    0    0  501    0  0.00000000000E+00  0.00000000000E+00  0.14507451088E+04  0.14507451088E+04  0.00000000000E+00 0. -1.
         -2   -1    0    0    0  501 -0.00000000000E+00 -0.00000000000E+00 -0.12983608244E+02  0.12983608244E+02  0.00000000000E+00 0. -1.
         36    2    1    2    0    0  0.35527136788E-14  0.00000000000E+00  0.14377615005E+04  0.14637287170E+04  0.27448793165E+03 0.  0.
         25    2    3    3    0    0  0.28853974154E+02  0.90018318733E+00  0.87920702490E+03  0.89161517000E+03  0.14539345440E+03 0.  0.
         25    2    3    3    0    0 -0.28853974154E+02 -0.90018318733E+00  0.55855447564E+03  0.57211354703E+03  0.12040534159E+03 0.  0.
          5    1    4    4  502    0 -0.44267773863E+02 -0.27467196497E+02  0.16484813166E+03  0.17294819802E+03  0.47000000000E+01 0. -1.
         -5    1    4    4    0  502  0.73121748017E+02  0.28367379685E+02  0.71435889324E+03  0.71866697198E+03  0.47000000000E+01 0. -1.
          5    1    5    5  503    0 -0.22168448311E+02 -0.54992470824E+02  0.39974349053E+03  0.40414423189E+03  0.47000000000E+01 0. -1.
         -5    1    5    5    0  503 -0.66855258432E+01  0.54092287637E+02  0.15881098511E+03  0.16796931514E+03  0.47000000000E+01 0. -1.
<mgrwt>
<rscale>  0 0.27448793E+03</rscale>
<asrwt>0</asrwt>
<pdfrwt beam="1">  1        2 0.22319143E+00 0.27448793E+03</pdfrwt>
<pdfrwt beam="2">  1       -2 0.19974793E-02 0.27448793E+03</pdfrwt>
<totfact> 0.11231128E+04</totfact>
</mgrwt>
</event>
<event>
 9    1  0.2051157E-002  0.2747709E+03  0.7818608E-02  0.1098580E+00
          1   -1    0    0  501    0  0.00000000000E+00  0.00000000000E+00  0.24991486518E+04  0.24991486518E+04  0.00000000000E+00 0. -1.
         -1   -1    0    0    0  501 -0.00000000000E+00 -0.00000000000E+00 -0.75524786551E+01  0.75524786551E+01  0.00000000000E+00 0. -1.
         36    2    1    2    0    0 -0.35527136788E-14  0.00000000000E+00  0.24915961732E+04  0.25067011305E+04  0.27477093623E+03 0.  0.
         25    2    3    3    0    0  0.17542382747E+02  0.38017310020E+02  0.16364529268E+04  0.16417365802E+04  0.12477085415E+03 0.  0.
         25    2    3    3    0    0 -0.17542382747E+02 -0.38017310020E+02  0.85514324633E+03  0.86496455025E+03  0.12304735021E+03 0.  0.
          5    1    4    4  502    0  0.21900276149E+02  0.54955500667E+02  0.15993401780E+04  0.16004408218E+04  0.47000000000E+01 0.  1.
         -5    1    4    4    0  502 -0.43578934025E+01 -0.16938190647E+02  0.37112748879E+02  0.41295758458E+02  0.47000000000E+01 0.  1.
          5    1    5    5  503    0 -0.46763646651E+02 -0.11468927137E+02  0.12963980167E+03  0.13837247962E+03  0.47000000000E+01 0. -1.
         -5    1    5    5    0  503  0.29221263905E+02 -0.26548382883E+02  0.72550344466E+03  0.72659207063E+03  0.47000000000E+01 0. -1.
<mgrwt>
<rscale>  0 0.27477094E+03</rscale>
<asrwt>0</asrwt>
<pdfrwt beam="1">  1        1 0.38448375E+00 0.27477094E+03</pdfrwt>
<pdfrwt beam="2">  1       -1 0.11619218E-02 0.27477094E+03</pdfrwt>
<totfact> 0.24026951E+03</totfact>
</mgrwt>
</event>
<event>
 9    1  0.2051157E-002  0.2756698E+03  0.7818608E-02  0.1098078E+00
          2   -1    0    0  501    0  0.00000000000E+00  0.00000000000E+00  0.12402047357E+03  0.12402047357E+03  0.00000000000E+00 0. -1.
         -2   -1    0    0    0  501 -0.00000000000E+00 -0.00000000000E+00 -0.15318813494E+03  0.15318813494E+03  0.00000000000E+00 0. -1.
         36    2    1    2    0    0  0.71054273576E-14  0.53290705182E-14 -0.29167661370E+02  0.27720860851E+03  0.27566983905E+03 0.  0.
         25    2    3    3    0    0  0.60122758691E+02  0.12160101343E+02 -0.21293909239E+02  0.13742355326E+03  0.12111642434E+03 0.  0.
         25    2    3    3    0    0 -0.60122758691E+02 -0.12160101343E+02 -0.78737521310E+01  0.13978505525E+03  0.12536048628E+03 0.  0.
          5    1    4    4  502    0  0.66532995779E+01  0.11622120521E+02 -0.66035750812E+02  0.67543693014E+02  0.47000000000E+01 0.  1.
         -5    1    4    4    0  502  0.53469459113E+02  0.53798082207E+00  0.44741841573E+02  0.69879860250E+02  0.47000000000E+01 0.  1.
          5    1    5    5  503    0 -0.37236978277E+02 -0.68645580621E+02 -0.70311331264E+00  0.78239329357E+02  0.47000000000E+01 0.  1.
         -5    1    5    5    0  503 -0.22885780414E+02  0.56485479278E+02 -0.71706388184E+01  0.61545725892E+02  0.47000000000E+01 0.  1.
<mgrwt>
<rscale>  0 0.27566984E+03</rscale>
<asrwt>0</asrwt>
<pdfrwt beam="1">  1        2 0.19080073E-01 0.27566984E+03</pdfrwt>
<pdfrwt beam="2">  1       -2 0.23567405E-01 0.27566984E+03</pdfrwt>
<totfact> 0.45998878E+03</totfact>
</mgrwt>
</event>
<event>
 9    1  0.2051157E-002  0.2721994E+03  0.7818608E-02  0.1100027E+00
          2   -1    0    0  501    0  0.00000000000E+00  0.00000000000E+00  0.12286241682E+03  0.12286241682E+03  0.00000000000E+00 0.  1.
         -2   -1    0    0    0  501 -0.00000000000E+00 -0.00000000000E+00 -0.15076315290E+03  0.15076315290E+03  0.00000000000E+00 0.  1.
         36    2    1    2    0    0 -0.14210854715E-13 -0.71054273576E-14 -0.27900736080E+02  0.27362556973E+03  0.27219937791E+03 0.  0.
         25    2    3    3    0    0 -0.62334543445E+02 -0.19529251132E+02 -0.28467100726E+02  0.13438828664E+03  0.11394230473E+03 0.  0.
         25    2    3    3    0    0  0.62334543445E+02  0.19529251132E+02  0.56636464589E+00  0.13923728308E+03  0.12296224329E+03 0.  0.
          5    1    4    4  502    0 -0.11993538520E+02  0.21376251976E+02 -0.57864733827E+02  0.63017509755E+02  0.47000000000E+01 0. -1.
         -5    1    4    4    0  502 -0.50341004925E+02 -0.40905503109E+02  0.29397633102E+02  0.71370776887E+02  0.47000000000E+01 0. -1.
          5    1    5    5  503    0  0.75050792844E+01  0.52085788079E+02 -0.37532226478E+02  0.64807511596E+02  0.47000000000E+01 0.  1.
         -5    1    5    5    0  503  0.54829464161E+02 -0.32556536946E+02  0.38098591124E+02  0.74429771488E+02  0.47000000000E+01 0.  1.
<mgrwt>
<rscale>  0 0.27219938E+03</rscale>
<asrwt>0</asrwt>
<pdfrwt beam="1">  1        2 0.18901910E-01 0.27219938E+03</pdfrwt>
<pdfrwt beam="2">  1       -2 0.23194331E-01 0.27219938E+03</pdfrwt>
<totfact> 0.47792511E+03</totfact>
</mgrwt>
</event>
<event>
 9    1  0.2051157E-002  0.2748114E+03  0.7818608E-02  0.1098557E+00
         -2   -1    0    0    0  501 -0.00000000000E+00  0.00000000000E+00  0.10361888092E+02  0.10361888092E+02  0.00000000000E+00 0.  1.
          2   -1    0    0  501    0  0.00000000000E+00 -0.00000000000E+00 -0.18220932899E+04  0.18220932899E+04  0.00000000000E+00 0.  1.
         36    2    1    2    0    0  0.71054273576E-14 -0.71054273576E-14 -0.18117314018E+04  0.18324551780E+04  0.27481140269E+03 0.  0.
         25    2    3    3    0    0 -0.36599346884E+02  0.47694315931E+02 -0.79413092868E+03  0.80608177218E+03  0.12453767137E+03 0.  0.
         25    2    3    3    0    0  0.36599346884E+02 -0.47694315931E+02 -0.10176004731E+04  0.10263734058E+04  0.11965527687E+03 0.  0.
          5    1    4    4  502    0 -0.53275765632E+02  0.82717236048E+02 -0.60373597434E+03  0.61171861591E+03  0.47000000000E+01 0.  1.
         -5    1    4    4    0  502  0.16676418748E+02 -0.35022920116E+02 -0.19039495434E+03  0.19436315627E+03  0.47000000000E+01 0.  1.
          5    1    5    5  503    0  0.57871435319E+02 -0.19204916488E+02 -0.23107554070E+03  0.23903122673E+03  0.47000000000E+01 0.  1.
         -5    1    5    5    0  503 -0.21272088435E+02 -0.28489399443E+02 -0.78652493240E+03  0.78734217905E+03  0.47000000000E+01 0.  1.
<mgrwt>
<rscale>  0 0.27481140E+03</rscale>
<asrwt>0</asrwt>
<pdfrwt beam="1">  1        2 0.28032168E+00 0.27481140E+03</pdfrwt>
<pdfrwt beam="2">  1       -2 0.15941387E-02 0.27481140E+03</pdfrwt>
<totfact> 0.99431731E+03</totfact>
</mgrwt>
</event>
<event>
 9    1  0.2051157E-002  0.2879380E+03  0.7818608E-02  0.1091431E+00
          3   -1    0    0  501    0  0.00000000000E+00  0.00000000000E+00  0.48705878900E+02  0.48705878900E+02  0.00000000000E+00 0.  1.
         -3   -1    0    0    0  501 -0.00000000000E+00 -0.00000000000E+00 -0.42555597142E+03  0.42555597142E+03  0.00000000000E+00 0.  1.
         36    2    1    2    0    0  0.71054273576E-14 -0.71054273576E-14 -0.37685009252E+03  0.47426185032E+03  0.28793803229E+03 0.  0.
         25    2    3    3    0    0 -0.35078348769E+01  0.55766853229E+02 -0.12089086713E+03  0.18341943750E+03  0.12611836295E+03 0.  0.
         25    2    3    3    0    0  0.35078348769E+01 -0.55766853229E+02 -0.25595922539E+03  0.29084241282E+03  0.12630097866E+03 0.  0.
          5    1    4    4  502    0  0.28305083171E+02  0.82424277712E+02 -0.10968744642E+03  0.14017262640E+03  0.47000000000E+01 0.  1.
         -5    1    4    4    0  502 -0.31812918048E+02 -0.26657424483E+02 -0.11203420714E+02  0.43246811102E+02  0.47000000000E+01 0.  1.
          5    1    5    5  503    0  0.38052409345E+02 -0.82654162978E+02 -0.14248378056E+03  0.16912543936E+03  0.47000000000E+01 0.  1.
         -5    1    5    5    0  503 -0.34544574468E+02  0.26887309749E+02 -0.11347544483E+03  0.12171697347E+03  0.47000000000E+01 0.  1.
<mgrwt>
<rscale>  0 0.28793803E+03</rscale>
<asrwt>0</asrwt>
<pdfrwt beam="1">  1        3 0.74932120E-02 0.28793803E+03</pdfrwt>
<pdfrwt beam="2">  1       -3 0.65470150E-01 0.28793803E+03</pdfrwt>
<totfact> 0.69474426E+02</totfact>
</mgrwt>
</event>
<event>
 9    1  0.2051157E-002  0.2786992E+03  0.7818608E-02  0.1096402E+00
         -2   -1    0    0    0  501 -0.00000000000E+00  0.00000000000E+00  0.28240912484E+02  0.28240912484E+02  0.00000000000E+00 0. -1.
          2   -1    0    0  501    0  0.00000000000E+00 -0.00000000000E+00 -0.68759489751E+03  0.68759489751E+03  0.00000000000E+00 0. -1.
         36    2    1    2    0    0  0.35527136788E-14 -0.35527136788E-14 -0.65935398503E+03  0.71583581000E+03  0.27869917348E+03 0.  0.
         25    2    3    3    0    0  0.26924621833E+02  0.10876228535E+02 -0.14413526285E+03  0.18502808410E+03  0.11232626720E+03 0.  0.
         25    2    3    3    0    0 -0.26924621833E+02 -0.10876228535E+02 -0.51521872218E+03  0.53080772589E+03  0.12435144783E+03 0.  0.
          5    1    4    4  502    0  0.55549187526E+02  0.39849896418E+02 -0.11785537263E+03  0.13632940012E+03  0.47000000000E+01 0.  1.
         -5    1    4    4    0  502 -0.28624565693E+02 -0.28973667883E+02 -0.26279890219E+02  0.48698683982E+02  0.47000000000E+01 0.  1.
          5    1    5    5  503    0 -0.74969957780E+02 -0.12600533326E+02 -0.37023667007E+03  0.37799014521E+03  0.47000000000E+01 0.  1.
         -5    1    5    5    0  503  0.48045335947E+02  0.17243047908E+01 -0.14498205211E+03  0.15281758069E+03  0.47000000000E+01 0.  1.
<mgrwt>
<rscale>  0 0.27869917E+03</rscale>
<asrwt>0</asrwt>
<pdfrwt beam="1">  1        2 0.10578382E+00 0.27869917E+03</pdfrwt>
<pdfrwt beam="2">  1       -2 0.43447560E-02 0.27869917E+03</pdfrwt>
<totfact> 0.10359915E+04</totfact>
</mgrwt>
</event>
<event>
 9    1  0.2051157E-002  0.2732172E+03  0.7818608E-02  0.1099452E+00
          2   -1    0    0  501    0  0.00000000000E+00  0.00000000000E+00  0.66436336848E+03  0.66436336848E+03  0.00000000000E+00 0.  1.
         -2   -1    0    0    0  501 -0.00000000000E+00 -0.00000000000E+00 -0.28089908060E+02  0.28089908060E+02  0.00000000000E+00 0.  1.
         36    2    1    2    0    0  0.00000000000E+00  0.71054273576E-14  0.63627346042E+03  0.69245327654E+03  0.27321717325E+03 0.  0.
         25    2    3    3    0    0 -0.30727592677E+02 -0.18280395476E+02  0.45508718264E+03  0.47037584428E+03  0.11344925417E+03 0.  0.
         25    2    3    3    0    0  0.30727592677E+02  0.18280395476E+02  0.18118627778E+03  0.22207743225E+03  0.12333515659E+03 0.  0.
          5    1    4    4  502    0  0.24470045785E+02  0.34413938747E+02  0.16028040169E+03  0.16581616172E+03  0.47000000000E+01 0. -1.
         -5    1    4    4    0  502 -0.55197638462E+02 -0.52694334224E+02  0.29480678095E+03  0.30455968257E+03  0.47000000000E+01 0. -1.
          5    1    5    5  503    0  0.34562143274E+02  0.68873940289E+02  0.10223262308E+03  0.12810839403E+03  0.47000000000E+01 0. -1.
         -5    1    5    5    0  503 -0.38345505967E+01 -0.50593544813E+02  0.78953654694E+02  0.93969038223E+02  0.47000000000E+01 0. -1.
<mgrwt>
<rscale>  0 0.27321717E+03</rscale>
<asrwt>0</asrwt>
<pdfrwt beam="1">  1        2 0.10220974E+00 0.27321717E+03</pdfrwt>
<pdfrwt beam="2">  1       -2 0.43215248E-02 0.27321717E+03</pdfrwt>
<totfact> 0.10876171E+04</totfact>
</mgrwt>
</event>
<event>
 9    1  0.2051157E-002  0.2742971E+03  0.7818608E-02  0.1098845E+00
          2   -1    0    0  501    0  0.00000000000E+00  0.00000000000E+00  0.14250421539E+04  0.14250421539E+04  0.00000000000E+00 0.  1.
         -2   -1    0    0    0  501 -0.00000000000E+00 -0.00000000000E+00 -0.13199413557E+02  0.13199413557E+02  0.00000000000E+00 0.  1.
         36    2    1    2    0    0  0.00000000000E+00 -0.35527136788E-14  0.14118427404E+04  0.14382415675E+04  0.27429707054E+03 0.  0.
         25    2    3    3    0    0  0.23537683985E+02 -0.90238416973E+01  0.94956377753E+03  0.95839265243E+03  0.12731714866E+03 0.  0.
         25    2    3    3    0    0 -0.23537683985E+02  0.90238416973E+01  0.46227896285E+03  0.47984891506E+03  0.12616532610E+03 0.  0.
          5    1    4    4  502    0 -0.45596934584E+02  0.24901297326E+02  0.42368992942E+03  0.42688921436E+03  0.47000000000E+01 0. -1.
         -5    1    4    4    0  502  0.69134618569E+02 -0.33925139023E+02  0.52587384812E+03  0.53150343807E+03  0.47000000000E+01 0. -1.
          5    1    5    5  503    0 -0.64282348818E+02 -0.30682856576E+02  0.26968314991E+03  0.27897087554E+03  0.47000000000E+01 0. -1.
         -5    1    5    5    0  503  0.40744664832E+02  0.39706698273E+02  0.19259581294E+03  0.20087803952E+03  0.47000000000E+01 0. -1.
<mgrwt>
<rscale>  0 0.27429707E+03</rscale>
<asrwt>0</asrwt>
<pdfrwt beam="1">  1        2 0.21923713E+00 0.27429707E+03</pdfrwt>
<pdfrwt beam="2">  1       -2 0.20306801E-02 0.27429707E+03</pdfrwt>
<totfact> 0.11317630E+04</totfact>
</mgrwt>
</event>
<event>
 9    1  0.2051157E-002  0.2751875E+03  0.7818608E-02  0.1098347E+00
          1   -1    0    0  501    0  0.00000000000E+00  0.00000000000E+00  0.24688834588E+03  0.24688834588E+03  0.00000000000E+00 0. -1.
         -1   -1    0    0    0  501 -0.00000000000E+00 -0.00000000000E+00 -0.76682571777E+02  0.76682571777E+02  0.00000000000E+00 0. -1.
         36    2    1    2    0    0  0.00000000000E+00  0.00000000000E+00  0.17020577411E+03  0.32357091766E+03  0.27518745105E+03 0.  0.
         25    2    3    3    0    0 -0.24481459174E+01 -0.37955755710E+02  0.29622814685E+02  0.13434594921E+03  0.12539812642E+03 0.  0.
         25    2    3    3    0    0  0.24481459174E+01  0.37955755710E+02  0.14058295942E+03  0.18922496845E+03  0.12081344046E+03 0.  0.
          5    1    4    4  502    0 -0.59817707759E+02 -0.45372760768E+01  0.31172708867E+02  0.67768523769E+02  0.47000000000E+01 0. -1.
         -5    1    4    4    0  502  0.57369561841E+02 -0.33418479633E+02 -0.15498941814E+01  0.66577425444E+02  0.47000000000E+01 0. -1.
          5    1    5    5  503    0 -0.49016756487E+02  0.42375796071E+02  0.40653355732E+02  0.76636387189E+02  0.47000000000E+01 0.  1.
         -5    1    5    5    0  503  0.51464902405E+02 -0.44200403607E+01  0.99929603690E+02  0.11258858126E+03  0.47000000000E+01 0.  1.
<mgrwt>
<rscale>  0 0.27518745E+03</rscale>
<asrwt>0</asrwt>
<pdfrwt beam="1">  1        1 0.37982822E-01 0.27518745E+03</pdfrwt>
<pdfrwt beam="2">  1       -1 0.11797319E-01 0.27518745E+03</pdfrwt>
<totfact> 0.52440224E+03</totfact>
</mgrwt>
</event>
<event>
 9    1  0.2051157E-002  0.2747965E+03  0.7818608E-02  0.1098565E+00
          1   -1    0    0  501    0  0.00000000000E+00  0.00000000000E+00  0.88021615273E+03  0.88021615273E+03  0.00000000000E+00 0. -1.
         -1   -1    0    0    0  501 -0.00000000000E+00 -0.00000000000E+00 -0.21447325976E+02  0.21447325976E+02  0.00000000000E+00 0. -1.
         36    2    1    2    0    0 -0.88817841970E-15 -0.14210854715E-13  0.85876882676E+03  0.90166347871E+03  0.27479652659E+03 0.  0.
         25    2    3    3    0    0  0.64227347710E+01 -0.37515721113E+02  0.58647868571E+03  0.60041937937E+03  0.12287189050E+03 0.  0.
         25    2    3    3    0    0 -0.64227347710E+01  0.37515721113E+02  0.27229014105E+03  0.30124409934E+03  0.12311541587E+03 0.  0.
          5    1    4    4  502    0  0.40118655239E+01 -0.82719976908E+02  0.39322156447E+03  0.40187557578E+03  0.47000000000E+01 0. -1.
         -5    1    4    4    0  502  0.24108692471E+01  0.45204255795E+02  0.19325712124E+03  0.19854380358E+03  0.47000000000E+01 0. -1.
          5    1    5    5  503    0  0.26903953074E+02  0.16092535201E+02  0.63520576470E+01  0.32330032734E+02  0.47000000000E+01 0. -1.
         -5    1    5    5    0  503 -0.33326687845E+02  0.21423185912E+02  0.26593808340E+03  0.26891406661E+03  0.47000000000E+01 0. -1.
<mgrwt>
<rscale>  0 0.27479653E+03</rscale>
<asrwt>0</asrwt>
<pdfrwt beam="1">  1        1 0.13541784E+00 0.27479653E+03</pdfrwt>
<pdfrwt beam="2">  1       -1 0.32995893E-02 0.27479653E+03</pdfrwt>
<totfact> 0.64773627E+03</totfact>
</mgrwt>
</event>
<event>
 9    1  0.2051157E-002  0.2748209E+03  0.7818608E-02  0.1098552E+00
          1   -1    0    0  501    0  0.00000000000E+00  0.00000000000E+00  0.37030243631E+02  0.37030243631E+02  0.00000000000E+00 0.  1.
         -1   -1    0    0    0  501 -0.00000000000E+00 -0.00000000000E+00 -0.50989773904E+03  0.50989773904E+03  0.00000000000E+00 0.  1.
         36    2    1    2    0    0 -0.71054273576E-14  0.00000000000E+00 -0.47286749541E+03  0.54692798267E+03  0.27482094173E+03 0.  0.
         25    2    3    3    0    0 -0.35171040390E+02  0.13123359611E+02 -0.14825091662E+03  0.19608696027E+03  0.12272952807E+03 0.  0.
         25    2    3    3    0    0  0.35171040390E+02 -0.13123359611E+02 -0.32461657879E+03  0.35084102240E+03  0.12768819493E+03 0.  0.
          5    1    4    4  502    0  0.31719675677E+02 -0.21504182664E+02 -0.12173011922E+02  0.40482587817E+02  0.47000000000E+01 0.  1.
         -5    1    4    4    0  502 -0.66890716067E+02  0.34627542275E+02 -0.13607790470E+03  0.15560437245E+03  0.47000000000E+01 0.  1.
          5    1    5    5  503    0  0.46837704955E+02  0.30385076907E+02 -0.28565679025E+03  0.29109949385E+03  0.47000000000E+01 0. -1.
         -5    1    5    5    0  503 -0.11666664565E+02 -0.43508436518E+02 -0.38959788541E+02  0.59741528550E+02  0.47000000000E+01 0. -1.
<mgrwt>
<rscale>  0 0.27482094E+03</rscale>
<asrwt>0</asrwt>
<pdfrwt beam="1">  1        1 0.56969612E-02 0.27482094E+03</pdfrwt>
<pdfrwt beam="2">  1       -1 0.78445797E-01 0.27482094E+03</pdfrwt>
<totfact> 0.23544944E+03</totfact>
</mgrwt>
</event>
<event>
 9    1  0.2051157E-002  0.2757809E+03  0.7818608E-02  0.1098016E+00
          2   -1    0    0  501    0  0.00000000000E+00  0.00000000000E+00  0.16148128414E+04  0.16148128414E+04  0.00000000000E+00 0. -1.
         -2   -1    0    0    0  501 -0.00000000000E+00 -0.00000000000E+00 -0.11774598875E+02  0.11774598875E+02  0.00000000000E+00 0. -1.
         36    2    1    2    0    0  0.00000000000E+00 -0.35527136788E-14  0.16030382425E+04  0.16265874403E+04  0.27578088016E+03 0.  0.
         25    2    3    3    0    0  0.34404237540E+02  0.24958543236E+02  0.47481491778E+03  0.49248907811E+03  0.12365154862E+03 0.  0.
         25    2    3    3    0    0 -0.34404237540E+02 -0.24958543236E+02  0.11282233247E+04  0.11340983622E+04  0.10716643183E+03 0.  0.
          5    1    4    4  502    0  0.98508556959E+01 -0.37652703119E+02  0.56452746160E+02  0.68729673061E+02  0.47000000000E+01 0. -1.
         -5    1    4    4    0  502  0.24553381844E+02  0.62611246355E+02  0.41836217162E+03  0.42375940505E+03  0.47000000000E+01 0. -1.
          5    1    5    5  503    0 -0.51297567841E+02 -0.17068197241E+02  0.10896272659E+04  0.10909777415E+04  0.47000000000E+01 0. -1.
         -5    1    5    5    0  503  0.16893330301E+02 -0.78903459953E+01  0.38596058807E+02  0.43120620636E+02  0.47000000000E+01 0. -1.
<mgrwt>
<rscale>  0 0.27578088E+03</rscale>
<asrwt>0</asrwt>
<pdfrwt beam="1">  1        2 0.24843257E+00 0.27578088E+03</pdfrwt>
<pdfrwt beam="2">  1       -2 0.18114780E-02 0.27578088E+03</pdfrwt>
<totfact> 0.10599992E+04</totfact>
</mgrwt>
</event>
<event>
 9    1  0.2051157E-002  0.2749943E+03  0.7818608E-02  0.1098455E+00
          2   -1    0    0  501    0  0.00000000000E+00  0.00000000000E+00  0.22063058664E+04  0.22063058664E+04  0.00000000000E+00 0.  1.
         -2   -1    0    0    0  501 -0.00000000000E+00 -0.00000000000E+00 -0.85688324558E+01  0.85688324558E+01  0.00000000000E+00 0.  1.
         36    2    1    2    0    0 -0.35527136788E-14  0.00000000000E+00  0.21977370340E+04  0.22148746989E+04  0.27499429315E+03 0.  0.
         25    2    3    3    0    0  0.15897768780E+02  0.50256650185E+02  0.12187247205E+04  0.12263420902E+04  0.12588291301E+03 0.  0.
         25    2    3    3    0    0 -0.15897768780E+02 -0.50256650185E+02  0.97901231343E+03  0.98853260869E+03  0.12630573482E+03 0.  0.
          5    1    4    4  502    0 -0.39467865181E+02 -0.18943583705E+02  0.54900817762E+03  0.55077095134E+03  0.47000000000E+01 0.  1.
         -5    1    4    4    0  502  0.55365633961E+02  0.69200233890E+02  0.66971654291E+03  0.67557113885E+03  0.47000000000E+01 0.  1.
          5    1    5    5  503    0 -0.14819295899E+02 -0.53000785654E+01  0.87455951189E+03  0.87471374301E+03  0.47000000000E+01 0.  1.
         -5    1    5    5    0  503 -0.10784728805E+01 -0.44956571620E+02  0.10445280154E+03  0.11381886568E+03  0.47000000000E+01 0.  1.
<mgrwt>
<rscale>  0 0.27499429E+03</rscale>
<asrwt>0</asrwt>
<pdfrwt beam="1">  1        2 0.33943122E+00 0.27499429E+03</pdfrwt>
<pdfrwt beam="2">  1       -2 0.13182837E-02 0.27499429E+03</pdfrwt>
<totfact> 0.82344702E+03</totfact>
</mgrwt>
</event>
<event>
 9    1  0.2051157E-002  0.2756240E+03  0.7818608E-02  0.1098103E+00
         -1   -1    0    0    0  501 -0.00000000000E+00  0.00000000000E+00  0.20992779064E+03  0.20992779064E+03  0.00000000000E+00 0.  1.
          1   -1    0    0  501    0  0.00000000000E+00 -0.00000000000E+00 -0.90469877822E+02  0.90469877822E+02  0.00000000000E+00 0.  1.
         36    2    1    2    0    0  0.00000000000E+00 -0.35527136788E-14  0.11945791282E+03  0.30039766847E+03  0.27562395811E+03 0.  0.
         25    2    3    3    0    0 -0.49688775311E+02 -0.12189540977E+02  0.10224246058E+03  0.16824651873E+03  0.12343342748E+03 0.  0.
         25    2    3    3    0    0  0.49688775311E+02  0.12189540977E+02  0.17215452248E+02  0.13215114973E+03  0.12062336125E+03 0.  0.
          5    1    4    4  502    0  0.36504175860E+02  0.13257726053E+02  0.12290605606E+02  0.41005745225E+02  0.47000000000E+01 0. -1.
         -5    1    4    4    0  502 -0.86192951170E+02 -0.25447267031E+02  0.89951854970E+02  0.12724077351E+03  0.47000000000E+01 0. -1.
          5    1    5    5  503    0  0.49590942286E+02  0.57203436731E+02  0.34981714872E+02  0.83530264612E+02  0.47000000000E+01 0. -1.
         -5    1    5    5    0  503  0.97833025158E-01 -0.45013895754E+02 -0.17766262625E+02  0.48620885121E+02  0.47000000000E+01 0. -1.
<mgrwt>
<rscale>  0 0.27562396E+03</rscale>
<asrwt>0</asrwt>
<pdfrwt beam="1">  1        1 0.13918443E-01 0.27562396E+03</pdfrwt>
<pdfrwt beam="2">  1       -1 0.32296583E-01 0.27562396E+03</pdfrwt>
<totfact> 0.36838458E+03</totfact>
</mgrwt>
</event>
<event>
 9    1  0.2051157E-002  0.2749570E+03  0.7818608E-02  0.1098476E+00
          2   -1    0    0  501    0  0.00000000000E+00  0.00000000000E+00  0.38242057528E+03  0.38242057528E+03  0.00000000000E+00 0.  1.
         -2   -1    0    0    0  501 -0.00000000000E+00 -0.00000000000E+00 -0.49422926931E+02  0.49422926931E+02  0.00000000000E+00 0.  1.
         36    2    1    2    0    0  0.00000000000E+00 -0.71054273576E-14  0.33299764835E+03  0.43184350221E+03  0.27495704500E+03 0.  0.
         25    2    3    3    0    0 -0.21785579405E+02  0.52548138777E+02  0.17080628238E+03  0.21906274240E+03  0.12481097968E+03 0.  0.
         25    2    3    3    0    0  0.21785579405E+02 -0.52548138777E+02  0.16219136596E+03  0.21278075981E+03  0.12543402326E+03 0.  0.
          5    1    4    4  502    0 -0.32216780321E+02 -0.24133157083E+01  0.15818894182E+03  0.16152268058E+03  0.47000000000E+01 0. -1.
         -5    1    4    4    0  502  0.10431200916E+02  0.54961454485E+02  0.12617340560E+02  0.57540061822E+02  0.47000000000E+01 0. -1.
          5    1    5    5  503    0  0.54708757522E+02 -0.42054004599E+02  0.28825036921E+02  0.74930369050E+02  0.47000000000E+01 0.  1.
         -5    1    5    5    0  503 -0.32923178118E+02 -0.10494134178E+02  0.13336632904E+03  0.13785039076E+03  0.47000000000E+01 0.  1.
<mgrwt>
<rscale>  0 0.27495705E+03</rscale>
<asrwt>0</asrwt>
<pdfrwt beam="1">  1        2 0.58833933E-01 0.27495705E+03</pdfrwt>
<pdfrwt beam="2">  1       -2 0.76035275E-02 0.27495705E+03</pdfrwt>
<totfact> 0.85303576E+03</totfact>
</mgrwt>
</event>
<event>
 9    1  0.2051157E-002  0.2727030E+03  0.7818608E-02  0.1099742E+00
          2   -1    0    0  501    0  0.00000000000E+00  0.00000000000E+00  0.35474634033E+04  0.35474634033E+04  0.00000000000E+00 0. -1.
         -2   -1    0    0    0  501 -0.00000000000E+00 -0.00000000000E+00 -0.52408532558E+01  0.52408532558E+01  0.00000000000E+00 0. -1.
         36    2    1    2    0    0 -0.71054273576E-14  0.00000000000E+00  0.35422225501E+04  0.35527042566E+04  0.27270302622E+03 0.  0.
         25    2    3    3    0    0  0.21555016683E+02  0.44157518316E+02  0.21970134603E+04  0.22011526181E+04  0.12565905535E+03 0.  0.
         25    2    3    3    0    0 -0.21555016683E+02 -0.44157518316E+02  0.13452090898E+04  0.13515516385E+04  0.12120161367E+03 0.  0.
          5    1    4    4  502    0  0.66472307075E+00  0.52359324423E+02  0.21233989114E+04  0.21240496622E+04  0.47000000000E+01 0. -1.
         -5    1    4    4    0  502  0.20890293613E+02 -0.82018061070E+01  0.73614548877E+02  0.77102955825E+02  0.47000000000E+01 0. -1.
          5    1    5    5  503    0 -0.68730341097E+02 -0.45650074591E+02  0.92034214750E+03  0.92404520862E+03  0.47000000000E+01 0.  1.
         -5    1    5    5    0  503  0.47175324413E+02  0.14925562750E+01  0.42486694229E+03  0.42750642990E+03  0.47000000000E+01 0.  1.
<mgrwt>
<rscale>  0 0.27270303E+03</rscale>
<asrwt>0</asrwt>
<pdfrwt beam="1">  1        2 0.54576168E+00 0.27270303E+03</pdfrwt>
<pdfrwt beam="2">  1       -2 0.80628795E-03 0.27270303E+03</pdfrwt>
<totfact> 0.27486243E+03</totfact>
</mgrwt>
</event>
<event>
 9    1  0.2051157E-002  0.2747301E+03  0.7818608E-02  0.1098603E+00
          2   -1    0    0  501    0  0.00000000000E+00  0.00000000000E+00  0.45024813340E+03  0.45024813340E+03  0.00000000000E+00 0. -1.
         -2   -1    0    0    0  501 -0.00000000000E+00 -0.00000000000E+00 -0.41908346162E+02  0.41908346162E+02  0.00000000000E+00 0. -1.
         36    2    1    2    0    0  0.71054273576E-14 -0.71054273576E-14  0.40833978724E+03  0.49215647956E+03  0.27473008305E+03 0.  0.
         25    2    3    3    0    0  0.36526919403E+02 -0.24607110870E+02  0.25436477795E+03  0.28624130013E+03  0.12366452965E+03 0.  0.
         25    2    3    3    0    0 -0.36526919403E+02  0.24607110870E+02  0.15397500929E+03  0.20591517943E+03  0.12943350373E+03 0.  0.
          5    1    4    4  502    0  0.42474060566E+02 -0.18691655658E+02  0.18494771660E+02  0.50175396271E+02  0.47000000000E+01 0.  1.
         -5    1    4    4    0  502 -0.59471411622E+01 -0.59154552122E+01  0.23587000629E+03  0.23606590386E+03  0.47000000000E+01 0.  1.
          5    1    5    5  503    0 -0.32802060152E+02  0.36064188324E+02  0.17472831256E+03  0.18146259681E+03  0.47000000000E+01 0. -1.
         -5    1    5    5    0  503 -0.37248592516E+01 -0.11457077454E+02 -0.20753303272E+02  0.24452582623E+02  0.47000000000E+01 0. -1.
<mgrwt>
<rscale>  0 0.27473008E+03</rscale>
<asrwt>0</asrwt>
<pdfrwt beam="1">  1        2 0.69268940E-01 0.27473008E+03</pdfrwt>
<pdfrwt beam="2">  1       -2 0.64474382E-02 0.27473008E+03</pdfrwt>
<totfact> 0.92151794E+03</totfact>
</mgrwt>
</event>
<event>
 9    1  0.2051157E-002  0.2733511E+03  0.7818608E-02  0.1099377E+00
          3   -1    0    0  501    0  0.00000000000E+00  0.00000000000E+00  0.14108959671E+04  0.14108959671E+04  0.00000000000E+00 0.  1.
         -3   -1    0    0    0  501 -0.00000000000E+00 -0.00000000000E+00 -0.13239962168E+02  0.13239962168E+02  0.00000000000E+00 0.  1.
         36    2    1    2    0    0  0.00000000000E+00  0.00000000000E+00  0.13976560049E+04  0.14241359292E+04  0.27335112385E+03 0.  0.
         25    2    3    3    0    0 -0.25530881208E+02  0.13917505946E-01  0.96963383232E+03  0.97665660739E+03  0.11409002545E+03 0.  0.
         25    2    3    3    0    0  0.25530881208E+02 -0.13917505946E-01  0.42802217260E+03  0.44747932185E+03  0.12799584823E+03 0.  0.
          5    1    4    4  502    0  0.33224742700E+02 -0.27787206082E+02  0.57778924623E+03  0.57942947406E+03  0.47000000000E+01 0.  1.
         -5    1    4    4    0  502 -0.58755623908E+02  0.27801123588E+02  0.39184458608E+03  0.39722713333E+03  0.47000000000E+01 0.  1.
          5    1    5    5  503    0  0.41501493343E+02 -0.36653507292E+02  0.81582151709E+02  0.98709629844E+02  0.47000000000E+01 0.  1.
         -5    1    5    5    0  503 -0.15970612135E+02  0.36639589786E+02  0.34644002089E+03  0.34876969201E+03  0.47000000000E+01 0.  1.
<mgrwt>
<rscale>  0 0.27335112E+03</rscale>
<asrwt>0</asrwt>
<pdfrwt beam="1">  1        3 0.21706080E+00 0.27335112E+03</pdfrwt>
<pdfrwt beam="2">  1       -3 0.20369184E-02 0.27335112E+03</pdfrwt>
<totfact> 0.29795453E+02</totfact>
</mgrwt>
</event>
<event>
 9    1  0.2051157E-002  0.2727583E+03  0.7818608E-02  0.1099711E+00
         -1   -1    0    0    0  501 -0.00000000000E+00  0.00000000000E+00  0.51555174574E+03  0.51555174574E+03  0.00000000000E+00 0. -1.
          1   -1    0    0  501    0  0.00000000000E+00 -0.00000000000E+00 -0.36076443369E+02  0.36076443369E+02  0.00000000000E+00 0. -1.
         36    2    1    2    0    0  0.00000000000E+00 -0.71054273576E-14  0.47947530237E+03  0.55162818911E+03  0.27275830590E+03 0.  0.
         25    2    3    3    0    0  0.20634730804E+02  0.36048253367E+02  0.15870584382E+03  0.20560155194E+03  0.12393217746E+03 0.  0.
         25    2    3    3    0    0 -0.20634730804E+02 -0.36048253367E+02  0.32076945855E+03  0.34602663716E+03  0.12294762871E+03 0.  0.
          5    1    4    4  502    0 -0.38118169414E+02 -0.22431193208E+02  0.78126526191E+02  0.89899929716E+02  0.47000000000E+01 0.  1.
         -5    1    4    4    0  502  0.58752900218E+02  0.58479446575E+02  0.80579317634E+02  0.11570162223E+03  0.47000000000E+01 0.  1.
          5    1    5    5  503    0 -0.70908028223E+02 -0.22672859061E+02  0.22350585235E+03  0.23562462316E+03  0.47000000000E+01 0.  1.
         -5    1    5    5    0  503  0.50273297419E+02 -0.13375394306E+02  0.97263606200E+02  0.11040201401E+03  0.47000000000E+01 0.  1.
<mgrwt>
<rscale>  0 0.27275831E+03</rscale>
<asrwt>0</asrwt>
<pdfrwt beam="1">  1        1 0.55502224E-02 0.27275831E+03</pdfrwt>
<pdfrwt beam="2">  1       -1 0.79315648E-01 0.27275831E+03</pdfrwt>
<totfact> 0.23854671E+03</totfact>
</mgrwt>
</event>
<event>
 9    1  0.2051157E-002  0.2762348E+03  0.7818608E-02  0.1097763E+00
          1   -1    0    0  501    0  0.00000000000E+00  0.00000000000E+00  0.49961265706E+03  0.49961265706E+03  0.00000000000E+00 0.  1.
         -1   -1    0    0    0  501 -0.00000000000E+00 -0.00000000000E+00 -0.38182411336E+02  0.38182411336E+02  0.00000000000E+00 0.  1.
         36    2    1    2    0    0  0.71054273576E-14  0.00000000000E+00  0.46143024573E+03  0.53779506840E+03  0.27623479854E+03 0.  0.
         25    2    3    3    0    0  0.35540299977E+01 -0.83405178527E+01  0.11314050742E+03  0.16754944976E+03  0.12324710272E+03 0.  0.
         25    2    3    3    0    0 -0.35540299977E+01  0.83405178527E+01  0.34828973831E+03  0.37024561864E+03  0.12527522079E+03 0.  0.
          5    1    4    4  502    0 -0.42511682788E+02 -0.44243632987E+02  0.38230317150E+02  0.72445768563E+02  0.47000000000E+01 0. -1.
         -5    1    4    4    0  502  0.46065712785E+02  0.35903115135E+02  0.74910190270E+02  0.95103681196E+02  0.47000000000E+01 0. -1.
          5    1    5    5  503    0 -0.40042837788E+02  0.16007578345E+02  0.32071068366E+03  0.32363112341E+03  0.47000000000E+01 0.  1.
         -5    1    5    5    0  503  0.36488807790E+02 -0.76670604923E+01  0.27579054642E+02  0.46614495230E+02  0.47000000000E+01 0.  1.
<mgrwt>
<rscale>  0 0.27623480E+03</rscale>
<asrwt>0</asrwt>
<pdfrwt beam="1">  1        1 0.76863481E-01 0.27623480E+03</pdfrwt>
<pdfrwt beam="2">  1       -1 0.58742175E-02 0.27623480E+03</pdfrwt>
<totfact> 0.62085529E+03</totfact>
</mgrwt>
</event>
<event>
 9    1  0.2051157E-002  0.2754472E+03  0.7818608E-02  0.1098202E+00
         -2   -1    0    0    0  501 -0.00000000000E+00  0.00000000000E+00  0.11561574286E+02  0.11561574286E+02  0.00000000000E+00 0. -1.
          2   -1    0    0  501    0  0.00000000000E+00 -0.00000000000E+00 -0.16405892945E+04  0.16405892945E+04  0.00000000000E+00 0. -1.
         36    2    1    2    0    0 -0.35527136788E-14  0.71054273576E-14 -0.16290277202E+04  0.16521508688E+04  0.27544723633E+03 0.  0.
         25    2    3    3    0    0 -0.26196063336E+02 -0.32624268619E+02 -0.10671976537E+04  0.10755118204E+04  0.12674489016E+03 0.  0.
         25    2    3    3    0    0  0.26196063336E+02  0.32624268619E+02 -0.56183006654E+03  0.57663904838E+03  0.12291863900E+03 0.  0.
          5    1    4    4  502    0  0.49195441976E+02 -0.16171699038E+02 -0.30469284005E+03  0.30909793292E+03  0.47000000000E+01 0. -1.
         -5    1    4    4    0  502 -0.75391505312E+02 -0.16452569581E+02 -0.76250481362E+03  0.76641388748E+03  0.47000000000E+01 0. -1.
          5    1    5    5  503    0 -0.16969160405E+02 -0.35065346565E+02 -0.30498055703E+03  0.30749432694E+03  0.47000000000E+01 0.  1.
         -5    1    5    5    0  503  0.43165223740E+02  0.67689615184E+02 -0.25684950951E+03  0.26914472144E+03  0.47000000000E+01 0.  1.
<mgrwt>
<rscale>  0 0.27544724E+03</rscale>
<asrwt>0</asrwt>
<pdfrwt beam="1">  1        2 0.25239851E+00 0.27544724E+03</pdfrwt>
<pdfrwt beam="2">  1       -2 0.17787026E-02 0.27544724E+03</pdfrwt>
<totfact> 0.10551198E+04</totfact>
</mgrwt>
</event>
<event>
 9    1  0.2051157E-002  0.2771561E+03  0.7818608E-02  0.1097252E+00
          1   -1    0    0  501    0  0.00000000000E+00  0.00000000000E+00  0.35270908736E+03  0.35270908736E+03  0.00000000000E+00 0.  1.
         -1   -1    0    0    0  501 -0.00000000000E+00 -0.00000000000E+00 -0.54446785582E+02  0.54446785582E+02  0.00000000000E+00 0.  1.
         36    2    1    2    0    0 -0.71054273576E-14  0.71054273576E-14  0.29826230178E+03  0.40715587294E+03  0.27715610080E+03 0.  0.
         25    2    3    3    0    0 -0.95806202946E+01 -0.50621927784E+02  0.23342531625E+03  0.27023886727E+03  0.12604483035E+03 0.  0.
         25    2    3    3    0    0  0.95806202946E+01  0.50621927784E+02  0.64836985533E+02  0.13691700568E+03  0.10903239836E+03 0.  0.
          5    1    4    4  502    0 -0.38309484499E+02  0.38269605126E+01  0.12351626450E+02  0.40705219633E+02  0.47000000000E+01 0. -1.
         -5    1    4    4    0  502  0.28728864205E+02 -0.54448888296E+02  0.22107368980E+03  0.22953364763E+03  0.47000000000E+01 0. -1.
          5    1    5    5  503    0  0.43543306809E+02  0.62032159916E+02  0.18499984003E+02  0.78155920056E+02  0.47000000000E+01 0. -1.
         -5    1    5    5    0  503 -0.33962686515E+02 -0.11410232133E+02  0.46337001530E+02  0.58761085622E+02  0.47000000000E+01 0. -1.
<mgrwt>
<rscale>  0 0.27715610E+03</rscale>
<asrwt>0</asrwt>
<pdfrwt beam="1">  1        1 0.54262935E-01 0.27715610E+03</pdfrwt>
<pdfrwt beam="2">  1       -1 0.83764288E-02 0.27715610E+03</pdfrwt>
<totfact> 0.56830260E+03</totfact>
</mgrwt>
</event>
<event>
 9    1  0.2051157E-002  0.2761761E+03  0.7818608E-02  0.1097796E+00
         -2   -1    0    0    0  501 -0.00000000000E+00  0.00000000000E+00  0.98761938734E+01  0.98761938734E+01  0.00000000000E+00 0. -1.
          2   -1    0    0  501    0  0.00000000000E+00 -0.00000000000E+00 -0.19307340862E+04  0.19307340862E+04  0.00000000000E+00 0. -1.
         36    2    1    2    0    0  0.00000000000E+00  0.71054273576E-14 -0.19208578924E+04  0.19406102801E+04  0.27617606090E+03 0.  0.
         25    2    3    3    0    0 -0.32422508134E+02  0.10024270283E+02 -0.49883061954E+03  0.51298299332E+03  0.11475129377E+03 0.  0.
         25    2    3    3    0    0  0.32422508134E+02 -0.10024270283E+02 -0.14220272728E+04  0.14276272868E+04  0.12168155279E+03 0.  0.
          5    1    4    4  502    0 -0.22112078352E+02  0.43234748446E+02 -0.45115811644E+03  0.45378841271E+03  0.47000000000E+01 0. -1.
         -5    1    4    4    0  502 -0.10310429781E+02 -0.33210478163E+02 -0.47672503097E+02  0.59194580610E+02  0.47000000000E+01 0. -1.
          5    1    5    5  503    0 -0.65744899083E+01 -0.35714666486E+02 -0.12061998984E+04  0.12067555868E+04  0.47000000000E+01 0.  1.
         -5    1    5    5    0  503  0.38996998042E+02  0.25690396203E+02 -0.21582737443E+03  0.22087170001E+03  0.47000000000E+01 0.  1.
<mgrwt>
<rscale>  0 0.27617606E+03</rscale>
<asrwt>0</asrwt>
<pdfrwt beam="1">  1        2 0.29703565E+00 0.27617606E+03</pdfrwt>
<pdfrwt beam="2">  1       -2 0.15194163E-02 0.27617606E+03</pdfrwt>
<totfact> 0.93549567E+03</totfact>
</mgrwt>
</event>
<event>
 9    1  0.2051157E-002  0.2751298E+03  0.7818608E-02  0.1098379E+00
         -2   -1    0    0    0  501 -0.00000000000E+00  0.00000000000E+00  0.86875519875E+02  0.86875519875E+02  0.00000000000E+00 0.  1.
          2   -1    0    0  501    0  0.00000000000E+00 -0.00000000000E+00 -0.21783010437E+03  0.21783010437E+03  0.00000000000E+00 0.  1.
         36    2    1    2    0    0  0.00000000000E+00  0.71054273576E-14 -0.13095458450E+03  0.30470562425E+03  0.27512981345E+03 0.  0.
         25    2    3    3    0    0  0.36077785302E+02 -0.16323213428E+02 -0.18462875723E+02  0.13165568056E+03  0.12419455123E+03 0.  0.
         25    2    3    3    0    0 -0.36077785302E+02  0.16323213428E+02 -0.11249170877E+03  0.17304994368E+03  0.12539475498E+03 0.  0.
          5    1    4    4  502    0  0.19201731318E+02  0.39102550112E+02  0.32338097469E+02  0.54456941328E+02  0.47000000000E+01 0.  1.
         -5    1    4    4    0  502  0.16876053984E+02 -0.55425763540E+02 -0.50800973192E+02  0.77198739234E+02  0.47000000000E+01 0.  1.
          5    1    5    5  503    0 -0.35198614429E+02  0.69381014848E+02 -0.72367744330E+02  0.10635717229E+03  0.47000000000E+01 0.  1.
         -5    1    5    5    0  503 -0.87917087349E+00 -0.53057801420E+02 -0.40123964443E+02  0.66692771389E+02  0.47000000000E+01 0.  1.
<mgrwt>
<rscale>  0 0.27512981E+03</rscale>
<asrwt>0</asrwt>
<pdfrwt beam="1">  1        2 0.33512323E-01 0.27512981E+03</pdfrwt>
<pdfrwt beam="2">  1       -2 0.13365465E-01 0.27512981E+03</pdfrwt>
<totfact> 0.63811572E+03</totfact>
</mgrwt>
</event>
<event>
 9    1  0.2051157E-002  0.2800467E+03  0.7818608E-02  0.1095663E+00
         -2   -1    0    0    0  501 -0.00000000000E+00  0.00000000000E+00  0.85726461839E+02  0.85726461839E+02  0.00000000000E+00 0. -1.
          2   -1    0    0  501    0  0.00000000000E+00 -0.00000000000E+00 -0.22871042557E+03  0.22871042557E+03  0.00000000000E+00 0. -1.
         36    2    1    2    0    0  0.00000000000E+00  0.00000000000E+00 -0.14298396373E+03  0.31443688741E+03  0.28004667875E+03 0.  0.
         25    2    3    3    0    0 -0.53007191410E+02  0.26294816857E+02 -0.67121687729E+02  0.15347089554E+03  0.12468686811E+03 0.  0.
         25    2    3    3    0    0  0.53007191410E+02 -0.26294816857E+02 -0.75862276003E+02  0.16096599187E+03  0.12904954817E+03 0.  0.
          5    1    4    4  502    0  0.36723247713E+02  0.28630307051E+02 -0.13092276498E+02  0.48598241824E+02  0.47000000000E+01 0. -1.
         -5    1    4    4    0  502 -0.89730439124E+02 -0.23354901941E+01 -0.54029411231E+02  0.10487265372E+03  0.47000000000E+01 0. -1.
          5    1    5    5  503    0  0.62761344106E+02 -0.20912276171E+02 -0.10793922494E+03  0.12668573673E+03  0.47000000000E+01 0.  1.
         -5    1    5    5    0  503 -0.97541526953E+01 -0.53825406867E+01  0.32076948942E+02  0.34280255140E+02  0.47000000000E+01 0.  1.
<mgrwt>
<rscale>  0 0.28004668E+03</rscale>
<asrwt>0</asrwt>
<pdfrwt beam="1">  1        2 0.35186220E-01 0.28004668E+03</pdfrwt>
<pdfrwt beam="2">  1       -2 0.13188686E-01 0.28004668E+03</pdfrwt>
<totfact> 0.61886557E+03</totfact>
</mgrwt>
</event>
<event>
 9    1  0.2051157E-002  0.2751210E+03  0.7818608E-02  0.1098384E+00
          2   -1    0    0  501    0  0.00000000000E+00  0.00000000000E+00  0.42893042105E+02  0.42893042105E+02  0.00000000000E+00 0. -1.
         -2   -1    0    0    0  501 -0.00000000000E+00 -0.00000000000E+00 -0.44116452969E+03  0.44116452969E+03  0.00000000000E+00 0. -1.
         36    2    1    2    0    0 -0.71054273576E-14  0.00000000000E+00 -0.39827148759E+03  0.48405757180E+03  0.27512098246E+03 0.  0.
         25    2    3    3    0    0  0.53339518746E+02  0.25858945412E+01 -0.27511127968E+03  0.30002256602E+03  0.10712391331E+03 0.  0.
         25    2    3    3    0    0 -0.53339518746E+02 -0.25858945412E+01 -0.12316020791E+03  0.18403500578E+03  0.12589144304E+03 0.  0.
          5    1    4    4  502    0 -0.13495312170E+02 -0.28151306527E+02 -0.28161602905E+02  0.42305855244E+02  0.47000000000E+01 0. -1.
         -5    1    4    4    0  502  0.66834830915E+02  0.30737201068E+02 -0.24694967678E+03  0.25771671078E+03  0.47000000000E+01 0. -1.
          5    1    5    5  503    0 -0.73070017508E+02  0.17212883980E+02 -0.13401781462E+03  0.15368271038E+03  0.47000000000E+01 0. -1.
         -5    1    5    5    0  503  0.19730498763E+02 -0.19798778521E+02  0.10857606715E+02  0.30352295398E+02  0.47000000000E+01 0. -1.
<mgrwt>
<rscale>  0 0.27512098E+03</rscale>
<asrwt>0</asrwt>
<pdfrwt beam="1">  1        2 0.65989295E-02 0.27512098E+03</pdfrwt>
<pdfrwt beam="2">  1       -2 0.67871466E-01 0.27512098E+03</pdfrwt>
<totfact> 0.22178147E+03</totfact>
</mgrwt>
</event>
<event>
 9    1  0.2051157E-002  0.2752459E+03  0.7818608E-02  0.1098314E+00
          2   -1    0    0  501    0  0.00000000000E+00  0.00000000000E+00  0.44296430229E+03  0.44296430229E+03  0.00000000000E+00 0. -1.
         -2   -1    0    0    0  501 -0.00000000000E+00 -0.00000000000E+00 -0.42757563921E+02  0.42757563921E+02  0.00000000000E+00 0. -1.
         36    2    1    2    0    0  0.00000000000E+00  0.00000000000E+00  0.40020673837E+03  0.48572186621E+03  0.27524588622E+03 0.  0.
         25    2    3    3    0    0 -0.17771228903E+02 -0.13907646560E+02  0.10756535517E+03  0.16606482986E+03  0.12449089475E+03 0.  0.
         25    2    3    3    0    0  0.17771228903E+02  0.13907646560E+02  0.29264138320E+03  0.31965703635E+03  0.12661912381E+03 0.  0.
          5    1    4    4  502    0 -0.60993114110E+02 -0.69194967208E+00  0.15064630210E+02  0.63005331890E+02  0.47000000000E+01 0.  1.
         -5    1    4    4    0  502  0.43221885207E+02 -0.13215696888E+02  0.92500724955E+02  0.10305949797E+03  0.47000000000E+01 0.  1.
          5    1    5    5  503    0  0.36689865857E+02 -0.20849921540E+01  0.13579984173E+02  0.39458831952E+02  0.47000000000E+01 0. -1.
         -5    1    5    5    0  503 -0.18918636954E+02  0.15992638714E+02  0.27906139903E+03  0.28019820439E+03  0.47000000000E+01 0. -1.
<mgrwt>
<rscale>  0 0.27524589E+03</rscale>
<asrwt>0</asrwt>
<pdfrwt beam="1">  1        2 0.68148351E-01 0.27524589E+03</pdfrwt>
<pdfrwt beam="2">  1       -2 0.65780871E-02 0.27524589E+03</pdfrwt>
<totfact> 0.90969220E+03</totfact>
</mgrwt>
</event>
<event>
 9    1  0.2051157E-002  0.2740069E+03  0.7818608E-02  0.1099008E+00
          1   -1    0    0  501    0  0.00000000000E+00  0.00000000000E+00  0.33897243518E+03  0.33897243518E+03  0.00000000000E+00 0.  1.
         -1   -1    0    0    0  501 -0.00000000000E+00 -0.00000000000E+00 -0.55373070200E+02  0.55373070200E+02  0.00000000000E+00 0.  1.
         36    2    1    2    0    0  0.00000000000E+00  0.00000000000E+00  0.28359936498E+03  0.39434550538E+03  0.27400689370E+03 0.  0.
         25    2    3    3    0    0 -0.20607421982E+02 -0.41556202947E+02  0.88397687975E+02  0.15987777955E+03  0.12488062023E+03 0.  0.
         25    2    3    3    0    0  0.20607421982E+02  0.41556202947E+02  0.19520167700E+03  0.23446772583E+03  0.12132533085E+03 0.  0.
          5    1    4    4  502    0 -0.41978628751E+02 -0.25471480200E+02 -0.16116735472E+02  0.51892588466E+02  0.47000000000E+01 0. -1.
         -5    1    4    4    0  502  0.21371206770E+02 -0.16084722746E+02  0.10451442345E+03  0.10798519108E+03  0.47000000000E+01 0. -1.
          5    1    5    5  503    0  0.19725754420E+02  0.73558074731E+02  0.64779997161E+02  0.10009212645E+03  0.47000000000E+01 0.  1.
         -5    1    5    5    0  503  0.88166756199E+00 -0.32001871784E+02  0.13042167984E+03  0.13437559938E+03  0.47000000000E+01 0.  1.
<mgrwt>
<rscale>  0 0.27400689E+03</rscale>
<asrwt>0</asrwt>
<pdfrwt beam="1">  1        1 0.52149604E-01 0.27400689E+03</pdfrwt>
<pdfrwt beam="2">  1       -1 0.85189341E-02 0.27400689E+03</pdfrwt>
<totfact> 0.58218375E+03</totfact>
</mgrwt>
</event>
<event>
 9    1  0.2051157E-002  0.2716237E+03  0.7818608E-02  0.1100354E+00
         -1   -1    0    0    0  501 -0.00000000000E+00  0.00000000000E+00  0.13921576841E+03  0.13921576841E+03  0.00000000000E+00 0.  1.
          1   -1    0    0  501    0  0.00000000000E+00 -0.00000000000E+00 -0.13249117220E+03  0.13249117220E+03  0.00000000000E+00 0.  1.
         36    2    1    2    0    0  0.17763568394E-14  0.00000000000E+00  0.67245962061E+01  0.27170694060E+03  0.27162371284E+03 0.  0.
         25    2    3    3    0    0  0.13386248110E+02  0.23967627678E+02  0.50860528794E+02  0.13731217711E+03  0.12455601863E+03 0.  0.
         25    2    3    3    0    0 -0.13386248110E+02 -0.23967627678E+02 -0.44135932588E+02  0.13439476350E+03  0.12393681090E+03 0.  0.
          5    1    4    4  502    0  0.32385442269E+01  0.74648424241E+02  0.22528088650E+02  0.78182352156E+02  0.47000000000E+01 0.  1.
         -5    1    4    4    0  502  0.10147703883E+02 -0.50680796563E+02  0.28332440144E+02  0.59129824952E+02  0.47000000000E+01 0.  1.
          5    1    5    5  503    0 -0.33847776508E+02  0.24840873542E+02  0.23532829926E+02  0.48359332680E+02  0.47000000000E+01 0. -1.
         -5    1    5    5    0  503  0.20461528399E+02 -0.48808501220E+02 -0.67668762514E+02  0.86035430817E+02  0.47000000000E+01 0. -1.
<mgrwt>
<rscale>  0 0.27162371E+03</rscale>
<asrwt>0</asrwt>
<pdfrwt beam="1">  1        1 0.20383257E-01 0.27162371E+03</pdfrwt>
<pdfrwt beam="2">  1       -1 0.21417811E-01 0.27162371E+03</pdfrwt>
<totfact> 0.44565197E+03</totfact>
</mgrwt>
</event>
<event>
 9    1  0.2051157E-002  0.2753223E+03  0.7818608E-02  0.1098272E+00
         -2   -1    0    0    0  501 -0.00000000000E+00  0.00000000000E+00  0.95715206555E+01  0.95715206555E+01  0.00000000000E+00 0.  1.
          2   -1    0    0  501    0  0.00000000000E+00 -0.00000000000E+00 -0.19798938588E+04  0.19798938588E+04  0.00000000000E+00 0.  1.
         36    2    1    2    0    0  0.00000000000E+00  0.35527136788E-14 -0.19703223382E+04  0.19894653795E+04  0.27532231995E+03 0.  0.
         25    2    3    3    0    0 -0.38332675786E+02 -0.20965742863E+02 -0.13798791565E+04  0.13863073168E+04  0.12598624459E+03 0.  0.
         25    2    3    3    0    0  0.38332675786E+02  0.20965742863E+02 -0.59044318170E+03  0.60315806265E+03  0.11518481376E+03 0.  0.
          5    1    4    4  502    0  0.40929802954E+01  0.42977264001E+02 -0.82315599697E+03  0.82430072368E+03  0.47000000000E+01 0.  1.
         -5    1    4    4    0  502 -0.42425656082E+02 -0.63943006863E+02 -0.55672315950E+03  0.56200659315E+03  0.47000000000E+01 0.  1.
          5    1    5    5  503    0  0.21264379667E+01  0.28958132969E+02 -0.31996762341E+02  0.43462374576E+02  0.47000000000E+01 0.  1.
         -5    1    5    5    0  503  0.36206237820E+02 -0.79923901063E+01 -0.55844641936E+03  0.55969568808E+03  0.47000000000E+01 0.  1.
<mgrwt>
<rscale>  0 0.27532232E+03</rscale>
<asrwt>0</asrwt>
<pdfrwt beam="1">  1        2 0.30459933E+00 0.27532232E+03</pdfrwt>
<pdfrwt beam="2">  1       -2 0.14725403E-02 0.27532232E+03</pdfrwt>
<totfact> 0.92278501E+03</totfact>
</mgrwt>
</event>
<event>
 9    1  0.2051157E-002  0.2749285E+03  0.7818608E-02  0.1098492E+00
         -2   -1    0    0    0  501 -0.00000000000E+00  0.00000000000E+00  0.26696544175E+02  0.26696544175E+02  0.00000000000E+00 0. -1.
          2   -1    0    0  501    0  0.00000000000E+00 -0.00000000000E+00 -0.70782281232E+03  0.70782281232E+03  0.00000000000E+00 0. -1.
         36    2    1    2    0    0  0.71054273576E-14  0.00000000000E+00 -0.68112626815E+03  0.73451935650E+03  0.27492852145E+03 0.  0.
         25    2    3    3    0    0  0.42119081384E+02 -0.27624598148E+02 -0.47641843537E+03  0.49440741823E+03  0.12217624238E+03 0.  0.
         25    2    3    3    0    0 -0.42119081384E+02  0.27624598148E+02 -0.20470783278E+03  0.24011193826E+03  0.11494046571E+03 0.  0.
          5    1    4    4  502    0 -0.22397197530E+01  0.40017199502E+02 -0.26388315486E+03  0.26695093561E+03  0.47000000000E+01 0. -1.
         -5    1    4    4    0  502  0.44358801137E+02 -0.67641797650E+02 -0.21253528051E+03  0.22745648263E+03  0.47000000000E+01 0. -1.
          5    1    5    5  503    0 -0.23522254313E+02  0.94736868297E+01  0.70319297210E+01  0.26731726949E+02  0.47000000000E+01 0.  1.
         -5    1    5    5    0  503 -0.18596827071E+02  0.18150911318E+02 -0.21173976250E+03  0.21338021131E+03  0.47000000000E+01 0.  1.
<mgrwt>
<rscale>  0 0.27492852E+03</rscale>
<asrwt>0</asrwt>
<pdfrwt beam="1">  1        2 0.10889583E+00 0.27492852E+03</pdfrwt>
<pdfrwt beam="2">  1       -2 0.41071601E-02 0.27492852E+03</pdfrwt>
<totfact> 0.10881930E+04</totfact>
</mgrwt>
</event>
<event>
 9    1  0.2051157E-002  0.2750560E+03  0.7818608E-02  0.1098420E+00
         -3   -1    0    0    0  501 -0.00000000000E+00  0.00000000000E+00  0.10181723435E+02  0.10181723435E+02  0.00000000000E+00 0.  1.
          3   -1    0    0  501    0  0.00000000000E+00 -0.00000000000E+00 -0.18576374492E+04  0.18576374492E+04  0.00000000000E+00 0.  1.
         36    2    1    2    0    0  0.00000000000E+00  0.71054273576E-14 -0.18474557257E+04  0.18678191726E+04  0.27505599976E+03 0.  0.
         25    2    3    3    0    0 -0.16551809604E+02  0.52474126769E+02 -0.74688531272E+03  0.75842940943E+03  0.11979149530E+03 0.  0.
         25    2    3    3    0    0  0.16551809604E+02 -0.52474126769E+02 -0.11005704130E+04  0.11093897632E+04  0.12830789632E+03 0.  0.
          5    1    4    4  502    0 -0.24607437854E+02 -0.33897367378E+02 -0.32256816881E+03  0.32531042258E+03  0.47000000000E+01 0. -1.
         -5    1    4    4    0  502  0.80556282501E+01  0.86371494147E+02 -0.42431714392E+03  0.43311898685E+03  0.47000000000E+01 0. -1.
          5    1    5    5  503    0 -0.73045165023E+01 -0.89749795339E+00 -0.15228270629E+01  0.88639983175E+01  0.47000000000E+01 0.  1.
         -5    1    5    5    0  503  0.23856326106E+02 -0.51576628816E+02 -0.10990475859E+04  0.11005257648E+04  0.47000000000E+01 0.  1.
<mgrwt>
<rscale>  0 0.27505600E+03</rscale>
<asrwt>0</asrwt>
<pdfrwt beam="1">  1        3 0.28579041E+00 0.27505600E+03</pdfrwt>
<pdfrwt beam="2">  1       -3 0.15664188E-02 0.27505600E+03</pdfrwt>
<totfact> 0.18580379E+02</totfact>
</mgrwt>
</event>
<event>
 9    1  0.2051157E-002  0.2743279E+03  0.7818608E-02  0.1098828E+00
          2   -1    0    0  501    0  0.00000000000E+00  0.00000000000E+00  0.55326321704E+03  0.55326321704E+03  0.00000000000E+00 0. -1.
         -2   -1    0    0    0  501 -0.00000000000E+00 -0.00000000000E+00 -0.34005410859E+02  0.34005410859E+02  0.00000000000E+00 0. -1.
         36    2    1    2    0    0  0.00000000000E+00  0.00000000000E+00  0.51925780619E+03  0.58726862790E+03  0.27432785501E+03 0.  0.
         25    2    3    3    0    0  0.10697591056E+02 -0.47128868020E+02  0.16539543519E+03  0.21035932999E+03  0.12066411677E+03 0.  0.
         25    2    3    3    0    0 -0.10697591056E+02  0.47128868020E+02  0.35386237100E+03  0.37690929792E+03  0.12044281876E+03 0.  0.
          5    1    4    4  502    0  0.60377835259E+01  0.38517026157E+02  0.80592503831E+02  0.89650754641E+02  0.47000000000E+01 0. -1.
         -5    1    4    4    0  502  0.46598075296E+01 -0.85645894177E+02  0.84802931355E+02  0.12070857535E+03  0.47000000000E+01 0. -1.
          5    1    5    5  503    0  0.16238409403E+02  0.13648876222E+02  0.13634744598E+01  0.21769860465E+02  0.47000000000E+01 0.  1.
         -5    1    5    5    0  503 -0.26936000459E+02  0.33479991797E+02  0.35249889654E+03  0.35513943745E+03  0.47000000000E+01 0.  1.
<mgrwt>
<rscale>  0 0.27432786E+03</rscale>
<asrwt>0</asrwt>
<pdfrwt beam="1">  1        2 0.85117411E-01 0.27432786E+03</pdfrwt>
<pdfrwt beam="2">  1       -2 0.52316021E-02 0.27432786E+03</pdfrwt>
<totfact> 0.10076969E+04</totfact>
</mgrwt>
</event>
<event>
 9    1  0.2051157E-002  0.2754084E+03  0.7818608E-02  0.1098224E+00
          1   -1    0    0  501    0  0.00000000000E+00  0.00000000000E+00  0.32066715744E+03  0.32066715744E+03  0.00000000000E+00 0.  1.
         -1   -1    0    0    0  501 -0.00000000000E+00 -0.00000000000E+00 -0.59134366257E+02  0.59134366257E+02  0.00000000000E+00 0.  1.
         36    2    1    2    0    0 -0.71054273576E-14  0.00000000000E+00  0.26153279119E+03  0.37980152370E+03  0.27540841770E+03 0.  0.
         25    2    3    3    0    0  0.37848662931E+02 -0.16323921709E+02  0.78452695448E+02  0.15334218919E+03  0.12513996107E+03 0.  0.
         25    2    3    3    0    0 -0.37848662931E+02  0.16323921709E+02  0.18308009574E+03  0.22645933451E+03  0.12675376534E+03 0.  0.
          5    1    4    4  502    0  0.32283893305E+02  0.37145043784E+02  0.85657550927E+02  0.98900505942E+02  0.47000000000E+01 0.  1.
         -5    1    4    4    0  502  0.55647696254E+01 -0.53468965493E+02 -0.72048554796E+01  0.54441683244E+02  0.47000000000E+01 0.  1.
          5    1    5    5  503    0 -0.13193431332E+02  0.21712082046E+02  0.19601716752E+03  0.19771267309E+03  0.47000000000E+01 0.  1.
         -5    1    5    5    0  503 -0.24655231599E+02 -0.53881603367E+01 -0.12937071780E+02  0.28746661428E+02  0.47000000000E+01 0.  1.
<mgrwt>
<rscale>  0 0.27540842E+03</rscale>
<asrwt>0</asrwt>
<pdfrwt beam="1">  1        1 0.49333408E-01 0.27540842E+03</pdfrwt>
<pdfrwt beam="2">  1       -1 0.90975950E-02 0.27540842E+03</pdfrwt>
<totfact> 0.56465579E+03</totfact>
</mgrwt>
</event>
<event>
 9    1  0.2051157E-002  0.2749740E+03  0.7818608E-02  0.1098466E+00
          1   -1    0    0  501    0  0.00000000000E+00  0.00000000000E+00  0.75627620975E+03  0.75627620975E+03  0.00000000000E+00 0. -1.
         -1   -1    0    0    0  501 -0.00000000000E+00 -0.00000000000E+00 -0.24994409097E+02  0.24994409097E+02  0.00000000000E+00 0. -1.
         36    2    1    2    0    0  0.00000000000E+00  0.00000000000E+00  0.73128180066E+03  0.78127061885E+03  0.27497401315E+03 0.  0.
         25    2    3    3    0    0 -0.19950253563E+02  0.33574793407E+02  0.24009655356E+03  0.27314659326E+03  0.12424744268E+03 0.  0.
         25    2    3    3    0    0  0.19950253563E+02 -0.33574793407E+02  0.49118524710E+03  0.50812402559E+03  0.12410398480E+03 0.  0.
          5    1    4    4  502    0 -0.24829826514E+02 -0.13456413418E+02  0.24252447865E+00  0.28631174704E+02  0.47000000000E+01 0. -1.
         -5    1    4    4    0  502  0.48795729511E+01  0.47031206825E+02  0.23985402908E+03  0.24451541856E+03  0.47000000000E+01 0. -1.
          5    1    5    5  503    0  0.40681489082E+02 -0.15774985923E+02  0.47285455300E+03  0.47488667282E+03  0.47000000000E+01 0.  1.
         -5    1    5    5    0  503 -0.20731235519E+02 -0.17799807483E+02  0.18330694101E+02  0.33237352765E+02  0.47000000000E+01 0.  1.
<mgrwt>
<rscale>  0 0.27497401E+03</rscale>
<asrwt>0</asrwt>
<pdfrwt beam="1">  1        1 0.11635017E+00 0.27497401E+03</pdfrwt>
<pdfrwt beam="2">  1       -1 0.38452943E-02 0.27497401E+03</pdfrwt>
<totfact> 0.65363240E+03</totfact>
</mgrwt>
</event>
<event>
 9    1  0.2051157E-002  0.2753391E+03  0.7818608E-02  0.1098262E+00
         -1   -1    0    0    0  501 -0.00000000000E+00  0.00000000000E+00  0.20915283994E+02  0.20915283994E+02  0.00000000000E+00 0. -1.
          1   -1    0    0  501    0  0.00000000000E+00 -0.00000000000E+00 -0.90617470879E+03  0.90617470879E+03  0.00000000000E+00 0. -1.
         36    2    1    2    0    0  0.00000000000E+00  0.35527136788E-14 -0.88525942480E+03  0.92708999279E+03  0.27533907374E+03 0.  0.
         25    2    3    3    0    0 -0.43311653743E+02  0.26573247882E+02 -0.43886475522E+03  0.46135015701E+03  0.13288964273E+03 0.  0.
         25    2    3    3    0    0  0.43311653743E+02 -0.26573247882E+02 -0.44639466958E+03  0.46573983577E+03  0.12273286743E+03 0.  0.
          5    1    4    4  502    0  0.37983995595E+02 -0.12477674268E+02 -0.23435606160E+03  0.23778841411E+03  0.47000000000E+01 0. -1.
         -5    1    4    4    0  502 -0.81295649338E+02  0.39050922150E+02 -0.20450869363E+03  0.22356174290E+03  0.47000000000E+01 0. -1.
          5    1    5    5  503    0  0.31130984763E+02  0.33352715195E+02 -0.65635885892E+02  0.80073099977E+02  0.47000000000E+01 0. -1.
         -5    1    5    5    0  503  0.12180668980E+02 -0.59925963078E+02 -0.38075878368E+03  0.38566673580E+03  0.47000000000E+01 0. -1.
<mgrwt>
<rscale>  0 0.27533907E+03</rscale>
<asrwt>0</asrwt>
<pdfrwt beam="1">  1        1 0.13941147E+00 0.27533907E+03</pdfrwt>
<pdfrwt beam="2">  1       -1 0.32177364E-02 0.27533907E+03</pdfrwt>
<totfact> 0.64132284E+03</totfact>
</mgrwt>
</event>
<event>
 9    1  0.2051157E-002  0.2748400E+03  0.7818608E-02  0.1098541E+00
         -2   -1    0    0    0  501 -0.00000000000E+00  0.00000000000E+00  0.24890277107E+02  0.24890277107E+02  0.00000000000E+00 0. -1.
          2   -1    0    0  501    0  0.00000000000E+00 -0.00000000000E+00 -0.75870012310E+03  0.75870012310E+03  0.00000000000E+00 0. -1.
         36    2    1    2    0    0  0.00000000000E+00  0.00000000000E+00 -0.73380984599E+03  0.78359040020E+03  0.27483999931E+03 0.  0.
         25    2    3    3    0    0 -0.49457843851E+02 -0.14654989024E+02 -0.28499238248E+03  0.31516625300E+03  0.12429103724E+03 0.  0.
         25    2    3    3    0    0  0.49457843851E+02  0.14654989024E+02 -0.44881746351E+03  0.46842414720E+03  0.12378699088E+03 0.  0.
          5    1    4    4  502    0 -0.25685128883E+01  0.45069085703E+02 -0.47114628240E+02  0.65419400324E+02  0.47000000000E+01 0. -1.
         -5    1    4    4    0  502 -0.46889330963E+02 -0.59724074727E+02 -0.23787775424E+03  0.24974685268E+03  0.47000000000E+01 0. -1.
          5    1    5    5  503    0  0.87345161991E+02  0.15780211535E+02 -0.23551747266E+03  0.25173152827E+03  0.47000000000E+01 0.  1.
         -5    1    5    5    0  503 -0.37887318140E+02 -0.11252225111E+01 -0.21329999085E+03  0.21669261893E+03  0.47000000000E+01 0.  1.
<mgrwt>
<rscale>  0 0.27484000E+03</rscale>
<asrwt>0</asrwt>
<pdfrwt beam="1">  1        2 0.11672310E+00 0.27484000E+03</pdfrwt>
<pdfrwt beam="2">  1       -2 0.38292734E-02 0.27484000E+03</pdfrwt>
<totfact> 0.11099460E+04</totfact>
</mgrwt>
</event>
<event>
 9    1  0.2051157E-002  0.2753516E+03  0.7818608E-02  0.1098255E+00
          1   -1    0    0  501    0  0.00000000000E+00  0.00000000000E+00  0.35517229150E+03  0.35517229150E+03  0.00000000000E+00 0.  1.
         -1   -1    0    0    0  501 -0.00000000000E+00 -0.00000000000E+00 -0.53367402084E+02  0.53367402084E+02  0.00000000000E+00 0.  1.
         36    2    1    2    0    0  0.71054273576E-14  0.62172489379E-14  0.30180488942E+03  0.40853969358E+03  0.27535157519E+03 0.  0.
         25    2    3    3    0    0 -0.35395653675E+02 -0.78118769430E+01  0.21730319469E+03  0.25098589993E+03  0.12024710317E+03 0.  0.
         25    2    3    3    0    0  0.35395653675E+02  0.78118769430E+01  0.84501694723E+02  0.15755379365E+03  0.12794054776E+03 0.  0.
          5    1    4    4  502    0  0.39888223958E+02 -0.15719282787E+02  0.43032777720E+02  0.60926810356E+02  0.47000000000E+01 0. -1.
         -5    1    4    4    0  502 -0.75283877634E+02  0.79074058439E+01  0.17427041697E+03  0.19005908958E+03  0.47000000000E+01 0. -1.
          5    1    5    5  503    0  0.52124974826E+02 -0.28810949971E+02 -0.43411779287E+01  0.59900080673E+02  0.47000000000E+01 0.  1.
         -5    1    5    5    0  503 -0.16729321150E+02  0.36622826914E+02  0.88842872652E+02  0.97653712978E+02  0.47000000000E+01 0.  1.
<mgrwt>
<rscale>  0 0.27535158E+03</rscale>
<asrwt>0</asrwt>
<pdfrwt beam="1">  1        1 0.54641890E-01 0.27535158E+03</pdfrwt>
<pdfrwt beam="2">  1       -1 0.82103698E-02 0.27535158E+03</pdfrwt>
<totfact> 0.58071022E+03</totfact>
</mgrwt>
</event>
<event>
 9    1  0.2051157E-002  0.2750710E+03  0.7818608E-02  0.1098412E+00
         -2   -1    0    0    0  501 -0.00000000000E+00  0.00000000000E+00  0.27013521391E+02  0.27013521391E+02  0.00000000000E+00 0. -1.
          2   -1    0    0  501    0  0.00000000000E+00 -0.00000000000E+00 -0.70024246825E+03  0.70024246825E+03  0.00000000000E+00 0. -1.
         36    2    1    2    0    0 -0.71054273576E-14  0.00000000000E+00 -0.67322894686E+03  0.72725598965E+03  0.27507100825E+03 0.  0.
         25    2    3    3    0    0  0.11803780598E+02 -0.54688947453E+02 -0.36437436735E+03  0.38913311860E+03  0.12460214364E+03 0.  0.
         25    2    3    3    0    0 -0.11803780598E+02  0.54688947453E+02 -0.30885457952E+03  0.33812287105E+03  0.12572077962E+03 0.  0.
          5    1    4    4  502    0 -0.42077522782E+02  0.15983294907E+02 -0.15879929742E+03  0.16512204729E+03  0.47000000000E+01 0.  1.
         -5    1    4    4    0  502  0.53881303380E+02 -0.70672242360E+02 -0.20557506993E+03  0.22401107131E+03  0.47000000000E+01 0.  1.
          5    1    5    5  503    0  0.34889916787E+02  0.49411617503E+02 -0.27068491189E+03  0.27740083952E+03  0.47000000000E+01 0.  1.
         -5    1    5    5    0  503 -0.46693697385E+02  0.52773299496E+01 -0.38169667623E+02  0.60722031531E+02  0.47000000000E+01 0.  1.
<mgrwt>
<rscale>  0 0.27507101E+03</rscale>
<asrwt>0</asrwt>
<pdfrwt beam="1">  1        2 0.10772961E+00 0.27507101E+03</pdfrwt>
<pdfrwt beam="2">  1       -2 0.41559263E-02 0.27507101E+03</pdfrwt>
<totfact> 0.10831241E+04</totfact>
</mgrwt>
</event>
<event>
 9    1  0.2051157E-002  0.2752413E+03  0.7818608E-02  0.1098317E+00
          4   -1    0    0  501    0  0.00000000000E+00  0.00000000000E+00  0.65839652039E+03  0.65839652039E+03  0.00000000000E+00 0.  1.
         -4   -1    0    0    0  501 -0.00000000000E+00 -0.00000000000E+00 -0.28766022275E+02  0.28766022275E+02  0.00000000000E+00 0.  1.
         36    2    1    2    0    0  0.00000000000E+00  0.17763568394E-14  0.62963049812E+03  0.68716254267E+03  0.27524134116E+03 0.  0.
         25    2    3    3    0    0  0.55227306022E+02 -0.13499412650E+02  0.26630557012E+03  0.29866600166E+03  0.12268021191E+03 0.  0.
         25    2    3    3    0    0 -0.55227306022E+02  0.13499412650E+02  0.36332492800E+03  0.38849654101E+03  0.12526878942E+03 0.  0.
          5    1    4    4  502    0  0.29054695168E+02  0.22491583011E+02  0.98417470198E+01  0.38327491466E+02  0.47000000000E+01 0.  1.
         -5    1    4    4    0  502  0.26172610854E+02 -0.35990995661E+02  0.25646382310E+03  0.26033851019E+03  0.47000000000E+01 0.  1.
          5    1    5    5  503    0  0.23914078169E+02  0.19380618280E+02  0.23837558019E+03  0.24040070451E+03  0.47000000000E+01 0. -1.
         -5    1    5    5    0  503 -0.79141384191E+02 -0.58812056300E+01  0.12494934781E+03  0.14809583650E+03  0.47000000000E+01 0. -1.
<mgrwt>
<rscale>  0 0.27524134E+03</rscale>
<asrwt>0</asrwt>
<pdfrwt beam="1">  1        4 0.10129176E+00 0.27524134E+03</pdfrwt>
<pdfrwt beam="2">  1       -4 0.44255424E-02 0.27524134E+03</pdfrwt>
<totfact> 0.45122614E+02</totfact>
</mgrwt>
</event>
<event>
 9    1  0.2051157E-002  0.2746403E+03  0.7818608E-02  0.1098653E+00
         -1   -1    0    0    0  501 -0.00000000000E+00  0.00000000000E+00  0.25215925825E+03  0.25215925825E+03  0.00000000000E+00 0.  1.
          1   -1    0    0  501    0  0.00000000000E+00 -0.00000000000E+00 -0.74781402097E+02  0.74781402097E+02  0.00000000000E+00 0.  1.
         36    2    1    2    0    0 -0.71054273576E-14  0.00000000000E+00  0.17737785615E+03  0.32694066034E+03  0.27464029481E+03 0.  0.
         25    2    3    3    0    0 -0.41829486374E+02  0.30065279005E+01  0.13562106440E+03  0.19419515422E+03  0.13251392256E+03 0.  0.
         25    2    3    3    0    0  0.41829486374E+02 -0.30065279005E+01  0.41756791746E+02  0.13274550612E+03  0.11882337564E+03 0.  0.
          5    1    4    4  502    0  0.18234837894E+02 -0.33447433331E+02 -0.32186154655E+01  0.38518691501E+02  0.47000000000E+01 0.  1.
         -5    1    4    4    0  502 -0.60064324269E+02  0.36453961231E+02  0.13883967987E+03  0.15567646272E+03  0.47000000000E+01 0.  1.
          5    1    5    5  503    0 -0.13743804969E+02  0.45712192220E+02  0.48426204424E+00  0.47966876095E+02  0.47000000000E+01 0. -1.
         -5    1    5    5    0  503  0.55573291343E+02 -0.48718720121E+02  0.41272529702E+02  0.84778630025E+02  0.47000000000E+01 0. -1.
<mgrwt>
<rscale>  0 0.27464029E+03</rscale>
<asrwt>0</asrwt>
<pdfrwt beam="1">  1        1 0.11504831E-01 0.27464029E+03</pdfrwt>
<pdfrwt beam="2">  1       -1 0.38793732E-01 0.27464029E+03</pdfrwt>
<totfact> 0.34460742E+03</totfact>
</mgrwt>
</event>
<event>
 9    1  0.2051157E-002  0.2754183E+03  0.7818608E-02  0.1098218E+00
         -2   -1    0    0    0  501 -0.00000000000E+00  0.00000000000E+00  0.26865971006E+02  0.26865971006E+02  0.00000000000E+00 0.  1.
          2   -1    0    0  501    0  0.00000000000E+00 -0.00000000000E+00 -0.70586704687E+03  0.70586704687E+03  0.00000000000E+00 0.  1.
         36    2    1    2    0    0  0.00000000000E+00  0.71054273576E-14 -0.67900107587E+03  0.73273301788E+03  0.27541825368E+03 0.  0.
         25    2    3    3    0    0 -0.47806975788E+02  0.27822471890E+02 -0.32270969236E+03  0.35057002427E+03  0.12529245587E+03 0.  0.
         25    2    3    3    0    0  0.47806975788E+02 -0.27822471890E+02 -0.35629138351E+03  0.38216299361E+03  0.12667046556E+03 0.  0.
          5    1    4    4  502    0 -0.23653177394E+02 -0.83457171203E+01 -0.62327861659E+00  0.25526501353E+02  0.47000000000E+01 0.  1.
         -5    1    4    4    0  502 -0.24153798395E+02  0.36168189010E+02 -0.32208641375E+03  0.32504352292E+03  0.47000000000E+01 0.  1.
          5    1    5    5  503    0  0.11778101256E+02  0.84494643666E+01  0.59076458205E+01  0.16343420585E+02  0.47000000000E+01 0. -1.
         -5    1    5    5    0  503  0.36028874532E+02 -0.36271936257E+02 -0.36219902933E+03  0.36581957302E+03  0.47000000000E+01 0. -1.
<mgrwt>
<rscale>  0 0.27541825E+03</rscale>
<asrwt>0</asrwt>
<pdfrwt beam="1">  1        2 0.10859492E+00 0.27541825E+03</pdfrwt>
<pdfrwt beam="2">  1       -2 0.41332268E-02 0.27541825E+03</pdfrwt>
<totfact> 0.10815810E+04</totfact>
</mgrwt>
</event>
<event>
 9    1  0.2051157E-002  0.2755657E+03  0.7818608E-02  0.1098136E+00
         -2   -1    0    0    0  501 -0.00000000000E+00  0.00000000000E+00  0.42317465647E+02  0.42317465647E+02  0.00000000000E+00 0.  1.
          2   -1    0    0  501    0  0.00000000000E+00 -0.00000000000E+00 -0.44861192180E+03  0.44861192180E+03  0.00000000000E+00 0.  1.
         36    2    1    2    0    0  0.00000000000E+00 -0.35527136788E-14 -0.40629445615E+03  0.49092938744E+03  0.27556574235E+03 0.  0.
         25    2    3    3    0    0 -0.49256558873E+02  0.49676067385E+01 -0.27205920056E+03  0.30307634793E+03  0.12404909655E+03 0.  0.
         25    2    3    3    0    0  0.49256558873E+02 -0.49676067385E+01 -0.13423525558E+03  0.18785303951E+03  0.12173239053E+03 0.  0.
          5    1    4    4  502    0  0.34798254750E+02  0.29497893600E+02 -0.91216843801E+02  0.10209626268E+03  0.47000000000E+01 0.  1.
         -5    1    4    4    0  502 -0.84054813623E+02 -0.24530286862E+02 -0.18084235676E+03  0.20098008525E+03  0.47000000000E+01 0.  1.
          5    1    5    5  503    0  0.43269324294E+02  0.49577949649E+02 -0.35803194528E+02  0.75061083490E+02  0.47000000000E+01 0. -1.
         -5    1    5    5    0  503  0.59872345794E+01 -0.54545556388E+02 -0.98432061057E+02  0.11279195602E+03  0.47000000000E+01 0. -1.
<mgrwt>
<rscale>  0 0.27556574E+03</rscale>
<asrwt>0</asrwt>
<pdfrwt beam="1">  1        2 0.69017219E-01 0.27556574E+03</pdfrwt>
<pdfrwt beam="2">  1       -2 0.65103793E-02 0.27556574E+03</pdfrwt>
<totfact> 0.91157507E+03</totfact>
</mgrwt>
</event>
<event>
 9    1  0.2051157E-002  0.2749363E+03  0.7818608E-02  0.1098487E+00
         -1   -1    0    0    0  501 -0.00000000000E+00  0.00000000000E+00  0.15498042806E+03  0.15498042806E+03  0.00000000000E+00 0. -1.
          1   -1    0    0  501    0  0.00000000000E+00 -0.00000000000E+00 -0.12193473487E+03  0.12193473487E+03  0.00000000000E+00 0. -1.
         36    2    1    2    0    0 -0.35527136788E-14 -0.71054273576E-14  0.33045693190E+02  0.27691516294E+03  0.27493633741E+03 0.  0.
         25    2    3    3    0    0 -0.14103203519E+01  0.16805572066E+02  0.62463437385E+02  0.14949908988E+03  0.13477344178E+03 0.  0.
         25    2    3    3    0    0  0.14103203519E+01 -0.16805572066E+02 -0.29417744194E+02  0.12741607306E+03  0.12282115349E+03 0.  0.
          5    1    4    4  502    0  0.27574375135E+02 -0.12252321274E+01 -0.35754172035E+02  0.45412533245E+02  0.47000000000E+01 0. -1.
         -5    1    4    4    0  502 -0.28984695487E+02  0.18030804194E+02  0.98217609420E+02  0.10408655664E+03  0.47000000000E+01 0. -1.
          5    1    5    5  503    0 -0.52875457319E+02  0.21472365954E+02 -0.10794028291E+02  0.58270726211E+02  0.47000000000E+01 0. -1.
         -5    1    5    5    0  503  0.54285777671E+02 -0.38277938021E+02 -0.18623715903E+02  0.69145346846E+02  0.47000000000E+01 0. -1.
<mgrwt>
<rscale>  0 0.27493634E+03</rscale>
<asrwt>0</asrwt>
<pdfrwt beam="1">  1        1 0.18759190E-01 0.27493634E+03</pdfrwt>
<pdfrwt beam="2">  1       -1 0.23843143E-01 0.27493634E+03</pdfrwt>
<totfact> 0.41594021E+03</totfact>
</mgrwt>
</event>
<event>
 9    1  0.2051157E-002  0.2746439E+03  0.7818608E-02  0.1098651E+00
         -1   -1    0    0    0  501 -0.00000000000E+00  0.00000000000E+00  0.82599578099E+01  0.82599578099E+01  0.00000000000E+00 0. -1.
          1   -1    0    0  501    0  0.00000000000E+00 -0.00000000000E+00 -0.22829798512E+04  0.22829798512E+04  0.00000000000E+00 0. -1.
         36    2    1    2    0    0  0.71054273576E-14  0.00000000000E+00 -0.22747198934E+04  0.22912398090E+04  0.27464389490E+03 0.  0.
         25    2    3    3    0    0 -0.33083313566E+02 -0.43127537914E+02 -0.11058420468E+04  0.11134648605E+04  0.11816460068E+03 0.  0.
         25    2    3    3    0    0  0.33083313566E+02  0.43127537914E+02 -0.11688778466E+04  0.11777749486E+04  0.13388024130E+03 0.  0.
          5    1    4    4  502    0 -0.12121125026E+02  0.36820896078E+02 -0.19518139336E+03  0.19904915567E+03  0.47000000000E+01 0.  1.
         -5    1    4    4    0  502 -0.20962188540E+02 -0.79948433992E+02 -0.91066065345E+03  0.91441570480E+03  0.47000000000E+01 0.  1.
          5    1    5    5  503    0 -0.37391094600E+02  0.49941649104E+02 -0.32837246114E+03  0.33427956190E+03  0.47000000000E+01 0. -1.
         -5    1    5    5    0  503  0.70474408166E+02 -0.68141111901E+01 -0.84050538546E+03  0.84349538665E+03  0.47000000000E+01 0. -1.
<mgrwt>
<rscale>  0 0.27464389E+03</rscale>
<asrwt>0</asrwt>
<pdfrwt beam="1">  1        1 0.35122816E+00 0.27464389E+03</pdfrwt>
<pdfrwt beam="2">  1       -1 0.12707610E-02 0.27464389E+03</pdfrwt>
<totfact> 0.29306149E+03</totfact>
</mgrwt>
</event>
<event>
 9    1  0.2051157E-002  0.2755068E+03  0.7818608E-02  0.1098169E+00
         -1   -1    0    0    0  501 -0.00000000000E+00  0.00000000000E+00  0.10092567939E+03  0.10092567939E+03  0.00000000000E+00 0.  1.
          1   -1    0    0  501    0  0.00000000000E+00 -0.00000000000E+00 -0.18801952088E+03  0.18801952088E+03  0.00000000000E+00 0.  1.
         36    2    1    2    0    0  0.00000000000E+00  0.00000000000E+00 -0.87093841497E+02  0.28894520027E+03  0.27550679036E+03 0.  0.
         25    2    3    3    0    0 -0.16206546889E+02  0.54269337350E+02 -0.61309824105E+02  0.15014733786E+03  0.12480991706E+03 0.  0.
         25    2    3    3    0    0  0.16206546889E+02 -0.54269337350E+02 -0.25784017392E+02  0.13879786241E+03  0.12406537759E+03 0.  0.
          5    1    4    4  502    0  0.24864311883E+02 -0.13228331051E+02 -0.64912068304E+02  0.70914662513E+02  0.47000000000E+01 0. -1.
         -5    1    4    4    0  502 -0.41070858772E+02  0.67497668400E+02  0.36022441992E+01  0.79232675349E+02  0.47000000000E+01 0. -1.
          5    1    5    5  503    0 -0.97310097134E+01 -0.26403331404E+02 -0.72758359444E+02  0.78151758319E+02  0.47000000000E+01 0.  1.
         -5    1    5    5    0  503  0.25937556602E+02 -0.27866005945E+02  0.46974342052E+02  0.60646104088E+02  0.47000000000E+01 0.  1.
<mgrwt>
<rscale>  0 0.27550679E+03</rscale>
<asrwt>0</asrwt>
<pdfrwt beam="1">  1        1 0.28926080E-01 0.27550679E+03</pdfrwt>
<pdfrwt beam="2">  1       -1 0.15527028E-01 0.27550679E+03</pdfrwt>
<totfact> 0.47933847E+03</totfact>
</mgrwt>
</event>
<event>
 9    1  0.2051157E-002  0.2745706E+03  0.7818608E-02  0.1098692E+00
          1   -1    0    0  501    0  0.00000000000E+00  0.00000000000E+00  0.68432997415E+03  0.68432997415E+03  0.00000000000E+00 0.  1.
         -1   -1    0    0    0  501 -0.00000000000E+00 -0.00000000000E+00 -0.27541182022E+02  0.27541182022E+02  0.00000000000E+00 0.  1.
         36    2    1    2    0    0  0.00000000000E+00  0.71054273576E-14  0.65678879213E+03  0.71187115618E+03  0.27457062029E+03 0.  0.
         25    2    3    3    0    0  0.41046518870E+02 -0.25739481200E+02  0.23360902917E+03  0.26802088156E+03  0.12212566005E+03 0.  0.
         25    2    3    3    0    0 -0.41046518870E+02  0.25739481200E+02  0.42317976296E+03  0.44385027461E+03  0.12479830482E+03 0.  0.
          5    1    4    4  502    0  0.18616696890E+01  0.86746083037E+01 -0.12710269156E+02  0.16197394398E+02  0.47000000000E+01 0.  1.
         -5    1    4    4    0  502  0.39184849181E+02 -0.34414089504E+02  0.24631929832E+03  0.25182348717E+03  0.47000000000E+01 0.  1.
          5    1    5    5  503    0 -0.82143199326E+02  0.30634571836E+02  0.33522280508E+03  0.34652907704E+03  0.47000000000E+01 0. -1.
         -5    1    5    5    0  503  0.41096680456E+02 -0.48950906362E+01  0.87956957886E+02  0.97321197575E+02  0.47000000000E+01 0. -1.
<mgrwt>
<rscale>  0 0.27457062E+03</rscale>
<asrwt>0</asrwt>
<pdfrwt beam="1">  1        1 0.10528152E+00 0.27457062E+03</pdfrwt>
<pdfrwt beam="2">  1       -1 0.42371055E-02 0.27457062E+03</pdfrwt>
<totfact> 0.65561324E+03</totfact>
</mgrwt>
</event>
<event>
 9    1  0.2051157E-002  0.2764587E+03  0.7818608E-02  0.1097639E+00
          2   -1    0    0  501    0  0.00000000000E+00  0.00000000000E+00  0.16887169919E+03  0.16887169919E+03  0.00000000000E+00 0.  1.
         -2   -1    0    0    0  501 -0.00000000000E+00 -0.00000000000E+00 -0.11314719541E+03  0.11314719541E+03  0.00000000000E+00 0.  1.
         36    2    1    2    0    0  0.00000000000E+00  0.00000000000E+00  0.55724503773E+02  0.28201889460E+03  0.27645874302E+03 0.  0.
         25    2    3    3    0    0 -0.21431828311E+00 -0.16887061932E+02  0.85160483123E+02  0.15280581487E+03  0.12574613465E+03 0.  0.
         25    2    3    3    0    0  0.21431828311E+00  0.16887061932E+02 -0.29435979350E+02  0.12921307973E+03  0.12467687958E+03 0.  0.
          5    1    4    4  502    0 -0.89363037236E+01 -0.64596014456E+02  0.80720899805E+02  0.10387712103E+03  0.47000000000E+01 0.  1.
         -5    1    4    4    0  502  0.87219854405E+01  0.47708952524E+02  0.44395833180E+01  0.48928693841E+02  0.47000000000E+01 0.  1.
          5    1    5    5  503    0 -0.19774934113E+02 -0.34121090472E+02 -0.55592849134E+02  0.68322410005E+02  0.47000000000E+01 0.  1.
         -5    1    5    5    0  503  0.19989252396E+02  0.51008152404E+02  0.26156869784E+02  0.60890669728E+02  0.47000000000E+01 0.  1.
<mgrwt>
<rscale>  0 0.27645874E+03</rscale>
<asrwt>0</asrwt>
<pdfrwt beam="1">  1        2 0.25980261E-01 0.27645874E+03</pdfrwt>
<pdfrwt beam="2">  1       -2 0.17407261E-01 0.27645874E+03</pdfrwt>
<totfact> 0.54524460E+03</totfact>
</mgrwt>
</event>
<event>
 9    1  0.2051157E-002  0.2748496E+03  0.7818608E-02  0.1098536E+00
          2   -1    0    0  501    0  0.00000000000E+00  0.00000000000E+00  0.85964531483E+02  0.85964531483E+02  0.00000000000E+00 0.  1.
         -2   -1    0    0    0  501 -0.00000000000E+00 -0.00000000000E+00 -0.21969035358E+03  0.21969035358E+03  0.00000000000E+00 0.  1.
         36    2    1    2    0    0 -0.17763568394E-14  0.71054273576E-14 -0.13372582209E+03  0.30565488506E+03  0.27484961937E+03 0.  0.
         25    2    3    3    0    0  0.10737430351E+02  0.51079632403E+02 -0.33255060122E+02  0.13982791159E+03  0.12538550387E+03 0.  0.
         25    2    3    3    0    0 -0.10737430351E+02 -0.51079632403E+02 -0.10047076197E+03  0.16582697346E+03  0.12116018265E+03 0.  0.
          5    1    4    4  502    0  0.75504780162E+01  0.31540632949E+02 -0.81297702718E+02  0.87654022796E+02  0.47000000000E+01 0. -1.
         -5    1    4    4    0  502  0.31869523343E+01  0.19538999454E+02  0.48042642596E+02  0.52173888799E+02  0.47000000000E+01 0. -1.
          5    1    5    5  503    0 -0.53248577916E+02  0.10227959243E+02 -0.59288456378E+02  0.80481260304E+02  0.47000000000E+01 0.  1.
         -5    1    5    5    0  503  0.42511147566E+02 -0.61307591646E+02 -0.41182305593E+02  0.85345713160E+02  0.47000000000E+01 0.  1.
<mgrwt>
<rscale>  0 0.27484962E+03</rscale>
<asrwt>0</asrwt>
<pdfrwt beam="1">  1        2 0.13225313E-01 0.27484962E+03</pdfrwt>
<pdfrwt beam="2">  1       -2 0.33798515E-01 0.27484962E+03</pdfrwt>
<totfact> 0.37017423E+03</totfact>
</mgrwt>
</event>
<event>
 9    1  0.2051157E-002  0.2750697E+03  0.7818608E-02  0.1098413E+00
         -2   -1    0    0    0  501 -0.00000000000E+00  0.00000000000E+00  0.11657602011E+02  0.11657602011E+02  0.00000000000E+00 0.  1.
          2   -1    0    0  501    0  0.00000000000E+00 -0.00000000000E+00 -0.16226177523E+04  0.16226177523E+04  0.00000000000E+00 0.  1.
         36    2    1    2    0    0  0.17763568394E-14  0.00000000000E+00 -0.16109601503E+04  0.16342753543E+04  0.27506967824E+03 0.  0.
         25    2    3    3    0    0 -0.78031660217E+01  0.26660742124E+02 -0.50118479727E+03  0.51723512611E+03  0.12479699554E+03 0.  0.
         25    2    3    3    0    0  0.78031660217E+01 -0.26660742124E+02 -0.11097753530E+04  0.11170402282E+04  0.12412031534E+03 0.  0.
          5    1    4    4  502    0 -0.18660649014E+02 -0.28573630031E+02 -0.40802722632E+02  0.53400602327E+02  0.47000000000E+01 0. -1.
         -5    1    4    4    0  502  0.10857482993E+02  0.55234372155E+02 -0.46038207463E+03  0.46383452378E+03  0.47000000000E+01 0. -1.
          5    1    5    5  503    0  0.76984491531E+01 -0.19697836319E+02 -0.11082982719E+04  0.11085100001E+04  0.47000000000E+01 0.  1.
         -5    1    5    5    0  503  0.10471686866E+00 -0.69629058051E+01 -0.14770811503E+01  0.85302281094E+01  0.47000000000E+01 0.  1.
<mgrwt>
<rscale>  0 0.27506968E+03</rscale>
<asrwt>0</asrwt>
<pdfrwt beam="1">  1        2 0.24963358E+00 0.27506968E+03</pdfrwt>
<pdfrwt beam="2">  1       -2 0.17934766E-02 0.27506968E+03</pdfrwt>
<totfact> 0.10654200E+04</totfact>
</mgrwt>
</event>
<event>
 9    1  0.2051157E-002  0.2750601E+03  0.7818608E-02  0.1098418E+00
          1   -1    0    0  501    0  0.00000000000E+00  0.00000000000E+00  0.35883005654E+02  0.35883005654E+02  0.00000000000E+00 0.  1.
         -1   -1    0    0    0  501 -0.00000000000E+00 -0.00000000000E+00 -0.52711619186E+03  0.52711619186E+03  0.00000000000E+00 0.  1.
         36    2    1    2    0    0 -0.71054273576E-14  0.35527136788E-14 -0.49123318621E+03  0.56299919752E+03  0.27506009011E+03 0.  0.
         25    2    3    3    0    0  0.42860454081E+02  0.28842807705E+02 -0.16590078617E+03  0.20955381128E+03  0.11713583093E+03 0.  0.
         25    2    3    3    0    0 -0.42860454081E+02 -0.28842807705E+02 -0.32533240004E+03  0.35344538624E+03  0.12811535607E+03 0.  0.
          5    1    4    4  502    0  0.13155753635E+02 -0.19392435655E+02  0.90836094158E+01  0.25568386229E+02  0.47000000000E+01 0.  1.
         -5    1    4    4    0  502  0.29704700446E+02  0.48235243359E+02 -0.17498439559E+03  0.18398542505E+03  0.47000000000E+01 0.  1.
          5    1    5    5  503    0 -0.59089383961E+02  0.17095901712E+02 -0.28005006391E+03  0.28676463075E+03  0.47000000000E+01 0.  1.
         -5    1    5    5    0  503  0.16228929880E+02 -0.45938709416E+02 -0.45282336124E+02  0.66680755490E+02  0.47000000000E+01 0.  1.
<mgrwt>
<rscale>  0 0.27506009E+03</rscale>
<asrwt>0</asrwt>
<pdfrwt beam="1">  1        1 0.55204622E-02 0.27506009E+03</pdfrwt>
<pdfrwt beam="2">  1       -1 0.81094802E-01 0.27506009E+03</pdfrwt>
<totfact> 0.22955851E+03</totfact>
</mgrwt>
</event>
<event>
 9    1  0.2051157E-002  0.2795553E+03  0.7818608E-02  0.1095932E+00
         -2   -1    0    0    0  501 -0.00000000000E+00  0.00000000000E+00  0.94479349677E+01  0.94479349677E+01  0.00000000000E+00 0.  1.
          2   -1    0    0  501    0  0.00000000000E+00 -0.00000000000E+00 -0.20679428986E+04  0.20679428986E+04  0.00000000000E+00 0.  1.
         36    2    1    2    0    0  0.00000000000E+00  0.71054273576E-14 -0.20584949636E+04  0.20773908335E+04  0.27955528986E+03 0.  0.
         25    2    3    3    0    0 -0.59276489991E+01  0.52825640689E+02 -0.11030439777E+04  0.11109424296E+04  0.12108418439E+03 0.  0.
         25    2    3    3    0    0  0.59276489991E+01 -0.52825640689E+02 -0.95545098588E+03  0.96644840396E+03  0.13531535671E+03 0.  0.
          5    1    4    4  502    0 -0.46754643704E+02  0.67944332318E+02 -0.86232345154E+03  0.86627146674E+03  0.47000000000E+01 0.  1.
         -5    1    4    4    0  502  0.40826994705E+02 -0.15118691629E+02 -0.24072052618E+03  0.24467096284E+03  0.47000000000E+01 0.  1.
          5    1    5    5  503    0  0.16113464117E+02 -0.21825357387E+02 -0.31207607907E+02  0.41617240925E+02  0.47000000000E+01 0.  1.
         -5    1    5    5    0  503 -0.10185815117E+02 -0.31000283302E+02 -0.92424337797E+03  0.92483116304E+03  0.47000000000E+01 0.  1.
<mgrwt>
<rscale>  0 0.27955529E+03</rscale>
<asrwt>0</asrwt>
<pdfrwt beam="1">  1        2 0.31814540E+00 0.27955529E+03</pdfrwt>
<pdfrwt beam="2">  1       -2 0.14535269E-02 0.27955529E+03</pdfrwt>
<totfact> 0.84532008E+03</totfact>
</mgrwt>
</event>
<event>
 9    1  0.2051157E-002  0.2751256E+03  0.7818608E-02  0.1098381E+00
         -2   -1    0    0    0  501 -0.00000000000E+00  0.00000000000E+00  0.16865620575E+02  0.16865620575E+02  0.00000000000E+00 0.  1.
          2   -1    0    0  501    0  0.00000000000E+00 -0.00000000000E+00 -0.11220173722E+04  0.11220173722E+04  0.00000000000E+00 0.  1.
         36    2    1    2    0    0  0.00000000000E+00  0.00000000000E+00 -0.11051517516E+04  0.11388829927E+04  0.27512556607E+03 0.  0.
         25    2    3    3    0    0 -0.54338257089E+02  0.76139004351E+01 -0.54523206604E+03  0.56214739759E+03  0.12538370355E+03 0.  0.
         25    2    3    3    0    0  0.54338257089E+02 -0.76139004351E+01 -0.55991968556E+03  0.57673559516E+03  0.12689867920E+03 0.  0.
          5    1    4    4  502    0 -0.38611230246E+02  0.65582166752E+02 -0.28397013967E+03  0.29402887260E+03  0.47000000000E+01 0.  1.
         -5    1    4    4    0  502 -0.15727026844E+02 -0.57968266317E+02 -0.26126192637E+03  0.26811852499E+03  0.47000000000E+01 0.  1.
          5    1    5    5  503    0  0.29820724947E+02 -0.35488921855E+02 -0.51976197655E+03  0.52184608984E+03  0.47000000000E+01 0.  1.
         -5    1    5    5    0  503  0.24517532142E+02  0.27875021419E+02 -0.40157709005E+02  0.54889505318E+02  0.47000000000E+01 0.  1.
<mgrwt>
<rscale>  0 0.27512557E+03</rscale>
<asrwt>0</asrwt>
<pdfrwt beam="1">  1        2 0.17261807E+00 0.27512557E+03</pdfrwt>
<pdfrwt beam="2">  1       -2 0.25947106E-02 0.27512557E+03</pdfrwt>
<totfact> 0.11639303E+04</totfact>
</mgrwt>
</event>
<event>
 9    1  0.2051157E-002  0.2748884E+03  0.7818608E-02  0.1098514E+00
         -2   -1    0    0    0  501 -0.00000000000E+00  0.00000000000E+00  0.94881100308E+01  0.94881100308E+01  0.00000000000E+00 0. -1.
          2   -1    0    0  501    0  0.00000000000E+00 -0.00000000000E+00 -0.19910089749E+04  0.19910089749E+04  0.00000000000E+00 0. -1.
         36    2    1    2    0    0  0.35527136788E-14  0.14210854715E-13 -0.19815208648E+04  0.20004970849E+04  0.27488842992E+03 0.  0.
         25    2    3    3    0    0  0.28569043522E+02  0.43195021831E+02 -0.70117286008E+03  0.71260688525E+03  0.11611715223E+03 0.  0.
         25    2    3    3    0    0 -0.28569043522E+02 -0.43195021831E+02 -0.12803480048E+04  0.12878901996E+04  0.12918263387E+03 0.  0.
          5    1    4    4  502    0  0.35399043539E+02 -0.29549786568E+02 -0.39934223587E+03  0.40202312560E+03  0.47000000000E+01 0. -1.
         -5    1    4    4    0  502 -0.68300000170E+01  0.72744808398E+02 -0.30183062421E+03  0.31058375965E+03  0.47000000000E+01 0. -1.
          5    1    5    5  503    0 -0.28180219690E+02 -0.85491394007E+02 -0.10313343089E+04  0.10352658837E+04  0.47000000000E+01 0.  1.
         -5    1    5    5    0  503 -0.38882383173E+00  0.42296372176E+02 -0.24901369584E+03  0.25262431593E+03  0.47000000000E+01 0.  1.
<mgrwt>
<rscale>  0 0.27488843E+03</rscale>
<asrwt>0</asrwt>
<pdfrwt beam="1">  1        2 0.30630941E+00 0.27488843E+03</pdfrwt>
<pdfrwt beam="2">  1       -2 0.14597076E-02 0.27488843E+03</pdfrwt>
<totfact> 0.92216171E+03</totfact>
</mgrwt>
</event>
<event>
 9    1  0.2051157E-002  0.2738787E+03  0.7818608E-02  0.1099080E+00
         -1   -1    0    0    0  501 -0.00000000000E+00  0.00000000000E+00  0.45327377592E+02  0.45327377592E+02  0.00000000000E+00 0. -1.
          1   -1    0    0  501    0  0.00000000000E+00 -0.00000000000E+00 -0.41370997639E+03  0.41370997639E+03  0.00000000000E+00 0. -1.
         36    2    1    2    0    0 -0.71054273576E-14 -0.17763568394E-14 -0.36838259880E+03  0.45903735398E+03  0.27387871997E+03 0.  0.
         25    2    3    3    0    0  0.38641586080E+02 -0.25249828720E+01 -0.16800720445E+03  0.21210834186E+03  0.12354748167E+03 0.  0.
         25    2    3    3    0    0 -0.38641586080E+02  0.25249828720E+01 -0.20037539435E+03  0.24692901212E+03  0.13901111702E+03 0.  0.
          5    1    4    4  502    0 -0.13333112835E+02  0.29540697662E+01 -0.15803746964E+03  0.15869603094E+03  0.47000000000E+01 0.  1.
         -5    1    4    4    0  502  0.51974698915E+02 -0.54790526382E+01 -0.99697348064E+01  0.53412310915E+02  0.47000000000E+01 0.  1.
          5    1    5    5  503    0 -0.45180180091E+02 -0.54136692813E+02 -0.51533245213E+02  0.87463109618E+02  0.47000000000E+01 0. -1.
         -5    1    5    5    0  503  0.65385940103E+01  0.56661675685E+02 -0.14884214914E+03  0.15946590251E+03  0.47000000000E+01 0. -1.
<mgrwt>
<rscale>  0 0.27387872E+03</rscale>
<asrwt>0</asrwt>
<pdfrwt beam="1">  1        1 0.63647690E-01 0.27387872E+03</pdfrwt>
<pdfrwt beam="2">  1       -1 0.69734426E-02 0.27387872E+03</pdfrwt>
<totfact> 0.61272509E+03</totfact>
</mgrwt>
</event>
<event>
 9    1  0.2051157E-002  0.2738106E+03  0.7818608E-02  0.1099118E+00
          4   -1    0    0  501    0  0.00000000000E+00  0.00000000000E+00  0.31781739811E+03  0.31781739811E+03  0.00000000000E+00 0.  1.
         -4   -1    0    0    0  501 -0.00000000000E+00 -0.00000000000E+00 -0.58974305352E+02  0.58974305352E+02  0.00000000000E+00 0.  1.
         36    2    1    2    0    0  0.00000000000E+00  0.00000000000E+00  0.25884309276E+03  0.37679170347E+03  0.27381059353E+03 0.  0.
         25    2    3    3    0    0  0.44557272864E+02 -0.19963275455E+02  0.81417251541E+02  0.15472970769E+03  0.12218277564E+03 0.  0.
         25    2    3    3    0    0 -0.44557272864E+02  0.19963275455E+02  0.17742584122E+03  0.22206199577E+03  0.12428884866E+03 0.  0.
          5    1    4    4  502    0  0.18347774773E+01  0.94706430297E+00  0.10240093160E+03  0.10252952810E+03  0.47000000000E+01 0.  1.
         -5    1    4    4    0  502  0.42722495387E+02 -0.20910339758E+02 -0.20983680060E+02  0.52200179595E+02  0.47000000000E+01 0.  1.
          5    1    5    5  503    0 -0.30367874876E+02 -0.19112193520E+02 -0.35047867656E+01  0.36357355458E+02  0.47000000000E+01 0.  1.
         -5    1    5    5    0  503 -0.14189397988E+02  0.39075468975E+02  0.18093062799E+03  0.18570464032E+03  0.47000000000E+01 0.  1.
<mgrwt>
<rscale>  0 0.27381059E+03</rscale>
<asrwt>0</asrwt>
<pdfrwt beam="1">  1        4 0.48894983E-01 0.27381059E+03</pdfrwt>
<pdfrwt beam="2">  1       -4 0.90729702E-02 0.27381059E+03</pdfrwt>
<totfact> 0.68033168E+02</totfact>
</mgrwt>
</event>
<event>
 9    1  0.2051157E-002  0.2742953E+03  0.7818608E-02  0.1098846E+00
          2   -1    0    0  501    0  0.00000000000E+00  0.00000000000E+00  0.17661642699E+03  0.17661642699E+03  0.00000000000E+00 0. -1.
         -2   -1    0    0    0  501 -0.00000000000E+00 -0.00000000000E+00 -0.10649905089E+03  0.10649905089E+03  0.00000000000E+00 0. -1.
         36    2    1    2    0    0 -0.71054273576E-14  0.00000000000E+00  0.70117376107E+02  0.28311547788E+03  0.27429532877E+03 0.  0.
         25    2    3    3    0    0  0.55105056240E+02 -0.40655702922E+01  0.38560472024E+02  0.14078652068E+03  0.12361568799E+03 0.  0.
         25    2    3    3    0    0 -0.55105056240E+02  0.40655702922E+01  0.31556904083E+02  0.14232895720E+03  0.12731299139E+03 0.  0.
          5    1    4    4  502    0  0.89332754832E+02 -0.32749255599E+01  0.52211481515E+02  0.10363008745E+03  0.47000000000E+01 0. -1.
         -5    1    4    4    0  502 -0.34227698592E+02 -0.79064473225E+00 -0.13651009491E+02  0.37156433227E+02  0.47000000000E+01 0. -1.
          5    1    5    5  503    0 -0.26124875642E+02  0.16507136145E+02  0.79117534557E+02  0.85068613163E+02  0.47000000000E+01 0.  1.
         -5    1    5    5    0  503 -0.28980180598E+02 -0.12441565853E+02 -0.47560630475E+02  0.57260344039E+02  0.47000000000E+01 0.  1.
<mgrwt>
<rscale>  0 0.27429533E+03</rscale>
<asrwt>0</asrwt>
<pdfrwt beam="1">  1        2 0.27171758E-01 0.27429533E+03</pdfrwt>
<pdfrwt beam="2">  1       -2 0.16384469E-01 0.27429533E+03</pdfrwt>
<totfact> 0.57394330E+03</totfact>
</mgrwt>
</event>
<event>
 9    1  0.2051157E-002  0.2740995E+03  0.7818608E-02  0.1098956E+00
          1   -1    0    0  501    0  0.00000000000E+00  0.00000000000E+00  0.49376570558E+03  0.49376570558E+03  0.00000000000E+00 0. -1.
         -1   -1    0    0    0  501 -0.00000000000E+00 -0.00000000000E+00 -0.38039576417E+02  0.38039576417E+02  0.00000000000E+00 0. -1.
         36    2    1    2    0    0 -0.14210854715E-13  0.71054273576E-14  0.45572612916E+03  0.53180528200E+03  0.27409953148E+03 0.  0.
         25    2    3    3    0    0  0.71937366374E+02 -0.36705444877E+02  0.22570340588E+03  0.25954142813E+03  0.99485934319E+02 0.  0.
         25    2    3    3    0    0 -0.71937366374E+02  0.36705444877E+02  0.23002272329E+03  0.27226385387E+03  0.12122243410E+03 0.  0.
          5    1    4    4  502    0  0.24564471694E+01 -0.55089580795E+02  0.11233109233E+03  0.12522483919E+03  0.47000000000E+01 0. -1.
         -5    1    4    4    0  502  0.69480919205E+02  0.18384135918E+02  0.11337231355E+03  0.13431658895E+03  0.47000000000E+01 0. -1.
          5    1    5    5  503    0 -0.41657634036E+02  0.71072330845E+02  0.20239043272E+03  0.21856489183E+03  0.47000000000E+01 0. -1.
         -5    1    5    5    0  503 -0.30279732338E+02 -0.34366885968E+02  0.27632290570E+02  0.53698962036E+02  0.47000000000E+01 0. -1.
<mgrwt>
<rscale>  0 0.27409953E+03</rscale>
<asrwt>0</asrwt>
<pdfrwt beam="1">  1        1 0.75963950E-01 0.27409953E+03</pdfrwt>
<pdfrwt beam="2">  1       -1 0.58522429E-02 0.27409953E+03</pdfrwt>
<totfact> 0.63405026E+03</totfact>
</mgrwt>
</event>
<event>
 9    1  0.2051157E-002  0.2746778E+03  0.7818608E-02  0.1098632E+00
         -1   -1    0    0    0  501 -0.00000000000E+00  0.00000000000E+00  0.69854312744E+02  0.69854312744E+02  0.00000000000E+00 0. -1.
          1   -1    0    0  501    0  0.00000000000E+00 -0.00000000000E+00 -0.27001878431E+03  0.27001878431E+03  0.00000000000E+00 0. -1.
         36    2    1    2    0    0  0.14210854715E-13  0.00000000000E+00 -0.20016447156E+03  0.33987309705E+03  0.27467782295E+03 0.  0.
         25    2    3    3    0    0  0.32206990885E+02 -0.12345184223E+02 -0.14310810977E+03  0.19746983373E+03  0.13162336538E+03 0.  0.
         25    2    3    3    0    0 -0.32206990885E+02  0.12345184223E+02 -0.57056361792E+02  0.14240326332E+03  0.12583150301E+03 0.  0.
          5    1    4    4  502    0  0.27561610951E+02  0.37655301757E+02 -0.13919384725E+03  0.14688288280E+03  0.47000000000E+01 0.  1.
         -5    1    4    4    0  502  0.46453799343E+01 -0.50000485980E+02 -0.39142625247E+01  0.50586950927E+02  0.47000000000E+01 0.  1.
          5    1    5    5  503    0 -0.49605980279E+02  0.59870143684E+02 -0.22987187192E+02  0.81213842165E+02  0.47000000000E+01 0.  1.
         -5    1    5    5    0  503  0.17398989393E+02 -0.47524959461E+02 -0.34069174599E+02  0.61189421157E+02  0.47000000000E+01 0.  1.
<mgrwt>
<rscale>  0 0.27467782E+03</rscale>
<asrwt>0</asrwt>
<pdfrwt beam="1">  1        1 0.41541352E-01 0.27467782E+03</pdfrwt>
<pdfrwt beam="2">  1       -1 0.10746817E-01 0.27467782E+03</pdfrwt>
<totfact> 0.54182405E+03</totfact>
</mgrwt>
</event>
<event>
 9    1  0.2051157E-002  0.2747346E+03  0.7818608E-02  0.1098600E+00
          2   -1    0    0  501    0  0.00000000000E+00  0.00000000000E+00  0.94463983515E+03  0.94463983515E+03  0.00000000000E+00 0.  1.
         -2   -1    0    0    0  501 -0.00000000000E+00 -0.00000000000E+00 -0.19975634325E+02  0.19975634325E+02  0.00000000000E+00 0.  1.
         36    2    1    2    0    0 -0.14210854715E-13 -0.14210854715E-13  0.92466420083E+03  0.96461546948E+03  0.27473463499E+03 0.  0.
         25    2    3    3    0    0  0.39537081595E+02  0.49115710176E+02  0.39211782660E+03  0.41608719750E+03  0.12408316636E+03 0.  0.
         25    2    3    3    0    0 -0.39537081595E+02 -0.49115710176E+02  0.53254637422E+03  0.54852827198E+03  0.11533468973E+03 0.  0.
          5    1    4    4  502    0  0.61852563209E+02 -0.15660630001E+02  0.12679851660E+03  0.14202446522E+03  0.47000000000E+01 0. -1.
         -5    1    4    4    0  502 -0.22315481614E+02  0.64776340177E+02  0.26531931000E+03  0.27406273228E+03  0.47000000000E+01 0. -1.
          5    1    5    5  503    0 -0.86494219827E+00  0.36797596989E+02  0.15244494614E+03  0.15689602567E+03  0.47000000000E+01 0. -1.
         -5    1    5    5    0  503 -0.38672139397E+02 -0.85913307165E+02  0.38010142809E+03  0.39163224631E+03  0.47000000000E+01 0. -1.
<mgrwt>
<rscale>  0 0.27473463E+03</rscale>
<asrwt>0</asrwt>
<pdfrwt beam="1">  1        2 0.14532917E+00 0.27473463E+03</pdfrwt>
<pdfrwt beam="2">  1       -2 0.30731752E-02 0.27473463E+03</pdfrwt>
<totfact> 0.11586036E+04</totfact>
</mgrwt>
</event>
<event>
 9    1  0.2051157E-002  0.2755086E+03  0.7818608E-02  0.1098168E+00
         -2   -1    0    0    0  501 -0.00000000000E+00  0.00000000000E+00  0.26845805120E+02  0.26845805120E+02  0.00000000000E+00 0. -1.
          2   -1    0    0  501    0  0.00000000000E+00 -0.00000000000E+00 -0.70686105183E+03  0.70686105183E+03  0.00000000000E+00 0. -1.
         36    2    1    2    0    0  0.00000000000E+00  0.00000000000E+00 -0.68001524671E+03  0.73370685695E+03  0.27550864991E+03 0.  0.
         25    2    3    3    0    0  0.11181603425E+02  0.39037692622E+02 -0.29305409975E+03  0.32415484689E+03  0.13246391842E+03 0.  0.
         25    2    3    3    0    0 -0.11181603425E+02 -0.39037692622E+02 -0.38696114696E+03  0.40955201005E+03  0.12784736988E+03 0.  0.
          5    1    4    4  502    0  0.28369572442E+02  0.82443489216E+02 -0.14953601028E+03  0.17316139849E+03  0.47000000000E+01 0. -1.
         -5    1    4    4    0  502 -0.17187969016E+02 -0.43405796595E+02 -0.14351808947E+03  0.15099344841E+03  0.47000000000E+01 0. -1.
          5    1    5    5  503    0  0.46087813316E+02 -0.47993096119E+02 -0.13026454566E+03  0.14635014748E+03  0.47000000000E+01 0.  1.
         -5    1    5    5    0  503 -0.57269416741E+02  0.89554034974E+01 -0.25669660130E+03  0.26320186257E+03  0.47000000000E+01 0.  1.
<mgrwt>
<rscale>  0 0.27550865E+03</rscale>
<asrwt>0</asrwt>
<pdfrwt beam="1">  1        2 0.10874787E+00 0.27550865E+03</pdfrwt>
<pdfrwt beam="2">  1       -2 0.41301232E-02 0.27550865E+03</pdfrwt>
<totfact> 0.10809649E+04</totfact>
</mgrwt>
</event>
<event>
 9    1  0.2051157E-002  0.2774213E+03  0.7818608E-02  0.1097106E+00
          1   -1    0    0  501    0  0.00000000000E+00  0.00000000000E+00  0.73530015718E+03  0.73530015718E+03  0.00000000000E+00 0.  1.
         -1   -1    0    0    0  501 -0.00000000000E+00 -0.00000000000E+00 -0.26167061439E+02  0.26167061439E+02  0.00000000000E+00 0.  1.
         36    2    1    2    0    0  0.00000000000E+00  0.35527136788E-14  0.70913309575E+03  0.76146721862E+03  0.27742129975E+03 0.  0.
         25    2    3    3    0    0 -0.23412890913E+02  0.11982407905E+02  0.22025640044E+03  0.25580601286E+03  0.12740523035E+03 0.  0.
         25    2    3    3    0    0  0.23412890913E+02 -0.11982407905E+02  0.48887669530E+03  0.50566120576E+03  0.12649541589E+03 0.  0.
          5    1    4    4  502    0  0.29122626925E+02 -0.24695972140E+00  0.19290049287E+03  0.19514322570E+03  0.47000000000E+01 0.  1.
         -5    1    4    4    0  502 -0.52535517838E+02  0.12229367626E+02  0.27355907575E+02  0.60662787162E+02  0.47000000000E+01 0.  1.
          5    1    5    5  503    0  0.70483352252E+02  0.42609038000E+01  0.36974022914E+03  0.37645183661E+03  0.47000000000E+01 0.  1.
         -5    1    5    5    0  503 -0.47070461339E+02 -0.16243311705E+02  0.11913646616E+03  0.12920936915E+03  0.47000000000E+01 0.  1.
<mgrwt>
<rscale>  0 0.27742130E+03</rscale>
<asrwt>0</asrwt>
<pdfrwt beam="1">  1        1 0.11312309E+00 0.27742130E+03</pdfrwt>
<pdfrwt beam="2">  1       -1 0.40257023E-02 0.27742130E+03</pdfrwt>
<totfact> 0.63692974E+03</totfact>
</mgrwt>
</event>
<event>
 9    1  0.2051157E-002  0.2741103E+03  0.7818608E-02  0.1098950E+00
         -2   -1    0    0    0  501 -0.00000000000E+00  0.00000000000E+00  0.27468316526E+02  0.27468316526E+02  0.00000000000E+00 0.  1.
          2   -1    0    0  501    0  0.00000000000E+00 -0.00000000000E+00 -0.68384651431E+03  0.68384651431E+03  0.00000000000E+00 0.  1.
         36    2    1    2    0    0 -0.17763568394E-14  0.71054273576E-14 -0.65637819778E+03  0.71131483083E+03  0.27411028810E+03 0.  0.
         25    2    3    3    0    0 -0.58731144631E+01  0.48335645877E+02 -0.28934507971E+03  0.31889065671E+03  0.12489935007E+03 0.  0.
         25    2    3    3    0    0  0.58731144631E+01 -0.48335645877E+02 -0.36703311807E+03  0.39242417413E+03  0.13004843152E+03 0.  0.
          5    1    4    4  502    0 -0.38608714431E+02  0.11538378233E+02 -0.20356318794E+02  0.45389830547E+02  0.47000000000E+01 0.  1.
         -5    1    4    4    0  502  0.32735599967E+02  0.36797267644E+02 -0.26898876092E+03  0.27350082616E+03  0.47000000000E+01 0.  1.
          5    1    5    5  503    0  0.57239352034E+01  0.44897628802E+02 -0.12233514564E+03  0.13052409113E+03  0.47000000000E+01 0.  1.
         -5    1    5    5    0  503  0.14917925965E+00 -0.93233274679E+02 -0.24469797243E+03  0.26190008300E+03  0.47000000000E+01 0.  1.
<mgrwt>
<rscale>  0 0.27411029E+03</rscale>
<asrwt>0</asrwt>
<pdfrwt beam="1">  1        2 0.10520717E+00 0.27411029E+03</pdfrwt>
<pdfrwt beam="2">  1       -2 0.42258944E-02 0.27411029E+03</pdfrwt>
<totfact> 0.10867656E+04</totfact>
</mgrwt>
</event>
<event>
 9    1  0.2051157E-002  0.2743946E+03  0.7818608E-02  0.1098790E+00
         -2   -1    0    0    0  501 -0.00000000000E+00  0.00000000000E+00  0.79585892565E+03  0.79585892565E+03  0.00000000000E+00 0.  1.
          2   -1    0    0  501    0  0.00000000000E+00 -0.00000000000E+00 -0.23651301514E+02  0.23651301514E+02  0.00000000000E+00 0.  1.
         36    2    1    2    0    0  0.35527136788E-14  0.00000000000E+00  0.77220762414E+03  0.81951022717E+03  0.27439460208E+03 0.  0.
         25    2    3    3    0    0 -0.27972881315E+02  0.40623438052E+02  0.43906596052E+03  0.46047174187E+03  0.12970181790E+03 0.  0.
         25    2    3    3    0    0  0.27972881315E+02 -0.40623438052E+02  0.33314166362E+03  0.35903848530E+03  0.12446895225E+03 0.  0.
          5    1    4    4  502    0 -0.22318454083E+02  0.26383799652E+01  0.35408634906E+01  0.23231490606E+02  0.47000000000E+01 0.  1.
         -5    1    4    4    0  502 -0.56544272314E+01  0.37985058087E+02  0.43552509702E+03  0.43724025126E+03  0.47000000000E+01 0.  1.
          5    1    5    5  503    0 -0.15151624137E+02 -0.54834564875E+02  0.29218774299E+03  0.29771155230E+03  0.47000000000E+01 0.  1.
         -5    1    5    5    0  503  0.43124505452E+02  0.14211126822E+02  0.40953920638E+02  0.61326933004E+02  0.47000000000E+01 0.  1.
<mgrwt>
<rscale>  0 0.27439460E+03</rscale>
<asrwt>0</asrwt>
<pdfrwt beam="1">  1        2 0.36386624E-02 0.27439460E+03</pdfrwt>
<pdfrwt beam="2">  1       -2 0.12243981E+00 0.27439460E+03</pdfrwt>
<totfact> 0.12732081E+03</totfact>
</mgrwt>
</event>
<event>
 9    1  0.2051157E-002  0.2751381E+03  0.7818608E-02  0.1098374E+00
          2   -1    0    0  501    0  0.00000000000E+00  0.00000000000E+00  0.49693808926E+03  0.49693808926E+03  0.00000000000E+00 0.  1.
         -2   -1    0    0    0  501 -0.00000000000E+00 -0.00000000000E+00 -0.38083703094E+02  0.38083703094E+02  0.00000000000E+00 0.  1.
         36    2    1    2    0    0  0.17763568394E-14  0.71054273576E-14  0.45885438617E+03  0.53502179236E+03  0.27513809367E+03 0.  0.
         25    2    3    3    0    0  0.12864326412E+02  0.54229977528E+02  0.22445429607E+03  0.26332219395E+03  0.12590657428E+03 0.  0.
         25    2    3    3    0    0 -0.12864326412E+02 -0.54229977528E+02  0.23440009010E+03  0.27169959840E+03  0.12558219690E+03 0.  0.
          5    1    4    4  502    0  0.23806014136E+02  0.66916991453E+02  0.47636011208E+02  0.85649808044E+02  0.47000000000E+01 0. -1.
         -5    1    4    4    0  502 -0.10941687724E+02 -0.12687013925E+02  0.17681828486E+03  0.17767238591E+03  0.47000000000E+01 0. -1.
          5    1    5    5  503    0 -0.20634234203E+02  0.62489493636E+01  0.20062732746E+03  0.20183715097E+03  0.47000000000E+01 0.  1.
         -5    1    5    5    0  503  0.77699077905E+01 -0.60478926892E+02  0.33772762643E+02  0.69862447435E+02  0.47000000000E+01 0.  1.
<mgrwt>
<rscale>  0 0.27513809E+03</rscale>
<asrwt>0</asrwt>
<pdfrwt beam="1">  1        2 0.76452009E-01 0.27513809E+03</pdfrwt>
<pdfrwt beam="2">  1       -2 0.58590316E-02 0.27513809E+03</pdfrwt>
<totfact> 0.95688697E+03</totfact>
</mgrwt>
</event>
<event>
 9    1  0.2051157E-002  0.2754243E+03  0.7818608E-02  0.1098215E+00
         -2   -1    0    0    0  501 -0.00000000000E+00  0.00000000000E+00  0.23401100517E+03  0.23401100517E+03  0.00000000000E+00 0. -1.
          2   -1    0    0  501    0  0.00000000000E+00 -0.00000000000E+00 -0.81041653806E+02  0.81041653806E+02  0.00000000000E+00 0. -1.
         36    2    1    2    0    0  0.00000000000E+00 -0.71054273576E-14  0.15296935136E+03  0.31505265897E+03  0.27542431895E+03 0.  0.
         25    2    3    3    0    0 -0.35338489290E+02 -0.44270157561E+02  0.64990018465E+02  0.15310479654E+03  0.12652557270E+03 0.  0.
         25    2    3    3    0    0  0.35338489290E+02  0.44270157561E+02  0.87979332895E+02  0.16194786244E+03  0.12360457700E+03 0.  0.
          5    1    4    4  502    0  0.20965942150E+02  0.31868946225E+02  0.50088270358E+00  0.38438800023E+02  0.47000000000E+01 0.  1.
         -5    1    4    4    0  502 -0.56304431440E+02 -0.76139103786E+02  0.64489135762E+02  0.11466599651E+03  0.47000000000E+01 0.  1.
          5    1    5    5  503    0 -0.44873866384E+02  0.13173368918E+02  0.15912570836E+02  0.49623597648E+02  0.47000000000E+01 0.  1.
         -5    1    5    5    0  503  0.80212355674E+02  0.31096788643E+02  0.72066762059E+02  0.11232426479E+03  0.47000000000E+01 0.  1.
<mgrwt>
<rscale>  0 0.27542432E+03</rscale>
<asrwt>0</asrwt>
<pdfrwt beam="1">  1        2 0.12467947E-01 0.27542432E+03</pdfrwt>
<pdfrwt beam="2">  1       -2 0.36001693E-01 0.27542432E+03</pdfrwt>
<totfact> 0.35339958E+03</totfact>
</mgrwt>
</event>
<event>
 9    1  0.2051157E-002  0.2758501E+03  0.7818608E-02  0.1097977E+00
         -2   -1    0    0    0  501 -0.00000000000E+00  0.00000000000E+00  0.21704796296E+02  0.21704796296E+02  0.00000000000E+00 0. -1.
          2   -1    0    0  501    0  0.00000000000E+00 -0.00000000000E+00 -0.87645673057E+03  0.87645673057E+03  0.00000000000E+00 0. -1.
         36    2    1    2    0    0  0.00000000000E+00  0.00000000000E+00 -0.85475193427E+03  0.89816152687E+03  0.27585006652E+03 0.  0.
         25    2    3    3    0    0  0.96552858965E+01  0.46112252929E+02 -0.35855743201E+03  0.38287256449E+03  0.12573147647E+03 0.  0.
         25    2    3    3    0    0 -0.96552858965E+01 -0.46112252929E+02 -0.49619450226E+03  0.51528896238E+03  0.13074466051E+03 0.  0.
          5    1    4    4  502    0  0.52393433615E+02 -0.51503338497E+01 -0.24861990867E+03  0.25417621213E+03  0.47000000000E+01 0.  1.
         -5    1    4    4    0  502 -0.42738147718E+02  0.51262586778E+02 -0.10993752334E+03  0.12869635236E+03  0.47000000000E+01 0.  1.
          5    1    5    5  503    0 -0.38670963657E+02  0.28419202524E+02 -0.29172081214E+03  0.29567924638E+03  0.47000000000E+01 0. -1.
         -5    1    5    5    0  503  0.29015677760E+02 -0.74531455453E+02 -0.20447369012E+03  0.21960971600E+03  0.47000000000E+01 0. -1.
<mgrwt>
<rscale>  0 0.27585007E+03</rscale>
<asrwt>0</asrwt>
<pdfrwt beam="1">  1        2 0.13483949E+00 0.27585007E+03</pdfrwt>
<pdfrwt beam="2">  1       -2 0.33391996E-02 0.27585007E+03</pdfrwt>
<totfact> 0.11324008E+04</totfact>
</mgrwt>
</event>
<event>
 9    1  0.2051157E-002  0.2759975E+03  0.7818608E-02  0.1097895E+00
         -1   -1    0    0    0  501 -0.00000000000E+00  0.00000000000E+00  0.12088189018E+04  0.12088189018E+04  0.00000000000E+00 0.  1.
          1   -1    0    0  501    0  0.00000000000E+00 -0.00000000000E+00 -0.15753936123E+02  0.15753936123E+02  0.00000000000E+00 0.  1.
         36    2    1    2    0    0 -0.35527136788E-14  0.00000000000E+00  0.11930649656E+04  0.12245728379E+04  0.27599750552E+03 0.  0.
         25    2    3    3    0    0 -0.23511366721E+02 -0.60391515846E+02  0.54692808721E+03  0.56475347750E+03  0.12496494795E+03 0.  0.
         25    2    3    3    0    0  0.23511366721E+02  0.60391515846E+02  0.64613687842E+03  0.65981936038E+03  0.11691365670E+03 0.  0.
          5    1    4    4  502    0 -0.14727121349E+02 -0.36362272100E+01  0.46111615156E+03  0.46138953768E+03  0.47000000000E+01 0.  1.
         -5    1    4    4    0  502 -0.87842453722E+01 -0.56755288636E+02  0.85811935653E+02  0.10336393982E+03  0.47000000000E+01 0.  1.
          5    1    5    5  503    0  0.46817761897E+02  0.31007884602E+02  0.12272059509E+03  0.13504009107E+03  0.47000000000E+01 0. -1.
         -5    1    5    5    0  503 -0.23306395176E+02  0.29383631244E+02  0.52341628333E+03  0.52477926931E+03  0.47000000000E+01 0. -1.
<mgrwt>
<rscale>  0 0.27599751E+03</rscale>
<asrwt>0</asrwt>
<pdfrwt beam="1">  1        1 0.24236834E-02 0.27599751E+03</pdfrwt>
<pdfrwt beam="2">  1       -1 0.18597207E+00 0.27599751E+03</pdfrwt>
<totfact> 0.95788698E+02</totfact>
</mgrwt>
</event>
<event>
 9    1  0.2051157E-002  0.2750046E+03  0.7818608E-02  0.1098449E+00
         -2   -1    0    0    0  501 -0.00000000000E+00  0.00000000000E+00  0.21922066146E+02  0.21922066146E+02  0.00000000000E+00 0. -1.
          2   -1    0    0  501    0  0.00000000000E+00 -0.00000000000E+00 -0.86245880785E+03  0.86245880785E+03  0.00000000000E+00 0. -1.
         36    2    1    2    0    0  0.17763568394E-14  0.14210854715E-13 -0.84053674170E+03  0.88438087399E+03  0.27500457475E+03 0.  0.
         25    2    3    3    0    0  0.13791217100E+02  0.57096329743E+02 -0.38999251073E+03  0.41354862196E+03  0.12441107573E+03 0.  0.
         25    2    3    3    0    0 -0.13791217100E+02 -0.57096329743E+02 -0.45054423097E+03  0.47083225203E+03  0.12346139862E+03 0.  0.
          5    1    4    4  502    0 -0.17484261441E+02 -0.61038318399E+00 -0.30746045335E+03  0.30799365633E+03  0.47000000000E+01 0. -1.
         -5    1    4    4    0  502  0.31275478542E+02  0.57706712927E+02 -0.82532057379E+02  0.10555496563E+03  0.47000000000E+01 0. -1.
          5    1    5    5  503    0  0.36777766765E+01 -0.53378142701E+02 -0.62747278194E+02  0.82595781249E+02  0.47000000000E+01 0.  1.
         -5    1    5    5    0  503 -0.17468993777E+02 -0.37181870423E+01 -0.38779695278E+03  0.38823647078E+03  0.47000000000E+01 0.  1.
<mgrwt>
<rscale>  0 0.27500457E+03</rscale>
<asrwt>0</asrwt>
<pdfrwt beam="1">  1        2 0.13268597E+00 0.27500457E+03</pdfrwt>
<pdfrwt beam="2">  1       -2 0.33726256E-02 0.27500457E+03</pdfrwt>
<totfact> 0.11394826E+04</totfact>
</mgrwt>
</event>
<event>
 9    1  0.2051157E-002  0.2661456E+03  0.7818608E-02  0.1103506E+00
         -2   -1    0    0    0  501 -0.00000000000E+00  0.00000000000E+00  0.20194894104E+02  0.20194894104E+02  0.00000000000E+00 0.  1.
          2   -1    0    0  501    0  0.00000000000E+00 -0.00000000000E+00 -0.87687342032E+03  0.87687342032E+03  0.00000000000E+00 0.  1.
         36    2    1    2    0    0  0.00000000000E+00 -0.35527136788E-14 -0.85667852621E+03  0.89706831442E+03  0.26614556818E+03 0.  0.
         25    2    3    3    0    0  0.30273105310E+02 -0.17157738083E+02 -0.41576518546E+03  0.43594643400E+03  0.12640314470E+03 0.  0.
         25    2    3    3    0    0 -0.30273105310E+02  0.17157738083E+02 -0.44091334075E+03  0.46112188042E+03  0.13045292512E+03 0.  0.
          5    1    4    4  502    0  0.30447485892E+02 -0.13006485327E+01 -0.14040938557E+02  0.33881839373E+02  0.47000000000E+01 0.  1.
         -5    1    4    4    0  502 -0.17438058205E+00 -0.15857089551E+02 -0.40172424691E+03  0.40206459462E+03  0.47000000000E+01 0.  1.
          5    1    5    5  503    0  0.49393426600E+02  0.17483120267E+02 -0.22102178236E+03  0.22719614513E+03  0.47000000000E+01 0. -1.
         -5    1    5    5    0  503 -0.79666531910E+02 -0.32538218390E+00 -0.21989155839E+03  0.23392573529E+03  0.47000000000E+01 0. -1.
<mgrwt>
<rscale>  0 0.26614557E+03</rscale>
<asrwt>0</asrwt>
<pdfrwt beam="1">  1        2 0.13490359E+00 0.26614557E+03</pdfrwt>
<pdfrwt beam="2">  1       -2 0.31069071E-02 0.26614557E+03</pdfrwt>
<totfact> 0.12585953E+04</totfact>
</mgrwt>
</event>
<event>
 9    1  0.2051157E-002  0.2741774E+03  0.7818608E-02  0.1098912E+00
         -1   -1    0    0    0  501 -0.00000000000E+00  0.00000000000E+00  0.96141821433E+01  0.96141821433E+01  0.00000000000E+00 0. -1.
          1   -1    0    0  501    0  0.00000000000E+00 -0.00000000000E+00 -0.19547485206E+04  0.19547485206E+04  0.00000000000E+00 0. -1.
         36    2    1    2    0    0  0.26645352591E-14 -0.71054273576E-14 -0.19451343385E+04  0.19643627028E+04  0.27417737559E+03 0.  0.
         25    2    3    3    0    0  0.73683271195E+01 -0.47809415982E+02 -0.11377877850E+04  0.11455100902E+04  0.12366200096E+03 0.  0.
         25    2    3    3    0    0 -0.73683271195E+01  0.47809415982E+02 -0.80734655345E+03  0.81885261257E+03  0.12794964338E+03 0.  0.
          5    1    4    4  502    0  0.35555048305E+01 -0.57480866654E+02 -0.11304921963E+04  0.11319679269E+04  0.47000000000E+01 0.  1.
         -5    1    4    4    0  502  0.38128222889E+01  0.96714506724E+01 -0.72955887439E+01  0.13542163307E+02  0.47000000000E+01 0.  1.
          5    1    5    5  503    0  0.17312083527E+02 -0.39620603976E+02 -0.33649244877E+03  0.33929155394E+03  0.47000000000E+01 0. -1.
         -5    1    5    5    0  503 -0.24680410647E+02  0.87430019958E+02 -0.47085410469E+03  0.47956105863E+03  0.47000000000E+01 0. -1.
<mgrwt>
<rscale>  0 0.27417738E+03</rscale>
<asrwt>0</asrwt>
<pdfrwt beam="1">  1        1 0.30073034E+00 0.27417738E+03</pdfrwt>
<pdfrwt beam="2">  1       -1 0.14791059E-02 0.27417738E+03</pdfrwt>
<totfact> 0.38456154E+03</totfact>
</mgrwt>
</event>
<event>
 9    1  0.2051157E-002  0.2727880E+03  0.7818608E-02  0.1099694E+00
          2   -1    0    0  501    0  0.00000000000E+00  0.00000000000E+00  0.15434986915E+04  0.15434986915E+04  0.00000000000E+00 0.  1.
         -2   -1    0    0    0  501 -0.00000000000E+00 -0.00000000000E+00 -0.12052696795E+02  0.12052696795E+02  0.00000000000E+00 0.  1.
         36    2    1    2    0    0 -0.71054273576E-14  0.00000000000E+00  0.15314459947E+04  0.15555513883E+04  0.27278798898E+03 0.  0.
         25    2    3    3    0    0  0.47761812298E+02 -0.12354036869E+02  0.83569192525E+03  0.84728699537E+03  0.13069217901E+03 0.  0.
         25    2    3    3    0    0 -0.47761812298E+02  0.12354036869E+02  0.69575406947E+03  0.70826439294E+03  0.12300777286E+03 0.  0.
          5    1    4    4  502    0 -0.34500937929E+02  0.27686217983E+02  0.37044571731E+03  0.37310717074E+03  0.47000000000E+01 0.  1.
         -5    1    4    4    0  502  0.82262750227E+02 -0.40040254852E+02  0.46524620794E+03  0.47417982463E+03  0.47000000000E+01 0.  1.
          5    1    5    5  503    0 -0.57460912169E+02 -0.77063043289E+01  0.13437474267E+03  0.14642337593E+03  0.47000000000E+01 0.  1.
         -5    1    5    5    0  503  0.96990998705E+01  0.20060341198E+02  0.56137932680E+03  0.56184101701E+03  0.47000000000E+01 0.  1.
<mgrwt>
<rscale>  0 0.27278799E+03</rscale>
<asrwt>0</asrwt>
<pdfrwt beam="1">  1        2 0.23746118E+00 0.27278799E+03</pdfrwt>
<pdfrwt beam="2">  1       -2 0.18542623E-02 0.27278799E+03</pdfrwt>
<totfact> 0.11173465E+04</totfact>
</mgrwt>
</event>
<event>
 9    1  0.2051157E-002  0.2745740E+03  0.7818608E-02  0.1098690E+00
          1   -1    0    0  501    0  0.00000000000E+00  0.00000000000E+00  0.57161722890E+02  0.57161722890E+02  0.00000000000E+00 0. -1.
         -1   -1    0    0    0  501 -0.00000000000E+00 -0.00000000000E+00 -0.32972626278E+03  0.32972626278E+03  0.00000000000E+00 0. -1.
         36    2    1    2    0    0  0.14210854715E-13  0.35527136788E-14 -0.27256453989E+03  0.38688798567E+03  0.27457400651E+03 0.  0.
         25    2    3    3    0    0  0.51427864824E+02  0.16096556810E+02 -0.15321986627E+03  0.20518798468E+03  0.12538683031E+03 0.  0.
         25    2    3    3    0    0 -0.51427864824E+02 -0.16096556810E+02 -0.11934467362E+03  0.18170000099E+03  0.12596751493E+03 0.  0.
          5    1    4    4  502    0  0.13611011663E+02  0.64650304621E+02 -0.11464499246E+03  0.13240274099E+03  0.47000000000E+01 0. -1.
         -5    1    4    4    0  502  0.37816853160E+02 -0.48553747811E+02 -0.38574873814E+02  0.72785243691E+02  0.47000000000E+01 0. -1.
          5    1    5    5  503    0  0.29378928719E+02  0.19243889595E+02 -0.74827789197E+02  0.82793337748E+02  0.47000000000E+01 0. -1.
         -5    1    5    5    0  503 -0.80806793543E+02 -0.35340446405E+02 -0.44516884422E+02  0.98906663241E+02  0.47000000000E+01 0. -1.
<mgrwt>
<rscale>  0 0.27457401E+03</rscale>
<asrwt>0</asrwt>
<pdfrwt beam="1">  1        1 0.87941112E-02 0.27457401E+03</pdfrwt>
<pdfrwt beam="2">  1       -1 0.50727118E-01 0.27457401E+03</pdfrwt>
<totfact> 0.30439784E+03</totfact>
</mgrwt>
</event>
<event>
 9    1  0.2051157E-002  0.2751396E+03  0.7818608E-02  0.1098374E+00
          1   -1    0    0  501    0  0.00000000000E+00  0.00000000000E+00  0.59509534455E+03  0.59509534455E+03  0.00000000000E+00 0.  1.
         -1   -1    0    0    0  501 -0.00000000000E+00 -0.00000000000E+00 -0.31802388493E+02  0.31802388493E+02  0.00000000000E+00 0.  1.
         36    2    1    2    0    0  0.71054273576E-14  0.35527136788E-14  0.56329295606E+03  0.62689773305E+03  0.27513962519E+03 0.  0.
         25    2    3    3    0    0  0.41176867718E+02  0.20822581591E+02  0.36069843723E+03  0.38426527168E+03  0.12420677137E+03 0.  0.
         25    2    3    3    0    0 -0.41176867718E+02 -0.20822581591E+02  0.20259451883E+03  0.24263246137E+03  0.12528710194E+03 0.  0.
          5    1    4    4  502    0  0.43278917553E+02  0.48812941504E+01  0.29887849817E+02  0.53030795806E+02  0.47000000000E+01 0. -1.
         -5    1    4    4    0  502 -0.21020498346E+01  0.15941287441E+02  0.33081058742E+03  0.33123447587E+03  0.47000000000E+01 0. -1.
          5    1    5    5  503    0 -0.57452343560E+02 -0.64239605907E+02  0.14223783600E+03  0.16637665322E+03  0.47000000000E+01 0.  1.
         -5    1    5    5    0  503  0.16275475842E+02  0.43417024316E+02  0.60356682832E+02  0.76255808151E+02  0.47000000000E+01 0.  1.
<mgrwt>
<rscale>  0 0.27513963E+03</rscale>
<asrwt>0</asrwt>
<pdfrwt beam="1">  1        1 0.91553121E-01 0.27513963E+03</pdfrwt>
<pdfrwt beam="2">  1       -1 0.48926756E-02 0.27513963E+03</pdfrwt>
<totfact> 0.64454264E+03</totfact>
</mgrwt>
</event>
<event>
 9    1  0.2051157E-002  0.2797457E+03  0.7818608E-02  0.1095828E+00
          2   -1    0    0  501    0  0.00000000000E+00  0.00000000000E+00  0.24732871976E+04  0.24732871976E+04  0.00000000000E+00 0.  1.
         -2   -1    0    0    0  501 -0.00000000000E+00 -0.00000000000E+00 -0.79102891222E+01  0.79102891222E+01  0.00000000000E+00 0.  1.
         36    2    1    2    0    0 -0.14210854715E-13  0.00000000000E+00  0.24653769085E+04  0.24811974868E+04  0.27974571893E+03 0.  0.
         25    2    3    3    0    0  0.65720938392E+02 -0.43210989235E+02  0.13622285794E+04  0.13694586420E+04  0.11646389362E+03 0.  0.
         25    2    3    3    0    0 -0.65720938392E+02  0.43210989235E+02  0.11031483292E+04  0.11117388447E+04  0.11331633329E+03 0.  0.
          5    1    4    4  502    0 -0.64882969539E+01  0.43966654027E+01  0.84338308138E+03  0.84343259400E+03  0.47000000000E+01 0. -1.
         -5    1    4    4    0  502  0.72209235346E+02 -0.47607654638E+02  0.51884549798E+03  0.52602604804E+03  0.47000000000E+01 0. -1.
          5    1    5    5  503    0 -0.83295786816E+02  0.65865598456E+02  0.94344237949E+03  0.94941143798E+03  0.47000000000E+01 0.  1.
         -5    1    5    5    0  503  0.17574848424E+02 -0.22654609221E+02  0.15970594967E+03  0.16232740673E+03  0.47000000000E+01 0.  1.
<mgrwt>
<rscale>  0 0.27974572E+03</rscale>
<asrwt>0</asrwt>
<pdfrwt beam="1">  1        2 0.38050511E+00 0.27974572E+03</pdfrwt>
<pdfrwt beam="2">  1       -2 0.12169695E-02 0.27974572E+03</pdfrwt>
<totfact> 0.66438043E+03</totfact>
</mgrwt>
</event>
<event>
 9    1  0.2051157E-002  0.2752413E+03  0.7818608E-02  0.1098317E+00
          2   -1    0    0  501    0  0.00000000000E+00  0.00000000000E+00  0.42554035527E+03  0.42554035527E+03  0.00000000000E+00 0.  1.
         -2   -1    0    0    0  501 -0.00000000000E+00 -0.00000000000E+00 -0.44506808017E+02  0.44506808017E+02  0.00000000000E+00 0.  1.
         36    2    1    2    0    0  0.00000000000E+00  0.00000000000E+00  0.38103354725E+03  0.47004716329E+03  0.27524129701E+03 0.  0.
         25    2    3    3    0    0 -0.44666492607E+02  0.40121607795E+02  0.19728359736E+03  0.24028192812E+03  0.12332780797E+03 0.  0.
         25    2    3    3    0    0  0.44666492607E+02 -0.40121607795E+02  0.18374994989E+03  0.22976523517E+03  0.12419009716E+03 0.  0.
          5    1    4    4  502    0  0.20376996667E+02  0.21251656091E+02 -0.18714590035E+01  0.29873855435E+02  0.47000000000E+01 0. -1.
         -5    1    4    4    0  502 -0.65043489274E+02  0.18869951704E+02  0.19915505636E+03  0.21040807268E+03  0.47000000000E+01 0. -1.
          5    1    5    5  503    0  0.18516406881E+02  0.33866665880E+02  0.12696975506E+03  0.13279012419E+03  0.47000000000E+01 0.  1.
         -5    1    5    5    0  503  0.26150085727E+02 -0.73988273675E+02  0.56780194834E+02  0.96975110984E+02  0.47000000000E+01 0.  1.
<mgrwt>
<rscale>  0 0.27524130E+03</rscale>
<asrwt>0</asrwt>
<pdfrwt beam="1">  1        2 0.65467744E-01 0.27524130E+03</pdfrwt>
<pdfrwt beam="2">  1       -2 0.68472015E-02 0.27524130E+03</pdfrwt>
<totfact> 0.89351749E+03</totfact>
</mgrwt>
</event>
<event>
 9    1  0.2051157E-002  0.2754855E+03  0.7818608E-02  0.1098181E+00
          2   -1    0    0  501    0  0.00000000000E+00  0.00000000000E+00  0.65761871460E+03  0.65761871460E+03  0.00000000000E+00 0.  1.
         -2   -1    0    0    0  501 -0.00000000000E+00 -0.00000000000E+00 -0.28851154063E+02  0.28851154063E+02  0.00000000000E+00 0.  1.
         36    2    1    2    0    0  0.14210854715E-13  0.00000000000E+00  0.62876756054E+03  0.68646986867E+03  0.27548545406E+03 0.  0.
         25    2    3    3    0    0  0.33335263077E+02  0.39766716501E+02  0.26415468815E+03  0.29760426893E+03  0.12687777626E+03 0.  0.
         25    2    3    3    0    0 -0.33335263077E+02 -0.39766716501E+02  0.36461287239E+03  0.38886559973E+03  0.12482498323E+03 0.  0.
          5    1    4    4  502    0  0.78514269401E+02  0.37662986809E+02  0.20662289342E+03  0.22427238163E+03  0.47000000000E+01 0. -1.
         -5    1    4    4    0  502 -0.45179006324E+02  0.21037296913E+01  0.57531794727E+02  0.73331887304E+02  0.47000000000E+01 0. -1.
          5    1    5    5  503    0  0.44755949200E+02 -0.34048041791E+02  0.16565018601E+03  0.17499839503E+03  0.47000000000E+01 0. -1.
         -5    1    5    5    0  503 -0.78091212277E+02 -0.57186747100E+01  0.19896268638E+03  0.21386720470E+03  0.47000000000E+01 0. -1.
<mgrwt>
<rscale>  0 0.27548545E+03</rscale>
<asrwt>0</asrwt>
<pdfrwt beam="1">  1        2 0.10117210E+00 0.27548545E+03</pdfrwt>
<pdfrwt beam="2">  1       -2 0.44386396E-02 0.27548545E+03</pdfrwt>
<totfact> 0.10576823E+04</totfact>
</mgrwt>
</event>
<event>
 9    1  0.2051157E-002  0.2747232E+03  0.7818608E-02  0.1098606E+00
         -2   -1    0    0    0  501 -0.00000000000E+00  0.00000000000E+00  0.52734037331E+02  0.52734037331E+02  0.00000000000E+00 0.  1.
          2   -1    0    0  501    0  0.00000000000E+00 -0.00000000000E+00 -0.35779948398E+03  0.35779948398E+03  0.00000000000E+00 0.  1.
         36    2    1    2    0    0  0.00000000000E+00  0.00000000000E+00 -0.30506544665E+03  0.41053352131E+03  0.27472321595E+03 0.  0.
         25    2    3    3    0    0  0.22827792380E+02  0.19594377729E+02 -0.95781642184E+02  0.16377896626E+03  0.12940007368E+03 0.  0.
         25    2    3    3    0    0 -0.22827792380E+02 -0.19594377729E+02 -0.20928380447E+03  0.24675455505E+03  0.12721262470E+03 0.  0.
          5    1    4    4  502    0 -0.21459464763E+02 -0.38597859655E+02 -0.15904750528E+01  0.44440105859E+02  0.47000000000E+01 0.  1.
         -5    1    4    4    0  502  0.44287257143E+02  0.58192237384E+02 -0.94191167131E+02  0.11933886040E+03  0.47000000000E+01 0.  1.
          5    1    5    5  503    0 -0.55708921680E+02 -0.57417408109E+02 -0.12110639702E+03  0.14522083910E+03  0.47000000000E+01 0. -1.
         -5    1    5    5    0  503  0.32881129300E+02  0.37823030380E+02 -0.88177407444E+02  0.10153371595E+03  0.47000000000E+01 0. -1.
<mgrwt>
<rscale>  0 0.27472322E+03</rscale>
<asrwt>0</asrwt>
<pdfrwt beam="1">  1        2 0.55046073E-01 0.27472322E+03</pdfrwt>
<pdfrwt beam="2">  1       -2 0.81129291E-02 0.27472322E+03</pdfrwt>
<totfact> 0.82847162E+03</totfact>
</mgrwt>
</event>
<event>
 9    1  0.2051157E-002  0.2711738E+03  0.7818608E-02  0.1100610E+00
         -2   -1    0    0    0  501 -0.00000000000E+00  0.00000000000E+00  0.28959086972E+02  0.28959086972E+02  0.00000000000E+00 0. -1.
          2   -1    0    0  501    0  0.00000000000E+00 -0.00000000000E+00 -0.63481996280E+03  0.63481996280E+03  0.00000000000E+00 0. -1.
         36    2    1    2    0    0  0.71054273576E-14 -0.71054273576E-14 -0.60586087583E+03  0.66377904978E+03  0.27117379309E+03 0.  0.
         25    2    3    3    0    0  0.29673491142E+02 -0.26867519797E+02 -0.24353166133E+03  0.27666775441E+03  0.12503997985E+03 0.  0.
         25    2    3    3    0    0 -0.29673491142E+02  0.26867519797E+02 -0.36232921450E+03  0.38711129537E+03  0.13027016399E+03 0.  0.
          5    1    4    4  502    0  0.27475980192E+02 -0.72968257734E+02 -0.10705907456E+03  0.13252558836E+03  0.47000000000E+01 0. -1.
         -5    1    4    4    0  502  0.21975109501E+01  0.46100737937E+02 -0.13647258677E+03  0.14414216605E+03  0.47000000000E+01 0. -1.
          5    1    5    5  503    0 -0.71002067339E+02  0.20504522906E+01 -0.11628090025E+03  0.13634088046E+03  0.47000000000E+01 0. -1.
         -5    1    5    5    0  503  0.41328576197E+02  0.24817067506E+02 -0.24604831425E+03  0.25077041491E+03  0.47000000000E+01 0. -1.
<mgrwt>
<rscale>  0 0.27117379E+03</rscale>
<asrwt>0</asrwt>
<pdfrwt beam="1">  1        2 0.97664606E-01 0.27117379E+03</pdfrwt>
<pdfrwt beam="2">  1       -2 0.44552443E-02 0.27117379E+03</pdfrwt>
<totfact> 0.10959625E+04</totfact>
</mgrwt>
</event>
<event>
 9    1  0.2051157E-002  0.2732801E+03  0.7818608E-02  0.1099417E+00
          2   -1    0    0  501    0  0.00000000000E+00  0.00000000000E+00  0.78360463235E+03  0.78360463235E+03  0.00000000000E+00 0.  1.
         -2   -1    0    0    0  501 -0.00000000000E+00 -0.00000000000E+00 -0.23826430138E+02  0.23826430138E+02  0.00000000000E+00 0.  1.
         36    2    1    2    0    0 -0.17763568394E-14  0.71054273576E-14  0.75977820221E+03  0.80743106248E+03  0.27328008364E+03 0.  0.
         25    2    3    3    0    0  0.13063459570E+01 -0.20838417951E+02  0.23942884494E+03  0.27209956585E+03  0.12757764595E+03 0.  0.
         25    2    3    3    0    0 -0.13063459570E+01  0.20838417951E+02  0.52034935727E+03  0.53533149663E+03  0.12401778692E+03 0.  0.
          5    1    4    4  502    0  0.17167643923E+02 -0.71667819576E+02  0.11490852491E+03  0.13659086154E+03  0.47000000000E+01 0. -1.
         -5    1    4    4    0  502 -0.15861297966E+02  0.50829401625E+02  0.12452032003E+03  0.13550870431E+03  0.47000000000E+01 0. -1.
          5    1    5    5  503    0 -0.30841424600E+02 -0.10000364960E+02  0.34463257159E+02  0.47550045896E+02  0.47000000000E+01 0. -1.
         -5    1    5    5    0  503  0.29535078643E+02  0.30838782912E+02  0.48588610011E+03  0.48778145074E+03  0.47000000000E+01 0. -1.
<mgrwt>
<rscale>  0 0.27328008E+03</rscale>
<asrwt>0</asrwt>
<pdfrwt beam="1">  1        2 0.12055454E+00 0.27328008E+03</pdfrwt>
<pdfrwt beam="2">  1       -2 0.36656052E-02 0.27328008E+03</pdfrwt>
<totfact> 0.11378116E+04</totfact>
</mgrwt>
</event>
<event>
 9    1  0.2051157E-002  0.2705954E+03  0.7818608E-02  0.1100939E+00
          1   -1    0    0  501    0  0.00000000000E+00  0.00000000000E+00  0.10964973083E+03  0.10964973083E+03  0.00000000000E+00 0.  1.
         -1   -1    0    0    0  501 -0.00000000000E+00 -0.00000000000E+00 -0.16694493284E+03  0.16694493284E+03  0.00000000000E+00 0.  1.
         36    2    1    2    0    0  0.00000000000E+00  0.00000000000E+00 -0.57295202004E+02  0.27659466367E+03  0.27059539500E+03 0.  0.
         25    2    3    3    0    0 -0.16575223881E+01 -0.50738405844E+02 -0.40576137069E+02  0.14021055270E+03  0.12423945823E+03 0.  0.
         25    2    3    3    0    0  0.16575223881E+01  0.50738405844E+02 -0.16719064935E+02  0.13638411097E+03  0.12547495919E+03 0.  0.
          5    1    4    4  502    0  0.22752196597E+02 -0.19341060949E+00  0.37393420084E+02  0.44023377009E+02  0.47000000000E+01 0. -1.
         -5    1    4    4    0  502 -0.24409718985E+02 -0.50544995234E+02 -0.77969557153E+02  0.96187175688E+02  0.47000000000E+01 0. -1.
          5    1    5    5  503    0  0.45624617019E+02 -0.19186479377E+02 -0.19993059614E+02  0.53586743713E+02  0.47000000000E+01 0. -1.
         -5    1    5    5    0  503 -0.43967094631E+02  0.69924885221E+02  0.32739946790E+01  0.82797367257E+02  0.47000000000E+01 0. -1.
<mgrwt>
<rscale>  0 0.27059540E+03</rscale>
<asrwt>0</asrwt>
<pdfrwt beam="1">  1        1 0.16869189E-01 0.27059540E+03</pdfrwt>
<pdfrwt beam="2">  1       -1 0.25683836E-01 0.27059540E+03</pdfrwt>
<totfact> 0.42173049E+03</totfact>
</mgrwt>
</event>
<event>
 9    1  0.2051157E-002  0.2757681E+03  0.7818608E-02  0.1098023E+00
          2   -1    0    0  501    0  0.00000000000E+00  0.00000000000E+00  0.12245297798E+03  0.12245297798E+03  0.00000000000E+00 0. -1.
         -2   -1    0    0    0  501 -0.00000000000E+00 -0.00000000000E+00 -0.15525964425E+03  0.15525964425E+03  0.00000000000E+00 0. -1.
         36    2    1    2    0    0  0.00000000000E+00  0.00000000000E+00 -0.32806666268E+02  0.27771262223E+03  0.27576806051E+03 0.  0.
         25    2    3    3    0    0  0.21279486888E+02  0.48445568933E+02 -0.39224393794E+02  0.14127726323E+03  0.12498368823E+03 0.  0.
         25    2    3    3    0    0 -0.21279486888E+02 -0.48445568933E+02  0.64177275264E+01  0.13643535901E+03  0.12559311386E+03 0.  0.
          5    1    4    4  502    0 -0.24811933846E+02  0.33451377678E+01 -0.66416993613E+02  0.71134584053E+02  0.47000000000E+01 0.  1.
         -5    1    4    4    0  502  0.46091420734E+02  0.45100431165E+02  0.27192599819E+02  0.70142679172E+02  0.47000000000E+01 0.  1.
          5    1    5    5  503    0 -0.64312300522E+02  0.40148006342E+01 -0.12569655529E+02  0.65820033901E+02  0.47000000000E+01 0.  1.
         -5    1    5    5    0  503  0.43032813634E+02 -0.52460369567E+02  0.18987383055E+02  0.70615325105E+02  0.47000000000E+01 0.  1.
<mgrwt>
<rscale>  0 0.27576806E+03</rscale>
<asrwt>0</asrwt>
<pdfrwt beam="1">  1        2 0.18838920E-01 0.27576806E+03</pdfrwt>
<pdfrwt beam="2">  1       -2 0.23886099E-01 0.27576806E+03</pdfrwt>
<totfact> 0.45593450E+03</totfact>
</mgrwt>
</event>
<event>
 9    1  0.2051157E-002  0.2745407E+03  0.7818608E-02  0.1098709E+00
          2   -1    0    0  501    0  0.00000000000E+00  0.00000000000E+00  0.53030921611E+02  0.53030921611E+02  0.00000000000E+00 0. -1.
         -2   -1    0    0    0  501 -0.00000000000E+00 -0.00000000000E+00 -0.35532373525E+03  0.35532373525E+03  0.00000000000E+00 0. -1.
         36    2    1    2    0    0 -0.35527136788E-14  0.71054273576E-14 -0.30229281364E+03  0.40835465686E+03  0.27454067204E+03 0.  0.
         25    2    3    3    0    0  0.13645328857E+02  0.15963283561E+02 -0.56975725450E+02  0.12951962687E+03  0.11440314258E+03 0.  0.
         25    2    3    3    0    0 -0.13645328857E+02 -0.15963283561E+02 -0.24531708819E+03  0.27883503000E+03  0.13087199384E+03 0.  0.
          5    1    4    4  502    0  0.23876202470E+02  0.61798448776E+02 -0.46767474604E+02  0.81230585350E+02  0.47000000000E+01 0.  1.
         -5    1    4    4    0  502 -0.10230873613E+02 -0.45835165215E+02 -0.10208250846E+02  0.48289041516E+02  0.47000000000E+01 0.  1.
          5    1    5    5  503    0 -0.57275193431E+02  0.14795649749E+02 -0.20011435287E+03  0.20872758145E+03  0.47000000000E+01 0.  1.
         -5    1    5    5    0  503  0.43629864574E+02 -0.30758933310E+02 -0.45202735324E+02  0.70107448548E+02  0.47000000000E+01 0.  1.
<mgrwt>
<rscale>  0 0.27454067E+03</rscale>
<asrwt>0</asrwt>
<pdfrwt beam="1">  1        2 0.81586031E-02 0.27454067E+03</pdfrwt>
<pdfrwt beam="2">  1       -2 0.54665192E-01 0.27454067E+03</pdfrwt>
<totfact> 0.26492854E+03</totfact>
</mgrwt>
</event>
<event>
 8    1  0.2051157E-002  0.3000485E+03  0.7818608E-02  0.1085216E+00
          1   -1    0    0  501    0  0.00000000000E+00  0.00000000000E+00  0.71078700587E+03  0.71078700587E+03  0.00000000000E+00 0. -1.
         -1   -1    0    0    0  501 -0.00000000000E+00 -0.00000000000E+00 -0.31665286003E+02  0.31665286003E+02  0.00000000000E+00 0. -1.
         25    2    1    2    0    0  0.73974172203E+02 -0.40626064182E+02  0.31696327324E+03  0.35123240612E+03  0.12560187610E+03 0.  0.
         25    2    1    2    0    0 -0.73974172203E+02  0.40626064182E+02  0.36215844663E+03  0.39121988576E+03  0.12153848487E+03 0.  0.
          5    1    3    3  502    0  0.24642255458E+02 -0.16884673603E+02  0.71708212565E+00  0.30247928252E+02  0.47000000000E+01 0.  1.
         -5    1    3    3    0  502  0.49331916745E+02 -0.23741390579E+02  0.31624619112E+03  0.32098447787E+03  0.47000000000E+01 0.  1.
          5    1    4    4  503    0 -0.59755383643E+02  0.39070133605E+00  0.33521856855E+03  0.34053551536E+03  0.47000000000E+01 0.  1.
         -5    1    4    4    0  503 -0.14218788560E+02  0.40235362846E+02  0.26939878077E+02  0.50684370394E+02  0.47000000000E+01 0.  1.
<mgrwt>
<rscale>  0 0.30004849E+03</rscale>
<asrwt>0</asrwt>
<pdfrwt beam="1">  1        1 0.10935184E+00 0.30004849E+03</pdfrwt>
<pdfrwt beam="2">  1       -1 0.48715830E-02 0.30004849E+03</pdfrwt>
<totfact> 0.50452446E+03</totfact>
</mgrwt>
</event>
<event>
 9    1  0.2051157E-002  0.2745017E+03  0.7818608E-02  0.1098730E+00
         -2   -1    0    0    0  501 -0.00000000000E+00  0.00000000000E+00  0.46419729444E+02  0.46419729444E+02  0.00000000000E+00 0. -1.
          2   -1    0    0  501    0  0.00000000000E+00 -0.00000000000E+00 -0.40581436101E+03  0.40581436101E+03  0.00000000000E+00 0. -1.
         36    2    1    2    0    0 -0.35527136788E-14  0.00000000000E+00 -0.35939463157E+03  0.45223409046E+03  0.27450167827E+03 0.  0.
         25    2    3    3    0    0 -0.13482454893E+02  0.51126791620E+02 -0.14778710452E+03  0.20045968286E+03  0.12468893607E+03 0.  0.
         25    2    3    3    0    0  0.13482454893E+02 -0.51126791620E+02 -0.21160752705E+03  0.25177440760E+03  0.12576518360E+03 0.  0.
          5    1    4    4  502    0 -0.21547841478E+02 -0.38442470504E+02 -0.60931216054E+02  0.75344781509E+02  0.47000000000E+01 0.  1.
         -5    1    4    4    0  502  0.80653865846E+01  0.89569262124E+02 -0.86855888469E+02  0.12511490135E+03  0.47000000000E+01 0.  1.
          5    1    5    5  503    0  0.44067222878E+02 -0.74681434688E+02 -0.18582502853E+03  0.20511525552E+03  0.47000000000E+01 0.  1.
         -5    1    5    5    0  503 -0.30584767985E+02  0.23554643068E+02 -0.25782498517E+02  0.46659152077E+02  0.47000000000E+01 0.  1.
<mgrwt>
<rscale>  0 0.27450168E+03</rscale>
<asrwt>0</asrwt>
<pdfrwt beam="1">  1        2 0.62432976E-01 0.27450168E+03</pdfrwt>
<pdfrwt beam="2">  1       -2 0.71414971E-02 0.27450168E+03</pdfrwt>
<totfact> 0.88154781E+03</totfact>
</mgrwt>
</event>
<event>
 9    1  0.2051157E-002  0.2748511E+03  0.7818608E-02  0.1098535E+00
          1   -1    0    0  501    0  0.00000000000E+00  0.00000000000E+00  0.12847340042E+03  0.12847340042E+03  0.00000000000E+00 0.  1.
         -1   -1    0    0    0  501 -0.00000000000E+00 -0.00000000000E+00 -0.14700148075E+03  0.14700148075E+03  0.00000000000E+00 0.  1.
         36    2    1    2    0    0  0.71054273576E-14 -0.71054273576E-14 -0.18528080334E+02  0.27547488117E+03  0.27485108767E+03 0.  0.
         25    2    3    3    0    0 -0.10118116767E+02  0.54316634673E+02  0.80762152672E+01  0.13627234094E+03  0.12430708975E+03 0.  0.
         25    2    3    3    0    0  0.10118116767E+02 -0.54316634673E+02 -0.26604295602E+02  0.13920254023E+03  0.12496753808E+03 0.  0.
          5    1    4    4  502    0  0.39520859821E+02  0.57791107219E+02  0.36162183695E+02  0.78939875628E+02  0.47000000000E+01 0.  1.
         -5    1    4    4    0  502 -0.49638976588E+02 -0.34744725458E+01 -0.28085968428E+02  0.57332465312E+02  0.47000000000E+01 0.  1.
          5    1    5    5  503    0 -0.43311488928E+02 -0.52824701371E+02  0.16435431428E+02  0.70416955021E+02  0.47000000000E+01 0. -1.
         -5    1    5    5    0  503  0.53429605696E+02 -0.14919333017E+01 -0.43039727030E+02  0.68785585209E+02  0.47000000000E+01 0. -1.
<mgrwt>
<rscale>  0 0.27485109E+03</rscale>
<asrwt>0</asrwt>
<pdfrwt beam="1">  1        1 0.19765138E-01 0.27485109E+03</pdfrwt>
<pdfrwt beam="2">  1       -1 0.22615613E-01 0.27485109E+03</pdfrwt>
<totfact> 0.42423360E+03</totfact>
</mgrwt>
</event>
<event>
 9    1  0.2051157E-002  0.2752286E+03  0.7818608E-02  0.1098324E+00
          1   -1    0    0  501    0  0.00000000000E+00  0.00000000000E+00  0.38596595711E+03  0.38596595711E+03  0.00000000000E+00 0. -1.
         -1   -1    0    0    0  501 -0.00000000000E+00 -0.00000000000E+00 -0.49065724814E+02  0.49065724814E+02  0.00000000000E+00 0. -1.
         36    2    1    2    0    0  0.00000000000E+00  0.35527136788E-14  0.33690023230E+03  0.43503168193E+03  0.27522862816E+03 0.  0.
         25    2    3    3    0    0 -0.20459306192E+02 -0.16658946530E+02  0.25747456555E+03  0.28698374418E+03  0.12397747298E+03 0.  0.
         25    2    3    3    0    0  0.20459306192E+02  0.16658946530E+02  0.79425666749E+02  0.14804793775E+03  0.12212146259E+03 0.  0.
          5    1    4    4  502    0  0.20470022104E+01 -0.46813062875E+02  0.24114025803E+03  0.24569567989E+03  0.47000000000E+01 0.  1.
         -5    1    4    4    0  502 -0.22506308402E+02  0.30154116345E+02  0.16334307523E+02  0.41288064289E+02  0.47000000000E+01 0.  1.
          5    1    5    5  503    0 -0.42183191994E+02  0.22634114434E+02  0.68967211177E+02  0.84085022688E+02  0.47000000000E+01 0.  1.
         -5    1    5    5    0  503  0.62642498186E+02 -0.59751679044E+01  0.10458455572E+02  0.63962915063E+02  0.47000000000E+01 0.  1.
<mgrwt>
<rscale>  0 0.27522863E+03</rscale>
<asrwt>0</asrwt>
<pdfrwt beam="1">  1        1 0.59379376E-01 0.27522863E+03</pdfrwt>
<pdfrwt beam="2">  1       -1 0.75485733E-02 0.27522863E+03</pdfrwt>
<totfact> 0.59384233E+03</totfact>
</mgrwt>
</event>
<event>
 9    1  0.2051157E-002  0.2745527E+03  0.7818608E-02  0.1098702E+00
         -2   -1    0    0    0  501 -0.00000000000E+00  0.00000000000E+00  0.91552116887E+02  0.91552116887E+02  0.00000000000E+00 0. -1.
          2   -1    0    0  501    0  0.00000000000E+00 -0.00000000000E+00 -0.20583679571E+03  0.20583679571E+03  0.00000000000E+00 0. -1.
         36    2    1    2    0    0 -0.35527136788E-14 -0.71054273576E-14 -0.11428467882E+03  0.29738891259E+03  0.27455268624E+03 0.  0.
         25    2    3    3    0    0  0.30209796619E+02 -0.33381863025E+02 -0.94902418044E+02  0.16470010304E+03  0.12685690522E+03 0.  0.
         25    2    3    3    0    0 -0.30209796619E+02  0.33381863025E+02 -0.19382260775E+02  0.13268880955E+03  0.12330315307E+03 0.  0.
          5    1    4    4  502    0 -0.24847144535E+02 -0.43549030857E+02  0.44569076221E+01  0.50555441900E+02  0.47000000000E+01 0. -1.
         -5    1    4    4    0  502  0.55056941154E+02  0.10167167832E+02 -0.99359325666E+02  0.11414466114E+03  0.47000000000E+01 0. -1.
          5    1    5    5  503    0 -0.37819025010E+02  0.23105405145E+02 -0.68497123840E+02  0.81719547074E+02  0.47000000000E+01 0. -1.
         -5    1    5    5    0  503  0.76092283909E+01  0.10276457880E+02  0.49114863066E+02  0.50969262475E+02  0.47000000000E+01 0. -1.
<mgrwt>
<rscale>  0 0.27455269E+03</rscale>
<asrwt>0</asrwt>
<pdfrwt beam="1">  1        2 0.31667199E-01 0.27455269E+03</pdfrwt>
<pdfrwt beam="2">  1       -2 0.14084941E-01 0.27455269E+03</pdfrwt>
<totfact> 0.62290836E+03</totfact>
</mgrwt>
</event>
<event>
 9    1  0.2051157E-002  0.2747587E+03  0.7818608E-02  0.1098587E+00
          2   -1    0    0  501    0  0.00000000000E+00  0.00000000000E+00  0.80357630353E+02  0.80357630353E+02  0.00000000000E+00 0. -1.
         -2   -1    0    0    0  501 -0.00000000000E+00 -0.00000000000E+00 -0.23486370425E+03  0.23486370425E+03  0.00000000000E+00 0. -1.
         36    2    1    2    0    0  0.00000000000E+00  0.00000000000E+00 -0.15450607390E+03  0.31522133460E+03  0.27475873583E+03 0.  0.
         25    2    3    3    0    0 -0.30099721232E+02 -0.18687586743E+02 -0.12778159120E+03  0.18333327432E+03  0.12660069237E+03 0.  0.
         25    2    3    3    0    0  0.30099721232E+02  0.18687586743E+02 -0.26724482702E+02  0.13188806028E+03  0.12419759801E+03 0.  0.
          5    1    4    4  502    0 -0.57996277007E+02 -0.18779254241E+02 -0.96954811700E+01  0.61905741992E+02  0.47000000000E+01 0. -1.
         -5    1    4    4    0  502  0.27896555774E+02  0.91667498472E-01 -0.11808611003E+03  0.12142753233E+03  0.47000000000E+01 0. -1.
          5    1    5    5  503    0  0.75223549271E+02  0.20448313963E+02  0.20747439898E+01  0.78122406975E+02  0.47000000000E+01 0.  1.
         -5    1    5    5    0  503 -0.45123828039E+02 -0.17607272204E+01 -0.28799226692E+02  0.53765653304E+02  0.47000000000E+01 0.  1.
<mgrwt>
<rscale>  0 0.27475874E+03</rscale>
<asrwt>0</asrwt>
<pdfrwt beam="1">  1        2 0.12362712E-01 0.27475874E+03</pdfrwt>
<pdfrwt beam="2">  1       -2 0.36132877E-01 0.27475874E+03</pdfrwt>
<totfact> 0.35459803E+03</totfact>
</mgrwt>
</event>
<event>
 9    1  0.2051157E-002  0.2725527E+03  0.7818608E-02  0.1099827E+00
          1   -1    0    0  501    0  0.00000000000E+00  0.00000000000E+00  0.79883307059E+02  0.79883307059E+02  0.00000000000E+00 0.  1.
         -1   -1    0    0    0  501 -0.00000000000E+00 -0.00000000000E+00 -0.23247973067E+03  0.23247973067E+03  0.00000000000E+00 0.  1.
         36    2    1    2    0    0  0.71054273576E-14 -0.35527136788E-14 -0.15259642361E+03  0.31236303773E+03  0.27255274506E+03 0.  0.
         25    2    3    3    0    0  0.42185148312E+02 -0.10862595813E+02 -0.42109423049E+02  0.14046802624E+03  0.12672994974E+03 0.  0.
         25    2    3    3    0    0 -0.42185148312E+02  0.10862595813E+02 -0.11048700056E+03  0.17189501148E+03  0.12426960592E+03 0.  0.
          5    1    4    4  502    0  0.31627542644E+02  0.55944676541E+01  0.42513178137E+02  0.53488875828E+02  0.47000000000E+01 0. -1.
         -5    1    4    4    0  502  0.10557605669E+02 -0.16457063467E+02 -0.84622601187E+02  0.86979150415E+02  0.47000000000E+01 0. -1.
          5    1    5    5  503    0 -0.64683417280E+01  0.37045827670E+02 -0.12043961719E+03  0.12626172888E+03  0.47000000000E+01 0. -1.
         -5    1    5    5    0  503 -0.35716806584E+02 -0.26183231857E+02  0.99526166291E+01  0.45633282600E+02  0.47000000000E+01 0. -1.
<mgrwt>
<rscale>  0 0.27255275E+03</rscale>
<asrwt>0</asrwt>
<pdfrwt beam="1">  1        1 0.12289740E-01 0.27255275E+03</pdfrwt>
<pdfrwt beam="2">  1       -1 0.35766111E-01 0.27255275E+03</pdfrwt>
<totfact> 0.36390815E+03</totfact>
</mgrwt>
</event>
<event>
 9    1  0.2051157E-002  0.2741674E+03  0.7818608E-02  0.1098918E+00
          1   -1    0    0  501    0  0.00000000000E+00  0.00000000000E+00  0.26023702362E+03  0.26023702362E+03  0.00000000000E+00 0.  1.
         -1   -1    0    0    0  501 -0.00000000000E+00 -0.00000000000E+00 -0.72210875719E+02  0.72210875719E+02  0.00000000000E+00 0.  1.
         36    2    1    2    0    0  0.35527136788E-14  0.00000000000E+00  0.18802614790E+03  0.33244789934E+03  0.27416741871E+03 0.  0.
         25    2    3    3    0    0  0.23209604210E+02 -0.41168642232E+02  0.48948604195E+02  0.13967767087E+03  0.12198501161E+03 0.  0.
         25    2    3    3    0    0 -0.23209604210E+02  0.41168642232E+02  0.13907754371E+03  0.19277022847E+03  0.12483691357E+03 0.  0.
          5    1    4    4  502    0 -0.79654926492E+01 -0.80142444845E+02  0.31267594513E+02  0.86521748742E+02  0.47000000000E+01 0.  1.
         -5    1    4    4    0  502  0.31175096859E+02  0.38973802612E+02  0.17681009683E+02  0.53155922132E+02  0.47000000000E+01 0.  1.
          5    1    5    5  503    0 -0.56899210880E+02  0.58757178492E+02  0.50427083934E+02  0.96202427294E+02  0.47000000000E+01 0.  1.
         -5    1    5    5    0  503  0.33689606670E+02 -0.17588536260E+02  0.88650459772E+02  0.96567801172E+02  0.47000000000E+01 0.  1.
<mgrwt>
<rscale>  0 0.27416742E+03</rscale>
<asrwt>0</asrwt>
<pdfrwt beam="1">  1        1 0.40036465E-01 0.27416742E+03</pdfrwt>
<pdfrwt beam="2">  1       -1 0.11109366E-01 0.27416742E+03</pdfrwt>
<totfact> 0.53895384E+03</totfact>
</mgrwt>
</event>
<event>
 9    1  0.2051157E-002  0.2746551E+03  0.7818608E-02  0.1098645E+00
          1   -1    0    0  501    0  0.00000000000E+00  0.00000000000E+00  0.30944658310E+03  0.30944658310E+03  0.00000000000E+00 0. -1.
         -1   -1    0    0    0  501 -0.00000000000E+00 -0.00000000000E+00 -0.60943809307E+02  0.60943809307E+02  0.00000000000E+00 0. -1.
         36    2    1    2    0    0  0.71054273576E-14  0.00000000000E+00  0.24850277379E+03  0.37039039240E+03  0.27465508225E+03 0.  0.
         25    2    3    3    0    0  0.23951513947E+02  0.54284300849E+02  0.14746939163E+03  0.20043190669E+03  0.12208713042E+03 0.  0.
         25    2    3    3    0    0 -0.23951513947E+02 -0.54284300849E+02  0.10103338216E+03  0.16995848571E+03  0.12311653916E+03 0.  0.
          5    1    4    4  502    0  0.69076394772E+02  0.19827032555E+02  0.50481947730E+02  0.87949852650E+02  0.47000000000E+01 0. -1.
         -5    1    4    4    0  502 -0.45124880824E+02  0.34457268294E+02  0.96987443901E+02  0.11248205404E+03  0.47000000000E+01 0. -1.
          5    1    5    5  503    0  0.22276207368E+02 -0.20683555957E+02  0.10790757009E+03  0.11220593828E+03  0.47000000000E+01 0. -1.
         -5    1    5    5    0  503 -0.46227721316E+02 -0.33600744892E+02 -0.68741879302E+01  0.57752547433E+02  0.47000000000E+01 0. -1.
<mgrwt>
<rscale>  0 0.27465508E+03</rscale>
<asrwt>0</asrwt>
<pdfrwt beam="1">  1        1 0.47607166E-01 0.27465508E+03</pdfrwt>
<pdfrwt beam="2">  1       -1 0.93759708E-02 0.27465508E+03</pdfrwt>
<totfact> 0.56376240E+03</totfact>
</mgrwt>
</event>
<event>
 9    1  0.2051157E-002  0.2751294E+03  0.7818608E-02  0.1098379E+00
         -3   -1    0    0    0  501 -0.00000000000E+00  0.00000000000E+00  0.38297309195E+03  0.38297309195E+03  0.00000000000E+00 0.  1.
          3   -1    0    0  501    0  0.00000000000E+00 -0.00000000000E+00 -0.49413516426E+02  0.49413516426E+02  0.00000000000E+00 0.  1.
         36    2    1    2    0    0  0.00000000000E+00  0.35527136788E-14  0.33355957552E+03  0.43238660837E+03  0.27512940352E+03 0.  0.
         25    2    3    3    0    0  0.41425718478E+02  0.25582787757E+02  0.98616170819E+02  0.16515226997E+03  0.12320533246E+03 0.  0.
         25    2    3    3    0    0 -0.41425718478E+02 -0.25582787757E+02  0.23494340470E+03  0.26723433841E+03  0.11766570881E+03 0.  0.
          5    1    4    4  502    0  0.35284800357E+02  0.50312391850E+01 -0.22269217218E+02  0.42288751926E+02  0.47000000000E+01 0.  1.
         -5    1    4    4    0  502  0.61409181212E+01  0.20551548572E+02  0.12088538804E+03  0.12286351804E+03  0.47000000000E+01 0.  1.
          5    1    5    5  503    0 -0.57813457904E+02  0.20947045199E+02  0.62467573363E+02  0.87780762922E+02  0.47000000000E+01 0.  1.
         -5    1    5    5    0  503  0.16387739425E+02 -0.46529832956E+02  0.17247583134E+03  0.17945357549E+03  0.47000000000E+01 0.  1.
<mgrwt>
<rscale>  0 0.27512940E+03</rscale>
<asrwt>0</asrwt>
<pdfrwt beam="1">  1        3 0.76020797E-02 0.27512940E+03</pdfrwt>
<pdfrwt beam="2">  1       -3 0.58918935E-01 0.27512940E+03</pdfrwt>
<totfact> 0.84243560E+02</totfact>
</mgrwt>
</event>
<event>
 9    1  0.2051157E-002  0.2746620E+03  0.7818608E-02  0.1098641E+00
         -2   -1    0    0    0  501 -0.00000000000E+00  0.00000000000E+00  0.77906116595E+01  0.77906116595E+01  0.00000000000E+00 0.  1.
          2   -1    0    0  501    0  0.00000000000E+00 -0.00000000000E+00 -0.24208381620E+04  0.24208381620E+04  0.00000000000E+00 0.  1.
         36    2    1    2    0    0  0.71054273576E-14  0.35527136788E-14 -0.24130475504E+04  0.24286287737E+04  0.27466204697E+03 0.  0.
         25    2    3    3    0    0 -0.45062479805E+02  0.18549361081E+02 -0.14819096203E+04  0.14879552513E+04  0.12481987569E+03 0.  0.
         25    2    3    3    0    0  0.45062479805E+02 -0.18549361081E+02 -0.93113793013E+03  0.94067352241E+03  0.12439503589E+03 0.  0.
          5    1    4    4  502    0  0.30704186962E+02  0.38372776087E+02 -0.80531214997E+03  0.80682399935E+03  0.47000000000E+01 0.  1.
         -5    1    4    4    0  502 -0.75766666768E+02 -0.19823415006E+02 -0.67659747028E+03  0.68113125194E+03  0.47000000000E+01 0.  1.
          5    1    5    5  503    0  0.83893645587E+01 -0.69761379177E+02 -0.49779586041E+03  0.50275226514E+03  0.47000000000E+01 0. -1.
         -5    1    5    5    0  503  0.36673115247E+02  0.51212018096E+02 -0.43334206973E+03  0.43792125728E+03  0.47000000000E+01 0. -1.
<mgrwt>
<rscale>  0 0.27466205E+03</rscale>
<asrwt>0</asrwt>
<pdfrwt beam="1">  1        2 0.37243692E+00 0.27466205E+03</pdfrwt>
<pdfrwt beam="2">  1       -2 0.11985547E-02 0.27466205E+03</pdfrwt>
<totfact> 0.72555844E+03</totfact>
</mgrwt>
</event>
<event>
 9    1  0.2051157E-002  0.2748434E+03  0.7818608E-02  0.1098539E+00
         -3   -1    0    0    0  501 -0.00000000000E+00  0.00000000000E+00  0.86137001723E+03  0.86137001723E+03  0.00000000000E+00 0. -1.
          3   -1    0    0  501    0  0.00000000000E+00 -0.00000000000E+00 -0.21924059404E+02  0.21924059404E+02  0.00000000000E+00 0. -1.
         36    2    1    2    0    0  0.14210854715E-13 -0.14210854715E-13  0.83944595782E+03  0.88329407663E+03  0.27484342762E+03 0.  0.
         25    2    3    3    0    0  0.32989908182E+02 -0.37694858558E+02  0.41201297639E+03  0.43445280598E+03  0.12839513819E+03 0.  0.
         25    2    3    3    0    0 -0.32989908182E+02  0.37694858558E+02  0.42743298143E+03  0.44884127065E+03  0.12747664968E+03 0.  0.
          5    1    4    4  502    0  0.18124651479E+02 -0.80695606555E+02  0.33306086699E+03  0.34320826772E+03  0.47000000000E+01 0.  1.
         -5    1    4    4    0  502  0.14865256703E+02  0.43000747997E+02  0.78952109399E+02  0.91244538268E+02  0.47000000000E+01 0.  1.
          5    1    5    5  503    0  0.31473810569E+02  0.57496341225E+02  0.26231365186E+03  0.27041999179E+03  0.47000000000E+01 0.  1.
         -5    1    5    5    0  503 -0.64463718751E+02 -0.19801482667E+02  0.16511932957E+03  0.17842127886E+03  0.47000000000E+01 0.  1.
<mgrwt>
<rscale>  0 0.27484343E+03</rscale>
<asrwt>0</asrwt>
<pdfrwt beam="1">  1        3 0.33729329E-02 0.27484343E+03</pdfrwt>
<pdfrwt beam="2">  1       -3 0.13251844E+00 0.27484343E+03</pdfrwt>
<totfact> 0.50054144E+02</totfact>
</mgrwt>
</event>
<event>
 9    1  0.2051157E-002  0.2750936E+03  0.7818608E-02  0.1098399E+00
         -2   -1    0    0    0  501 -0.00000000000E+00  0.00000000000E+00  0.74225225059E+02  0.74225225059E+02  0.00000000000E+00 0.  1.
          2   -1    0    0  501    0  0.00000000000E+00 -0.00000000000E+00 -0.25488799921E+03  0.25488799921E+03  0.00000000000E+00 0.  1.
         36    2    1    2    0    0  0.00000000000E+00  0.35527136788E-14 -0.18066277416E+03  0.32911322427E+03  0.27509357758E+03 0.  0.
         25    2    3    3    0    0 -0.16208074704E+02 -0.12956094576E+02 -0.14052262322E+03  0.19069758128E+03  0.12723363470E+03 0.  0.
         25    2    3    3    0    0  0.16208074704E+02  0.12956094576E+02 -0.40140150940E+02  0.13841564299E+03  0.13083232183E+03 0.  0.
          5    1    4    4  502    0 -0.76192254967E+00 -0.11123248286E+02 -0.16273061421E+03  0.16317980874E+03  0.47000000000E+01 0.  1.
         -5    1    4    4    0  502 -0.15446152155E+02 -0.18328462903E+01  0.22207990995E+02  0.27517772547E+02  0.47000000000E+01 0.  1.
          5    1    5    5  503    0 -0.55355103558E+01  0.70387596813E+02 -0.24359780634E+02  0.74836786225E+02  0.47000000000E+01 0.  1.
         -5    1    5    5    0  503  0.21743585060E+02 -0.57431502237E+02 -0.15780370306E+02  0.63578856764E+02  0.47000000000E+01 0.  1.
<mgrwt>
<rscale>  0 0.27509358E+03</rscale>
<asrwt>0</asrwt>
<pdfrwt beam="1">  1        2 0.39213538E-01 0.27509358E+03</pdfrwt>
<pdfrwt beam="2">  1       -2 0.11419265E-01 0.27509358E+03</pdfrwt>
<totfact> 0.69440918E+03</totfact>
</mgrwt>
</event>
<event>
 9    1  0.2051157E-002  0.2753505E+03  0.7818608E-02  0.1098256E+00
         -3   -1    0    0    0  501 -0.00000000000E+00  0.00000000000E+00  0.28639155664E+03  0.28639155664E+03  0.00000000000E+00 0. -1.
          3   -1    0    0  501    0  0.00000000000E+00 -0.00000000000E+00 -0.66183761048E+02  0.66183761048E+02  0.00000000000E+00 0. -1.
         36    2    1    2    0    0  0.00000000000E+00  0.17763568394E-14  0.22020779559E+03  0.35257531769E+03  0.27535047013E+03 0.  0.
         25    2    3    3    0    0  0.49360328510E+02 -0.14399861201E+02  0.10045227710E+03  0.17122050253E+03  0.12877112440E+03 0.  0.
         25    2    3    3    0    0 -0.49360328510E+02  0.14399861201E+02  0.11975551849E+03  0.18135481515E+03  0.12611259548E+03 0.  0.
          5    1    4    4  502    0 -0.31307238783E+02 -0.26362487088E+02  0.75158597245E+02  0.85708976575E+02  0.47000000000E+01 0. -1.
         -5    1    4    4    0  502  0.80667567293E+02  0.11962625886E+02  0.25293679857E+02  0.85511525959E+02  0.47000000000E+01 0. -1.
          5    1    5    5  503    0 -0.46148682211E+02 -0.16524800113E+02 -0.79098278365E+01  0.49874094127E+02  0.47000000000E+01 0.  1.
         -5    1    5    5    0  503 -0.32116462992E+01  0.30924661314E+02  0.12766534633E+03  0.13148072103E+03  0.47000000000E+01 0.  1.
<mgrwt>
<rscale>  0 0.27535047E+03</rscale>
<asrwt>0</asrwt>
<pdfrwt beam="1">  1        3 0.10182117E-01 0.27535047E+03</pdfrwt>
<pdfrwt beam="2">  1       -3 0.44060239E-01 0.27535047E+03</pdfrwt>
<totfact> 0.93564171E+02</totfact>
</mgrwt>
</event>
<event>
 9    1  0.2051157E-002  0.2748278E+03  0.7818608E-02  0.1098548E+00
         -2   -1    0    0    0  501 -0.00000000000E+00  0.00000000000E+00  0.16481404313E+03  0.16481404313E+03  0.00000000000E+00 0.  1.
          2   -1    0    0  501    0  0.00000000000E+00 -0.00000000000E+00 -0.11456902690E+03  0.11456902690E+03  0.00000000000E+00 0.  1.
         36    2    1    2    0    0  0.00000000000E+00  0.00000000000E+00  0.50245016238E+02  0.27938307003E+03  0.27482783367E+03 0.  0.
         25    2    3    3    0    0  0.18203036735E+02  0.25960801530E+02  0.29540368132E+02  0.14535171198E+03  0.13874138915E+03 0.  0.
         25    2    3    3    0    0 -0.18203036735E+02 -0.25960801530E+02  0.20704648106E+02  0.13403135805E+03  0.12857063710E+03 0.  0.
          5    1    4    4  502    0  0.32541281653E+02  0.79554793158E+02  0.11624430653E+02  0.86862635891E+02  0.47000000000E+01 0.  1.
         -5    1    4    4    0  502 -0.14338244918E+02 -0.53593991628E+02  0.17915937479E+02  0.58489076088E+02  0.47000000000E+01 0.  1.
          5    1    5    5  503    0 -0.12773185244E+01 -0.39564792893E+02 -0.47667855115E+02  0.62139510704E+02  0.47000000000E+01 0.  1.
         -5    1    5    5    0  503 -0.16925718211E+02  0.13603991363E+02  0.68372503221E+02  0.71891847345E+02  0.47000000000E+01 0.  1.
<mgrwt>
<rscale>  0 0.27482783E+03</rscale>
<asrwt>0</asrwt>
<pdfrwt beam="1">  1        2 0.17626004E-01 0.27482783E+03</pdfrwt>
<pdfrwt beam="2">  1       -2 0.25356007E-01 0.27482783E+03</pdfrwt>
<totfact> 0.44327473E+03</totfact>
</mgrwt>
</event>
<event>
 9    1  0.2051157E-002  0.2751472E+03  0.7818608E-02  0.1098369E+00
          2   -1    0    0  501    0  0.00000000000E+00  0.00000000000E+00  0.13819734200E+04  0.13819734200E+04  0.00000000000E+00 0.  1.
         -2   -1    0    0    0  501 -0.00000000000E+00 -0.00000000000E+00 -0.13695268605E+02  0.13695268605E+02  0.00000000000E+00 0.  1.
         36    2    1    2    0    0  0.00000000000E+00  0.00000000000E+00  0.13682781514E+04  0.13956686886E+04  0.27514721290E+03 0.  0.
         25    2    3    3    0    0 -0.96737738855E+01  0.50890116280E+02  0.57364450107E+03  0.58998335437E+03  0.12778481516E+03 0.  0.
         25    2    3    3    0    0  0.96737738855E+01 -0.50890116280E+02  0.79463365032E+03  0.80568533424E+03  0.12248605529E+03 0.  0.
          5    1    4    4  502    0  0.48549298037E+02  0.60239744057E+02  0.28588695503E+03  0.29620820745E+03  0.47000000000E+01 0. -1.
         -5    1    4    4    0  502 -0.58223071923E+02 -0.93496277767E+01  0.28775754604E+03  0.29377514691E+03  0.47000000000E+01 0. -1.
          5    1    5    5  503    0 -0.37092722728E+02 -0.24277745982E+02  0.10675337624E+03  0.11568773646E+03  0.47000000000E+01 0.  1.
         -5    1    5    5    0  503  0.46766496614E+02 -0.26612370298E+02  0.68788027409E+03  0.68999759778E+03  0.47000000000E+01 0.  1.
<mgrwt>
<rscale>  0 0.27514721E+03</rscale>
<asrwt>0</asrwt>
<pdfrwt beam="1">  1        2 0.21261119E+00 0.27514721E+03</pdfrwt>
<pdfrwt beam="2">  1       -2 0.21069655E-02 0.27514721E+03</pdfrwt>
<totfact> 0.11312986E+04</totfact>
</mgrwt>
</event>
<event>
 9    1  0.2051157E-002  0.2750900E+03  0.7818608E-02  0.1098401E+00
          2   -1    0    0  501    0  0.00000000000E+00  0.00000000000E+00  0.82095322445E+03  0.82095322445E+03  0.00000000000E+00 0.  1.
         -2   -1    0    0    0  501 -0.00000000000E+00 -0.00000000000E+00 -0.23044712904E+02  0.23044712904E+02  0.00000000000E+00 0.  1.
         36    2    1    2    0    0  0.35527136788E-14  0.14210854715E-13  0.79790851154E+03  0.84399793735E+03  0.27509003155E+03 0.  0.
         25    2    3    3    0    0 -0.24868579310E+02  0.45192036238E+02  0.38871021366E+03  0.41256293684E+03  0.12826449342E+03 0.  0.
         25    2    3    3    0    0  0.24868579310E+02 -0.45192036238E+02  0.40919829788E+03  0.43143500051E+03  0.12661811206E+03 0.  0.
          5    1    4    4  502    0 -0.12875201090E+02 -0.44997743876E+02  0.14004166943E+03  0.14773058902E+03  0.47000000000E+01 0.  1.
         -5    1    4    4    0  502 -0.11993378219E+02  0.90189780115E+02  0.24866854424E+03  0.26483234782E+03  0.47000000000E+01 0.  1.
          5    1    5    5  503    0 -0.35826114531E+02  0.23894786468E+02  0.10438032450E+03  0.11301244818E+03  0.47000000000E+01 0.  1.
         -5    1    5    5    0  503  0.60694693841E+02 -0.69086822707E+02  0.30481797338E+03  0.31842255233E+03  0.47000000000E+01 0.  1.
<mgrwt>
<rscale>  0 0.27509003E+03</rscale>
<asrwt>0</asrwt>
<pdfrwt beam="1">  1        2 0.12630047E+00 0.27509003E+03</pdfrwt>
<pdfrwt beam="2">  1       -2 0.35453411E-02 0.27509003E+03</pdfrwt>
<totfact> 0.11274752E+04</totfact>
</mgrwt>
</event>
<event>
 9    1  0.2051157E-002  0.2741064E+03  0.7818608E-02  0.1098952E+00
         -2   -1    0    0    0  501 -0.00000000000E+00  0.00000000000E+00  0.84890355214E+02  0.84890355214E+02  0.00000000000E+00 0. -1.
          2   -1    0    0  501    0  0.00000000000E+00 -0.00000000000E+00 -0.22126874959E+03  0.22126874959E+03  0.00000000000E+00 0. -1.
         36    2    1    2    0    0  0.00000000000E+00 -0.35527136788E-14 -0.13637839438E+03  0.30615910480E+03  0.27410642277E+03 0.  0.
         25    2    3    3    0    0 -0.73234946161E+01  0.25551465138E+02 -0.17857048693E+02  0.12973103236E+03  0.12571696633E+03 0.  0.
         25    2    3    3    0    0  0.73234946161E+01 -0.25551465138E+02 -0.11852134568E+03  0.17642807245E+03  0.12795719761E+03 0.  0.
          5    1    4    4  502    0  0.60970869279E+01  0.22508539969E+02 -0.70872009716E+02  0.74757879864E+02  0.47000000000E+01 0.  1.
         -5    1    4    4    0  502 -0.13420581544E+02  0.30429251687E+01  0.53014961023E+02  0.54973152491E+02  0.47000000000E+01 0.  1.
          5    1    5    5  503    0 -0.78801905393E+01  0.14526009161E+02 -0.13053793110E+03  0.13166375280E+03  0.47000000000E+01 0. -1.
         -5    1    5    5    0  503  0.15203685155E+02 -0.40077474299E+02  0.12016585419E+02  0.44764319649E+02  0.47000000000E+01 0. -1.
<mgrwt>
<rscale>  0 0.27410642E+03</rscale>
<asrwt>0</asrwt>
<pdfrwt beam="1">  1        2 0.34041346E-01 0.27410642E+03</pdfrwt>
<pdfrwt beam="2">  1       -2 0.13060055E-01 0.27410642E+03</pdfrwt>
<totfact> 0.65133672E+03</totfact>
</mgrwt>
</event>
<event>
 9    1  0.2051157E-002  0.2749352E+03  0.7818608E-02  0.1098488E+00
         -2   -1    0    0    0  501 -0.00000000000E+00  0.00000000000E+00  0.78866908964E+01  0.78866908964E+01  0.00000000000E+00 0.  1.
          2   -1    0    0  501    0  0.00000000000E+00 -0.00000000000E+00 -0.23961047550E+04  0.23961047550E+04  0.00000000000E+00 0.  1.
         36    2    1    2    0    0  0.35527136788E-14  0.00000000000E+00 -0.23882180641E+04  0.24039914458E+04  0.27493517460E+03 0.  0.
         25    2    3    3    0    0  0.91824495654E+01 -0.36164794466E+02 -0.14624825741E+04  0.14681675207E+04  0.12356528405E+03 0.  0.
         25    2    3    3    0    0 -0.91824495654E+01  0.36164794466E+02 -0.92573548995E+03  0.93582392519E+03  0.13186361083E+03 0.  0.
          5    1    4    4  502    0  0.29231883241E+02 -0.23458673430E+02 -0.14085387484E+04  0.14090451760E+04  0.47000000000E+01 0.  1.
         -5    1    4    4    0  502 -0.20049433676E+02 -0.12706121036E+02 -0.53943825701E+02  0.59122344624E+02  0.47000000000E+01 0.  1.
          5    1    5    5  503    0  0.35796743822E+02  0.28951032888E+02 -0.81052737730E+03  0.81184745397E+03  0.47000000000E+01 0. -1.
         -5    1    5    5    0  503 -0.44979193387E+02  0.72137615778E+01 -0.11520811265E+03  0.12397647121E+03  0.47000000000E+01 0. -1.
<mgrwt>
<rscale>  0 0.27493517E+03</rscale>
<asrwt>0</asrwt>
<pdfrwt beam="1">  1        2 0.36863128E+00 0.27493517E+03</pdfrwt>
<pdfrwt beam="2">  1       -2 0.12133378E-02 0.27493517E+03</pdfrwt>
<totfact> 0.73506923E+03</totfact>
</mgrwt>
</event>
<event>
 9    1  0.2051157E-002  0.2746954E+03  0.7818608E-02  0.1098622E+00
         -2   -1    0    0    0  501 -0.00000000000E+00  0.00000000000E+00  0.48626703152E+01  0.48626703152E+01  0.00000000000E+00 0. -1.
          2   -1    0    0  501    0  0.00000000000E+00 -0.00000000000E+00 -0.38794305468E+04  0.38794305468E+04  0.00000000000E+00 0. -1.
         36    2    1    2    0    0 -0.35527136788E-14  0.00000000000E+00 -0.38745678765E+04  0.38842932171E+04  0.27469540775E+03 0.  0.
         25    2    3    3    0    0  0.47278331915E+01 -0.52510458061E+02 -0.16880446610E+04  0.16936027940E+04  0.12655412260E+03 0.  0.
         25    2    3    3    0    0 -0.47278331915E+01  0.52510458061E+02 -0.21865232155E+04  0.21906904231E+04  0.12434249935E+03 0.  0.
          5    1    4    4  502    0  0.27305713500E+02 -0.77313133506E+02 -0.67290536813E+03  0.67789869971E+03  0.47000000000E+01 0. -1.
         -5    1    4    4    0  502 -0.22577880308E+02  0.24802675445E+02 -0.10151392928E+04  0.10157040943E+04  0.47000000000E+01 0. -1.
          5    1    5    5  503    0 -0.57119078490E+02  0.48802173760E+02 -0.92181948742E+03  0.92488783032E+03  0.47000000000E+01 0.  1.
         -5    1    5    5    0  503  0.52391245298E+02  0.37082843006E+01 -0.12647037281E+04  0.12658025927E+04  0.47000000000E+01 0.  1.
<mgrwt>
<rscale>  0 0.27469541E+03</rscale>
<asrwt>0</asrwt>
<pdfrwt beam="1">  1        2 0.59683598E+00 0.27469541E+03</pdfrwt>
<pdfrwt beam="2">  1       -2 0.74810248E-03 0.27469541E+03</pdfrwt>
<totfact> 0.17898988E+03</totfact>
</mgrwt>
</event>
<event>
 9    1  0.2051157E-002  0.2750593E+03  0.7818608E-02  0.1098418E+00
          2   -1    0    0  501    0  0.00000000000E+00  0.00000000000E+00  0.30954867014E+04  0.30954867014E+04  0.00000000000E+00 0.  1.
         -2   -1    0    0    0  501 -0.00000000000E+00 -0.00000000000E+00 -0.61103151789E+01  0.61103151789E+01  0.00000000000E+00 0.  1.
         36    2    1    2    0    0 -0.71054273576E-14  0.00000000000E+00  0.30893763862E+04  0.31015970166E+04  0.27505926182E+03 0.  0.
         25    2    3    3    0    0  0.13705871086E+02 -0.35444314398E+02  0.21083059127E+04  0.21127473905E+04  0.13154301367E+03 0.  0.
         25    2    3    3    0    0 -0.13705871086E+02  0.35444314398E+02  0.98107047354E+03  0.98884962605E+03  0.11781408468E+03 0.  0.
          5    1    4    4  502    0  0.23607122851E+02  0.19175351723E+02  0.12761675664E+03  0.13127496691E+03  0.47000000000E+01 0. -1.
         -5    1    4    4    0  502 -0.99012517654E+01 -0.54619666121E+02  0.19806891561E+04  0.19814724236E+04  0.47000000000E+01 0. -1.
          5    1    5    5  503    0  0.40788352693E+02  0.40213427038E+02  0.29242437408E+03  0.29801831150E+03  0.47000000000E+01 0. -1.
         -5    1    5    5    0  503 -0.54494223779E+02 -0.47691126399E+01  0.68864609946E+03  0.69083131455E+03  0.47000000000E+01 0. -1.
<mgrwt>
<rscale>  0 0.27505926E+03</rscale>
<asrwt>0</asrwt>
<pdfrwt beam="1">  1        2 0.47622747E+00 0.27505926E+03</pdfrwt>
<pdfrwt beam="2">  1       -2 0.94005096E-03 0.27505926E+03</pdfrwt>
<totfact> 0.42607264E+03</totfact>
</mgrwt>
</event>
<event>
 9    1  0.2051157E-002  0.2716803E+03  0.7818608E-02  0.1100322E+00
         -1   -1    0    0    0  501 -0.00000000000E+00  0.00000000000E+00  0.65127256309E+01  0.65127256309E+01  0.00000000000E+00 0.  1.
          1   -1    0    0  501    0  0.00000000000E+00 -0.00000000000E+00 -0.28333070843E+04  0.28333070843E+04  0.00000000000E+00 0.  1.
         36    2    1    2    0    0 -0.71054273576E-14  0.17763568394E-14 -0.28267943587E+04  0.28398198099E+04  0.27168033914E+03 0.  0.
         25    2    3    3    0    0  0.55885437376E+02  0.91126173837E+01 -0.13919662057E+04  0.13986330670E+04  0.12408995315E+03 0.  0.
         25    2    3    3    0    0 -0.55885437376E+02 -0.91126173837E+01 -0.14348281530E+04  0.14411867429E+04  0.12280544554E+03 0.  0.
          5    1    4    4  502    0  0.54610645305E+02 -0.32967391041E+02 -0.34938852802E+03  0.35519516461E+03  0.47000000000E+01 0.  1.
         -5    1    4    4    0  502  0.12747920709E+01  0.42080008425E+02 -0.10425776777E+04  0.10434379024E+04  0.47000000000E+01 0.  1.
          5    1    5    5  503    0 -0.85555104368E+02 -0.19815661441E+02 -0.67706015206E+03  0.68274803246E+03  0.47000000000E+01 0. -1.
         -5    1    5    5    0  503  0.29669666992E+02  0.10703044057E+02 -0.75776800095E+03  0.75843871048E+03  0.47000000000E+01 0. -1.
<mgrwt>
<rscale>  0 0.27168034E+03</rscale>
<asrwt>0</asrwt>
<pdfrwt beam="1">  1        1 0.43589350E+00 0.27168034E+03</pdfrwt>
<pdfrwt beam="2">  1       -1 0.10019576E-02 0.27168034E+03</pdfrwt>
<totfact> 0.17719097E+03</totfact>
</mgrwt>
</event>
<event>
 9    1  0.2051157E-002  0.2766431E+03  0.7818608E-02  0.1097537E+00
          2   -1    0    0  501    0  0.00000000000E+00  0.00000000000E+00  0.65270944993E+03  0.65270944993E+03  0.00000000000E+00 0.  1.
         -2   -1    0    0    0  501 -0.00000000000E+00 -0.00000000000E+00 -0.29312967786E+02  0.29312967786E+02  0.00000000000E+00 0.  1.
         36    2    1    2    0    0  0.00000000000E+00  0.71054273576E-14  0.62339648214E+03  0.68202241772E+03  0.27664309917E+03 0.  0.
         25    2    3    3    0    0 -0.15240700064E+02  0.13665869891E+02  0.45084578179E+03  0.46897497069E+03  0.12750125191E+03 0.  0.
         25    2    3    3    0    0  0.15240700064E+02 -0.13665869891E+02  0.17255070035E+03  0.21304744702E+03  0.12327382347E+03 0.  0.
          5    1    4    4  502    0 -0.26422357736E+02 -0.52627910155E+02  0.25848814960E+03  0.26515288306E+03  0.47000000000E+01 0. -1.
         -5    1    4    4    0  502  0.11181657672E+02  0.66293780046E+02  0.19235763220E+03  0.20382208763E+03  0.47000000000E+01 0. -1.
          5    1    5    5  503    0 -0.44877075353E+02 -0.38419641877E+02  0.91850330428E+02  0.10930962434E+03  0.47000000000E+01 0.  1.
         -5    1    5    5    0  503  0.60117775417E+02  0.24753771986E+02  0.80700369922E+02  0.10373782268E+03  0.47000000000E+01 0.  1.
<mgrwt>
<rscale>  0 0.27664310E+03</rscale>
<asrwt>0</asrwt>
<pdfrwt beam="1">  1        2 0.10041683E+00 0.27664310E+03</pdfrwt>
<pdfrwt beam="2">  1       -2 0.45096878E-02 0.27664310E+03</pdfrwt>
<totfact> 0.10419969E+04</totfact>
</mgrwt>
</event>
<event>
 9    1  0.2051157E-002  0.2753756E+03  0.7818608E-02  0.1098242E+00
         -3   -1    0    0    0  501 -0.00000000000E+00  0.00000000000E+00  0.38350596430E+02  0.38350596430E+02  0.00000000000E+00 0.  1.
          3   -1    0    0  501    0  0.00000000000E+00 -0.00000000000E+00 -0.49433191330E+03  0.49433191330E+03  0.00000000000E+00 0.  1.
         36    2    1    2    0    0  0.10658141036E-13  0.00000000000E+00 -0.45598131687E+03  0.53268250973E+03  0.27537555236E+03 0.  0.
         25    2    3    3    0    0  0.13241379313E+02 -0.17528685773E+02 -0.27587659439E+03  0.30312350661E+03  0.12366638984E+03 0.  0.
         25    2    3    3    0    0 -0.13241379313E+02  0.17528685773E+02 -0.18010472248E+03  0.22955900312E+03  0.14063084976E+03 0.  0.
          5    1    4    4  502    0  0.19135656840E+02 -0.69933769961E+02 -0.15894243818E+03  0.17476182134E+03  0.47000000000E+01 0.  1.
         -5    1    4    4    0  502 -0.58942775269E+01  0.52405084188E+02 -0.11693415621E+03  0.12836168527E+03  0.47000000000E+01 0.  1.
          5    1    5    5  503    0 -0.73117882422E+02 -0.41994583035E+01 -0.12617426221E+03  0.14596538845E+03  0.47000000000E+01 0. -1.
         -5    1    5    5    0  503  0.59876503109E+02  0.21728144077E+02 -0.53930460268E+02  0.83593614674E+02  0.47000000000E+01 0. -1.
<mgrwt>
<rscale>  0 0.27537555E+03</rscale>
<asrwt>0</asrwt>
<pdfrwt beam="1">  1        3 0.76051062E-01 0.27537555E+03</pdfrwt>
<pdfrwt beam="2">  1       -3 0.59000919E-02 0.27537555E+03</pdfrwt>
<totfact> 0.74055663E+02</totfact>
</mgrwt>
</event>
<event>
 9    1  0.2051157E-002  0.2823863E+03  0.7818608E-02  0.1094393E+00
         -2   -1    0    0    0  501 -0.00000000000E+00  0.00000000000E+00  0.53161526348E+03  0.53161526348E+03  0.00000000000E+00 0. -1.
          2   -1    0    0  501    0  0.00000000000E+00 -0.00000000000E+00 -0.37499874423E+02  0.37499874423E+02  0.00000000000E+00 0. -1.
         36    2    1    2    0    0  0.00000000000E+00  0.00000000000E+00  0.49411538906E+03  0.56911513790E+03  0.28238630010E+03 0.  0.
         25    2    3    3    0    0  0.61120999029E+00 -0.93106963594E+01  0.37046759418E+03  0.39105614217E+03  0.12486634995E+03 0.  0.
         25    2    3    3    0    0 -0.61120999029E+00  0.93106963594E+01  0.12364779488E+03  0.17805899573E+03  0.12778562571E+03 0.  0.
          5    1    4    4  502    0 -0.44232728909E+02  0.33819349122E+02  0.11202118582E+03  0.12518433909E+03  0.47000000000E+01 0.  1.
         -5    1    4    4    0  502  0.44843938900E+02 -0.43130045481E+02  0.25844640836E+03  0.26587180308E+03  0.47000000000E+01 0.  1.
          5    1    5    5  503    0  0.50111836060E+02  0.21634331165E+01  0.11546000718E+03  0.12597213904E+03  0.47000000000E+01 0.  1.
         -5    1    5    5    0  503 -0.50723046050E+02  0.71472632429E+01  0.81877876990E+01  0.52086856690E+02  0.47000000000E+01 0.  1.
<mgrwt>
<rscale>  0 0.28238630E+03</rscale>
<asrwt>0</asrwt>
<pdfrwt beam="1">  1        2 0.57692118E-02 0.28238630E+03</pdfrwt>
<pdfrwt beam="2">  1       -2 0.81786958E-01 0.28238630E+03</pdfrwt>
<totfact> 0.17629752E+03</totfact>
</mgrwt>
</event>
<event>
 9    1  0.2051157E-002  0.2742121E+03  0.7818608E-02  0.1098893E+00
          2   -1    0    0  501    0  0.00000000000E+00  0.00000000000E+00  0.31592565574E+03  0.31592565574E+03  0.00000000000E+00 0. -1.
         -2   -1    0    0    0  501 -0.00000000000E+00 -0.00000000000E+00 -0.59501538618E+02  0.59501538618E+02  0.00000000000E+00 0. -1.
         36    2    1    2    0    0 -0.35527136788E-14  0.35527136788E-14  0.25642411712E+03  0.37542719435E+03  0.27421205375E+03 0.  0.
         25    2    3    3    0    0  0.28206206762E+02 -0.31885546635E+02  0.19032827974E+03  0.23248741609E+03  0.12654353553E+03 0.  0.
         25    2    3    3    0    0 -0.28206206762E+02  0.31885546635E+02  0.66095837373E+02  0.14293977827E+03  0.11937689186E+03 0.  0.
          5    1    4    4  502    0  0.69455278671E+01 -0.48130413040E+02  0.19825692862E+03  0.20418784675E+03  0.47000000000E+01 0. -1.
         -5    1    4    4    0  502  0.21260678895E+02  0.16244866405E+02 -0.79286488723E+01  0.28299569334E+02  0.47000000000E+01 0. -1.
          5    1    5    5  503    0  0.29247487228E+02 -0.24878580735E+02  0.34039002322E+00  0.38685464375E+02  0.47000000000E+01 0. -1.
         -5    1    5    5    0  503 -0.57453693990E+02  0.56764127370E+02  0.65755447350E+02  0.10425431389E+03  0.47000000000E+01 0. -1.
<mgrwt>
<rscale>  0 0.27421205E+03</rscale>
<asrwt>0</asrwt>
<pdfrwt beam="1">  1        2 0.48603946E-01 0.27421205E+03</pdfrwt>
<pdfrwt beam="2">  1       -2 0.91540831E-02 0.27421205E+03</pdfrwt>
<totfact> 0.78368853E+03</totfact>
</mgrwt>
</event>
<event>
 9    1  0.2051157E-002  0.2738971E+03  0.7818608E-02  0.1099070E+00
         -1   -1    0    0    0  501 -0.00000000000E+00  0.00000000000E+00  0.18561859911E+02  0.18561859911E+02  0.00000000000E+00 0.  1.
          1   -1    0    0  501    0  0.00000000000E+00 -0.00000000000E+00 -0.10103999431E+04  0.10103999431E+04  0.00000000000E+00 0.  1.
         36    2    1    2    0    0  0.00000000000E+00  0.71054273576E-14 -0.99183808314E+03  0.10289618030E+04  0.27389707699E+03 0.  0.
         25    2    3    3    0    0 -0.10755610436E+02 -0.17708378091E+02 -0.67429857419E+03  0.68711205049E+03  0.13044206742E+03 0.  0.
         25    2    3    3    0    0  0.10755610436E+02  0.17708378091E+02 -0.31753950895E+03  0.34184975248E+03  0.12490253686E+03 0.  0.
          5    1    4    4  502    0 -0.37097063642E+02  0.40534641237E+02 -0.16914275948E+03  0.17790618977E+03  0.47000000000E+01 0. -1.
         -5    1    4    4    0  502  0.26341453206E+02 -0.58243019327E+02 -0.50515581471E+03  0.50920586072E+03  0.47000000000E+01 0. -1.
          5    1    5    5  503    0 -0.31056441583E+02  0.43469801845E+02 -0.63744987709E+02  0.83304499844E+02  0.47000000000E+01 0. -1.
         -5    1    5    5    0  503  0.41812052019E+02 -0.25761423754E+02 -0.25379452124E+03  0.25854525263E+03  0.47000000000E+01 0. -1.
<mgrwt>
<rscale>  0 0.27389708E+03</rscale>
<asrwt>0</asrwt>
<pdfrwt beam="1">  1        1 0.15544619E+00 0.27389708E+03</pdfrwt>
<pdfrwt beam="2">  1       -1 0.28556700E-02 0.27389708E+03</pdfrwt>
<totfact> 0.63678880E+03</totfact>
</mgrwt>
</event>
<event>
 9    1  0.2051157E-002  0.2755154E+03  0.7818608E-02  0.1098164E+00
         -2   -1    0    0    0  501 -0.00000000000E+00  0.00000000000E+00  0.69109592114E+03  0.69109592114E+03  0.00000000000E+00 0. -1.
          2   -1    0    0  501    0  0.00000000000E+00 -0.00000000000E+00 -0.27459560276E+02  0.27459560276E+02  0.00000000000E+00 0. -1.
         36    2    1    2    0    0  0.00000000000E+00  0.71054273576E-14  0.66363636087E+03  0.71855548142E+03  0.27551544496E+03 0.  0.
         25    2    3    3    0    0 -0.51667479363E+02  0.17512355069E+02  0.19757797407E+03  0.23264131273E+03  0.11003959990E+03 0.  0.
         25    2    3    3    0    0  0.51667479363E+02 -0.17512355069E+02  0.46605838680E+03  0.48591416869E+03  0.12619805239E+03 0.  0.
          5    1    4    4  502    0 -0.74579910330E+02 -0.21063051522E+02  0.12868779027E+03  0.15029455256E+03  0.47000000000E+01 0. -1.
         -5    1    4    4    0  502  0.22912430967E+02  0.38575406591E+02  0.68890183797E+02  0.82346760168E+02  0.47000000000E+01 0. -1.
          5    1    5    5  503    0 -0.12585441153E+00  0.30798885879E+02  0.33853918221E+03  0.33996978557E+03  0.47000000000E+01 0. -1.
         -5    1    5    5    0  503  0.51793333774E+02 -0.48311240948E+02  0.12751920459E+03  0.14594438312E+03  0.47000000000E+01 0. -1.
<mgrwt>
<rscale>  0 0.27551544E+03</rscale>
<asrwt>0</asrwt>
<pdfrwt beam="1">  1        2 0.42245483E-02 0.27551544E+03</pdfrwt>
<pdfrwt beam="2">  1       -2 0.10632244E+00 0.27551544E+03</pdfrwt>
<totfact> 0.14611631E+03</totfact>
</mgrwt>
</event>
<event>
 9    1  0.2051157E-002  0.2742378E+03  0.7818608E-02  0.1098878E+00
         -1   -1    0    0    0  501 -0.00000000000E+00  0.00000000000E+00  0.66785884149E+02  0.66785884149E+02  0.00000000000E+00 0. -1.
          1   -1    0    0  501    0  0.00000000000E+00 -0.00000000000E+00 -0.28152049801E+03  0.28152049801E+03  0.00000000000E+00 0. -1.
         36    2    1    2    0    0  0.71054273576E-14  0.00000000000E+00 -0.21473461386E+03  0.34830638216E+03  0.27423781917E+03 0.  0.
         25    2    3    3    0    0 -0.51044692212E+02  0.40656566275E+02 -0.12293135998E+03  0.18578817729E+03  0.12307156687E+03 0.  0.
         25    2    3    3    0    0  0.51044692212E+02 -0.40656566275E+02 -0.91803253886E+02  0.16251820487E+03  0.11715721278E+03 0.  0.
          5    1    4    4  502    0  0.61532558373E+01  0.66990695352E+02 -0.95578631644E+02  0.11697427345E+03  0.47000000000E+01 0.  1.
         -5    1    4    4    0  502 -0.57197948049E+02 -0.26334129077E+02 -0.27352728332E+02  0.68813903845E+02  0.47000000000E+01 0.  1.
          5    1    5    5  503    0  0.50597669299E+02  0.73031970263E+01  0.77450001953E+01  0.51918550185E+02  0.47000000000E+01 0.  1.
         -5    1    5    5    0  503  0.44702291281E+00 -0.47959763302E+02 -0.99548254081E+02  0.11059965468E+03  0.47000000000E+01 0.  1.
<mgrwt>
<rscale>  0 0.27423782E+03</rscale>
<asrwt>0</asrwt>
<pdfrwt beam="1">  1        1 0.43310847E-01 0.27423782E+03</pdfrwt>
<pdfrwt beam="2">  1       -1 0.10274751E-01 0.27423782E+03</pdfrwt>
<totfact> 0.55123086E+03</totfact>
</mgrwt>
</event>
<event>
 9    1  0.2051157E-002  0.2739894E+03  0.7818608E-02  0.1099018E+00
          2   -1    0    0  501    0  0.00000000000E+00  0.00000000000E+00  0.10580893362E+04  0.10580893362E+04  0.00000000000E+00 0.  1.
         -2   -1    0    0    0  501 -0.00000000000E+00 -0.00000000000E+00 -0.17737202502E+02  0.17737202502E+02  0.00000000000E+00 0.  1.
         36    2    1    2    0    0  0.35527136788E-14  0.00000000000E+00  0.10403521337E+04  0.10758265387E+04  0.27398937805E+03 0.  0.
         25    2    3    3    0    0 -0.18776268097E+02  0.42755396870E+02  0.40282613463E+03  0.42422492771E+03  0.12456854477E+03 0.  0.
         25    2    3    3    0    0  0.18776268097E+02 -0.42755396870E+02  0.63752599905E+03  0.65160161097E+03  0.12635144538E+03 0.  0.
          5    1    4    4  502    0  0.12604152914E+02 -0.34793697631E+02  0.21964274621E+03  0.22278799794E+03  0.47000000000E+01 0. -1.
         -5    1    4    4    0  502 -0.31380421012E+02  0.77549094501E+02  0.18318338842E+03  0.20143692977E+03  0.47000000000E+01 0. -1.
          5    1    5    5  503    0  0.51963672369E+02  0.25905519094E+02  0.28423639782E+03  0.29014434169E+03  0.47000000000E+01 0.  1.
         -5    1    5    5    0  503 -0.33187404272E+02 -0.68660915964E+02  0.35328960122E+03  0.36145726928E+03  0.47000000000E+01 0.  1.
<mgrwt>
<rscale>  0 0.27398938E+03</rscale>
<asrwt>0</asrwt>
<pdfrwt beam="1">  1        2 0.16278293E+00 0.27398938E+03</pdfrwt>
<pdfrwt beam="2">  1       -2 0.27288012E-02 0.27398938E+03</pdfrwt>
<totfact> 0.11779516E+04</totfact>
</mgrwt>
</event>
<event>
 9    1  0.2051157E-002  0.2749843E+03  0.7818608E-02  0.1098460E+00
          1   -1    0    0  501    0  0.00000000000E+00  0.00000000000E+00  0.41803804246E+03  0.41803804246E+03  0.00000000000E+00 0. -1.
         -1   -1    0    0    0  501 -0.00000000000E+00 -0.00000000000E+00 -0.45220995626E+02  0.45220995626E+02  0.00000000000E+00 0. -1.
         36    2    1    2    0    0 -0.14210854715E-13  0.35527136788E-14  0.37281704683E+03  0.46325903808E+03  0.27498433766E+03 0.  0.
         25    2    3    3    0    0 -0.53740922448E+02 -0.25762903349E+02  0.16710984228E+03  0.21413311570E+03  0.11989778113E+03 0.  0.
         25    2    3    3    0    0  0.53740922448E+02  0.25762903349E+02  0.20570720455E+03  0.24912592238E+03  0.12726530266E+03 0.  0.
          5    1    4    4  502    0 -0.61793990480E+02  0.35822250399E+02  0.87291921213E+02  0.11288799933E+03  0.47000000000E+01 0.  1.
         -5    1    4    4    0  502  0.80530680323E+01 -0.61585153748E+02  0.79817921062E+02  0.10124511637E+03  0.47000000000E+01 0.  1.
          5    1    5    5  503    0  0.89065589308E+02  0.38038288322E+02  0.17673666938E+03  0.20158752660E+03  0.47000000000E+01 0.  1.
         -5    1    5    5    0  503 -0.35324666861E+02 -0.12275384973E+02  0.28970535172E+02  0.47538395779E+02  0.47000000000E+01 0.  1.
<mgrwt>
<rscale>  0 0.27498434E+03</rscale>
<asrwt>0</asrwt>
<pdfrwt beam="1">  1        1 0.64313542E-01 0.27498434E+03</pdfrwt>
<pdfrwt beam="2">  1       -1 0.69570765E-02 0.27498434E+03</pdfrwt>
<totfact> 0.60679884E+03</totfact>
</mgrwt>
</event>
<event>
 9    1  0.2051157E-002  0.2747686E+03  0.7818608E-02  0.1098581E+00
         -2   -1    0    0    0  501 -0.00000000000E+00  0.00000000000E+00  0.15407626429E+03  0.15407626429E+03  0.00000000000E+00 0.  1.
          2   -1    0    0  501    0  0.00000000000E+00 -0.00000000000E+00 -0.12250071046E+03  0.12250071046E+03  0.00000000000E+00 0.  1.
         36    2    1    2    0    0  0.14210854715E-13  0.14210854715E-13  0.31575553828E+02  0.27657697475E+03  0.27476864333E+03 0.  0.
         25    2    3    3    0    0 -0.71710530998E+02 -0.45217591941E+02  0.41034943096E+01  0.12714021715E+03  0.94661318783E+02 0.  0.
         25    2    3    3    0    0  0.71710530998E+02  0.45217591941E+02  0.27472059519E+02  0.14943675760E+03  0.11995665713E+03 0.  0.
          5    1    4    4  502    0 -0.85258166143E+02 -0.24046709703E+02  0.27093820704E+02  0.92754322067E+02  0.47000000000E+01 0. -1.
         -5    1    4    4    0  502  0.13547635145E+02 -0.21170882238E+02 -0.22990326395E+02  0.34385895081E+02  0.47000000000E+01 0. -1.
          5    1    5    5  503    0  0.92488930714E+02  0.20533029637E+02  0.52423083092E+02  0.10837932114E+03  0.47000000000E+01 0.  1.
         -5    1    5    5    0  503 -0.20778399716E+02  0.24684562304E+02 -0.24951023574E+02  0.41057436455E+02  0.47000000000E+01 0.  1.
<mgrwt>
<rscale>  0 0.27476864E+03</rscale>
<asrwt>0</asrwt>
<pdfrwt beam="1">  1        2 0.18846263E-01 0.27476864E+03</pdfrwt>
<pdfrwt beam="2">  1       -2 0.23704041E-01 0.27476864E+03</pdfrwt>
<totfact> 0.46182224E+03</totfact>
</mgrwt>
</event>
<event>
 9    1  0.2051157E-002  0.2748321E+03  0.7818608E-02  0.1098545E+00
         -1   -1    0    0    0  501 -0.00000000000E+00  0.00000000000E+00  0.33583781007E+02  0.33583781007E+02  0.00000000000E+00 0.  1.
          1   -1    0    0  501    0  0.00000000000E+00 -0.00000000000E+00 -0.56227070347E+03  0.56227070347E+03  0.00000000000E+00 0.  1.
         36    2    1    2    0    0  0.35527136788E-14  0.71054273576E-14 -0.52868692246E+03  0.59585448448E+03  0.27483213911E+03 0.  0.
         25    2    3    3    0    0  0.19424582137E+02 -0.34521606311E+02 -0.38516049012E+03  0.40662249167E+03  0.12419417010E+03 0.  0.
         25    2    3    3    0    0 -0.19424582137E+02  0.34521606311E+02 -0.14352643234E+03  0.18923199281E+03  0.11678978820E+03 0.  0.
          5    1    4    4  502    0 -0.96838761438E+01  0.34517601857E+02 -0.42336421715E+02  0.55674993477E+02  0.47000000000E+01 0. -1.
         -5    1    4    4    0  502  0.29108458281E+02 -0.69039208168E+02 -0.34282406840E+03  0.35094749819E+03  0.47000000000E+01 0. -1.
          5    1    5    5  503    0 -0.39393437751E+02  0.50227050892E+02 -0.26309858381E+02  0.69201865778E+02  0.47000000000E+01 0.  1.
         -5    1    5    5    0  503  0.19968855614E+02 -0.15705444581E+02 -0.11721657396E+03  0.12003012703E+03  0.47000000000E+01 0.  1.
<mgrwt>
<rscale>  0 0.27483214E+03</rscale>
<asrwt>0</asrwt>
<pdfrwt beam="1">  1        1 0.86503175E-01 0.27483214E+03</pdfrwt>
<pdfrwt beam="2">  1       -1 0.51667361E-02 0.27483214E+03</pdfrwt>
<totfact> 0.64217438E+03</totfact>
</mgrwt>
</event>
<event>
 9    1  0.2051157E-002  0.2762708E+03  0.7818608E-02  0.1097743E+00
          3   -1    0    0  501    0  0.00000000000E+00  0.00000000000E+00  0.79745014304E+02  0.79745014304E+02  0.00000000000E+00 0.  1.
         -3   -1    0    0    0  501 -0.00000000000E+00 -0.00000000000E+00 -0.23927995157E+03  0.23927995157E+03  0.00000000000E+00 0.  1.
         36    2    1    2    0    0  0.00000000000E+00 -0.35527136788E-14 -0.15953493727E+03  0.31902496588E+03  0.27627075966E+03 0.  0.
         25    2    3    3    0    0 -0.56801312769E+02  0.27380101628E+02 -0.72262008230E+02  0.15811621626E+03  0.12570951003E+03 0.  0.
         25    2    3    3    0    0  0.56801312769E+02 -0.27380101628E+02 -0.87272929038E+02  0.16090874962E+03  0.11957843645E+03 0.  0.
          5    1    4    4  502    0 -0.61310510525E+02  0.28500723223E+02  0.15975359224E+02  0.69631688385E+02  0.47000000000E+01 0. -1.
         -5    1    4    4    0  502  0.45091977557E+01 -0.11206215945E+01 -0.88237367454E+02  0.88484527870E+02  0.47000000000E+01 0. -1.
          5    1    5    5  503    0  0.38304122212E+02 -0.87765963926E+01 -0.11549698638E+03  0.12208963218E+03  0.47000000000E+01 0.  1.
         -5    1    5    5    0  503  0.18497190557E+02 -0.18603505236E+02  0.28224057346E+02  0.38819117438E+02  0.47000000000E+01 0.  1.
<mgrwt>
<rscale>  0 0.27627076E+03</rscale>
<asrwt>0</asrwt>
<pdfrwt beam="1">  1        3 0.12268464E-01 0.27627076E+03</pdfrwt>
<pdfrwt beam="2">  1       -3 0.36812300E-01 0.27627076E+03</pdfrwt>
<totfact> 0.97064908E+02</totfact>
</mgrwt>
</event>
<event>
 9    1  0.2051157E-002  0.2753783E+03  0.7818608E-02  0.1098240E+00
         -1   -1    0    0    0  501 -0.00000000000E+00  0.00000000000E+00  0.12058047162E+04  0.12058047162E+04  0.00000000000E+00 0. -1.
          1   -1    0    0  501    0  0.00000000000E+00 -0.00000000000E+00 -0.15722532376E+02  0.15722532376E+02  0.00000000000E+00 0. -1.
         36    2    1    2    0    0  0.00000000000E+00 -0.71054273576E-14  0.11900821839E+04  0.12215272486E+04  0.27537831208E+03 0.  0.
         25    2    3    3    0    0 -0.26043729796E+02 -0.37254693684E+02  0.81823035132E+03  0.82865914917E+03  0.12291822326E+03 0.  0.
         25    2    3    3    0    0  0.26043729796E+02  0.37254693684E+02  0.37185183254E+03  0.39286809945E+03  0.11834428646E+03 0.  0.
          5    1    4    4  502    0 -0.71720247966E+02 -0.44085591097E+02  0.49971859496E+03  0.50678210057E+03  0.47000000000E+01 0.  1.
         -5    1    4    4    0  502  0.45676518170E+02  0.68308974130E+01  0.31851175637E+03  0.32187704860E+03  0.47000000000E+01 0.  1.
          5    1    5    5  503    0 -0.36522216827E+02  0.29307048677E+02  0.26130224363E+03  0.26550654974E+03  0.47000000000E+01 0.  1.
         -5    1    5    5    0  503  0.62565946623E+02  0.79476450070E+01  0.11054958891E+03  0.12736154972E+03  0.47000000000E+01 0.  1.
<mgrwt>
<rscale>  0 0.27537831E+03</rscale>
<asrwt>0</asrwt>
<pdfrwt beam="1">  1        1 0.24188521E-02 0.27537831E+03</pdfrwt>
<pdfrwt beam="2">  1       -1 0.18550835E+00 0.27537831E+03</pdfrwt>
<totfact> 0.96764670E+02</totfact>
</mgrwt>
</event>
<event>
 9    1  0.2051157E-002  0.2731776E+03  0.7818608E-02  0.1099475E+00
          2   -1    0    0  501    0  0.00000000000E+00  0.00000000000E+00  0.42417667550E+03  0.42417667550E+03  0.00000000000E+00 0. -1.
         -2   -1    0    0    0  501 -0.00000000000E+00 -0.00000000000E+00 -0.43982864015E+02  0.43982864015E+02  0.00000000000E+00 0. -1.
         36    2    1    2    0    0  0.35527136788E-14  0.00000000000E+00  0.38019381148E+03  0.46815953951E+03  0.27317763478E+03 0.  0.
         25    2    3    3    0    0 -0.26112025428E+02  0.15859203723E+02  0.26787472029E+03  0.29733336157E+03  0.12536710062E+03 0.  0.
         25    2    3    3    0    0  0.26112025428E+02 -0.15859203723E+02  0.11231909119E+03  0.17082617794E+03  0.12503060669E+03 0.  0.
          5    1    4    4  502    0  0.98684963285E+01  0.74698912303E+01 -0.10239261714E+02  0.16736755218E+02  0.47000000000E+01 0. -1.
         -5    1    4    4    0  502 -0.35980521756E+02  0.83893124924E+01  0.27811398200E+03  0.28059660635E+03  0.47000000000E+01 0. -1.
          5    1    5    5  503    0 -0.16038924521E+02 -0.35889343777E+02 -0.91344768455E+01  0.40630293671E+02  0.47000000000E+01 0. -1.
         -5    1    5    5    0  503  0.42150949949E+02  0.20030140054E+02  0.12145356804E+03  0.13019588427E+03  0.47000000000E+01 0. -1.
<mgrwt>
<rscale>  0 0.27317763E+03</rscale>
<asrwt>0</asrwt>
<pdfrwt beam="1">  1        2 0.65257947E-01 0.27317763E+03</pdfrwt>
<pdfrwt beam="2">  1       -2 0.67665947E-02 0.27317763E+03</pdfrwt>
<totfact> 0.91295651E+03</totfact>
</mgrwt>
</event>
<event>
 9    1  0.2051157E-002  0.2758488E+03  0.7818608E-02  0.1097978E+00
          3   -1    0    0  501    0  0.00000000000E+00  0.00000000000E+00  0.41247255952E+02  0.41247255952E+02  0.00000000000E+00 0. -1.
         -3   -1    0    0    0  501 -0.00000000000E+00 -0.00000000000E+00 -0.46119766992E+03  0.46119766992E+03  0.00000000000E+00 0. -1.
         36    2    1    2    0    0  0.00000000000E+00  0.00000000000E+00 -0.41995041396E+03  0.50244492587E+03  0.27584878709E+03 0.  0.
         25    2    3    3    0    0  0.30596881510E+01 -0.16286216373E+02 -0.10969137710E+03  0.16772270271E+03  0.12579389594E+03 0.  0.
         25    2    3    3    0    0 -0.30596881510E+01  0.16286216373E+02 -0.31025903686E+03  0.33472222316E+03  0.12451383131E+03 0.  0.
          5    1    4    4  502    0 -0.28876890437E+02 -0.62053808320E+02 -0.44482138711E+02  0.81763687494E+02  0.47000000000E+01 0.  1.
         -5    1    4    4    0  502  0.31936578588E+02  0.45767591947E+02 -0.65209238390E+02  0.85959015211E+02  0.47000000000E+01 0.  1.
          5    1    5    5  503    0  0.32186061063E+02 -0.44335863850E+02 -0.12403235148E+03  0.13567507348E+03  0.47000000000E+01 0. -1.
         -5    1    5    5    0  503 -0.35245749214E+02  0.60622080223E+02 -0.18622668539E+03  0.19904714969E+03  0.47000000000E+01 0. -1.
<mgrwt>
<rscale>  0 0.27584879E+03</rscale>
<asrwt>0</asrwt>
<pdfrwt beam="1">  1        3 0.63457318E-02 0.27584879E+03</pdfrwt>
<pdfrwt beam="2">  1       -3 0.70953486E-01 0.27584879E+03</pdfrwt>
<totfact> 0.76398595E+02</totfact>
</mgrwt>
</event>
<event>
 9    1  0.2051157E-002  0.2749409E+03  0.7818608E-02  0.1098485E+00
         -1   -1    0    0    0  501 -0.00000000000E+00  0.00000000000E+00  0.63569843821E+02  0.63569843821E+02  0.00000000000E+00 0. -1.
          1   -1    0    0  501    0  0.00000000000E+00 -0.00000000000E+00 -0.29728125632E+03  0.29728125632E+03  0.00000000000E+00 0. -1.
         36    2    1    2    0    0 -0.71054273576E-14 -0.35527136788E-14 -0.23371141250E+03  0.36085110014E+03  0.27494088845E+03 0.  0.
         25    2    3    3    0    0  0.46449822039E+02  0.31261583484E+02 -0.13071886414E+03  0.18730360765E+03  0.12190302468E+03 0.  0.
         25    2    3    3    0    0 -0.46449822039E+02 -0.31261583484E+02 -0.10299254836E+03  0.17354749249E+03  0.12797028781E+03 0.  0.
          5    1    4    4  502    0  0.64753309757E+02  0.56329493770E+02 -0.47158627940E+02  0.98040956657E+02  0.47000000000E+01 0. -1.
         -5    1    4    4    0  502 -0.18303487719E+02 -0.25067910286E+02 -0.83560236196E+02  0.89262650990E+02  0.47000000000E+01 0. -1.
          5    1    5    5  503    0  0.19350677494E+02 -0.43984520590E+02 -0.94118273767E+02  0.10578008427E+03  0.47000000000E+01 0. -1.
         -5    1    5    5    0  503 -0.65800499533E+02  0.12722937106E+02 -0.88742745927E+01  0.67767408221E+02  0.47000000000E+01 0. -1.
<mgrwt>
<rscale>  0 0.27494089E+03</rscale>
<asrwt>0</asrwt>
<pdfrwt beam="1">  1        1 0.45735579E-01 0.27494089E+03</pdfrwt>
<pdfrwt beam="2">  1       -1 0.97799757E-02 0.27494089E+03</pdfrwt>
<totfact> 0.55562049E+03</totfact>
</mgrwt>
</event>
<event>
 9    1  0.2051157E-002  0.2707330E+03  0.7818608E-02  0.1100861E+00
         -1   -1    0    0    0  501 -0.00000000000E+00  0.00000000000E+00  0.34965441006E+02  0.34965441006E+02  0.00000000000E+00 0.  1.
          1   -1    0    0  501    0  0.00000000000E+00 -0.00000000000E+00 -0.52406294297E+03  0.52406294297E+03  0.00000000000E+00 0.  1.
         36    2    1    2    0    0  0.00000000000E+00  0.71054273576E-14 -0.48909750196E+03  0.55902838397E+03  0.27073301916E+03 0.  0.
         25    2    3    3    0    0  0.15239583529E+02 -0.23425830383E+02 -0.23314940822E+03  0.27099422817E+03  0.13527087903E+03 0.  0.
         25    2    3    3    0    0 -0.15239583529E+02  0.23425830383E+02 -0.25594809374E+03  0.28803415580E+03  0.12912487670E+03 0.  0.
          5    1    4    4  502    0  0.16330549351E+02 -0.66091542123E+02 -0.21280830221E+03  0.22348208490E+03  0.47000000000E+01 0. -1.
         -5    1    4    4    0  502 -0.10909658215E+01  0.42665711740E+02 -0.20341106013E+02  0.47512143275E+02  0.47000000000E+01 0. -1.
          5    1    5    5  503    0 -0.62511714045E+02  0.43468675988E+02 -0.11547352893E+03  0.13839604788E+03  0.47000000000E+01 0. -1.
         -5    1    5    5    0  503  0.47272130515E+02 -0.20042845605E+02 -0.14047456481E+03  0.14963810792E+03  0.47000000000E+01 0. -1.
<mgrwt>
<rscale>  0 0.27073302E+03</rscale>
<asrwt>0</asrwt>
<pdfrwt beam="1">  1        1 0.80625060E-01 0.27073302E+03</pdfrwt>
<pdfrwt beam="2">  1       -1 0.53792992E-02 0.27073302E+03</pdfrwt>
<totfact> 0.66454410E+03</totfact>
</mgrwt>
</event>
<event>
 9    1  0.2051157E-002  0.2750295E+03  0.7818608E-02  0.1098435E+00
          2   -1    0    0  501    0  0.00000000000E+00  0.00000000000E+00  0.10179104307E+04  0.10179104307E+04  0.00000000000E+00 0. -1.
         -2   -1    0    0    0  501 -0.00000000000E+00 -0.00000000000E+00 -0.18577574705E+02  0.18577574705E+02  0.00000000000E+00 0. -1.
         36    2    1    2    0    0  0.00000000000E+00  0.00000000000E+00  0.99933285601E+03  0.10364880054E+04  0.27502950438E+03 0.  0.
         25    2    3    3    0    0  0.42133909905E+02  0.36019318830E+02  0.48950041066E+03  0.50836526577E+03  0.12550670782E+03 0.  0.
         25    2    3    3    0    0 -0.42133909905E+02 -0.36019318830E+02  0.50983244535E+03  0.52812273965E+03  0.12614217422E+03 0.  0.
          5    1    4    4  502    0 -0.27352534199E+02  0.19689584618E+01  0.32846414553E+03  0.32964044477E+03  0.47000000000E+01 0.  1.
         -5    1    4    4    0  502  0.69486444104E+02  0.34050360368E+02  0.16103626513E+03  0.17872482100E+03  0.47000000000E+01 0.  1.
          5    1    5    5  503    0 -0.22783123525E+02 -0.48271133291E+02  0.49982739099E+03  0.50269143996E+03  0.47000000000E+01 0. -1.
         -5    1    5    5    0  503 -0.19350786381E+02  0.12251814461E+02  0.10005054354E+02  0.25431299687E+02  0.47000000000E+01 0. -1.
<mgrwt>
<rscale>  0 0.27502950E+03</rscale>
<asrwt>0</asrwt>
<pdfrwt beam="1">  1        2 0.15660156E+00 0.27502950E+03</pdfrwt>
<pdfrwt beam="2">  1       -2 0.28580892E-02 0.27502950E+03</pdfrwt>
<totfact> 0.11628546E+04</totfact>
</mgrwt>
</event>
<event>
 9    1  0.2051157E-002  0.2752457E+03  0.7818608E-02  0.1098314E+00
          2   -1    0    0  501    0  0.00000000000E+00  0.00000000000E+00  0.12916812107E+04  0.12916812107E+04  0.00000000000E+00 0. -1.
         -2   -1    0    0    0  501 -0.00000000000E+00 -0.00000000000E+00 -0.14663097096E+02  0.14663097096E+02  0.00000000000E+00 0. -1.
         36    2    1    2    0    0  0.00000000000E+00  0.00000000000E+00  0.12770181136E+04  0.13063443078E+04  0.27524568669E+03 0.  0.
         25    2    3    3    0    0  0.14387906175E+01  0.20857168866E+02  0.92530075364E+03  0.93408452681E+03  0.12607667079E+03 0.  0.
         25    2    3    3    0    0 -0.14387906175E+01 -0.20857168866E+02  0.35171735999E+03  0.37225978101E+03  0.12014637586E+03 0.  0.
          5    1    4    4  502    0  0.54665153159E+02  0.35971659312E+02  0.34888045364E+03  0.35499563402E+03  0.47000000000E+01 0. -1.
         -5    1    4    4    0  502 -0.53226362542E+02 -0.15114490446E+02  0.57642030001E+03  0.57908889279E+03  0.47000000000E+01 0. -1.
          5    1    5    5  503    0  0.20893233442E+02 -0.31741898803E+02  0.34356747860E+03  0.34569463070E+03  0.47000000000E+01 0.  1.
         -5    1    5    5    0  503 -0.22332024060E+02  0.10884729937E+02  0.81498813820E+01  0.26565150309E+02  0.47000000000E+01 0.  1.
<mgrwt>
<rscale>  0 0.27524569E+03</rscale>
<asrwt>0</asrwt>
<pdfrwt beam="1">  1        2 0.19872010E+00 0.27524569E+03</pdfrwt>
<pdfrwt beam="2">  1       -2 0.22558621E-02 0.27524569E+03</pdfrwt>
<totfact> 0.11467767E+04</totfact>
</mgrwt>
</event>
<event>
 9    1  0.2051157E-002  0.2743989E+03  0.7818608E-02  0.1098788E+00
         -2   -1    0    0    0  501 -0.00000000000E+00  0.00000000000E+00  0.49265824170E+01  0.49265824170E+01  0.00000000000E+00 0. -1.
          2   -1    0    0  501    0  0.00000000000E+00 -0.00000000000E+00 -0.38208425150E+04  0.38208425150E+04  0.00000000000E+00 0. -1.
         36    2    1    2    0    0  0.35527136788E-14  0.00000000000E+00 -0.38159159326E+04  0.38257690974E+04  0.27439894717E+03 0.  0.
         25    2    3    3    0    0  0.99619656457E+01 -0.26630404373E+02 -0.22177442586E+04  0.22213291334E+04  0.12290281870E+03 0.  0.
         25    2    3    3    0    0 -0.99619656457E+01  0.26630404373E+02 -0.15981716739E+04  0.16044399640E+04  0.13880374502E+03 0.  0.
          5    1    4    4  502    0  0.21835554031E+01 -0.72780212728E+02 -0.99048288432E+03  0.99316673394E+03  0.47000000000E+01 0.  1.
         -5    1    4    4    0  502  0.77784102425E+01  0.46149808356E+02 -0.12272613743E+04  0.12281623994E+04  0.47000000000E+01 0.  1.
          5    1    5    5  503    0  0.24066651586E+02  0.25207497684E+02 -0.10234731037E+03  0.10822053224E+03  0.47000000000E+01 0. -1.
         -5    1    5    5    0  503 -0.34028617232E+02  0.14229066889E+01 -0.14958243636E+04  0.14962194318E+04  0.47000000000E+01 0. -1.
<mgrwt>
<rscale>  0 0.27439895E+03</rscale>
<asrwt>0</asrwt>
<pdfrwt beam="1">  1        2 0.58782138E+00 0.27439895E+03</pdfrwt>
<pdfrwt beam="2">  1       -2 0.75793646E-03 0.27439895E+03</pdfrwt>
<totfact> 0.19385335E+03</totfact>
</mgrwt>
</event>
<event>
 9    1  0.2051157E-002  0.2753405E+03  0.7818608E-02  0.1098261E+00
          2   -1    0    0  501    0  0.00000000000E+00  0.00000000000E+00  0.22094544457E+03  0.22094544457E+03  0.00000000000E+00 0. -1.
         -2   -1    0    0    0  501 -0.00000000000E+00 -0.00000000000E+00 -0.85781795891E+02  0.85781795891E+02  0.00000000000E+00 0. -1.
         36    2    1    2    0    0  0.14210854715E-13  0.35527136788E-14  0.13516364868E+03  0.30672724046E+03  0.27534049487E+03 0.  0.
         25    2    3    3    0    0 -0.52853615600E+02 -0.69812333075E+01  0.67509730872E+02  0.15160669507E+03  0.12483903207E+03 0.  0.
         25    2    3    3    0    0  0.52853615600E+02  0.69812333075E+01  0.67653917803E+02  0.15512054538E+03  0.12900809550E+03 0.  0.
          5    1    4    4  502    0 -0.68920360224E+02 -0.23837998480E+02 -0.69895845436E+01  0.73411242443E+02  0.47000000000E+01 0.  1.
         -5    1    4    4    0  502  0.16066744624E+02  0.16856765172E+02  0.74499315415E+02  0.78195452631E+02  0.47000000000E+01 0.  1.
          5    1    5    5  503    0  0.11757361833E+02 -0.34153442897E+02 -0.26022189283E+02  0.44765361096E+02  0.47000000000E+01 0. -1.
         -5    1    5    5    0  503  0.41096253767E+02  0.41134676204E+02  0.93676107086E+02  0.11035518429E+03  0.47000000000E+01 0. -1.
<mgrwt>
<rscale>  0 0.27534049E+03</rscale>
<asrwt>0</asrwt>
<pdfrwt beam="1">  1        2 0.33991607E-01 0.27534049E+03</pdfrwt>
<pdfrwt beam="2">  1       -2 0.13197199E-01 0.27534049E+03</pdfrwt>
<totfact> 0.64147003E+03</totfact>
</mgrwt>
</event>
<event>
 9    1  0.2051157E-002  0.2738642E+03  0.7818608E-02  0.1099088E+00
          2   -1    0    0  501    0  0.00000000000E+00  0.00000000000E+00  0.36210177871E+04  0.36210177871E+04  0.00000000000E+00 0.  1.
         -2   -1    0    0    0  501 -0.00000000000E+00 -0.00000000000E+00 -0.51782114504E+01  0.51782114504E+01  0.00000000000E+00 0.  1.
         36    2    1    2    0    0  0.00000000000E+00  0.00000000000E+00  0.36158395757E+04  0.36261959986E+04  0.27386416901E+03 0.  0.
         25    2    3    3    0    0 -0.56001577308E+02 -0.13212986632E+02  0.13591139980E+04  0.13652823204E+04  0.11616451823E+03 0.  0.
         25    2    3    3    0    0  0.56001577308E+02  0.13212986632E+02  0.22567255777E+04  0.22609136782E+04  0.12493825406E+03 0.  0.
          5    1    4    4  502    0 -0.63605334819E+02 -0.26589420011E+02  0.39260645766E+03  0.39864088660E+03  0.47000000000E+01 0. -1.
         -5    1    4    4    0  502  0.76037575114E+01  0.13376433380E+02  0.96650754030E+03  0.96664143381E+03  0.47000000000E+01 0. -1.
          5    1    5    5  503    0 -0.17400522935E+01  0.15185146800E+02  0.35538864738E+02  0.38970724554E+02  0.47000000000E+01 0.  1.
         -5    1    5    5    0  503  0.57741629601E+02 -0.19721601683E+01  0.22211867130E+04  0.22219429536E+04  0.47000000000E+01 0.  1.
<mgrwt>
<rscale>  0 0.27386417E+03</rscale>
<asrwt>0</asrwt>
<pdfrwt beam="1">  1        2 0.55707764E+00 0.27386417E+03</pdfrwt>
<pdfrwt beam="2">  1       -2 0.79665081E-03 0.27386417E+03</pdfrwt>
<totfact> 0.24934044E+03</totfact>
</mgrwt>
</event>
<event>
 9    1  0.2051157E-002  0.2741653E+03  0.7818608E-02  0.1098919E+00
         -1   -1    0    0    0  501 -0.00000000000E+00  0.00000000000E+00  0.15098584650E+02  0.15098584650E+02  0.00000000000E+00 0. -1.
          1   -1    0    0  501    0  0.00000000000E+00 -0.00000000000E+00 -0.12445971181E+04  0.12445971181E+04  0.00000000000E+00 0. -1.
         36    2    1    2    0    0  0.00000000000E+00  0.00000000000E+00 -0.12294985335E+04  0.12596957028E+04  0.27416531468E+03 0.  0.
         25    2    3    3    0    0  0.53102042004E+02 -0.22337563391E+02 -0.56980760814E+03  0.58606148583E+03  0.12437267093E+03 0.  0.
         25    2    3    3    0    0 -0.53102042004E+02  0.22337563391E+02 -0.65969092534E+03  0.67363421695E+03  0.12358053110E+03 0.  0.
          5    1    4    4  502    0  0.71208731453E+02  0.12509043810E+02 -0.17680739061E+03  0.19107617064E+03  0.47000000000E+01 0.  1.
         -5    1    4    4    0  502 -0.18106689449E+02 -0.34846607202E+02 -0.39300021753E+03  0.39498531518E+03  0.47000000000E+01 0.  1.
          5    1    5    5  503    0  0.14024699291E+02  0.53594004433E+02 -0.38922912562E+03  0.39317987198E+03  0.47000000000E+01 0.  1.
         -5    1    5    5    0  503 -0.67126741295E+02 -0.31256441042E+02 -0.27046179972E+03  0.28045434497E+03  0.47000000000E+01 0.  1.
<mgrwt>
<rscale>  0 0.27416531E+03</rscale>
<asrwt>0</asrwt>
<pdfrwt beam="1">  1        1 0.19147653E+00 0.27416531E+03</pdfrwt>
<pdfrwt beam="2">  1       -1 0.23228586E-02 0.27416531E+03</pdfrwt>
<totfact> 0.58642112E+03</totfact>
</mgrwt>
</event>
<event>
 9    1  0.2051157E-002  0.2745425E+03  0.7818608E-02  0.1098708E+00
          1   -1    0    0  501    0  0.00000000000E+00  0.00000000000E+00  0.99518379665E+03  0.99518379665E+03  0.00000000000E+00 0.  1.
         -1   -1    0    0    0  501 -0.00000000000E+00 -0.00000000000E+00 -0.18934586542E+02  0.18934586542E+02  0.00000000000E+00 0.  1.
         36    2    1    2    0    0  0.71054273576E-14  0.71054273576E-14  0.97624921010E+03  0.10141183832E+04  0.27454248285E+03 0.  0.
         25    2    3    3    0    0  0.40400994528E+02  0.64119594891E+01  0.37802162295E+03  0.40106462684E+03  0.12758970923E+03 0.  0.
         25    2    3    3    0    0 -0.40400994528E+02 -0.64119594891E+01  0.59822758715E+03  0.61305375635E+03  0.12761390424E+03 0.  0.
          5    1    4    4  502    0  0.13264649121E+02 -0.60169471400E+02  0.16537780899E+03  0.17654525174E+03  0.47000000000E+01 0.  1.
         -5    1    4    4    0  502  0.27136345408E+02  0.66581430889E+02  0.21264381396E+03  0.22451937510E+03  0.47000000000E+01 0.  1.
          5    1    5    5  503    0  0.46370031704E+02  0.18655350469E+01  0.21810700951E+03  0.22303904962E+03  0.47000000000E+01 0.  1.
         -5    1    5    5    0  503 -0.86771026232E+02 -0.82774945359E+01  0.38012057765E+03  0.39001470672E+03  0.47000000000E+01 0.  1.
<mgrwt>
<rscale>  0 0.27454248E+03</rscale>
<asrwt>0</asrwt>
<pdfrwt beam="1">  1        1 0.15310516E+00 0.27454248E+03</pdfrwt>
<pdfrwt beam="2">  1       -1 0.29130141E-02 0.27454248E+03</pdfrwt>
<totfact> 0.63484447E+03</totfact>
</mgrwt>
</event>
<event>
 9    1  0.2051157E-002  0.2751430E+03  0.7818608E-02  0.1098372E+00
          2   -1    0    0  501    0  0.00000000000E+00  0.00000000000E+00  0.13491159173E+04  0.13491159173E+04  0.00000000000E+00 0.  1.
         -2   -1    0    0    0  501 -0.00000000000E+00 -0.00000000000E+00 -0.14028388887E+02  0.14028388887E+02  0.00000000000E+00 0.  1.
         36    2    1    2    0    0  0.00000000000E+00  0.71054273576E-14  0.13350875284E+04  0.13631443062E+04  0.27514303729E+03 0.  0.
         25    2    3    3    0    0 -0.40023179536E+02 -0.33771532069E+02  0.50330049607E+03  0.52008103098E+03  0.12012709168E+03 0.  0.
         25    2    3    3    0    0  0.40023179536E+02  0.33771532069E+02  0.83178703234E+03  0.84306327521E+03  0.12705765448E+03 0.  0.
          5    1    4    4  502    0 -0.76869406043E+02 -0.47209294933E+02  0.38090004832E+03  0.39146463432E+03  0.47000000000E+01 0.  1.
         -5    1    4    4    0  502  0.36846226507E+02  0.13437762864E+02  0.12240044776E+03  0.12861639666E+03  0.47000000000E+01 0.  1.
          5    1    5    5  503    0  0.43356637457E+02 -0.40363746824E+02  0.27603196785E+03  0.28235574608E+03  0.47000000000E+01 0. -1.
         -5    1    5    5    0  503 -0.33334579212E+01  0.74135278893E+02  0.55575506449E+03  0.56070752913E+03  0.47000000000E+01 0. -1.
<mgrwt>
<rscale>  0 0.27514304E+03</rscale>
<asrwt>0</asrwt>
<pdfrwt beam="1">  1        2 0.20755619E+00 0.27514304E+03</pdfrwt>
<pdfrwt beam="2">  1       -2 0.21582147E-02 0.27514304E+03</pdfrwt>
<totfact> 0.11380203E+04</totfact>
</mgrwt>
</event>
<event>
 9    1  0.2051157E-002  0.2736198E+03  0.7818608E-02  0.1099226E+00
         -4   -1    0    0    0  501 -0.00000000000E+00  0.00000000000E+00  0.70862999281E+02  0.70862999281E+02  0.00000000000E+00 0. -1.
          4   -1    0    0  501    0  0.00000000000E+00 -0.00000000000E+00 -0.26412875190E+03  0.26412875190E+03  0.00000000000E+00 0. -1.
         36    2    1    2    0    0  0.00000000000E+00 -0.71054273576E-14 -0.19326575262E+03  0.33499175118E+03  0.27361984983E+03 0.  0.
         25    2    3    3    0    0  0.23551458756E+02 -0.47270526519E+01 -0.89560802684E+02  0.16215976915E+03  0.13303246640E+03 0.  0.
         25    2    3    3    0    0 -0.23551458756E+02  0.47270526519E+01 -0.10370494993E+03  0.17283198203E+03  0.13615858818E+03 0.  0.
          5    1    4    4  502    0 -0.49719354651E+02 -0.28912305021E+02 -0.42380745933E+02  0.71597159401E+02  0.47000000000E+01 0.  1.
         -5    1    4    4    0  502  0.73270813407E+02  0.24185252369E+02 -0.47180056751E+02  0.90562609749E+02  0.47000000000E+01 0.  1.
          5    1    5    5  503    0 -0.66619656650E+02 -0.37095821387E+02 -0.71058774881E+02  0.10433464479E+03  0.47000000000E+01 0.  1.
         -5    1    5    5    0  503  0.43068197895E+02  0.41822874039E+02 -0.32646175053E+02  0.68497337236E+02  0.47000000000E+01 0.  1.
<mgrwt>
<rscale>  0 0.27361985E+03</rscale>
<asrwt>0</asrwt>
<pdfrwt beam="1">  1        4 0.40635193E-01 0.27361985E+03</pdfrwt>
<pdfrwt beam="2">  1       -4 0.10902000E-01 0.27361985E+03</pdfrwt>
<totfact> 0.72358699E+02</totfact>
</mgrwt>
</event>
<event>
 9    1  0.2051157E-002  0.2742808E+03  0.7818608E-02  0.1098854E+00
          3   -1    0    0  501    0  0.00000000000E+00  0.00000000000E+00  0.81127260123E+02  0.81127260123E+02  0.00000000000E+00 0. -1.
         -3   -1    0    0    0  501 -0.00000000000E+00 -0.00000000000E+00 -0.23182698467E+03  0.23182698467E+03  0.00000000000E+00 0. -1.
         36    2    1    2    0    0 -0.71054273576E-14 -0.71054273576E-14 -0.15069972455E+03  0.31295424479E+03  0.27428079108E+03 0.  0.
         25    2    3    3    0    0 -0.22447924043E+02  0.53735465706E+02 -0.80476615376E+02  0.15736546200E+03  0.12204914355E+03 0.  0.
         25    2    3    3    0    0  0.22447924043E+02 -0.53735465706E+02 -0.70223109170E+02  0.15558878279E+03  0.12603640228E+03 0.  0.
          5    1    4    4  502    0  0.36174522250E+02 -0.19145743742E+02 -0.19219881092E+02  0.45460415667E+02  0.47000000000E+01 0.  1.
         -5    1    4    4    0  502 -0.58622446293E+02  0.72881209448E+02 -0.61256734284E+02  0.11190504633E+03  0.47000000000E+01 0.  1.
          5    1    5    5  503    0  0.67817003107E+02 -0.16085439633E+02 -0.66307916006E+02  0.96315715248E+02  0.47000000000E+01 0. -1.
         -5    1    5    5    0  503 -0.45369079064E+02 -0.37650026072E+02 -0.39151931639E+01  0.59273067542E+02  0.47000000000E+01 0. -1.
<mgrwt>
<rscale>  0 0.27428079E+03</rscale>
<asrwt>0</asrwt>
<pdfrwt beam="1">  1        3 0.12481117E-01 0.27428079E+03</pdfrwt>
<pdfrwt beam="2">  1       -3 0.35665689E-01 0.27428079E+03</pdfrwt>
<totfact> 0.10009512E+03</totfact>
</mgrwt>
</event>
<event>
 9    1  0.2051157E-002  0.2749723E+03  0.7818608E-02  0.1098467E+00
          2   -1    0    0  501    0  0.00000000000E+00  0.00000000000E+00  0.24489807384E+03  0.24489807384E+03  0.00000000000E+00 0.  1.
         -2   -1    0    0    0  501 -0.00000000000E+00 -0.00000000000E+00 -0.77184932404E+02  0.77184932404E+02  0.00000000000E+00 0.  1.
         36    2    1    2    0    0  0.35527136788E-14  0.00000000000E+00  0.16771314144E+03  0.32208300625E+03  0.27497229879E+03 0.  0.
         25    2    3    3    0    0 -0.21804369993E+02 -0.37126604381E+02  0.13089412433E+03  0.18692869291E+03  0.12631408926E+03 0.  0.
         25    2    3    3    0    0  0.21804369993E+02  0.37126604381E+02  0.36819017108E+02  0.13515431334E+03  0.12270791780E+03 0.  0.
          5    1    4    4  502    0 -0.31463043992E+02  0.13105483776E+02 -0.10920608684E+02  0.36097458862E+02  0.47000000000E+01 0.  1.
         -5    1    4    4    0  502  0.96586739992E+01 -0.50232088157E+02  0.14181473302E+03  0.15083123405E+03  0.47000000000E+01 0.  1.
          5    1    5    5  503    0  0.30057530204E+02  0.57253869275E+02 -0.24971857600E+02  0.69477653537E+02  0.47000000000E+01 0. -1.
         -5    1    5    5    0  503 -0.82531602109E+01 -0.20127264895E+02  0.61790874708E+02  0.65676659802E+02  0.47000000000E+01 0. -1.
<mgrwt>
<rscale>  0 0.27497230E+03</rscale>
<asrwt>0</asrwt>
<pdfrwt beam="1">  1        2 0.37676626E-01 0.27497230E+03</pdfrwt>
<pdfrwt beam="2">  1       -2 0.11874605E-01 0.27497230E+03</pdfrwt>
<totfact> 0.68082110E+03</totfact>
</mgrwt>
</event>
<event>
 9    1  0.2051157E-002  0.2750963E+03  0.7818608E-02  0.1098398E+00
          2   -1    0    0  501    0  0.00000000000E+00  0.00000000000E+00  0.14841902354E+04  0.14841902354E+04  0.00000000000E+00 0.  1.
         -2   -1    0    0    0  501 -0.00000000000E+00 -0.00000000000E+00 -0.12747352726E+02  0.12747352726E+02  0.00000000000E+00 0.  1.
         36    2    1    2    0    0  0.00000000000E+00 -0.71054273576E-14  0.14714428827E+04  0.14969375881E+04  0.27509632090E+03 0.  0.
         25    2    3    3    0    0  0.33534448832E+02 -0.59602893730E+02  0.69136863992E+03  0.70782489986E+03  0.13545637081E+03 0.  0.
         25    2    3    3    0    0 -0.33534448832E+02  0.59602893730E+02  0.78007424274E+03  0.78911268826E+03  0.97498442965E+02 0.  0.
          5    1    4    4  502    0  0.56328336024E+02 -0.57915626058E+02  0.19793452375E+03  0.21383934828E+03  0.47000000000E+01 0.  1.
         -5    1    4    4    0  502 -0.22793887192E+02 -0.16872676718E+01  0.49343411617E+03  0.49398555157E+03  0.47000000000E+01 0.  1.
          5    1    5    5  503    0 -0.11940003273E+02 -0.23923409456E+01  0.10561818590E+02  0.16790741059E+02  0.47000000000E+01 0.  1.
         -5    1    5    5    0  503 -0.21594445558E+02  0.61995234675E+02  0.76951242415E+03  0.77232194720E+03  0.47000000000E+01 0.  1.
<mgrwt>
<rscale>  0 0.27509632E+03</rscale>
<asrwt>0</asrwt>
<pdfrwt beam="1">  1        2 0.22833682E+00 0.27509632E+03</pdfrwt>
<pdfrwt beam="2">  1       -2 0.19611324E-02 0.27509632E+03</pdfrwt>
<totfact> 0.11071239E+04</totfact>
</mgrwt>
</event>
<event>
 9    1  0.2051157E-002  0.2781125E+03  0.7818608E-02  0.1096724E+00
          2   -1    0    0  501    0  0.00000000000E+00  0.00000000000E+00  0.37764086839E+03  0.37764086839E+03  0.00000000000E+00 0. -1.
         -2   -1    0    0    0  501 -0.00000000000E+00 -0.00000000000E+00 -0.51203765554E+02  0.51203765554E+02  0.00000000000E+00 0. -1.
         36    2    1    2    0    0 -0.71054273576E-14 -0.71054273576E-14  0.32643710283E+03  0.42884463394E+03  0.27811245559E+03 0.  0.
         25    2    3    3    0    0  0.52689957021E+02  0.28720727008E+02  0.16620265232E+03  0.21569433328E+03  0.12369160052E+03 0.  0.
         25    2    3    3    0    0 -0.52689957021E+02 -0.28720727008E+02  0.16023445051E+03  0.21315030066E+03  0.12710963697E+03 0.  0.
          5    1    4    4  502    0 -0.36207276731E+02 -0.11193760683E+02  0.63054159549E+02  0.73716919381E+02  0.47000000000E+01 0. -1.
         -5    1    4    4    0  502  0.88897233752E+02  0.39914487691E+02  0.10314849277E+03  0.14197741390E+03  0.47000000000E+01 0. -1.
          5    1    5    5  503    0  0.20275759827E+02 -0.16543315668E+01 -0.12006595800E+02  0.24085090663E+02  0.47000000000E+01 0. -1.
         -5    1    5    5    0  503 -0.72965716849E+02 -0.27066395441E+02  0.17224104631E+03  0.18906521000E+03  0.47000000000E+01 0. -1.
<mgrwt>
<rscale>  0 0.27811246E+03</rscale>
<asrwt>0</asrwt>
<pdfrwt beam="1">  1        2 0.58098593E-01 0.27811246E+03</pdfrwt>
<pdfrwt beam="2">  1       -2 0.78775026E-02 0.27811246E+03</pdfrwt>
<totfact> 0.81866291E+03</totfact>
</mgrwt>
</event>
<event>
 9    1  0.2051157E-002  0.2752268E+03  0.7818608E-02  0.1098325E+00
          1   -1    0    0  501    0  0.00000000000E+00  0.00000000000E+00  0.12373722829E+04  0.12373722829E+04  0.00000000000E+00 0.  1.
         -1   -1    0    0    0  501 -0.00000000000E+00 -0.00000000000E+00 -0.15304572172E+02  0.15304572172E+02  0.00000000000E+00 0.  1.
         36    2    1    2    0    0  0.71054273576E-14  0.26645352591E-14  0.12220677107E+04  0.12526768550E+04  0.27522684031E+03 0.  0.
         25    2    3    3    0    0  0.18909608911E+02  0.70900658227E+01  0.65736381867E+03  0.67373371217E+03  0.14622613471E+03 0.  0.
         25    2    3    3    0    0 -0.18909608911E+02 -0.70900658227E+01  0.56470389202E+03  0.57894314286E+03  0.12600331212E+03 0.  0.
          5    1    4    4  502    0  0.40804418954E+02  0.54460627038E+02  0.55055776712E+03  0.55476743365E+03  0.47000000000E+01 0. -1.
         -5    1    4    4    0  502 -0.21894810042E+02 -0.47370561216E+02  0.10680605156E+03  0.11896627852E+03  0.47000000000E+01 0. -1.
          5    1    5    5  503    0 -0.72608314723E+02  0.27411504708E+01  0.31935945069E+03  0.32755462143E+03  0.47000000000E+01 0. -1.
         -5    1    5    5    0  503  0.53698705811E+02 -0.98312162935E+01  0.24534444132E+03  0.25138852143E+03  0.47000000000E+01 0. -1.
<mgrwt>
<rscale>  0 0.27522684E+03</rscale>
<asrwt>0</asrwt>
<pdfrwt beam="1">  1        1 0.19036489E+00 0.27522684E+03</pdfrwt>
<pdfrwt beam="2">  1       -1 0.23545505E-02 0.27522684E+03</pdfrwt>
<totfact> 0.58157545E+03</totfact>
</mgrwt>
</event>
<event>
 9    1  0.2051157E-002  0.2754670E+03  0.7818608E-02  0.1098191E+00
         -1   -1    0    0    0  501 -0.00000000000E+00  0.00000000000E+00  0.24843975780E+02  0.24843975780E+02  0.00000000000E+00 0.  1.
          1   -1    0    0  501    0  0.00000000000E+00 -0.00000000000E+00 -0.76358621903E+03  0.76358621903E+03  0.00000000000E+00 0.  1.
         36    2    1    2    0    0  0.00000000000E+00  0.00000000000E+00 -0.73874224325E+03  0.78843019481E+03  0.27546700370E+03 0.  0.
         25    2    3    3    0    0  0.36177588182E+02  0.11824554764E+02 -0.24520080949E+03  0.27681873396E+03  0.12270507943E+03 0.  0.
         25    2    3    3    0    0 -0.36177588182E+02 -0.11824554764E+02 -0.49354143377E+03  0.51161146085E+03  0.12928457776E+03 0.  0.
          5    1    4    4  502    0 -0.19008789049E+02 -0.25069248184E+02 -0.11496588262E+02  0.33823997506E+02  0.47000000000E+01 0. -1.
         -5    1    4    4    0  502  0.55186377231E+02  0.36893802948E+02 -0.23370422123E+03  0.24299473646E+03  0.47000000000E+01 0. -1.
          5    1    5    5  503    0 -0.54662178510E+02 -0.58612838755E+02 -0.23961839246E+03  0.25271027409E+03  0.47000000000E+01 0. -1.
         -5    1    5    5    0  503  0.18484590329E+02  0.46788283990E+02 -0.25392304131E+03  0.25890118676E+03  0.47000000000E+01 0. -1.
<mgrwt>
<rscale>  0 0.27546700E+03</rscale>
<asrwt>0</asrwt>
<pdfrwt beam="1">  1        1 0.11747480E+00 0.27546700E+03</pdfrwt>
<pdfrwt beam="2">  1       -1 0.38221502E-02 0.27546700E+03</pdfrwt>
<totfact> 0.65006625E+03</totfact>
</mgrwt>
</event>
<event>
 9    1  0.2051157E-002  0.2899732E+03  0.7818608E-02  0.1090363E+00
          2   -1    0    0  501    0  0.00000000000E+00  0.00000000000E+00  0.36699143028E+03  0.36699143028E+03  0.00000000000E+00 0. -1.
         -2   -1    0    0    0  501 -0.00000000000E+00 -0.00000000000E+00 -0.57279570706E+02  0.57279570706E+02  0.00000000000E+00 0. -1.
         36    2    1    2    0    0  0.00000000000E+00  0.00000000000E+00  0.30971185958E+03  0.42427100099E+03  0.28997318207E+03 0.  0.
         25    2    3    3    0    0  0.35882731107E+01 -0.71046196781E+02  0.19590161901E+03  0.24264352652E+03  0.12424974387E+03 0.  0.
         25    2    3    3    0    0 -0.35882731107E+01  0.71046196781E+02  0.11381024057E+03  0.18162747447E+03  0.12237373429E+03 0.  0.
          5    1    4    4  502    0 -0.18017938860E+02  0.20815837082E+02  0.33120903261E+01  0.28124813538E+02  0.47000000000E+01 0.  1.
         -5    1    4    4    0  502  0.21606211971E+02 -0.91862033863E+02  0.19258952868E+03  0.21451871298E+03  0.47000000000E+01 0.  1.
          5    1    5    5  503    0  0.20849962442E+02  0.96135803547E+02  0.54419475517E+02  0.11251836727E+03  0.47000000000E+01 0. -1.
         -5    1    5    5    0  503 -0.24438235553E+02 -0.25089606766E+02  0.59390765051E+02  0.69109107200E+02  0.47000000000E+01 0. -1.
<mgrwt>
<rscale>  0 0.28997318E+03</rscale>
<asrwt>0</asrwt>
<pdfrwt beam="1">  1        2 0.56460219E-01 0.28997318E+03</pdfrwt>
<pdfrwt beam="2">  1       -2 0.88122419E-02 0.28997318E+03</pdfrwt>
<totfact> 0.70929854E+03</totfact>
</mgrwt>
</event>
<event>
 9    1  0.2051157E-002  0.2747127E+03  0.7818608E-02  0.1098612E+00
          1   -1    0    0  501    0  0.00000000000E+00  0.00000000000E+00  0.56344500906E+02  0.56344500906E+02  0.00000000000E+00 0. -1.
         -1   -1    0    0    0  501 -0.00000000000E+00 -0.00000000000E+00 -0.33484659021E+03  0.33484659021E+03  0.00000000000E+00 0. -1.
         36    2    1    2    0    0  0.35527136788E-14  0.71054273576E-14 -0.27850208931E+03  0.39119109112E+03  0.27471267904E+03 0.  0.
         25    2    3    3    0    0 -0.11899816930E+02 -0.54317454400E+02 -0.11216858938E+03  0.17631839113E+03  0.12415470636E+03 0.  0.
         25    2    3    3    0    0  0.11899816930E+02  0.54317454400E+02 -0.16633349993E+03  0.21487269999E+03  0.12414287135E+03 0.  0.
          5    1    4    4  502    0  0.11601539541E+02 -0.38192501922E+01  0.24988715269E+02  0.28208301660E+02  0.47000000000E+01 0.  1.
         -5    1    4    4    0  502 -0.23501356472E+02 -0.50498204207E+02 -0.13715730465E+03  0.14811008947E+03  0.47000000000E+01 0.  1.
          5    1    5    5  503    0  0.37169333211E+02  0.24751220251E+02 -0.95059448257E+00  0.44912981032E+02  0.47000000000E+01 0.  1.
         -5    1    5    5    0  503 -0.25269516281E+02  0.29566234148E+02 -0.16538290545E+03  0.16995971896E+03  0.47000000000E+01 0.  1.
<mgrwt>
<rscale>  0 0.27471268E+03</rscale>
<asrwt>0</asrwt>
<pdfrwt beam="1">  1        1 0.86683848E-02 0.27471268E+03</pdfrwt>
<pdfrwt beam="2">  1       -1 0.51514860E-01 0.27471268E+03</pdfrwt>
<totfact> 0.30163705E+03</totfact>
</mgrwt>
</event>
<event>
 9    1  0.2051157E-002  0.2760821E+03  0.7818608E-02  0.1097848E+00
         -2   -1    0    0    0  501 -0.00000000000E+00  0.00000000000E+00  0.69695395641E+02  0.69695395641E+02  0.00000000000E+00 0. -1.
          2   -1    0    0  501    0  0.00000000000E+00 -0.00000000000E+00 -0.27340878692E+03  0.27340878692E+03  0.00000000000E+00 0. -1.
         36    2    1    2    0    0  0.00000000000E+00 -0.71054273576E-14 -0.20371339128E+03  0.34310418256E+03  0.27608211515E+03 0.  0.
         25    2    3    3    0    0  0.42743246690E+02 -0.26960807145E+02 -0.13726465903E+03  0.19270568310E+03  0.12545925003E+03 0.  0.
         25    2    3    3    0    0 -0.42743246690E+02  0.26960807145E+02 -0.66448732249E+02  0.15039849947E+03  0.12510157619E+03 0.  0.
          5    1    4    4  502    0  0.19632657626E+02  0.18626088358E+02  0.15507078917E+02  0.31542541266E+02  0.47000000000E+01 0.  1.
         -5    1    4    4    0  502  0.23110589063E+02 -0.45586895504E+02 -0.15277173795E+03  0.16116314183E+03  0.47000000000E+01 0.  1.
          5    1    5    5  503    0  0.27386054612E+02  0.23315411734E+02 -0.71147995728E+02  0.79860701898E+02  0.47000000000E+01 0. -1.
         -5    1    5    5    0  503 -0.70129301301E+02  0.36453954108E+01  0.46992634792E+01  0.70537797569E+02  0.47000000000E+01 0. -1.
<mgrwt>
<rscale>  0 0.27608212E+03</rscale>
<asrwt>0</asrwt>
<pdfrwt beam="1">  1        2 0.42062890E-01 0.27608212E+03</pdfrwt>
<pdfrwt beam="2">  1       -2 0.10722369E-01 0.27608212E+03</pdfrwt>
<totfact> 0.71235321E+03</totfact>
</mgrwt>
</event>
<event>
 9    1  0.2051157E-002  0.2746247E+03  0.7818608E-02  0.1098662E+00
         -1   -1    0    0    0  501 -0.00000000000E+00  0.00000000000E+00  0.72228565396E+02  0.72228565396E+02  0.00000000000E+00 0. -1.
          1   -1    0    0  501    0  0.00000000000E+00 -0.00000000000E+00 -0.26104183070E+03  0.26104183070E+03  0.00000000000E+00 0. -1.
         36    2    1    2    0    0 -0.14210854715E-13  0.00000000000E+00 -0.18881326531E+03  0.33327039610E+03  0.27462466707E+03 0.  0.
         25    2    3    3    0    0  0.53607910886E+02 -0.23000181970E+02 -0.10754297180E+03  0.17549083494E+03  0.12581226444E+03 0.  0.
         25    2    3    3    0    0 -0.53607910886E+02  0.23000181970E+02 -0.81270293504E+02  0.15777956116E+03  0.12201111766E+03 0.  0.
          5    1    4    4  502    0  0.77696549749E+01  0.42403188603E+02 -0.79782882180E+02  0.90806366688E+02  0.47000000000E+01 0.  1.
         -5    1    4    4    0  502  0.45838255911E+02 -0.65403370572E+02 -0.27760089624E+02  0.84684468252E+02  0.47000000000E+01 0.  1.
          5    1    5    5  503    0  0.31679986947E+02 -0.21373609384E+02 -0.17343257013E+02  0.42229507633E+02  0.47000000000E+01 0.  1.
         -5    1    5    5    0  503 -0.85287897833E+02  0.44373791354E+02 -0.63927036491E+02  0.11555005353E+03  0.47000000000E+01 0.  1.
<mgrwt>
<rscale>  0 0.27462467E+03</rscale>
<asrwt>0</asrwt>
<pdfrwt beam="1">  1        1 0.40160281E-01 0.27462467E+03</pdfrwt>
<pdfrwt beam="2">  1       -1 0.11112087E-01 0.27462467E+03</pdfrwt>
<totfact> 0.53669560E+03</totfact>
</mgrwt>
</event>
<event>
 9    1  0.2051157E-002  0.2753875E+03  0.7818608E-02  0.1098235E+00
          2   -1    0    0  501    0  0.00000000000E+00  0.00000000000E+00  0.21879440028E+03  0.21879440028E+03  0.00000000000E+00 0. -1.
         -2   -1    0    0    0  501 -0.00000000000E+00 -0.00000000000E+00 -0.86654726090E+02  0.86654726090E+02  0.00000000000E+00 0. -1.
         36    2    1    2    0    0  0.00000000000E+00  0.00000000000E+00  0.13213967419E+03  0.30544912637E+03  0.27538750027E+03 0.  0.
         25    2    3    3    0    0 -0.38445711575E+02  0.32688125480E+02  0.32166265155E+02  0.13625092670E+03  0.12240531086E+03 0.  0.
         25    2    3    3    0    0  0.38445711575E+02 -0.32688125480E+02  0.99973409031E+02  0.16919819967E+03  0.12683359954E+03 0.  0.
          5    1    4    4  502    0  0.28758637027E+02 -0.15229170358E+02 -0.20011274130E+02  0.38490621270E+02  0.47000000000E+01 0.  1.
         -5    1    4    4    0  502 -0.67204348602E+02  0.47917295838E+02  0.52177539285E+02  0.97760305428E+02  0.47000000000E+01 0.  1.
          5    1    5    5  503    0  0.13378568472E+02 -0.78458956614E+02  0.38853580193E+02  0.88693205270E+02  0.47000000000E+01 0. -1.
         -5    1    5    5    0  503  0.25067143103E+02  0.45770831134E+02  0.61119828838E+02  0.80504994399E+02  0.47000000000E+01 0. -1.
<mgrwt>
<rscale>  0 0.27538750E+03</rscale>
<asrwt>0</asrwt>
<pdfrwt beam="1">  1        2 0.33660677E-01 0.27538750E+03</pdfrwt>
<pdfrwt beam="2">  1       -2 0.13331496E-01 0.27538750E+03</pdfrwt>
<totfact> 0.63771995E+03</totfact>
</mgrwt>
</event>
<event>
 9    1  0.2051157E-002  0.2758579E+03  0.7818608E-02  0.1097973E+00
         -1   -1    0    0    0  501 -0.00000000000E+00  0.00000000000E+00  0.19862680456E+02  0.19862680456E+02  0.00000000000E+00 0. -1.
          1   -1    0    0  501    0  0.00000000000E+00 -0.00000000000E+00 -0.95779626692E+03  0.95779626692E+03  0.00000000000E+00 0. -1.
         36    2    1    2    0    0 -0.71054273576E-14  0.00000000000E+00 -0.93793358646E+03  0.97765894737E+03  0.27585794309E+03 0.  0.
         25    2    3    3    0    0  0.53680560234E+01  0.49966122978E+02 -0.57882604772E+03  0.59454762188E+03  0.12618181999E+03 0.  0.
         25    2    3    3    0    0 -0.53680560234E+01 -0.49966122978E+02 -0.35910753875E+03  0.38311132550E+03  0.12365530263E+03 0.  0.
          5    1    4    4  502    0 -0.39281646311E+02  0.36280520774E+02 -0.49950004075E+03  0.50237605898E+03  0.47000000000E+01 0. -1.
         -5    1    4    4    0  502  0.44649702334E+02  0.13685602205E+02 -0.79326006963E+02  0.92171562897E+02  0.47000000000E+01 0. -1.
          5    1    5    5  503    0  0.24702519501E+02  0.22987238283E+02 -0.32537552351E+02  0.47110613523E+02  0.47000000000E+01 0.  1.
         -5    1    5    5    0  503 -0.30070575525E+02 -0.72953361261E+02 -0.32656998639E+03  0.33600071197E+03  0.47000000000E+01 0.  1.
<mgrwt>
<rscale>  0 0.27585794E+03</rscale>
<asrwt>0</asrwt>
<pdfrwt beam="1">  1        1 0.14735326E+00 0.27585794E+03</pdfrwt>
<pdfrwt beam="2">  1       -1 0.30557973E-02 0.27585794E+03</pdfrwt>
<totfact> 0.63143621E+03</totfact>
</mgrwt>
</event>
<event>
 9    1  0.2051157E-002  0.2748890E+03  0.7818608E-02  0.1098514E+00
         -2   -1    0    0    0  501 -0.00000000000E+00  0.00000000000E+00  0.74100018916E+02  0.74100018916E+02  0.00000000000E+00 0.  1.
          2   -1    0    0  501    0  0.00000000000E+00 -0.00000000000E+00 -0.25493914955E+03  0.25493914955E+03  0.00000000000E+00 0.  1.
         36    2    1    2    0    0 -0.35527136788E-14 -0.71054273576E-14 -0.18083913064E+03  0.32903916847E+03  0.27488903801E+03 0.  0.
         25    2    3    3    0    0  0.19978387249E+02 -0.25318320270E+02 -0.28493491046E+02  0.13126510047E+03  0.12401005714E+03 0.  0.
         25    2    3    3    0    0 -0.19978387249E+02  0.25318320270E+02 -0.15234563959E+03  0.19777406800E+03  0.12192306907E+03 0.  0.
          5    1    4    4  502    0 -0.97574648717E+01 -0.54833280609E+02  0.26593235637E+02  0.61896582819E+02  0.47000000000E+01 0.  1.
         -5    1    4    4    0  502  0.29735852121E+02  0.29514960338E+02 -0.55086726683E+02  0.69368517655E+02  0.47000000000E+01 0.  1.
          5    1    5    5  503    0 -0.13595756613E+02 -0.74752455142E+01  0.17939268562E+02  0.24179149074E+02  0.47000000000E+01 0.  1.
         -5    1    5    5    0  503 -0.63826306361E+01  0.32793565785E+02 -0.17028490815E+03  0.17359491892E+03  0.47000000000E+01 0.  1.
<mgrwt>
<rscale>  0 0.27488904E+03</rscale>
<asrwt>0</asrwt>
<pdfrwt beam="1">  1        2 0.39221407E-01 0.27488904E+03</pdfrwt>
<pdfrwt beam="2">  1       -2 0.11400003E-01 0.27488904E+03</pdfrwt>
<totfact> 0.69612572E+03</totfact>
</mgrwt>
</event>
<event>
 9    1  0.2051157E-002  0.2749794E+03  0.7818608E-02  0.1098463E+00
         -1   -1    0    0    0  501 -0.00000000000E+00  0.00000000000E+00  0.41934116047E+02  0.41934116047E+02  0.00000000000E+00 0. -1.
          1   -1    0    0  501    0  0.00000000000E+00 -0.00000000000E+00 -0.45078865519E+03  0.45078865519E+03  0.00000000000E+00 0. -1.
         36    2    1    2    0    0  0.35527136788E-14  0.71054273576E-14 -0.40885453915E+03  0.49272277124E+03  0.27497944490E+03 0.  0.
         25    2    3    3    0    0  0.27954920313E+02 -0.12073533949E+02 -0.35064771658E+03  0.37428297776E+03  0.12730545355E+03 0.  0.
         25    2    3    3    0    0 -0.27954920313E+02  0.12073533949E+02 -0.58206822564E+02  0.11843979348E+03  0.98553045082E+02 0.  0.
          5    1    4    4  502    0  0.34873591644E+01 -0.67873921227E+02 -0.21427562289E+03  0.22484475404E+03  0.47000000000E+01 0. -1.
         -5    1    4    4    0  502  0.24467561148E+02  0.55800387278E+02 -0.13637209370E+03  0.14943822372E+03  0.47000000000E+01 0. -1.
          5    1    5    5  503    0 -0.73380193394E+01  0.46927798264E+02 -0.61143105040E+02  0.77566965080E+02  0.47000000000E+01 0.  1.
         -5    1    5    5    0  503 -0.20616900973E+02 -0.34854264316E+02  0.29362824754E+01  0.40872828401E+02  0.47000000000E+01 0.  1.
<mgrwt>
<rscale>  0 0.27497944E+03</rscale>
<asrwt>0</asrwt>
<pdfrwt beam="1">  1        1 0.69352104E-01 0.27497944E+03</pdfrwt>
<pdfrwt beam="2">  1       -1 0.64514021E-02 0.27497944E+03</pdfrwt>
<totfact> 0.61692192E+03</totfact>
</mgrwt>
</event>
<event>
 9    1  0.2051157E-002  0.2749212E+03  0.7818608E-02  0.1098496E+00
         -2   -1    0    0    0  501 -0.00000000000E+00  0.00000000000E+00  0.23594914268E+03  0.23594914268E+03  0.00000000000E+00 0. -1.
          2   -1    0    0  501    0  0.00000000000E+00 -0.00000000000E+00 -0.80082605196E+02  0.80082605196E+02  0.00000000000E+00 0. -1.
         36    2    1    2    0    0 -0.71054273576E-14  0.71054273576E-14  0.15586653749E+03  0.31603174788E+03  0.27492123992E+03 0.  0.
         25    2    3    3    0    0  0.24129460169E+02 -0.80973921968E+00  0.13643794706E+03  0.18651919605E+03  0.12486476914E+03 0.  0.
         25    2    3    3    0    0 -0.24129460169E+02  0.80973921968E+00  0.19428590430E+02  0.12951255183E+03  0.12575032576E+03 0.  0.
          5    1    4    4  502    0  0.22745945200E+02  0.59523300869E+02  0.89270853608E+02  0.10978058423E+03  0.47000000000E+01 0.  1.
         -5    1    4    4    0  502  0.13835149685E+01 -0.60333040088E+02  0.47167093450E+02  0.76738611823E+02  0.47000000000E+01 0.  1.
          5    1    5    5  503    0  0.46519740373E+02 -0.24391662992E+02  0.11141382976E+02  0.53900462730E+02  0.47000000000E+01 0.  1.
         -5    1    5    5    0  503 -0.70649200542E+02  0.25201402212E+02  0.82872074545E+01  0.75612089100E+02  0.47000000000E+01 0.  1.
<mgrwt>
<rscale>  0 0.27492124E+03</rscale>
<asrwt>0</asrwt>
<pdfrwt beam="1">  1        2 0.12320401E-01 0.27492124E+03</pdfrwt>
<pdfrwt beam="2">  1       -2 0.36299868E-01 0.27492124E+03</pdfrwt>
<totfact> 0.35301674E+03</totfact>
</mgrwt>
</event>
<event>
 9    1  0.2051157E-002  0.2736709E+03  0.7818608E-02  0.1099197E+00
         -2   -1    0    0    0  501 -0.00000000000E+00  0.00000000000E+00  0.58050316439E+01  0.58050316439E+01  0.00000000000E+00 0. -1.
          2   -1    0    0  501    0  0.00000000000E+00 -0.00000000000E+00 -0.32254674596E+04  0.32254674596E+04  0.00000000000E+00 0. -1.
         36    2    1    2    0    0  0.00000000000E+00  0.35527136788E-14 -0.32196624279E+04  0.32312724912E+04  0.27367090214E+03 0.  0.
         25    2    3    3    0    0 -0.11738796650E+02 -0.28831962352E+01 -0.99412145203E+03  0.10021913039E+04  0.12634807482E+03 0.  0.
         25    2    3    3    0    0  0.11738796650E+02  0.28831962352E+01 -0.22255409759E+04  0.22290811873E+04  0.12499676870E+03 0.  0.
          5    1    4    4  502    0  0.52508592494E+02  0.20529398360E+02 -0.53477765390E+03  0.53776187815E+03  0.47000000000E+01 0. -1.
         -5    1    4    4    0  502 -0.64247389144E+02 -0.23412594596E+02 -0.45934379812E+03  0.46442942572E+03  0.47000000000E+01 0. -1.
          5    1    5    5  503    0  0.13657788612E+02  0.55246909444E+02 -0.60563057090E+03  0.60831672227E+03  0.47000000000E+01 0.  1.
         -5    1    5    5    0  503 -0.19189919618E+01 -0.52363713209E+02 -0.16199104050E+04  0.16207644651E+04  0.47000000000E+01 0.  1.
<mgrwt>
<rscale>  0 0.27367090E+03</rscale>
<asrwt>0</asrwt>
<pdfrwt beam="1">  1        2 0.49622684E+00 0.27367090E+03</pdfrwt>
<pdfrwt beam="2">  1       -2 0.89307985E-03 0.27367090E+03</pdfrwt>
<totfact> 0.38216374E+03</totfact>
</mgrwt>
</event>
<event>
 9    1  0.2051157E-002  0.2751489E+03  0.7818608E-02  0.1098368E+00
         -1   -1    0    0    0  501 -0.00000000000E+00  0.00000000000E+00  0.35638907209E+02  0.35638907209E+02  0.00000000000E+00 0. -1.
          1   -1    0    0  501    0  0.00000000000E+00 -0.00000000000E+00 -0.53106934552E+03  0.53106934552E+03  0.00000000000E+00 0. -1.
         36    2    1    2    0    0  0.00000000000E+00  0.00000000000E+00 -0.49543043831E+03  0.56670825273E+03  0.27514891333E+03 0.  0.
         25    2    3    3    0    0 -0.42666586412E+02 -0.30439899268E+02 -0.20793429745E+03  0.24868436833E+03  0.12593735718E+03 0.  0.
         25    2    3    3    0    0  0.42666586412E+02  0.30439899268E+02 -0.28749614086E+03  0.31802388440E+03  0.12545172368E+03 0.  0.
          5    1    4    4  502    0 -0.32141151163E+02  0.42162608312E+01 -0.20958012969E+03  0.21212437676E+03  0.47000000000E+01 0.  1.
         -5    1    4    4    0  502 -0.10525435249E+02 -0.34656160099E+02  0.16458322433E+01  0.36559991572E+02  0.47000000000E+01 0.  1.
          5    1    5    5  503    0 -0.15807416220E+02 -0.52209512166E+01  0.46563335967E+01  0.17913798640E+02  0.47000000000E+01 0.  1.
         -5    1    5    5    0  503  0.58474002631E+02  0.35660850484E+02 -0.29215247446E+03  0.30011008576E+03  0.47000000000E+01 0.  1.
<mgrwt>
<rscale>  0 0.27514891E+03</rscale>
<asrwt>0</asrwt>
<pdfrwt beam="1">  1        1 0.81702976E-01 0.27514891E+03</pdfrwt>
<pdfrwt beam="2">  1       -1 0.54829088E-02 0.27514891E+03</pdfrwt>
<totfact> 0.63466334E+03</totfact>
</mgrwt>
</event>
<event>
 9    1  0.2051157E-002  0.2756363E+03  0.7818608E-02  0.1098096E+00
          3   -1    0    0  501    0  0.00000000000E+00  0.00000000000E+00  0.16656436035E+03  0.16656436035E+03  0.00000000000E+00 0.  1.
         -3   -1    0    0    0  501 -0.00000000000E+00 -0.00000000000E+00 -0.11403306488E+03  0.11403306488E+03  0.00000000000E+00 0.  1.
         36    2    1    2    0    0 -0.71054273576E-14  0.00000000000E+00  0.52531295473E+02  0.28059742523E+03  0.27563631481E+03 0.  0.
         25    2    3    3    0    0 -0.39183433438E+02  0.28599805085E+01  0.75853605444E+02  0.14914951474E+03  0.12226318883E+03 0.  0.
         25    2    3    3    0    0  0.39183433438E+02 -0.28599805085E+01 -0.23322309971E+02  0.13144791049E+03  0.12325218897E+03 0.  0.
          5    1    4    4  502    0 -0.20867812679E+01  0.43335729497E+02 -0.12165684132E+02  0.45303796502E+02  0.47000000000E+01 0. -1.
         -5    1    4    4    0  502 -0.37096652170E+02 -0.40475748989E+02  0.88019289576E+02  0.10384571824E+03  0.47000000000E+01 0. -1.
          5    1    5    5  503    0  0.16023694149E+02  0.59405600288E+02 -0.19594956206E+02  0.64744393027E+02  0.47000000000E+01 0. -1.
         -5    1    5    5    0  503  0.23159739289E+02 -0.62265580796E+02 -0.37273537652E+01  0.66703517463E+02  0.47000000000E+01 0. -1.
<mgrwt>
<rscale>  0 0.27563631E+03</rscale>
<asrwt>0</asrwt>
<pdfrwt beam="1">  1        3 0.25625286E-01 0.27563631E+03</pdfrwt>
<pdfrwt beam="2">  1       -3 0.17543549E-01 0.27563631E+03</pdfrwt>
<totfact> 0.10330709E+03</totfact>
</mgrwt>
</event>
<event>
 9    1  0.2051157E-002  0.2755034E+03  0.7818608E-02  0.1098171E+00
          3   -1    0    0  501    0  0.00000000000E+00  0.00000000000E+00  0.46900828062E+03  0.46900828062E+03  0.00000000000E+00 0.  1.
         -3   -1    0    0    0  501 -0.00000000000E+00 -0.00000000000E+00 -0.40458830492E+02  0.40458830492E+02  0.00000000000E+00 0.  1.
         36    2    1    2    0    0 -0.14210854715E-13 -0.35527136788E-14  0.42854945013E+03  0.50946711111E+03  0.27550336858E+03 0.  0.
         25    2    3    3    0    0  0.63511460689E+02  0.11331980724E+02  0.29231441359E+03  0.32386058498E+03  0.12359548004E+03 0.  0.
         25    2    3    3    0    0 -0.63511460689E+02 -0.11331980724E+02  0.13623503654E+03  0.18560652613E+03  0.10829440399E+03 0.  0.
          5    1    4    4  502    0 -0.25587267900E+02 -0.13172441961E+02  0.15857683886E+03  0.16123562054E+03  0.47000000000E+01 0.  1.
         -5    1    4    4    0  502  0.89098728589E+02  0.24504422685E+02  0.13373757472E+03  0.16262496444E+03  0.47000000000E+01 0.  1.
          5    1    5    5  503    0 -0.12198230035E+02  0.21148094340E+02  0.12002909626E+03  0.12257696627E+03  0.47000000000E+01 0.  1.
         -5    1    5    5    0  503 -0.51313230654E+02 -0.32480075064E+02  0.16205940279E+02  0.63029559864E+02  0.47000000000E+01 0.  1.
<mgrwt>
<rscale>  0 0.27550337E+03</rscale>
<asrwt>0</asrwt>
<pdfrwt beam="1">  1        3 0.72155116E-01 0.27550337E+03</pdfrwt>
<pdfrwt beam="2">  1       -3 0.62244358E-02 0.27550337E+03</pdfrwt>
<totfact> 0.76105241E+02</totfact>
</mgrwt>
</event>
<event>
 9    1  0.2051157E-002  0.2738937E+03  0.7818608E-02  0.1099072E+00
          2   -1    0    0  501    0  0.00000000000E+00  0.00000000000E+00  0.77188097562E+03  0.77188097562E+03  0.00000000000E+00 0. -1.
         -2   -1    0    0    0  501 -0.00000000000E+00 -0.00000000000E+00 -0.24297063879E+02  0.24297063879E+02  0.00000000000E+00 0. -1.
         36    2    1    2    0    0  0.00000000000E+00  0.00000000000E+00  0.74758391174E+03  0.79617803950E+03  0.27389371202E+03 0.  0.
         25    2    3    3    0    0  0.11897935353E+02  0.44297773151E+02  0.23439619656E+03  0.26570152909E+03  0.11641250803E+03 0.  0.
         25    2    3    3    0    0 -0.11897935353E+02 -0.44297773151E+02  0.51318771518E+03  0.53047651041E+03  0.12625309308E+03 0.  0.
          5    1    4    4  502    0 -0.33246273071E+02  0.50500069624E+02  0.19833987531E+03  0.20740387615E+03  0.47000000000E+01 0.  1.
         -5    1    4    4    0  502  0.45144208424E+02 -0.62022964736E+01  0.36056321251E+02  0.58297652937E+02  0.47000000000E+01 0.  1.
          5    1    5    5  503    0  0.92591572164E+01  0.14317046392E+02  0.48874703412E+01  0.18349037470E+02  0.47000000000E+01 0. -1.
         -5    1    5    5    0  503 -0.21157092570E+02 -0.58614819543E+02  0.50830024484E+03  0.51212747294E+03  0.47000000000E+01 0. -1.
<mgrwt>
<rscale>  0 0.27389371E+03</rscale>
<asrwt>0</asrwt>
<pdfrwt beam="1">  1        2 0.11875090E+00 0.27389371E+03</pdfrwt>
<pdfrwt beam="2">  1       -2 0.37380104E-02 0.27389371E+03</pdfrwt>
<totfact> 0.11261862E+04</totfact>
</mgrwt>
</event>
<event>
 9    1  0.2051157E-002  0.2750739E+03  0.7818608E-02  0.1098410E+00
         -2   -1    0    0    0  501 -0.00000000000E+00  0.00000000000E+00  0.16877164241E+02  0.16877164241E+02  0.00000000000E+00 0. -1.
          2   -1    0    0  501    0  0.00000000000E+00 -0.00000000000E+00 -0.11208290134E+04  0.11208290134E+04  0.00000000000E+00 0. -1.
         36    2    1    2    0    0 -0.35527136788E-14 -0.10658141036E-13 -0.11039518491E+04  0.11377061776E+04  0.27507391985E+03 0.  0.
         25    2    3    3    0    0  0.98917567735E+01  0.17373499858E+02 -0.74613303224E+03  0.75760468563E+03  0.12981014032E+03 0.  0.
         25    2    3    3    0    0 -0.98917567735E+01 -0.17373499858E+02 -0.35781881689E+03  0.38010149199E+03  0.12666156932E+03 0.  0.
          5    1    4    4  502    0  0.13068375168E+02 -0.53784654295E+02 -0.23299348996E+03  0.23952375212E+03  0.47000000000E+01 0. -1.
         -5    1    4    4    0  502 -0.31766183948E+01  0.71158154153E+02 -0.51313954228E+03  0.51808093350E+03  0.47000000000E+01 0. -1.
          5    1    5    5  503    0 -0.17832671678E+02  0.18547583938E+02 -0.33611319666E+03  0.33712933426E+03  0.47000000000E+01 0.  1.
         -5    1    5    5    0  503  0.79409149049E+01 -0.35921083796E+02 -0.21705620237E+02  0.42972157735E+02  0.47000000000E+01 0.  1.
<mgrwt>
<rscale>  0 0.27507392E+03</rscale>
<asrwt>0</asrwt>
<pdfrwt beam="1">  1        2 0.17243527E+00 0.27507392E+03</pdfrwt>
<pdfrwt beam="2">  1       -2 0.25964862E-02 0.27507392E+03</pdfrwt>
<totfact> 0.11646006E+04</totfact>
</mgrwt>
</event>
<event>
 9    1  0.2051157E-002  0.2759125E+03  0.7818608E-02  0.1097943E+00
         -2   -1    0    0    0  501 -0.00000000000E+00  0.00000000000E+00  0.10367313246E+03  0.10367313246E+03  0.00000000000E+00 0. -1.
          2   -1    0    0  501    0  0.00000000000E+00 -0.00000000000E+00 -0.18357630738E+03  0.18357630738E+03  0.00000000000E+00 0. -1.
         36    2    1    2    0    0 -0.71054273576E-14  0.00000000000E+00 -0.79903174912E+02  0.28724943984E+03  0.27591252840E+03 0.  0.
         25    2    3    3    0    0 -0.44170127889E+01 -0.38924581229E+02 -0.79758998214E+02  0.15377916164E+03  0.12550657247E+03 0.  0.
         25    2    3    3    0    0  0.44170127889E+01  0.38924581229E+02 -0.14417669807E+00  0.13347027820E+03  0.12759177618E+03 0.  0.
          5    1    4    4  502    0 -0.43582421737E+02  0.11899606924E+02 -0.76982170767E+02  0.89383291198E+02  0.47000000000E+01 0.  1.
         -5    1    4    4    0  502  0.39165408948E+02 -0.50824188153E+02 -0.27768274472E+01  0.64395870443E+02  0.47000000000E+01 0.  1.
          5    1    5    5  503    0  0.45192205034E+02  0.68824734319E+02 -0.38033172419E+01  0.82557462848E+02  0.47000000000E+01 0.  1.
         -5    1    5    5    0  503 -0.40775192245E+02 -0.29900153089E+02  0.36591405438E+01  0.50912815350E+02  0.47000000000E+01 0.  1.
<mgrwt>
<rscale>  0 0.27591253E+03</rscale>
<asrwt>0</asrwt>
<pdfrwt beam="1">  1        2 0.28242509E-01 0.27591253E+03</pdfrwt>
<pdfrwt beam="2">  1       -2 0.15949713E-01 0.27591253E+03</pdfrwt>
<totfact> 0.57526296E+03</totfact>
</mgrwt>
</event>
<event>
 9    1  0.2051157E-002  0.2743012E+03  0.7818608E-02  0.1098843E+00
          2   -1    0    0  501    0  0.00000000000E+00  0.00000000000E+00  0.58206887952E+03  0.58206887952E+03  0.00000000000E+00 0. -1.
         -2   -1    0    0    0  501 -0.00000000000E+00 -0.00000000000E+00 -0.32316267336E+02  0.32316267336E+02  0.00000000000E+00 0. -1.
         36    2    1    2    0    0  0.00000000000E+00  0.00000000000E+00  0.54975261219E+03  0.61438514686E+03  0.27430124694E+03 0.  0.
         25    2    3    3    0    0 -0.15003318219E+02 -0.31429452959E+02  0.19545629255E+03  0.23675253846E+03  0.12897942510E+03 0.  0.
         25    2    3    3    0    0  0.15003318219E+02  0.31429452959E+02  0.35429631964E+03  0.37763260840E+03  0.12596664140E+03 0.  0.
          5    1    4    4  502    0 -0.65421080925E+02 -0.74502806322E+01  0.56366946962E+02  0.86802921729E+02  0.47000000000E+01 0. -1.
         -5    1    4    4    0  502  0.50417762705E+02 -0.23979172327E+02  0.13908934558E+03  0.14994961673E+03  0.47000000000E+01 0. -1.
          5    1    5    5  503    0 -0.17531113642E+02  0.24342646794E+02  0.10399882994E+02  0.32095980507E+02  0.47000000000E+01 0. -1.
         -5    1    5    5    0  503  0.32534431861E+02  0.70868061656E+01  0.34389643665E+03  0.34553662790E+03  0.47000000000E+01 0. -1.
<mgrwt>
<rscale>  0 0.27430125E+03</rscale>
<asrwt>0</asrwt>
<pdfrwt beam="1">  1        2 0.89549050E-01 0.27430125E+03</pdfrwt>
<pdfrwt beam="2">  1       -2 0.49717339E-02 0.27430125E+03</pdfrwt>
<totfact> 0.10273467E+04</totfact>
</mgrwt>
</event>
<event>
 9    1  0.2051157E-002  0.2777710E+03  0.7818608E-02  0.1096913E+00
          1   -1    0    0  501    0  0.00000000000E+00  0.00000000000E+00  0.13171448848E+03  0.13171448848E+03  0.00000000000E+00 0. -1.
         -1   -1    0    0    0  501 -0.00000000000E+00 -0.00000000000E+00 -0.14644691910E+03  0.14644691910E+03  0.00000000000E+00 0. -1.
         36    2    1    2    0    0  0.00000000000E+00  0.00000000000E+00 -0.14732430615E+02  0.27816140758E+03  0.27777099228E+03 0.  0.
         25    2    3    3    0    0 -0.51702006480E+02 -0.18605483514E+02 -0.23767527523E+02  0.13939439429E+03  0.12588343936E+03 0.  0.
         25    2    3    3    0    0  0.51702006480E+02  0.18605483514E+02  0.90350969083E+01  0.13876701328E+03  0.12710385324E+03 0.  0.
          5    1    4    4  502    0  0.26661181565E+02 -0.29982644924E+02 -0.41710998644E+02  0.58066126157E+02  0.47000000000E+01 0. -1.
         -5    1    4    4    0  502 -0.78363188045E+02  0.11377161410E+02  0.17943471120E+02  0.81328268137E+02  0.47000000000E+01 0. -1.
          5    1    5    5  503    0  0.77516635053E+01 -0.46918136536E+02  0.30719180095E+02  0.56808079080E+02  0.47000000000E+01 0. -1.
         -5    1    5    5    0  503  0.43950342975E+02  0.65523620050E+02 -0.21684083186E+02  0.81958934203E+02  0.47000000000E+01 0. -1.
<mgrwt>
<rscale>  0 0.27777099E+03</rscale>
<asrwt>0</asrwt>
<pdfrwt beam="1">  1        1 0.20263768E-01 0.27777099E+03</pdfrwt>
<pdfrwt beam="2">  1       -1 0.22530295E-01 0.27777099E+03</pdfrwt>
<totfact> 0.41352348E+03</totfact>
</mgrwt>
</event>
<event>
 9    1  0.2051157E-002  0.2740184E+03  0.7818608E-02  0.1099002E+00
         -2   -1    0    0    0  501 -0.00000000000E+00  0.00000000000E+00  0.25041712926E+02  0.25041712926E+02  0.00000000000E+00 0. -1.
          2   -1    0    0  501    0  0.00000000000E+00 -0.00000000000E+00 -0.74961013597E+03  0.74961013597E+03  0.00000000000E+00 0. -1.
         36    2    1    2    0    0  0.71054273576E-14  0.35527136788E-14 -0.72456842304E+03  0.77465184889E+03  0.27401840691E+03 0.  0.
         25    2    3    3    0    0 -0.28645287163E+02  0.83635518668E+01 -0.29038616385E+03  0.32143730887E+03  0.13456343450E+03 0.  0.
         25    2    3    3    0    0  0.28645287163E+02 -0.83635518668E+01 -0.43418225920E+03  0.45321454002E+03  0.12648590281E+03 0.  0.
          5    1    4    4  502    0 -0.59933839821E+02 -0.45449078139E+02 -0.15480195574E+03  0.17217264405E+03  0.47000000000E+01 0. -1.
         -5    1    4    4    0  502  0.31288552657E+02  0.53812630006E+02 -0.13558420811E+03  0.14926466482E+03  0.47000000000E+01 0. -1.
          5    1    5    5  503    0 -0.67624143716E+01  0.30047682982E+02 -0.36534473057E+03  0.36667077284E+03  0.47000000000E+01 0. -1.
         -5    1    5    5    0  503  0.35407701535E+02 -0.38411234849E+02 -0.68837528629E+02  0.86543767184E+02  0.47000000000E+01 0. -1.
<mgrwt>
<rscale>  0 0.27401841E+03</rscale>
<asrwt>0</asrwt>
<pdfrwt beam="1">  1        2 0.11532463E+00 0.27401841E+03</pdfrwt>
<pdfrwt beam="2">  1       -2 0.38525714E-02 0.27401841E+03</pdfrwt>
<totfact> 0.11163856E+04</totfact>
</mgrwt>
</event>
<event>
 9    1  0.2051157E-002  0.2754837E+03  0.7818608E-02  0.1098182E+00
          2   -1    0    0  501    0  0.00000000000E+00  0.00000000000E+00  0.11585251296E+04  0.11585251296E+04  0.00000000000E+00 0.  1.
         -2   -1    0    0    0  501 -0.00000000000E+00 -0.00000000000E+00 -0.16376700764E+02  0.16376700764E+02  0.00000000000E+00 0.  1.
         36    2    1    2    0    0  0.71054273576E-14  0.00000000000E+00  0.11421484288E+04  0.11749018304E+04  0.27548371549E+03 0.  0.
         25    2    3    3    0    0 -0.51703617412E+02  0.72568660155E+00  0.67882093911E+03  0.69329297574E+03  0.13108581981E+03 0.  0.
         25    2    3    3    0    0  0.51703617412E+02 -0.72568660155E+00  0.46332748974E+03  0.48160885464E+03  0.12083433058E+03 0.  0.
          5    1    4    4  502    0 -0.29480261972E+02 -0.17754070010E+02  0.36792650138E+02  0.50597252416E+02  0.47000000000E+01 0. -1.
         -5    1    4    4    0  502 -0.22223355440E+02  0.18479756612E+02  0.64202828897E+03  0.64269572332E+03  0.47000000000E+01 0. -1.
          5    1    5    5  503    0  0.56353074049E+02  0.18784266289E+02  0.45579772322E+03  0.45967616004E+03  0.47000000000E+01 0. -1.
         -5    1    5    5    0  503 -0.46494566371E+01 -0.19509952890E+02  0.75297665190E+01  0.21932694605E+02  0.47000000000E+01 0. -1.
<mgrwt>
<rscale>  0 0.27548372E+03</rscale>
<asrwt>0</asrwt>
<pdfrwt beam="1">  1        2 0.17823457E+00 0.27548372E+03</pdfrwt>
<pdfrwt beam="2">  1       -2 0.25194933E-02 0.27548372E+03</pdfrwt>
<totfact> 0.11580357E+04</totfact>
</mgrwt>
</event>
<event>
 9    1  0.2051157E-002  0.2766000E+03  0.7818608E-02  0.1097561E+00
          2   -1    0    0  501    0  0.00000000000E+00  0.00000000000E+00  0.12924614498E+04  0.12924614498E+04  0.00000000000E+00 0. -1.
         -2   -1    0    0    0  501 -0.00000000000E+00 -0.00000000000E+00 -0.14798811247E+02  0.14798811247E+02  0.00000000000E+00 0. -1.
         36    2    1    2    0    0  0.00000000000E+00 -0.35527136788E-14  0.12776626386E+04  0.13072602611E+04  0.27660002198E+03 0.  0.
         25    2    3    3    0    0 -0.35533123067E+02 -0.13692806567E+02  0.82632108717E+03  0.83840764761E+03  0.13664094804E+03 0.  0.
         25    2    3    3    0    0  0.35533123067E+02  0.13692806567E+02  0.45134155141E+03  0.46885261346E+03  0.12109286245E+03 0.  0.
          5    1    4    4  502    0 -0.70160832651E+01 -0.62368023984E+02  0.20327741108E+03  0.21279753686E+03  0.47000000000E+01 0.  1.
         -5    1    4    4    0  502 -0.28517039802E+02  0.48675217417E+02  0.62304367609E+03  0.62561011075E+03  0.47000000000E+01 0.  1.
          5    1    5    5  503    0  0.19840461354E+02  0.25020236901E+02  0.22026249246E+02  0.39075591066E+02  0.47000000000E+01 0.  1.
         -5    1    5    5    0  503  0.15692661713E+02 -0.11327430334E+02  0.42931530216E+03  0.42977702239E+03  0.47000000000E+01 0.  1.
<mgrwt>
<rscale>  0 0.27660002E+03</rscale>
<asrwt>0</asrwt>
<pdfrwt beam="1">  1        2 0.19884013E+00 0.27660002E+03</pdfrwt>
<pdfrwt beam="2">  1       -2 0.22767412E-02 0.27660002E+03</pdfrwt>
<totfact> 0.11303003E+04</totfact>
</mgrwt>
</event>
<event>
 9    1  0.2051157E-002  0.2745704E+03  0.7818608E-02  0.1098692E+00
          1   -1    0    0  501    0  0.00000000000E+00  0.00000000000E+00  0.24789603631E+04  0.24789603631E+04  0.00000000000E+00 0.  1.
         -1   -1    0    0    0  501 -0.00000000000E+00 -0.00000000000E+00 -0.76028777479E+01  0.76028777479E+01  0.00000000000E+00 0.  1.
         36    2    1    2    0    0  0.00000000000E+00  0.00000000000E+00  0.24713574853E+04  0.24865632408E+04  0.27457044694E+03 0.  0.
         25    2    3    3    0    0 -0.52431833660E+02 -0.21479324634E+02  0.11853939163E+04  0.11932623875E+04  0.12452280921E+03 0.  0.
         25    2    3    3    0    0  0.52431833660E+02  0.21479324634E+02  0.12859635690E+04  0.12933008533E+04  0.12535684193E+03 0.  0.
          5    1    4    4  502    0 -0.42757850614E+02 -0.71968408504E+02  0.64990010695E+03  0.65528613950E+03  0.47000000000E+01 0. -1.
         -5    1    4    4    0  502 -0.96739830461E+01  0.50489083869E+02  0.53549380938E+03  0.53797624801E+03  0.47000000000E+01 0. -1.
          5    1    5    5  503    0  0.53314264614E+02 -0.36315207312E+02  0.96318020534E+03  0.96534936839E+03  0.47000000000E+01 0.  1.
         -5    1    5    5    0  503 -0.88243095370E+00  0.57794531946E+02  0.32278336367E+03  0.32795148494E+03  0.47000000000E+01 0.  1.
<mgrwt>
<rscale>  0 0.27457045E+03</rscale>
<asrwt>0</asrwt>
<pdfrwt beam="1">  1        1 0.38137787E+00 0.27457045E+03</pdfrwt>
<pdfrwt beam="2">  1       -1 0.11696755E-02 0.27457045E+03</pdfrwt>
<totfact> 0.24543208E+03</totfact>
</mgrwt>
</event>
<event>
 9    1  0.2051157E-002  0.2772377E+03  0.7818608E-02  0.1097207E+00
         -2   -1    0    0    0  501 -0.00000000000E+00  0.00000000000E+00  0.39205434444E+02  0.39205434444E+02  0.00000000000E+00 0.  1.
          2   -1    0    0  501    0  0.00000000000E+00 -0.00000000000E+00 -0.49011547084E+03  0.49011547084E+03  0.00000000000E+00 0.  1.
         36    2    1    2    0    0  0.00000000000E+00 -0.35527136788E-14 -0.45091003640E+03  0.52932090529E+03  0.27723773165E+03 0.  0.
         25    2    3    3    0    0 -0.53866404366E+02  0.18740374871E+02 -0.21373690740E+03  0.25297841175E+03  0.12272660696E+03 0.  0.
         25    2    3    3    0    0  0.53866404366E+02 -0.18740374871E+02 -0.23717312899E+03  0.27634249354E+03  0.12985102790E+03 0.  0.
          5    1    4    4  502    0 -0.64456114025E+02 -0.25415851605E+02 -0.57350237547E+02  0.90064953754E+02  0.47000000000E+01 0. -1.
         -5    1    4    4    0  502  0.10589709659E+02  0.44156226476E+02 -0.15638666985E+03  0.16291345799E+03  0.47000000000E+01 0. -1.
          5    1    5    5  503    0  0.36466935435E+02 -0.59525660994E+02 -0.55580932916E+02  0.89355871663E+02  0.47000000000E+01 0.  1.
         -5    1    5    5    0  503  0.17399468931E+02  0.40785286123E+02 -0.18159219608E+03  0.18698662187E+03  0.47000000000E+01 0.  1.
<mgrwt>
<rscale>  0 0.27723773E+03</rscale>
<asrwt>0</asrwt>
<pdfrwt beam="1">  1        2 0.75402380E-01 0.27723773E+03</pdfrwt>
<pdfrwt beam="2">  1       -2 0.60316053E-02 0.27723773E+03</pdfrwt>
<totfact> 0.92973179E+03</totfact>
</mgrwt>
</event>
<event>
 9    1  0.2051157E-002  0.2750259E+03  0.7818608E-02  0.1098437E+00
          1   -1    0    0  501    0  0.00000000000E+00  0.00000000000E+00  0.11739955121E+04  0.11739955121E+04  0.00000000000E+00 0. -1.
         -1   -1    0    0    0  501 -0.00000000000E+00 -0.00000000000E+00 -0.16107229228E+02  0.16107229228E+02  0.00000000000E+00 0. -1.
         36    2    1    2    0    0  0.00000000000E+00  0.00000000000E+00  0.11578882829E+04  0.11901027414E+04  0.27502592479E+03 0.  0.
         25    2    3    3    0    0 -0.52802160192E+02 -0.83414971303E+01  0.53999601163E+03  0.55721531851E+03  0.12663163078E+03 0.  0.
         25    2    3    3    0    0  0.52802160192E+02  0.83414971303E+01  0.61789227127E+03  0.63288742284E+03  0.12608720158E+03 0.  0.
          5    1    4    4  502    0 -0.44373559912E+02  0.39755503723E+02  0.45634303602E+03  0.46023968692E+03  0.47000000000E+01 0. -1.
         -5    1    4    4    0  502 -0.84286002798E+01 -0.48097000854E+02  0.83652975613E+02  0.96975631592E+02  0.47000000000E+01 0. -1.
          5    1    5    5  503    0 -0.37793873662E+02  0.10122622802E+02  0.29026513823E+03  0.29292795164E+03  0.47000000000E+01 0. -1.
         -5    1    5    5    0  503  0.90596033855E+02 -0.17811256721E+01  0.32762713304E+03  0.33995947120E+03  0.47000000000E+01 0. -1.
<mgrwt>
<rscale>  0 0.27502592E+03</rscale>
<asrwt>0</asrwt>
<pdfrwt beam="1">  1        1 0.18061463E+00 0.27502592E+03</pdfrwt>
<pdfrwt beam="2">  1       -1 0.24780362E-02 0.27502592E+03</pdfrwt>
<totfact> 0.59744606E+03</totfact>
</mgrwt>
</event>
<event>
 9    1  0.2051157E-002  0.2736980E+03  0.7818608E-02  0.1099182E+00
          2   -1    0    0  501    0  0.00000000000E+00  0.00000000000E+00  0.33305211188E+03  0.33305211188E+03  0.00000000000E+00 0.  1.
         -2   -1    0    0    0  501 -0.00000000000E+00 -0.00000000000E+00 -0.56230400684E+02  0.56230400684E+02  0.00000000000E+00 0.  1.
         36    2    1    2    0    0  0.71054273576E-14  0.00000000000E+00  0.27682171120E+03  0.38928251256E+03  0.27369803579E+03 0.  0.
         25    2    3    3    0    0 -0.24360029864E+02  0.50621528101E+02  0.13674221321E+03  0.19320081713E+03  0.12438718866E+03 0.  0.
         25    2    3    3    0    0  0.24360029864E+02 -0.50621528101E+02  0.14007949798E+03  0.19608169544E+03  0.12517913312E+03 0.  0.
          5    1    4    4  502    0 -0.47473012133E+02  0.57374313820E+02  0.14835116102E+03  0.16605919349E+03  0.47000000000E+01 0. -1.
         -5    1    4    4    0  502  0.23112982269E+02 -0.67527857193E+01 -0.11608947807E+02  0.27141623635E+02  0.47000000000E+01 0. -1.
          5    1    5    5  503    0  0.13762675356E+02 -0.45214172388E+02  0.16302970771E+03  0.16980726785E+03  0.47000000000E+01 0. -1.
         -5    1    5    5    0  503  0.10597354508E+02 -0.54073557130E+01 -0.22950209729E+02  0.26274427586E+02  0.47000000000E+01 0. -1.
<mgrwt>
<rscale>  0 0.27369804E+03</rscale>
<asrwt>0</asrwt>
<pdfrwt beam="1">  1        2 0.51238785E-01 0.27369804E+03</pdfrwt>
<pdfrwt beam="2">  1       -2 0.86508311E-02 0.27369804E+03</pdfrwt>
<totfact> 0.80927605E+03</totfact>
</mgrwt>
</event>
<event>
 9    1  0.2051157E-002  0.2747691E+03  0.7818608E-02  0.1098581E+00
         -2   -1    0    0    0  501 -0.00000000000E+00  0.00000000000E+00  0.90077487261E+02  0.90077487261E+02  0.00000000000E+00 0.  1.
          2   -1    0    0  501    0  0.00000000000E+00 -0.00000000000E+00 -0.20953649773E+03  0.20953649773E+03  0.00000000000E+00 0.  1.
         36    2    1    2    0    0 -0.71054273576E-14 -0.14210854715E-13 -0.11945901047E+03  0.29961398499E+03  0.27476914823E+03 0.  0.
         25    2    3    3    0    0 -0.23441067596E+02 -0.55110971566E+02 -0.95252868780E+02  0.15756955900E+03  0.11031026278E+03 0.  0.
         25    2    3    3    0    0  0.23441067596E+02  0.55110971566E+02 -0.24206141692E+02  0.14204442600E+03  0.12650683311E+03 0.  0.
          5    1    4    4  502    0 -0.55304456479E+02 -0.69941831446E+02 -0.60047614755E+02  0.10760227103E+03  0.47000000000E+01 0. -1.
         -5    1    4    4    0  502  0.31863388883E+02  0.14830859881E+02 -0.35205254024E+02  0.49967287968E+02  0.47000000000E+01 0. -1.
          5    1    5    5  503    0 -0.44648494419E+00 -0.19842950560E+02 -0.54052932527E+02  0.57773277131E+02  0.47000000000E+01 0.  1.
         -5    1    5    5    0  503  0.23887552540E+02  0.74953922126E+02  0.29846790834E+02  0.84271148868E+02  0.47000000000E+01 0.  1.
<mgrwt>
<rscale>  0 0.27476915E+03</rscale>
<asrwt>0</asrwt>
<pdfrwt beam="1">  1        2 0.32236384E-01 0.27476915E+03</pdfrwt>
<pdfrwt beam="2">  1       -2 0.13858075E-01 0.27476915E+03</pdfrwt>
<totfact> 0.62740804E+03</totfact>
</mgrwt>
</event>
<event>
 9    1  0.2051157E-002  0.2750593E+03  0.7818608E-02  0.1098418E+00
          2   -1    0    0  501    0  0.00000000000E+00  0.00000000000E+00  0.12628400322E+04  0.12628400322E+04  0.00000000000E+00 0. -1.
         -2   -1    0    0    0  501 -0.00000000000E+00 -0.00000000000E+00 -0.14977671831E+02  0.14977671831E+02  0.00000000000E+00 0. -1.
         36    2    1    2    0    0  0.00000000000E+00  0.00000000000E+00  0.12478623604E+04  0.12778177040E+04  0.27505929235E+03 0.  0.
         25    2    3    3    0    0  0.32437864225E+02  0.67360285465E+01  0.85181847862E+03  0.86165602188E+03  0.12553402090E+03 0.  0.
         25    2    3    3    0    0 -0.32437864225E+02 -0.67360285465E+01  0.39604388175E+03  0.41616168215E+03  0.12345930627E+03 0.  0.
          5    1    4    4  502    0  0.34508144897E+02 -0.33851751780E+02  0.75484488452E+03  0.75640573957E+03  0.47000000000E+01 0.  1.
         -5    1    4    4    0  502 -0.20702806717E+01  0.40587780326E+02  0.96973594098E+02  0.10525028231E+03  0.47000000000E+01 0.  1.
          5    1    5    5  503    0 -0.18034279175E+02 -0.40402946649E+02  0.36563312357E+03  0.36833042825E+03  0.47000000000E+01 0. -1.
         -5    1    5    5    0  503 -0.14403585050E+02  0.33666918102E+02  0.30410758175E+02  0.47831253899E+02  0.47000000000E+01 0. -1.
<mgrwt>
<rscale>  0 0.27505929E+03</rscale>
<asrwt>0</asrwt>
<pdfrwt beam="1">  1        2 0.19428300E+00 0.27505929E+03</pdfrwt>
<pdfrwt beam="2">  1       -2 0.23042582E-02 0.27505929E+03</pdfrwt>
<totfact> 0.11532413E+04</totfact>
</mgrwt>
</event>
<event>
 9    1  0.2051157E-002  0.2746585E+03  0.7818608E-02  0.1098643E+00
         -1   -1    0    0    0  501 -0.00000000000E+00  0.00000000000E+00  0.23408663159E+02  0.23408663159E+02  0.00000000000E+00 0. -1.
          1   -1    0    0  501    0  0.00000000000E+00 -0.00000000000E+00 -0.80565591524E+03  0.80565591524E+03  0.00000000000E+00 0. -1.
         36    2    1    2    0    0  0.00000000000E+00  0.00000000000E+00 -0.78224725208E+03  0.82906457840E+03  0.27465853667E+03 0.  0.
         25    2    3    3    0    0  0.15800329260E+02  0.35820554595E+02 -0.24570761546E+03  0.27693058021E+03  0.12159585284E+03 0.  0.
         25    2    3    3    0    0 -0.15800329260E+02 -0.35820554595E+02 -0.53653963663E+03  0.55213399818E+03  0.12427553156E+03 0.  0.
          5    1    4    4  502    0  0.60374558413E+02  0.30068694722E+02 -0.20587222037E+03  0.21669027396E+03  0.47000000000E+01 0. -1.
         -5    1    4    4    0  502 -0.44574229153E+02  0.57518598731E+01 -0.39835395081E+02  0.60240306257E+02  0.47000000000E+01 0. -1.
          5    1    5    5  503    0 -0.61681339228E+02 -0.21403524239E+02 -0.16572405435E+03  0.17818319407E+03  0.47000000000E+01 0. -1.
         -5    1    5    5    0  503  0.45881009968E+02 -0.14417030356E+02 -0.37081558227E+03  0.37395080411E+03  0.47000000000E+01 0. -1.
<mgrwt>
<rscale>  0 0.27465854E+03</rscale>
<asrwt>0</asrwt>
<pdfrwt beam="1">  1        1 0.12394707E+00 0.27465854E+03</pdfrwt>
<pdfrwt beam="2">  1       -1 0.36013325E-02 0.27465854E+03</pdfrwt>
<totfact> 0.65419966E+03</totfact>
</mgrwt>
</event>
<event>
 9    1  0.2051157E-002  0.2732252E+03  0.7818608E-02  0.1099448E+00
          2   -1    0    0  501    0  0.00000000000E+00  0.00000000000E+00  0.79441125859E+03  0.79441125859E+03  0.00000000000E+00 0.  1.
         -2   -1    0    0    0  501 -0.00000000000E+00 -0.00000000000E+00 -0.23492871068E+02  0.23492871068E+02  0.00000000000E+00 0.  1.
         36    2    1    2    0    0  0.00000000000E+00  0.00000000000E+00  0.77091838752E+03  0.81790412966E+03  0.27322519117E+03 0.  0.
         25    2    3    3    0    0  0.41006179920E+02 -0.30787490643E+02  0.37694231647E+03  0.40147510687E+03  0.12832527079E+03 0.  0.
         25    2    3    3    0    0 -0.41006179920E+02  0.30787490643E+02  0.39397607105E+03  0.41642902278E+03  0.12476622172E+03 0.  0.
          5    1    4    4  502    0  0.43866758132E+02 -0.78022237811E+02  0.22242177296E+03  0.23980262123E+03  0.47000000000E+01 0. -1.
         -5    1    4    4    0  502 -0.28605782123E+01  0.47234747168E+02  0.15452054351E+03  0.16167248565E+03  0.47000000000E+01 0. -1.
          5    1    5    5  503    0 -0.43065053014E+02 -0.42629130811E+02  0.19650729102E+03  0.20569163087E+03  0.47000000000E+01 0. -1.
         -5    1    5    5    0  503  0.20588730940E+01  0.73416621454E+02  0.19746878003E+03  0.21073739192E+03  0.47000000000E+01 0. -1.
<mgrwt>
<rscale>  0 0.27322519E+03</rscale>
<asrwt>0</asrwt>
<pdfrwt beam="1">  1        2 0.12221710E+00 0.27322519E+03</pdfrwt>
<pdfrwt beam="2">  1       -2 0.36142885E-02 0.27322519E+03</pdfrwt>
<totfact> 0.11421206E+04</totfact>
</mgrwt>
</event>
<event>
 9    1  0.2051157E-002  0.2759792E+03  0.7818608E-02  0.1097905E+00
          3   -1    0    0  501    0  0.00000000000E+00  0.00000000000E+00  0.67609474336E+02  0.67609474336E+02  0.00000000000E+00 0. -1.
         -3   -1    0    0    0  501 -0.00000000000E+00 -0.00000000000E+00 -0.28163410313E+03  0.28163410313E+03  0.00000000000E+00 0. -1.
         36    2    1    2    0    0  0.71054273576E-14  0.00000000000E+00 -0.21402462879E+03  0.34924357747E+03  0.27597922869E+03 0.  0.
         25    2    3    3    0    0 -0.12715161410E+02  0.50061443754E+02 -0.13536295912E+03  0.19256171240E+03  0.12684265410E+03 0.  0.
         25    2    3    3    0    0  0.12715161410E+02 -0.50061443754E+02 -0.78661669672E+02  0.15668186507E+03  0.12527459872E+03 0.  0.
          5    1    4    4  502    0 -0.64695235391E+02  0.14016040784E+02 -0.38331319302E+02  0.76637477262E+02  0.47000000000E+01 0. -1.
         -5    1    4    4    0  502  0.51980073981E+02  0.36045402970E+02 -0.97031639820E+02  0.11592423514E+03  0.47000000000E+01 0. -1.
          5    1    5    5  503    0  0.23591603684E+02 -0.74891836263E+02 -0.58870030434E+01  0.78880274518E+02  0.47000000000E+01 0. -1.
         -5    1    5    5    0  503 -0.10876442273E+02  0.24830392510E+02 -0.72774666629E+02  0.77801590547E+02  0.47000000000E+01 0. -1.
<mgrwt>
<rscale>  0 0.27597923E+03</rscale>
<asrwt>0</asrwt>
<pdfrwt beam="1">  1        3 0.10401458E-01 0.27597923E+03</pdfrwt>
<pdfrwt beam="2">  1       -3 0.43328323E-01 0.27597923E+03</pdfrwt>
<totfact> 0.93343875E+02</totfact>
</mgrwt>
</event>
<event>
 9    1  0.2051157E-002  0.2749664E+03  0.7818608E-02  0.1098470E+00
         -2   -1    0    0    0  501 -0.00000000000E+00  0.00000000000E+00  0.66610424318E+03  0.66610424318E+03  0.00000000000E+00 0.  1.
          2   -1    0    0  501    0  0.00000000000E+00 -0.00000000000E+00 -0.28376392770E+02  0.28376392770E+02  0.00000000000E+00 0.  1.
         36    2    1    2    0    0  0.71054273576E-14  0.71054273576E-14  0.63772785041E+03  0.69448063595E+03  0.27496643890E+03 0.  0.
         25    2    3    3    0    0 -0.43624359148E+01  0.39373955216E+02  0.19708358758E+03  0.23490094216E+03  0.12152025733E+03 0.  0.
         25    2    3    3    0    0  0.43624359148E+01 -0.39373955216E+02  0.44064426283E+03  0.45957969379E+03  0.12440574495E+03 0.  0.
          5    1    4    4  502    0 -0.36412962943E+02 -0.30971672094E+02  0.54532439345E+02  0.72670663156E+02  0.47000000000E+01 0. -1.
         -5    1    4    4    0  502  0.32050527028E+02  0.70345627311E+02  0.14255114823E+03  0.16223027901E+03  0.47000000000E+01 0. -1.
          5    1    5    5  503    0 -0.39071030121E+02  0.15230502385E+02  0.29516334092E+03  0.29816438658E+03  0.47000000000E+01 0.  1.
         -5    1    5    5    0  503  0.43433466036E+02 -0.54604457601E+02  0.14548092191E+03  0.16141530721E+03  0.47000000000E+01 0.  1.
<mgrwt>
<rscale>  0 0.27496644E+03</rscale>
<asrwt>0</asrwt>
<pdfrwt beam="1">  1        2 0.43655994E-02 0.27496644E+03</pdfrwt>
<pdfrwt beam="2">  1       -2 0.10247756E+00 0.27496644E+03</pdfrwt>
<totfact> 0.15248251E+03</totfact>
</mgrwt>
</event>
<event>
 9    1  0.2051157E-002  0.2774104E+03  0.7818608E-02  0.1097112E+00
         -2   -1    0    0    0  501 -0.00000000000E+00  0.00000000000E+00  0.11039912663E+03  0.11039912663E+03  0.00000000000E+00 0.  1.
          2   -1    0    0  501    0  0.00000000000E+00 -0.00000000000E+00 -0.17426893315E+03  0.17426893315E+03  0.00000000000E+00 0.  1.
         36    2    1    2    0    0 -0.35527136788E-14  0.00000000000E+00 -0.63869806517E+02  0.28466805978E+03  0.27741043974E+03 0.  0.
         25    2    3    3    0    0  0.19958036202E+02 -0.13074627260E+02 -0.76048733443E+02  0.14908743460E+03  0.12599358797E+03 0.  0.
         25    2    3    3    0    0 -0.19958036202E+02  0.13074627260E+02  0.12178926925E+02  0.13558062518E+03  0.13290790261E+03 0.  0.
          5    1    4    4  502    0  0.19891851482E+02 -0.15021773140E+02  0.32047572030E+02  0.40871460662E+02  0.47000000000E+01 0.  1.
         -5    1    4    4    0  502  0.66184719827E-01  0.19471458800E+01 -0.10809630547E+03  0.10821597393E+03  0.47000000000E+01 0.  1.
          5    1    5    5  503    0 -0.12010914160E+02  0.61290672973E+02  0.44475285097E+02  0.76817638840E+02  0.47000000000E+01 0.  1.
         -5    1    5    5    0  503 -0.79471220422E+01 -0.48216045713E+02 -0.32296358172E+02  0.58762986345E+02  0.47000000000E+01 0.  1.
<mgrwt>
<rscale>  0 0.27741044E+03</rscale>
<asrwt>0</asrwt>
<pdfrwt beam="1">  1        2 0.26810605E-01 0.27741044E+03</pdfrwt>
<pdfrwt beam="2">  1       -2 0.16984481E-01 0.27741044E+03</pdfrwt>
<totfact> 0.54874848E+03</totfact>
</mgrwt>
</event>
<event>
 9    1  0.2051157E-002  0.2764673E+03  0.7818608E-02  0.1097634E+00
         -2   -1    0    0    0  501 -0.00000000000E+00  0.00000000000E+00  0.32333358691E+02  0.32333358691E+02  0.00000000000E+00 0. -1.
          2   -1    0    0  501    0  0.00000000000E+00 -0.00000000000E+00 -0.59098546916E+03  0.59098546916E+03  0.00000000000E+00 0. -1.
         36    2    1    2    0    0  0.00000000000E+00  0.00000000000E+00 -0.55865211047E+03  0.62331882785E+03  0.27646732288E+03 0.  0.
         25    2    3    3    0    0 -0.49394925918E+02  0.13240629135E+02 -0.20390954157E+03  0.24434727471E+03  0.12454443604E+03 0.  0.
         25    2    3    3    0    0  0.49394925918E+02 -0.13240629135E+02 -0.35474256890E+03  0.37897155314E+03  0.12313397149E+03 0.  0.
          5    1    4    4  502    0 -0.23321485865E+02  0.28346169865E+02  0.11576784816E+01  0.37024684583E+02  0.47000000000E+01 0.  1.
         -5    1    4    4    0  502 -0.26073440053E+02 -0.15105540731E+02 -0.20506722005E+03  0.20732259013E+03  0.47000000000E+01 0.  1.
          5    1    5    5  503    0  0.31187025944E+02 -0.11356693215E+02 -0.11843786554E+02  0.35552360652E+02  0.47000000000E+01 0.  1.
         -5    1    5    5    0  503  0.18207899975E+02 -0.18839359198E+01 -0.34289878234E+03  0.34341919248E+03  0.47000000000E+01 0.  1.
<mgrwt>
<rscale>  0 0.27646732E+03</rscale>
<asrwt>0</asrwt>
<pdfrwt beam="1">  1        2 0.90920848E-01 0.27646732E+03</pdfrwt>
<pdfrwt beam="2">  1       -2 0.49743625E-02 0.27646732E+03</pdfrwt>
<totfact> 0.10089518E+04</totfact>
</mgrwt>
</event>
<event>
 9    1  0.2051157E-002  0.2790564E+03  0.7818608E-02  0.1096205E+00
          2   -1    0    0  501    0  0.00000000000E+00  0.00000000000E+00  0.63226685903E+03  0.63226685903E+03  0.00000000000E+00 0. -1.
         -2   -1    0    0    0  501 -0.00000000000E+00 -0.00000000000E+00 -0.30790994093E+02  0.30790994093E+02  0.00000000000E+00 0. -1.
         36    2    1    2    0    0  0.00000000000E+00 -0.71054273576E-14  0.60147586493E+03  0.66305785312E+03  0.27905644677E+03 0.  0.
         25    2    3    3    0    0 -0.64175109838E+01 -0.32063047487E+02  0.32691580250E+03  0.35444126435E+03  0.13298663274E+03 0.  0.
         25    2    3    3    0    0  0.64175109838E+01  0.32063047487E+02  0.27456006243E+03  0.30861658877E+03  0.13708299500E+03 0.  0.
          5    1    4    4  502    0 -0.15556150885E+02  0.27612848356E+02  0.26815813478E+03  0.27006543369E+03  0.47000000000E+01 0. -1.
         -5    1    4    4    0  502  0.91386399010E+01 -0.59675895843E+02  0.58757667724E+02  0.84375830664E+02  0.47000000000E+01 0. -1.
          5    1    5    5  503    0 -0.80871092648E+01 -0.53207112210E+02  0.11510293841E+03  0.12715020471E+03  0.47000000000E+01 0. -1.
         -5    1    5    5    0  503  0.14504620249E+02  0.85270159697E+02  0.15945712402E+03  0.18146638406E+03  0.47000000000E+01 0. -1.
<mgrwt>
<rscale>  0 0.27905645E+03</rscale>
<asrwt>0</asrwt>
<pdfrwt beam="1">  1        2 0.97271815E-01 0.27905645E+03</pdfrwt>
<pdfrwt beam="2">  1       -2 0.47370765E-02 0.27905645E+03</pdfrwt>
<totfact> 0.10046207E+04</totfact>
</mgrwt>
</event>
<event>
 9    1  0.2051157E-002  0.2751285E+03  0.7818608E-02  0.1098380E+00
         -1   -1    0    0    0  501 -0.00000000000E+00  0.00000000000E+00  0.11408288221E+02  0.11408288221E+02  0.00000000000E+00 0.  1.
          1   -1    0    0  501    0  0.00000000000E+00 -0.00000000000E+00 -0.16587868323E+04  0.16587868323E+04  0.00000000000E+00 0.  1.
         36    2    1    2    0    0  0.71054273576E-14  0.71054273576E-14 -0.16473785441E+04  0.16701951206E+04  0.27512846658E+03 0.  0.
         25    2    3    3    0    0  0.24011244698E+02  0.39719657405E+02 -0.61514282426E+03  0.62963183764E+03  0.12602129060E+03 0.  0.
         25    2    3    3    0    0 -0.24011244698E+02 -0.39719657405E+02 -0.10322357199E+04  0.10405632829E+04  0.12291124172E+03 0.  0.
          5    1    4    4  502    0  0.65258977419E+02  0.10187117850E+02 -0.49094739191E+03  0.49539271607E+03  0.47000000000E+01 0. -1.
         -5    1    4    4    0  502 -0.41247732721E+02  0.29532539555E+02 -0.12419543234E+03  0.13423912158E+03  0.47000000000E+01 0. -1.
          5    1    5    5  503    0 -0.16162073740E+02 -0.83137208075E+02 -0.58243040716E+03  0.58857478470E+03  0.47000000000E+01 0.  1.
         -5    1    5    5    0  503 -0.78491709583E+01  0.43417550670E+02 -0.44980531271E+03  0.45198849823E+03  0.47000000000E+01 0.  1.
<mgrwt>
<rscale>  0 0.27512847E+03</rscale>
<asrwt>0</asrwt>
<pdfrwt beam="1">  1        1 0.25519806E+00 0.27512847E+03</pdfrwt>
<pdfrwt beam="2">  1       -1 0.17551207E-02 0.27512847E+03</pdfrwt>
<totfact> 0.46688812E+03</totfact>
</mgrwt>
</event>
<event>
 9    1  0.2051157E-002  0.2840738E+03  0.7818608E-02  0.1093484E+00
         -1   -1    0    0    0  501 -0.00000000000E+00  0.00000000000E+00  0.26292685223E+02  0.26292685223E+02  0.00000000000E+00 0.  1.
          1   -1    0    0  501    0  0.00000000000E+00 -0.00000000000E+00 -0.76730392081E+03  0.76730392081E+03  0.00000000000E+00 0.  1.
         36    2    1    2    0    0 -0.71054273576E-14  0.00000000000E+00 -0.74101123558E+03  0.79359660603E+03  0.28407379647E+03 0.  0.
         25    2    3    3    0    0  0.39211986691E+02  0.20266341750E+02 -0.23964257157E+03  0.27388363034E+03  0.12504149851E+03 0.  0.
         25    2    3    3    0    0 -0.39211986691E+02 -0.20266341750E+02 -0.50136866401E+03  0.51971297569E+03  0.12954819697E+03 0.  0.
          5    1    4    4  502    0  0.64431452002E+02  0.58078254156E+02 -0.15384738373E+03  0.17667937936E+03  0.47000000000E+01 0. -1.
         -5    1    4    4    0  502 -0.25219465311E+02 -0.37811912407E+02 -0.85795187843E+02  0.97204250974E+02  0.47000000000E+01 0. -1.
          5    1    5    5  503    0 -0.46248750407E+02 -0.51863369078E+02 -0.13519026702E+03  0.15207647505E+03  0.47000000000E+01 0. -1.
         -5    1    5    5    0  503  0.70367637154E+01  0.31597027328E+02 -0.36617839699E+03  0.36763650064E+03  0.47000000000E+01 0. -1.
<mgrwt>
<rscale>  0 0.28407380E+03</rscale>
<asrwt>0</asrwt>
<pdfrwt beam="1">  1        1 0.11804677E+00 0.28407380E+03</pdfrwt>
<pdfrwt beam="2">  1       -1 0.40450281E-02 0.28407380E+03</pdfrwt>
<totfact> 0.59359744E+03</totfact>
</mgrwt>
</event>
<event>
 9    1  0.2051157E-002  0.2747984E+03  0.7818608E-02  0.1098564E+00
          2   -1    0    0  501    0  0.00000000000E+00  0.00000000000E+00  0.16492691883E+04  0.16492691883E+04  0.00000000000E+00 0.  1.
         -2   -1    0    0    0  501 -0.00000000000E+00 -0.00000000000E+00 -0.11446605359E+02  0.11446605359E+02  0.00000000000E+00 0.  1.
         36    2    1    2    0    0 -0.71054273576E-14 -0.71054273576E-14  0.16378225830E+04  0.16607157937E+04  0.27479835174E+03 0.  0.
         25    2    3    3    0    0  0.79432749742E+01  0.42684575833E+02  0.10294234431E+04  0.10379648691E+04  0.12559210018E+03 0.  0.
         25    2    3    3    0    0 -0.79432749742E+01 -0.42684575833E+02  0.60839913981E+03  0.62275092454E+03  0.12563491578E+03 0.  0.
          5    1    4    4  502    0  0.65933710649E+02  0.20036638679E+02  0.61468297446E+03  0.61855150973E+03  0.47000000000E+01 0.  1.
         -5    1    4    4    0  502 -0.57990435675E+02  0.22647937154E+02  0.41474046868E+03  0.41941335940E+03  0.47000000000E+01 0.  1.
          5    1    5    5  503    0 -0.12622644347E+02 -0.75353719933E+02  0.55164555842E+03  0.55693125822E+03  0.47000000000E+01 0. -1.
         -5    1    5    5    0  503  0.46793693726E+01  0.32669144099E+02  0.56753581395E+02  0.65819666324E+02  0.47000000000E+01 0. -1.
<mgrwt>
<rscale>  0 0.27479835E+03</rscale>
<asrwt>0</asrwt>
<pdfrwt beam="1">  1        2 0.25373353E+00 0.27479835E+03</pdfrwt>
<pdfrwt beam="2">  1       -2 0.17610175E-02 0.27479835E+03</pdfrwt>
<totfact> 0.10594187E+04</totfact>
</mgrwt>
</event>
<event>
 9    1  0.2051157E-002  0.2765212E+03  0.7818608E-02  0.1097604E+00
         -1   -1    0    0    0  501 -0.00000000000E+00  0.00000000000E+00  0.13400733849E+02  0.13400733849E+02  0.00000000000E+00 0.  1.
          1   -1    0    0  501    0  0.00000000000E+00 -0.00000000000E+00 -0.14264885443E+04  0.14264885443E+04  0.00000000000E+00 0.  1.
         36    2    1    2    0    0  0.00000000000E+00  0.00000000000E+00 -0.14130878105E+04  0.14398892782E+04  0.27652119862E+03 0.  0.
         25    2    3    3    0    0 -0.34799315963E+02  0.55363311740E+02 -0.75067083129E+03  0.76272111721E+03  0.11815547811E+03 0.  0.
         25    2    3    3    0    0  0.34799315963E+02 -0.55363311740E+02 -0.66241697918E+03  0.67716816096E+03  0.12443622958E+03 0.  0.
          5    1    4    4  502    0 -0.35845767681E+02  0.91211397606E+02 -0.58240879331E+03  0.59061538300E+03  0.47000000000E+01 0. -1.
         -5    1    4    4    0  502  0.10464517181E+01 -0.35848085866E+02 -0.16826203798E+03  0.17210573420E+03  0.47000000000E+01 0. -1.
          5    1    5    5  503    0  0.60603205586E+02 -0.50861358298E+02 -0.21809370224E+03  0.23204865708E+03  0.47000000000E+01 0.  1.
         -5    1    5    5    0  503 -0.25803889623E+02 -0.45019534416E+01 -0.44432327694E+03  0.44511950388E+03  0.47000000000E+01 0.  1.
<mgrwt>
<rscale>  0 0.27652120E+03</rscale>
<asrwt>0</asrwt>
<pdfrwt beam="1">  1        1 0.21945985E+00 0.27652120E+03</pdfrwt>
<pdfrwt beam="2">  1       -1 0.20616507E-02 0.27652120E+03</pdfrwt>
<totfact> 0.52546280E+03</totfact>
</mgrwt>
</event>
<event>
 9    1  0.2051157E-002  0.2753281E+03  0.7818608E-02  0.1098268E+00
         -2   -1    0    0    0  501 -0.00000000000E+00  0.00000000000E+00  0.22890330435E+02  0.22890330435E+02  0.00000000000E+00 0. -1.
          2   -1    0    0  501    0  0.00000000000E+00 -0.00000000000E+00 -0.82792141763E+03  0.82792141763E+03  0.00000000000E+00 0. -1.
         36    2    1    2    0    0  0.00000000000E+00  0.00000000000E+00 -0.80503108719E+03  0.85081174806E+03  0.27532813023E+03 0.  0.
         25    2    3    3    0    0 -0.41966533675E+02 -0.11845979712E+02 -0.53298689306E+03  0.54887007251E+03  0.12361962279E+03 0.  0.
         25    2    3    3    0    0  0.41966533675E+02  0.11845979712E+02 -0.27204419413E+03  0.30194167555E+03  0.12352819391E+03 0.  0.
          5    1    4    4  502    0 -0.18527105245E+02 -0.40725217107E+02 -0.48903927317E+03  0.49110416170E+03  0.47000000000E+01 0. -1.
         -5    1    4    4    0  502 -0.23439428430E+02  0.28879237394E+02 -0.43947619889E+02  0.57765910808E+02  0.47000000000E+01 0. -1.
          5    1    5    5  503    0  0.56288389566E+01 -0.49069434930E+02 -0.17336208047E+03  0.18032191830E+03  0.47000000000E+01 0. -1.
         -5    1    5    5    0  503  0.36337694718E+02  0.60915414642E+02 -0.98682113660E+02  0.12161975726E+03  0.47000000000E+01 0. -1.
<mgrwt>
<rscale>  0 0.27532813E+03</rscale>
<asrwt>0</asrwt>
<pdfrwt beam="1">  1        2 0.12737252E+00 0.27532813E+03</pdfrwt>
<pdfrwt beam="2">  1       -2 0.35215895E-02 0.27532813E+03</pdfrwt>
<totfact> 0.11265754E+04</totfact>
</mgrwt>
</event>
<event>
 9    1  0.2051157E-002  0.2847264E+03  0.7818608E-02  0.1093135E+00
          2   -1    0    0  501    0  0.00000000000E+00  0.00000000000E+00  0.15633731799E+04  0.15633731799E+04  0.00000000000E+00 0.  1.
         -2   -1    0    0    0  501 -0.00000000000E+00 -0.00000000000E+00 -0.12963819112E+02  0.12963819112E+02  0.00000000000E+00 0.  1.
         36    2    1    2    0    0  0.00000000000E+00  0.71054273576E-14  0.15504093608E+04  0.15763369990E+04  0.28472644491E+03 0.  0.
         25    2    3    3    0    0  0.41949268079E+02  0.31376567854E+02  0.99232927100E+03  0.10017461389E+04  0.12662430487E+03 0.  0.
         25    2    3    3    0    0 -0.41949268079E+02 -0.31376567854E+02  0.55808008978E+03  0.57459086012E+03  0.12632117725E+03 0.  0.
          5    1    4    4  502    0  0.12034976423E+02 -0.48158261453E+02  0.28672943475E+03  0.29103250258E+03  0.47000000000E+01 0. -1.
         -5    1    4    4    0  502  0.29914291656E+02  0.79534829307E+02  0.70559983625E+03  0.71071363631E+03  0.47000000000E+01 0. -1.
          5    1    5    5  503    0  0.20436272737E+02  0.36452585361E+02  0.22845734697E+03  0.23229567711E+03  0.47000000000E+01 0. -1.
         -5    1    5    5    0  503 -0.62385540816E+02 -0.67829153214E+02  0.32962274281E+03  0.34229518300E+03  0.47000000000E+01 0. -1.
<mgrwt>
<rscale>  0 0.28472644E+03</rscale>
<asrwt>0</asrwt>
<pdfrwt beam="1">  1        2 0.24051880E+00 0.28472644E+03</pdfrwt>
<pdfrwt beam="2">  1       -2 0.19944349E-02 0.28472644E+03</pdfrwt>
<totfact> 0.98042513E+03</totfact>
</mgrwt>
</event>
<event>
 9    1  0.2051157E-002  0.2777635E+03  0.7818608E-02  0.1096917E+00
          2   -1    0    0  501    0  0.00000000000E+00  0.00000000000E+00  0.20714946480E+04  0.20714946480E+04  0.00000000000E+00 0.  1.
         -2   -1    0    0    0  501 -0.00000000000E+00 -0.00000000000E+00 -0.93112181860E+01  0.93112181860E+01  0.00000000000E+00 0.  1.
         36    2    1    2    0    0  0.71054273576E-14  0.71054273576E-14  0.20621834298E+04  0.20808058662E+04  0.27776348672E+03 0.  0.
         25    2    3    3    0    0 -0.13739697778E+02  0.45143123888E+02  0.12430516021E+04  0.12505278958E+04  0.12812514072E+03 0.  0.
         25    2    3    3    0    0  0.13739697778E+02 -0.45143123888E+02  0.81913182773E+03  0.83027797043E+03  0.12711363443E+03 0.  0.
          5    1    4    4  502    0  0.49787445699E+02 -0.44095573540E+01  0.66162547596E+03  0.66352738782E+03  0.47000000000E+01 0.  1.
         -5    1    4    4    0  502 -0.63527143477E+02  0.49552681242E+02  0.58142612616E+03  0.58700050797E+03  0.47000000000E+01 0.  1.
          5    1    5    5  503    0  0.36654920646E+02 -0.82802763782E+02  0.51286175303E+03  0.52081584905E+03  0.47000000000E+01 0. -1.
         -5    1    5    5    0  503 -0.22915222868E+02  0.37659639894E+02  0.30627007469E+03  0.30946212138E+03  0.47000000000E+01 0. -1.
<mgrwt>
<rscale>  0 0.27776349E+03</rscale>
<asrwt>0</asrwt>
<pdfrwt beam="1">  1        2 0.31869112E+00 0.27776349E+03</pdfrwt>
<pdfrwt beam="2">  1       -2 0.14324967E-02 0.27776349E+03</pdfrwt>
<totfact> 0.85977954E+03</totfact>
</mgrwt>
</event>
<event>
 9    1  0.2051157E-002  0.2759058E+03  0.7818608E-02  0.1097946E+00
          1   -1    0    0  501    0  0.00000000000E+00  0.00000000000E+00  0.31598411065E+03  0.31598411065E+03  0.00000000000E+00 0.  1.
         -1   -1    0    0    0  501 -0.00000000000E+00 -0.00000000000E+00 -0.60227740054E+02  0.60227740054E+02  0.00000000000E+00 0.  1.
         36    2    1    2    0    0 -0.71054273576E-14 -0.14210854715E-13  0.25575637060E+03  0.37621185071E+03  0.27590584537E+03 0.  0.
         25    2    3    3    0    0  0.39961503192E+02  0.47095129900E+02  0.11840556653E+03  0.18142934249E+03  0.12280820467E+03 0.  0.
         25    2    3    3    0    0 -0.39961503192E+02 -0.47095129900E+02  0.13735080407E+03  0.19478250822E+03  0.12353181424E+03 0.  0.
          5    1    4    4  502    0  0.46788191813E+02 -0.24586061718E+02  0.14649654148E+02  0.55048266917E+02  0.47000000000E+01 0. -1.
         -5    1    4    4    0  502 -0.68266886213E+01  0.71681191618E+02  0.10375591238E+03  0.12638107557E+03  0.47000000000E+01 0. -1.
          5    1    5    5  503    0 -0.41925255463E+02 -0.87628456259E+02  0.97471450557E+02  0.13769258174E+03  0.47000000000E+01 0. -1.
         -5    1    5    5    0  503  0.19637522706E+01  0.40533326359E+02  0.39879353514E+02  0.57089926479E+02  0.47000000000E+01 0. -1.
<mgrwt>
<rscale>  0 0.27590585E+03</rscale>
<asrwt>0</asrwt>
<pdfrwt beam="1">  1        1 0.48612939E-01 0.27590585E+03</pdfrwt>
<pdfrwt beam="2">  1       -1 0.92658063E-02 0.27590585E+03</pdfrwt>
<totfact> 0.55927422E+03</totfact>
</mgrwt>
</event>
<event>
 9    1  0.2051157E-002  0.2754779E+03  0.7818608E-02  0.1098185E+00
         -1   -1    0    0    0  501 -0.00000000000E+00  0.00000000000E+00  0.12912706230E+03  0.12912706230E+03  0.00000000000E+00 0.  1.
          1   -1    0    0  501    0  0.00000000000E+00 -0.00000000000E+00 -0.14692524040E+03  0.14692524040E+03  0.00000000000E+00 0.  1.
         36    2    1    2    0    0  0.00000000000E+00  0.17763568394E-14 -0.17798178102E+02  0.27605230271E+03  0.27547794592E+03 0.  0.
         25    2    3    3    0    0  0.51636805338E+02  0.54195632119E+01 -0.26451602430E+01  0.13771431843E+03  0.12752452822E+03 0.  0.
         25    2    3    3    0    0 -0.51636805338E+02 -0.54195632119E+01 -0.15153017859E+02  0.13833798427E+03  0.12732655894E+03 0.  0.
          5    1    4    4  502    0  0.41423483369E+02 -0.30508373016E+02 -0.53546538617E+02  0.74404217598E+02  0.47000000000E+01 0.  1.
         -5    1    4    4    0  502  0.10213321970E+02  0.35927936228E+02  0.50901378374E+02  0.63310100834E+02  0.47000000000E+01 0.  1.
          5    1    5    5  503    0  0.30709627112E+02 -0.19416353349E+02  0.26176452371E+02  0.45026354877E+02  0.47000000000E+01 0. -1.
         -5    1    5    5    0  503 -0.82346432450E+02  0.13996790137E+02 -0.41329470230E+02  0.93311629398E+02  0.47000000000E+01 0. -1.
<mgrwt>
<rscale>  0 0.27547795E+03</rscale>
<asrwt>0</asrwt>
<pdfrwt beam="1">  1        1 0.22603883E-01 0.27547795E+03</pdfrwt>
<pdfrwt beam="2">  1       -1 0.19865702E-01 0.27547795E+03</pdfrwt>
<totfact> 0.44139700E+03</totfact>
</mgrwt>
</event>
<event>
 9    1  0.2051157E-002  0.2739403E+03  0.7818608E-02  0.1099045E+00
         -2   -1    0    0    0  501 -0.00000000000E+00  0.00000000000E+00  0.10743680835E+02  0.10743680835E+02  0.00000000000E+00 0.  1.
          2   -1    0    0  501    0  0.00000000000E+00 -0.00000000000E+00 -0.17462198329E+04  0.17462198329E+04  0.00000000000E+00 0.  1.
         36    2    1    2    0    0 -0.14210854715E-13  0.71054273576E-14 -0.17354761521E+04  0.17569635138E+04  0.27394034791E+03 0.  0.
         25    2    3    3    0    0  0.49315176845E+02  0.43671813511E+01 -0.10292301525E+04  0.10375366218E+04  0.12131148210E+03 0.  0.
         25    2    3    3    0    0 -0.49315176845E+02 -0.43671813511E+01 -0.70624599957E+03  0.71942689201E+03  0.12783028628E+03 0.  0.
          5    1    4    4  502    0 -0.26095014811E+02  0.39560545374E+02 -0.36059061667E+03  0.36372196714E+03  0.47000000000E+01 0. -1.
         -5    1    4    4    0  502  0.75410191656E+02 -0.35193364023E+02 -0.66863953586E+03  0.67381465463E+03  0.47000000000E+01 0. -1.
          5    1    5    5  503    0  0.15480893248E+02  0.49826524461E+02 -0.25732889175E+03  0.26260729069E+03  0.47000000000E+01 0.  1.
         -5    1    5    5    0  503 -0.64796070093E+02 -0.54193705812E+02 -0.44891710783E+03  0.45681960132E+03  0.47000000000E+01 0.  1.
<mgrwt>
<rscale>  0 0.27394035E+03</rscale>
<asrwt>0</asrwt>
<pdfrwt beam="1">  1        2 0.26864944E+00 0.27394035E+03</pdfrwt>
<pdfrwt beam="2">  1       -2 0.16528725E-02 0.27394035E+03</pdfrwt>
<totfact> 0.10335542E+04</totfact>
</mgrwt>
</event>
<event>
 9    1  0.2051157E-002  0.2743924E+03  0.7818608E-02  0.1098792E+00
          2   -1    0    0  501    0  0.00000000000E+00  0.00000000000E+00  0.16014152599E+04  0.16014152599E+04  0.00000000000E+00 0.  1.
         -2   -1    0    0    0  501 -0.00000000000E+00 -0.00000000000E+00 -0.11753847636E+02  0.11753847636E+02  0.00000000000E+00 0.  1.
         36    2    1    2    0    0 -0.35527136788E-14  0.00000000000E+00  0.15896614123E+04  0.16131691076E+04  0.27439235388E+03 0.  0.
         25    2    3    3    0    0  0.17781506126E+02  0.47318053790E+02  0.67921443894E+03  0.69278857428E+03  0.12676188077E+03 0.  0.
         25    2    3    3    0    0 -0.17781506126E+02 -0.47318053790E+02  0.91044697335E+03  0.92038053328E+03  0.12502581567E+03 0.  0.
          5    1    4    4  502    0 -0.16256108656E+02 -0.16870023098E+02  0.48154201508E+03  0.48213448438E+03  0.47000000000E+01 0. -1.
         -5    1    4    4    0  502  0.34037614782E+02  0.64188076889E+02  0.19767242386E+03  0.21065408990E+03  0.47000000000E+01 0. -1.
          5    1    5    5  503    0 -0.73193092046E+01  0.42010079056E+02  0.22624128993E+03  0.23027294738E+03  0.47000000000E+01 0. -1.
         -5    1    5    5    0  503 -0.10462196922E+02 -0.89328132846E+02  0.68420568342E+03  0.69010758590E+03  0.47000000000E+01 0. -1.
<mgrwt>
<rscale>  0 0.27439235E+03</rscale>
<asrwt>0</asrwt>
<pdfrwt beam="1">  1        2 0.24637141E+00 0.27439235E+03</pdfrwt>
<pdfrwt beam="2">  1       -2 0.18082855E-02 0.27439235E+03</pdfrwt>
<totfact> 0.10801526E+04</totfact>
</mgrwt>
</event>
<event>
 9    1  0.2051157E-002  0.2752961E+03  0.7818608E-02  0.1098286E+00
         -1   -1    0    0    0  501 -0.00000000000E+00  0.00000000000E+00  0.25504676945E+02  0.25504676945E+02  0.00000000000E+00 0.  1.
          1   -1    0    0  501    0  0.00000000000E+00 -0.00000000000E+00 -0.74288266693E+03  0.74288266693E+03  0.00000000000E+00 0.  1.
         36    2    1    2    0    0  0.00000000000E+00  0.00000000000E+00 -0.71737798998E+03  0.76838734387E+03  0.27529607646E+03 0.  0.
         25    2    3    3    0    0  0.39140746229E+02 -0.49020617870E+02 -0.35820115394E+03  0.38341073080E+03  0.12149363285E+03 0.  0.
         25    2    3    3    0    0 -0.39140746229E+02  0.49020617870E+02 -0.35917683605E+03  0.38497661307E+03  0.12354745674E+03 0.  0.
          5    1    4    4  502    0  0.13409921250E+02 -0.17895772841E+02  0.58865242895E-01  0.22851217443E+02  0.47000000000E+01 0.  1.
         -5    1    4    4    0  502  0.25730824979E+02 -0.31124845029E+02 -0.35826001918E+03  0.36055951336E+03  0.47000000000E+01 0.  1.
          5    1    5    5  503    0 -0.76243759249E+02  0.23352372264E+02 -0.29978238137E+03  0.31024185774E+03  0.47000000000E+01 0.  1.
         -5    1    5    5    0  503  0.37103013020E+02  0.25668245606E+02 -0.59394454674E+02  0.74734755326E+02  0.47000000000E+01 0.  1.
<mgrwt>
<rscale>  0 0.27529608E+03</rscale>
<asrwt>0</asrwt>
<pdfrwt beam="1">  1        1 0.11428962E+00 0.27529608E+03</pdfrwt>
<pdfrwt beam="2">  1       -1 0.39237973E-02 0.27529608E+03</pdfrwt>
<totfact> 0.65151758E+03</totfact>
</mgrwt>
</event>
<event>
 9    1  0.2051157E-002  0.2747821E+03  0.7818608E-02  0.1098573E+00
         -2   -1    0    0    0  501 -0.00000000000E+00  0.00000000000E+00  0.13174706630E+03  0.13174706630E+03  0.00000000000E+00 0.  1.
          2   -1    0    0  501    0  0.00000000000E+00 -0.00000000000E+00 -0.14327678647E+03  0.14327678647E+03  0.00000000000E+00 0.  1.
         36    2    1    2    0    0 -0.35527136788E-14  0.00000000000E+00 -0.11529720172E+02  0.27502385276E+03  0.27478206845E+03 0.  0.
         25    2    3    3    0    0 -0.44258180920E+01  0.48165027940E+02  0.30370373828E+02  0.13374407143E+03  0.12093659187E+03 0.  0.
         25    2    3    3    0    0  0.44258180920E+01 -0.48165027940E+02 -0.41900094000E+02  0.14127978134E+03  0.12595594847E+03 0.  0.
          5    1    4    4  502    0  0.31043994241E+02 -0.30525100772E+02  0.91887865290E+01  0.44744107472E+02  0.47000000000E+01 0.  1.
         -5    1    4    4    0  502 -0.35469812333E+02  0.78690128712E+02  0.21181587299E+02  0.88999963956E+02  0.47000000000E+01 0.  1.
          5    1    5    5  503    0 -0.16453345954E+02 -0.77566869728E+02  0.76691809498E+01  0.79801241901E+02  0.47000000000E+01 0.  1.
         -5    1    5    5    0  503  0.20879164046E+02  0.29401841789E+02 -0.49569274950E+02  0.61478539434E+02  0.47000000000E+01 0.  1.
<mgrwt>
<rscale>  0 0.27478207E+03</rscale>
<asrwt>0</asrwt>
<pdfrwt beam="1">  1        2 0.22042583E-01 0.27478207E+03</pdfrwt>
<pdfrwt beam="2">  1       -2 0.20268779E-01 0.27478207E+03</pdfrwt>
<totfact> 0.50639910E+03</totfact>
</mgrwt>
</event>
<event>
 9    1  0.2051157E-002  0.2745170E+03  0.7818608E-02  0.1098722E+00
         -2   -1    0    0    0  501 -0.00000000000E+00  0.00000000000E+00  0.20002651825E+03  0.20002651825E+03  0.00000000000E+00 0.  1.
          2   -1    0    0  501    0  0.00000000000E+00 -0.00000000000E+00 -0.94187002018E+02  0.94187002018E+02  0.00000000000E+00 0.  1.
         36    2    1    2    0    0  0.71054273576E-14  0.00000000000E+00  0.10583951623E+03  0.29421352027E+03  0.27451701643E+03 0.  0.
         25    2    3    3    0    0  0.46890874503E+02 -0.19249388771E+02  0.49198519925E+02  0.14599778783E+03  0.12777154068E+03 0.  0.
         25    2    3    3    0    0 -0.46890874503E+02  0.19249388771E+02  0.56640996307E+02  0.14821573244E+03  0.12724153331E+03 0.  0.
          5    1    4    4  502    0 -0.10190185008E+02  0.44462033506E+02  0.38084734083E+02  0.59609137422E+02  0.47000000000E+01 0.  1.
         -5    1    4    4    0  502  0.57081059511E+02 -0.63711422278E+02  0.11113785843E+02  0.86388650408E+02  0.47000000000E+01 0.  1.
          5    1    5    5  503    0 -0.16972380873E+02 -0.32037270305E+02  0.77026937141E+02  0.85262462118E+02  0.47000000000E+01 0. -1.
         -5    1    5    5    0  503 -0.29918493630E+02  0.51286659076E+02 -0.20385940834E+02  0.62953270320E+02  0.47000000000E+01 0. -1.
<mgrwt>
<rscale>  0 0.27451702E+03</rscale>
<asrwt>0</asrwt>
<pdfrwt beam="1">  1        2 0.14490308E-01 0.27451702E+03</pdfrwt>
<pdfrwt beam="2">  1       -2 0.30773310E-01 0.27451702E+03</pdfrwt>
<totfact> 0.39424709E+03</totfact>
</mgrwt>
</event>
<event>
 8    1  0.2051157E-002  0.4715489E+03  0.7818608E-02  0.1021484E+00
          1   -1    0    0  501    0  0.00000000000E+00  0.00000000000E+00  0.49266712404E+02  0.49266712404E+02  0.00000000000E+00 0. -1.
         -1   -1    0    0    0  501 -0.00000000000E+00 -0.00000000000E+00 -0.11283397159E+04  0.11283397159E+04  0.00000000000E+00 0. -1.
         25    2    1    2    0    0  0.17970145729E+03  0.28643677857E+02 -0.33511875512E+03  0.40242308502E+03  0.12855615618E+03 0.  0.
         25    2    1    2    0    0 -0.17970145729E+03 -0.28643677857E+02 -0.74395424833E+03  0.77518334324E+03  0.11970053462E+03 0.  0.
          5    1    3    3  502    0  0.18685093395E+03  0.21441459425E+02 -0.34124545392E+03  0.38967108890E+03  0.47000000000E+01 0.  1.
         -5    1    3    3    0  502 -0.71494766617E+01  0.72022184324E+01  0.61266988027E+01  0.12751996122E+02  0.47000000000E+01 0.  1.
          5    1    4    4  503    0 -0.19442240247E+03 -0.40008629599E+02 -0.67238661487E+03  0.70108958834E+03  0.47000000000E+01 0.  1.
         -5    1    4    4    0  503  0.14720945183E+02  0.11364951742E+02 -0.71567633465E+02  0.74093754898E+02  0.47000000000E+01 0.  1.
<mgrwt>
<rscale>  0 0.47154889E+03</rscale>
<asrwt>0</asrwt>
<pdfrwt beam="1">  1        1 0.75794938E-02 0.47154889E+03</pdfrwt>
<pdfrwt beam="2">  1       -1 0.17359073E+00 0.47154889E+03</pdfrwt>
<totfact> 0.23538323E+02</totfact>
</mgrwt>
</event>
<event>
 9    1  0.2051157E-002  0.2764541E+03  0.7818608E-02  0.1097642E+00
          1   -1    0    0  501    0  0.00000000000E+00  0.00000000000E+00  0.72589497327E+03  0.72589497327E+03  0.00000000000E+00 0. -1.
         -1   -1    0    0    0  501 -0.00000000000E+00 -0.00000000000E+00 -0.26321604536E+02  0.26321604536E+02  0.00000000000E+00 0. -1.
         36    2    1    2    0    0  0.00000000000E+00  0.00000000000E+00  0.69957336873E+03  0.75221657781E+03  0.27645412221E+03 0.  0.
         25    2    3    3    0    0  0.35481753437E+02  0.28703676191E+01  0.49940556847E+03  0.51601981543E+03  0.12491330698E+03 0.  0.
         25    2    3    3    0    0 -0.35481753437E+02 -0.28703676191E+01  0.20016780026E+03  0.23619676238E+03  0.12022715358E+03 0.  0.
          5    1    4    4  502    0 -0.28915248127E+01 -0.50402920104E+02  0.11042867703E+03  0.12151295396E+03  0.47000000000E+01 0. -1.
         -5    1    4    4    0  502  0.38373278250E+02  0.53273287723E+02  0.38897689144E+03  0.39450686147E+03  0.47000000000E+01 0. -1.
          5    1    5    5  503    0 -0.56202840105E+02  0.21473363263E+02  0.19417082065E+03  0.20333288509E+03  0.47000000000E+01 0. -1.
         -5    1    5    5    0  503  0.20721086668E+02 -0.24343730882E+02  0.59969796119E+01  0.32863877288E+02  0.47000000000E+01 0. -1.
<mgrwt>
<rscale>  0 0.27645412E+03</rscale>
<asrwt>0</asrwt>
<pdfrwt beam="1">  1        1 0.11167613E+00 0.27645412E+03</pdfrwt>
<pdfrwt beam="2">  1       -1 0.40494782E-02 0.27645412E+03</pdfrwt>
<totfact> 0.64348473E+03</totfact>
</mgrwt>
</event>
<event>
 9    1  0.2051157E-002  0.2750556E+03  0.7818608E-02  0.1098421E+00
         -1   -1    0    0    0  501 -0.00000000000E+00  0.00000000000E+00  0.20410857397E+03  0.20410857397E+03  0.00000000000E+00 0. -1.
          1   -1    0    0  501    0  0.00000000000E+00 -0.00000000000E+00 -0.92665853545E+02  0.92665853545E+02  0.00000000000E+00 0. -1.
         36    2    1    2    0    0  0.00000000000E+00  0.00000000000E+00  0.11144272042E+03  0.29677442751E+03  0.27505559600E+03 0.  0.
         25    2    3    3    0    0 -0.54135607439E+02  0.20642936513E+01  0.38486803716E+02  0.14230964184E+03  0.12584067228E+03 0.  0.
         25    2    3    3    0    0  0.54135607439E+02 -0.20642936513E+01  0.72955916704E+02  0.15446478567E+03  0.12490748147E+03 0.  0.
          5    1    4    4  502    0 -0.55140728797E+02 -0.34577486755E+02 -0.24152678985E+02  0.69581207698E+02  0.47000000000E+01 0. -1.
         -5    1    4    4    0  502  0.10051213579E+01  0.36641780407E+02  0.62639482701E+02  0.72728434146E+02  0.47000000000E+01 0. -1.
          5    1    5    5  503    0  0.69353400770E+02  0.40463697881E+02  0.16666527632E+02  0.82140539248E+02  0.47000000000E+01 0.  1.
         -5    1    5    5    0  503 -0.15217793331E+02 -0.42527991533E+02  0.56289389073E+02  0.72324246418E+02  0.47000000000E+01 0.  1.
<mgrwt>
<rscale>  0 0.27505560E+03</rscale>
<asrwt>0</asrwt>
<pdfrwt beam="1">  1        1 0.14256285E-01 0.27505560E+03</pdfrwt>
<pdfrwt beam="2">  1       -1 0.31401319E-01 0.27505560E+03</pdfrwt>
<totfact> 0.37453342E+03</totfact>
</mgrwt>
</event>
<event>
 9    1  0.2051157E-002  0.2750124E+03  0.7818608E-02  0.1098445E+00
          1   -1    0    0  501    0  0.00000000000E+00  0.00000000000E+00  0.12977983405E+03  0.12977983405E+03  0.00000000000E+00 0. -1.
         -1   -1    0    0    0  501 -0.00000000000E+00 -0.00000000000E+00 -0.14569251844E+03  0.14569251844E+03  0.00000000000E+00 0. -1.
         36    2    1    2    0    0  0.00000000000E+00 -0.71054273576E-14 -0.15912684388E+02  0.27547235250E+03  0.27501236966E+03 0.  0.
         25    2    3    3    0    0  0.29353587871E+02  0.29414514919E+02 -0.16108234234E+02  0.13428900219E+03  0.12667759900E+03 0.  0.
         25    2    3    3    0    0 -0.29353587871E+02 -0.29414514919E+02  0.19554984688E+00  0.14118335031E+03  0.13492906787E+03 0.  0.
          5    1    4    4  502    0  0.85234027676E+01 -0.44111057969E+02 -0.32927848564E+02  0.55899615749E+02  0.47000000000E+01 0.  1.
         -5    1    4    4    0  502  0.20830185103E+02  0.73525572887E+02  0.16819614329E+02  0.78389386437E+02  0.47000000000E+01 0.  1.
          5    1    5    5  503    0 -0.71518518633E+02 -0.39507288068E+02  0.31295655983E+02  0.87619817401E+02  0.47000000000E+01 0. -1.
         -5    1    5    5    0  503  0.42164930762E+02  0.10092773149E+02 -0.31100106136E+02  0.53563532909E+02  0.47000000000E+01 0. -1.
<mgrwt>
<rscale>  0 0.27501237E+03</rscale>
<asrwt>0</asrwt>
<pdfrwt beam="1">  1        1 0.19966128E-01 0.27501237E+03</pdfrwt>
<pdfrwt beam="2">  1       -1 0.22414234E-01 0.27501237E+03</pdfrwt>
<totfact> 0.42494974E+03</totfact>
</mgrwt>
</event>
<event>
 9    1  0.2051157E-002  0.2761337E+03  0.7818608E-02  0.1097820E+00
         -1   -1    0    0    0  501 -0.00000000000E+00  0.00000000000E+00  0.12591444281E+03  0.12591444281E+03  0.00000000000E+00 0.  1.
          1   -1    0    0  501    0  0.00000000000E+00 -0.00000000000E+00 -0.15139217527E+03  0.15139217527E+03  0.00000000000E+00 0.  1.
         36    2    1    2    0    0  0.00000000000E+00 -0.71054273576E-14 -0.25477732460E+02  0.27730661808E+03  0.27613374581E+03 0.  0.
         25    2    3    3    0    0  0.35671856000E+02 -0.43221663733E+02  0.17316829435E+02  0.13354865177E+03  0.11997823253E+03 0.  0.
         25    2    3    3    0    0 -0.35671856000E+02  0.43221663733E+02 -0.42794561895E+02  0.14375796631E+03  0.12527723186E+03 0.  0.
          5    1    4    4  502    0 -0.21523337586E+02  0.31352632481E+02  0.54135281751E+01  0.38699327017E+02  0.47000000000E+01 0.  1.
         -5    1    4    4    0  502  0.57195193585E+02 -0.74574296214E+02  0.11903301260E+02  0.94849324752E+02  0.47000000000E+01 0.  1.
          5    1    5    5  503    0  0.33570758616E+02 -0.10758265535E+02 -0.43042686346E+02  0.55834567780E+02  0.47000000000E+01 0. -1.
         -5    1    5    5    0  503 -0.69242614616E+02  0.53979929268E+02  0.24812445078E+00  0.87923398526E+02  0.47000000000E+01 0. -1.
<mgrwt>
<rscale>  0 0.27613375E+03</rscale>
<asrwt>0</asrwt>
<pdfrwt beam="1">  1        1 0.23291104E-01 0.27613375E+03</pdfrwt>
<pdfrwt beam="2">  1       -1 0.19371453E-01 0.27613375E+03</pdfrwt>
<totfact> 0.44257685E+03</totfact>
</mgrwt>
</event>
<event>
 9    1  0.2051157E-002  0.2755594E+03  0.7818608E-02  0.1098139E+00
          3   -1    0    0  501    0  0.00000000000E+00  0.00000000000E+00  0.21015954225E+03  0.21015954225E+03  0.00000000000E+00 0. -1.
         -3   -1    0    0    0  501 -0.00000000000E+00 -0.00000000000E+00 -0.90327777576E+02  0.90327777576E+02  0.00000000000E+00 0. -1.
         36    2    1    2    0    0  0.00000000000E+00  0.00000000000E+00  0.11983176467E+03  0.30048731982E+03  0.27555939024E+03 0.  0.
         25    2    3    3    0    0 -0.53328932371E+02 -0.25351968821E+02  0.51469468885E+02  0.14660393752E+03  0.12392300399E+03 0.  0.
         25    2    3    3    0    0  0.53328932371E+02  0.25351968821E+02  0.68362295785E+02  0.15388338230E+03  0.12457927000E+03 0.  0.
          5    1    4    4  502    0 -0.78939904223E+02  0.13108796962E+02  0.41008130962E+01  0.80263663662E+02  0.47000000000E+01 0.  1.
         -5    1    4    4    0  502  0.25610971852E+02 -0.38460765783E+02  0.47368655789E+02  0.66340273854E+02  0.47000000000E+01 0.  1.
          5    1    5    5  503    0  0.71461365003E+02  0.42818827459E+02  0.27901529560E+01  0.83486847028E+02  0.47000000000E+01 0.  1.
         -5    1    5    5    0  503 -0.18132432632E+02 -0.17466858639E+02  0.65572142829E+02  0.70396535277E+02  0.47000000000E+01 0.  1.
<mgrwt>
<rscale>  0 0.27555939E+03</rscale>
<asrwt>0</asrwt>
<pdfrwt beam="1">  1        3 0.32332237E-01 0.27555939E+03</pdfrwt>
<pdfrwt beam="2">  1       -3 0.13896581E-01 0.27555939E+03</pdfrwt>
<totfact> 0.10047171E+03</totfact>
</mgrwt>
</event>
<event>
 9    1  0.2051157E-002  0.2749139E+03  0.7818608E-02  0.1098500E+00
         -2   -1    0    0    0  501 -0.00000000000E+00  0.00000000000E+00  0.48044748824E+02  0.48044748824E+02  0.00000000000E+00 0.  1.
          2   -1    0    0  501    0  0.00000000000E+00 -0.00000000000E+00 -0.39326697145E+03  0.39326697145E+03  0.00000000000E+00 0.  1.
         36    2    1    2    0    0  0.71054273576E-14  0.00000000000E+00 -0.34522222263E+03  0.44131172028E+03  0.27491389826E+03 0.  0.
         25    2    3    3    0    0  0.35093168947E+02 -0.49532608700E+02 -0.17890679569E+03  0.22669554547E+03  0.12529253354E+03 0.  0.
         25    2    3    3    0    0 -0.35093168947E+02  0.49532608700E+02 -0.16631542694E+03  0.21461617481E+03  0.12130239660E+03 0.  0.
          5    1    4    4  502    0  0.41327066103E+02 -0.86929174586E+02 -0.15197839265E+03  0.17995591021E+03  0.47000000000E+01 0.  1.
         -5    1    4    4    0  502 -0.62338971560E+01  0.37396565887E+02 -0.26928403034E+02  0.46739635256E+02  0.47000000000E+01 0.  1.
          5    1    5    5  503    0  0.22355612464E+01  0.59543681448E+02 -0.19721194511E+02  0.62940156081E+02  0.47000000000E+01 0. -1.
         -5    1    5    5    0  503 -0.37328730193E+02 -0.10011072749E+02 -0.14659423243E+03  0.15167601873E+03  0.47000000000E+01 0. -1.
<mgrwt>
<rscale>  0 0.27491390E+03</rscale>
<asrwt>0</asrwt>
<pdfrwt beam="1">  1        2 0.60502610E-01 0.27491390E+03</pdfrwt>
<pdfrwt beam="2">  1       -2 0.73914999E-02 0.27491390E+03</pdfrwt>
<totfact> 0.86476910E+03</totfact>
</mgrwt>
</event>
<event>
 9    1  0.2051157E-002  0.2748384E+03  0.7818608E-02  0.1098542E+00
         -1   -1    0    0    0  501 -0.00000000000E+00  0.00000000000E+00  0.30831649105E+02  0.30831649105E+02  0.00000000000E+00 0.  1.
          1   -1    0    0  501    0  0.00000000000E+00 -0.00000000000E+00 -0.61248874244E+03  0.61248874244E+03  0.00000000000E+00 0.  1.
         36    2    1    2    0    0 -0.35527136788E-14 -0.71054273576E-14 -0.58165709333E+03  0.64332039154E+03  0.27483841062E+03 0.  0.
         25    2    3    3    0    0 -0.29389001484E+02  0.32862231082E+02 -0.38107253171E+03  0.40363277706E+03  0.12553686573E+03 0.  0.
         25    2    3    3    0    0  0.29389001484E+02 -0.32862231082E+02 -0.20058456163E+03  0.23968761448E+03  0.12358133570E+03 0.  0.
          5    1    4    4  502    0  0.15566652691E+02  0.27380302069E+02 -0.15828554680E+02  0.35561703568E+02  0.47000000000E+01 0. -1.
         -5    1    4    4    0  502 -0.44955654175E+02  0.54819290130E+01 -0.36524397703E+03  0.36807107349E+03  0.47000000000E+01 0. -1.
          5    1    5    5  503    0 -0.56997679533E+01 -0.64024413786E+02 -0.49073693671E+02  0.81005742549E+02  0.47000000000E+01 0.  1.
         -5    1    5    5    0  503  0.35088769437E+02  0.31162182704E+02 -0.15151086796E+03  0.15868187193E+03  0.47000000000E+01 0.  1.
<mgrwt>
<rscale>  0 0.27483841E+03</rscale>
<asrwt>0</asrwt>
<pdfrwt beam="1">  1        1 0.94229028E-01 0.27483841E+03</pdfrwt>
<pdfrwt beam="2">  1       -1 0.47433311E-02 0.27483841E+03</pdfrwt>
<totfact> 0.64859699E+03</totfact>
</mgrwt>
</event>
<event>
 9    1  0.2051157E-002  0.2750045E+03  0.7818608E-02  0.1098449E+00
          1   -1    0    0  501    0  0.00000000000E+00  0.00000000000E+00  0.11360050391E+03  0.11360050391E+03  0.00000000000E+00 0. -1.
         -1   -1    0    0    0  501 -0.00000000000E+00 -0.00000000000E+00 -0.16643301328E+03  0.16643301328E+03  0.00000000000E+00 0. -1.
         36    2    1    2    0    0 -0.35527136788E-14 -0.71054273576E-14 -0.52832509368E+02  0.28003351720E+03  0.27500453943E+03 0.  0.
         25    2    3    3    0    0  0.62940312722E+00 -0.39209622175E+02 -0.35926569387E+01  0.13184168973E+03  0.12582342130E+03 0.  0.
         25    2    3    3    0    0 -0.62940312722E+00  0.39209622175E+02 -0.49239852430E+02  0.14819182747E+03  0.13415835435E+03 0.  0.
          5    1    4    4  502    0 -0.19776065076E+02  0.18141468638E+02  0.45812609512E+02  0.53301883874E+02  0.47000000000E+01 0. -1.
         -5    1    4    4    0  502  0.20405468203E+02 -0.57351090813E+02 -0.49405266451E+02  0.78539805851E+02  0.47000000000E+01 0. -1.
          5    1    5    5  503    0  0.30723054118E+02  0.37256417510E+02  0.33901951720E+02  0.59189348961E+02  0.47000000000E+01 0.  1.
         -5    1    5    5    0  503 -0.31352457245E+02  0.19532046650E+01 -0.83141804149E+02  0.89002478510E+02  0.47000000000E+01 0.  1.
<mgrwt>
<rscale>  0 0.27500454E+03</rscale>
<asrwt>0</asrwt>
<pdfrwt beam="1">  1        1 0.17477001E-01 0.27500454E+03</pdfrwt>
<pdfrwt beam="2">  1       -1 0.25605079E-01 0.27500454E+03</pdfrwt>
<totfact> 0.40501878E+03</totfact>
</mgrwt>
</event>
<event>
 9    1  0.2051157E-002  0.2755061E+03  0.7818608E-02  0.1098169E+00
          2   -1    0    0  501    0  0.00000000000E+00  0.00000000000E+00  0.11884621128E+03  0.11884621128E+03  0.00000000000E+00 0. -1.
         -2   -1    0    0    0  501 -0.00000000000E+00 -0.00000000000E+00 -0.15966772380E+03  0.15966772380E+03  0.00000000000E+00 0. -1.
         36    2    1    2    0    0  0.71054273576E-14  0.00000000000E+00 -0.40821512523E+02  0.27851393508E+03  0.27550610909E+03 0.  0.
         25    2    3    3    0    0  0.36682036571E+02 -0.10071825519E+02 -0.65536928282E+02  0.14604248731E+03  0.12484512667E+03 0.  0.
         25    2    3    3    0    0 -0.36682036571E+02  0.10071825519E+02  0.24715415758E+02  0.13247144777E+03  0.12446211963E+03 0.  0.
          5    1    4    4  502    0  0.57449484647E+02  0.28465349931E+02  0.32528900463E+01  0.64369175283E+02  0.47000000000E+01 0.  1.
         -5    1    4    4    0  502 -0.20767448076E+02 -0.38537175450E+02 -0.68789818328E+02  0.81673312023E+02  0.47000000000E+01 0.  1.
          5    1    5    5  503    0  0.11812803952E+02 -0.47959505355E+02 -0.74170568412E+01  0.50167312299E+02  0.47000000000E+01 0. -1.
         -5    1    5    5    0  503 -0.48494840523E+02  0.58031330874E+02  0.32132472600E+02  0.82304135471E+02  0.47000000000E+01 0. -1.
<mgrwt>
<rscale>  0 0.27550611E+03</rscale>
<asrwt>0</asrwt>
<pdfrwt beam="1">  1        2 0.18284032E-01 0.27550611E+03</pdfrwt>
<pdfrwt beam="2">  1       -2 0.24564265E-01 0.27550611E+03</pdfrwt>
<totfact> 0.44930385E+03</totfact>
</mgrwt>
</event>
<event>
 9    1  0.2051157E-002  0.2753822E+03  0.7818608E-02  0.1098238E+00
          3   -1    0    0  501    0  0.00000000000E+00  0.00000000000E+00  0.27338157706E+02  0.27338157706E+02  0.00000000000E+00 0. -1.
         -3   -1    0    0    0  501 -0.00000000000E+00 -0.00000000000E+00 -0.69349345872E+03  0.69349345872E+03  0.00000000000E+00 0. -1.
         36    2    1    2    0    0 -0.71054273576E-14  0.35527136788E-14 -0.66615530102E+03  0.72083161643E+03  0.27538216023E+03 0.  0.
         25    2    3    3    0    0 -0.39035585982E+02  0.18746573666E+02 -0.23002290960E+03  0.26531831001E+03  0.12493220437E+03 0.  0.
         25    2    3    3    0    0  0.39035585982E+02 -0.18746573666E+02 -0.43613239141E+03  0.45551330642E+03  0.12411969419E+03 0.  0.
          5    1    4    4  502    0 -0.65899376920E+02  0.42495845300E+02 -0.20948720360E+03  0.22373109578E+03  0.47000000000E+01 0.  1.
         -5    1    4    4    0  502  0.26863790937E+02 -0.23749271634E+02 -0.20535706004E+02  0.41587214234E+02  0.47000000000E+01 0.  1.
          5    1    5    5  503    0 -0.19604665925E+02 -0.15507886209E+02 -0.13502831638E+02  0.28796769314E+02  0.47000000000E+01 0.  1.
         -5    1    5    5    0  503  0.58640251907E+02 -0.32386874573E+01 -0.42262955978E+03  0.42671653710E+03  0.47000000000E+01 0.  1.
<mgrwt>
<rscale>  0 0.27538216E+03</rscale>
<asrwt>0</asrwt>
<pdfrwt beam="1">  1        3 0.42058706E-02 0.27538216E+03</pdfrwt>
<pdfrwt beam="2">  1       -3 0.10669130E+00 0.27538216E+03</pdfrwt>
<totfact> 0.59307189E+02</totfact>
</mgrwt>
</event>
<event>
 9    1  0.2051157E-002  0.2732102E+03  0.7818608E-02  0.1099456E+00
          2   -1    0    0  501    0  0.00000000000E+00  0.00000000000E+00  0.13512768463E+04  0.13512768463E+04  0.00000000000E+00 0. -1.
         -2   -1    0    0    0  501 -0.00000000000E+00 -0.00000000000E+00 -0.13809870928E+02  0.13809870928E+02  0.00000000000E+00 0. -1.
         36    2    1    2    0    0  0.35527136788E-14  0.00000000000E+00  0.13374669754E+04  0.13650867172E+04  0.27321024019E+03 0.  0.
         25    2    3    3    0    0  0.17079677323E+02  0.58848357406E+00  0.58226640089E+03  0.59938519215E+03  0.14119626505E+03 0.  0.
         25    2    3    3    0    0 -0.17079677323E+02 -0.58848357406E+00  0.75520057447E+03  0.76570152508E+03  0.12521523921E+03 0.  0.
          5    1    4    4  502    0  0.32961992919E+02 -0.49914634450E+02  0.12092491670E+03  0.13499218195E+03  0.47000000000E+01 0.  1.
         -5    1    4    4    0  502 -0.15882315595E+02  0.50503118024E+02  0.46134148420E+03  0.46439301020E+03  0.47000000000E+01 0.  1.
          5    1    5    5  503    0 -0.45833343695E+02  0.48283584717E+02  0.32732567680E+03  0.33406015722E+03  0.47000000000E+01 0.  1.
         -5    1    5    5    0  503  0.28753666372E+02 -0.48872068291E+02  0.42787489767E+03  0.43164136786E+03  0.47000000000E+01 0.  1.
<mgrwt>
<rscale>  0 0.27321024E+03</rscale>
<asrwt>0</asrwt>
<pdfrwt beam="1">  1        2 0.20788864E+00 0.27321024E+03</pdfrwt>
<pdfrwt beam="2">  1       -2 0.21245966E-02 0.27321024E+03</pdfrwt>
<totfact> 0.11612852E+04</totfact>
</mgrwt>
</event>
<event>
 9    1  0.2051157E-002  0.2756507E+03  0.7818608E-02  0.1098088E+00
         -1   -1    0    0    0  501 -0.00000000000E+00  0.00000000000E+00  0.43881305798E+02  0.43881305798E+02  0.00000000000E+00 0.  1.
          1   -1    0    0  501    0  0.00000000000E+00 -0.00000000000E+00 -0.43289097436E+03  0.43289097436E+03  0.00000000000E+00 0.  1.
         36    2    1    2    0    0 -0.71054273576E-14 -0.35527136788E-14 -0.38900966856E+03  0.47677228016E+03  0.27565065734E+03 0.  0.
         25    2    3    3    0    0  0.40338569269E+02 -0.92992627589E+01 -0.21984727941E+03  0.25685804107E+03  0.12621232325E+03 0.  0.
         25    2    3    3    0    0 -0.40338569269E+02  0.92992627589E+01 -0.16916238915E+03  0.21991423909E+03  0.13428582274E+03 0.  0.
          5    1    4    4  502    0  0.46547792297E+01  0.56564567718E+02 -0.10915909796E+03  0.12312195563E+03  0.47000000000E+01 0.  1.
         -5    1    4    4    0  502  0.35683790040E+02 -0.65863830477E+02 -0.11068818145E+03  0.13373608544E+03  0.47000000000E+01 0.  1.
          5    1    5    5  503    0 -0.33412677594E+00  0.22131542060E+02  0.17449259613E+02  0.28574174629E+02  0.47000000000E+01 0. -1.
         -5    1    5    5    0  503 -0.40004442493E+02 -0.12832279301E+02 -0.18661164877E+03  0.19134006446E+03  0.47000000000E+01 0. -1.
<mgrwt>
<rscale>  0 0.27565066E+03</rscale>
<asrwt>0</asrwt>
<pdfrwt beam="1">  1        1 0.66598614E-01 0.27565066E+03</pdfrwt>
<pdfrwt beam="2">  1       -1 0.67509699E-02 0.27565066E+03</pdfrwt>
<totfact> 0.60713350E+03</totfact>
</mgrwt>
</event>
<event>
 9    1  0.2051157E-002  0.2743922E+03  0.7818608E-02  0.1098792E+00
          2   -1    0    0  501    0  0.00000000000E+00  0.00000000000E+00  0.24403953982E+03  0.24403953982E+03  0.00000000000E+00 0. -1.
         -2   -1    0    0    0  501 -0.00000000000E+00 -0.00000000000E+00 -0.77129979005E+02  0.77129979005E+02  0.00000000000E+00 0. -1.
         36    2    1    2    0    0  0.71054273576E-14  0.71054273576E-14  0.16690956081E+03  0.32116951882E+03  0.27439216157E+03 0.  0.
         25    2    3    3    0    0  0.11939352128E+02  0.57114329030E+02  0.71170589261E+02  0.15468810540E+03  0.12433246747E+03 0.  0.
         25    2    3    3    0    0 -0.11939352128E+02 -0.57114329030E+02  0.95738971551E+02  0.16648141342E+03  0.12306711840E+03 0.  0.
          5    1    4    4  502    0  0.52188796538E+02  0.19318338027E+02 -0.96700557218E+01  0.56678643649E+02  0.47000000000E+01 0.  1.
         -5    1    4    4    0  502 -0.40249444410E+02  0.37795991003E+02  0.80840644983E+02  0.98009461750E+02  0.47000000000E+01 0.  1.
          5    1    5    5  503    0  0.54918304813E+02 -0.36353621996E+02  0.47221937205E+02  0.81176396749E+02  0.47000000000E+01 0. -1.
         -5    1    5    5    0  503 -0.66857656941E+02 -0.20760707034E+02  0.48517034347E+02  0.85305016675E+02  0.47000000000E+01 0. -1.
<mgrwt>
<rscale>  0 0.27439216E+03</rscale>
<asrwt>0</asrwt>
<pdfrwt beam="1">  1        2 0.37544544E-01 0.27439216E+03</pdfrwt>
<pdfrwt beam="2">  1       -2 0.11866151E-01 0.27439216E+03</pdfrwt>
<totfact> 0.68414411E+03</totfact>
</mgrwt>
</event>
<event>
 9    1  0.2051157E-002  0.2733883E+03  0.7818608E-02  0.1099356E+00
          2   -1    0    0  501    0  0.00000000000E+00  0.00000000000E+00  0.46462971655E+03  0.46462971655E+03  0.00000000000E+00 0.  1.
         -2   -1    0    0    0  501 -0.00000000000E+00 -0.00000000000E+00 -0.40215430713E+02  0.40215430713E+02  0.00000000000E+00 0.  1.
         36    2    1    2    0    0  0.35527136788E-14  0.00000000000E+00  0.42441428584E+03  0.50484514726E+03  0.27338825266E+03 0.  0.
         25    2    3    3    0    0  0.45026331915E+01 -0.26275800357E+02  0.12598802480E+03  0.17972861737E+03  0.12537424823E+03 0.  0.
         25    2    3    3    0    0 -0.45026331915E+01  0.26275800357E+02  0.29842626103E+03  0.32511652989E+03  0.12622136643E+03 0.  0.
          5    1    4    4  502    0  0.55634138314E+02 -0.28054324108E+02  0.26729851661E+02  0.67961587804E+02  0.47000000000E+01 0.  1.
         -5    1    4    4    0  502 -0.51131505122E+02  0.17785237505E+01  0.99258173143E+02  0.11176702957E+03  0.47000000000E+01 0.  1.
          5    1    5    5  503    0 -0.20482565199E+02  0.55077959478E+02  0.28184090742E+03  0.28794010522E+03  0.47000000000E+01 0. -1.
         -5    1    5    5    0  503  0.15979932008E+02 -0.28802159120E+02  0.16585353613E+02  0.37176424673E+02  0.47000000000E+01 0. -1.
<mgrwt>
<rscale>  0 0.27338825E+03</rscale>
<asrwt>0</asrwt>
<pdfrwt beam="1">  1        2 0.71481491E-01 0.27338825E+03</pdfrwt>
<pdfrwt beam="2">  1       -2 0.61869897E-02 0.27338825E+03</pdfrwt>
<totfact> 0.94822549E+03</totfact>
</mgrwt>
</event>
<event>
 9    1  0.2051157E-002  0.2745560E+03  0.7818608E-02  0.1098700E+00
         -2   -1    0    0    0  501 -0.00000000000E+00  0.00000000000E+00  0.12601397229E+02  0.12601397229E+02  0.00000000000E+00 0. -1.
          2   -1    0    0  501    0  0.00000000000E+00 -0.00000000000E+00 -0.14954891266E+04  0.14954891266E+04  0.00000000000E+00 0. -1.
         36    2    1    2    0    0  0.00000000000E+00  0.71054273576E-14 -0.14828877293E+04  0.15080905238E+04  0.27455602368E+03 0.  0.
         25    2    3    3    0    0  0.22110602532E+02 -0.56697644702E+02 -0.64305514981E+03  0.65735110765E+03  0.12201250495E+03 0.  0.
         25    2    3    3    0    0 -0.22110602532E+02  0.56697644702E+02 -0.83983257952E+03  0.85073941614E+03  0.12138900650E+03 0.  0.
          5    1    4    4  502    0  0.16668373734E+02 -0.11913528773E+02 -0.57607385340E+03  0.57645723296E+03  0.47000000000E+01 0.  1.
         -5    1    4    4    0  502  0.54422287981E+01 -0.44784115929E+02 -0.66981296410E+02  0.80893874691E+02  0.47000000000E+01 0.  1.
          5    1    5    5  503    0 -0.16565334683E+02  0.18607378860E+02 -0.77341464789E+03  0.77383005398E+03  0.47000000000E+01 0. -1.
         -5    1    5    5    0  503 -0.55452678488E+01  0.38090265842E+02 -0.66417931624E+02  0.76909362166E+02  0.47000000000E+01 0. -1.
<mgrwt>
<rscale>  0 0.27455602E+03</rscale>
<asrwt>0</asrwt>
<pdfrwt beam="1">  1        2 0.23007517E+00 0.27455602E+03</pdfrwt>
<pdfrwt beam="2">  1       -2 0.19386772E-02 0.27455602E+03</pdfrwt>
<totfact> 0.11103912E+04</totfact>
</mgrwt>
</event>
<event>
 9    1  0.2051157E-002  0.2741114E+03  0.7818608E-02  0.1098949E+00
          2   -1    0    0  501    0  0.00000000000E+00  0.00000000000E+00  0.65595835009E+02  0.65595835009E+02  0.00000000000E+00 0.  1.
         -2   -1    0    0    0  501 -0.00000000000E+00 -0.00000000000E+00 -0.28636369396E+03  0.28636369396E+03  0.00000000000E+00 0.  1.
         36    2    1    2    0    0  0.35527136788E-14  0.71054273576E-14 -0.22076785895E+03  0.35195952897E+03  0.27411140524E+03 0.  0.
         25    2    3    3    0    0  0.97195140869E+01 -0.28720899937E+02 -0.19419498254E+03  0.23302926754E+03  0.12518621825E+03 0.  0.
         25    2    3    3    0    0 -0.97195140869E+01  0.28720899937E+02 -0.26572876407E+02  0.11893026143E+03  0.11188802561E+03 0.  0.
          5    1    4    4  502    0  0.33835877604E+01 -0.69140071475E+02 -0.17366909875E+03  0.18701562505E+03  0.47000000000E+01 0.  1.
         -5    1    4    4    0  502  0.63359263265E+01  0.40419171538E+02 -0.20525883788E+02  0.46013642494E+02  0.47000000000E+01 0.  1.
          5    1    5    5  503    0  0.25417190619E+02 -0.28204968877E+02 -0.34354822797E+02  0.51418845744E+02  0.47000000000E+01 0. -1.
         -5    1    5    5    0  503 -0.35136704705E+02  0.56925868814E+02  0.77819463896E+01  0.67511415682E+02  0.47000000000E+01 0. -1.
<mgrwt>
<rscale>  0 0.27411141E+03</rscale>
<asrwt>0</asrwt>
<pdfrwt beam="1">  1        2 0.10091667E-01 0.27411141E+03</pdfrwt>
<pdfrwt beam="2">  1       -2 0.44055953E-01 0.27411141E+03</pdfrwt>
<totfact> 0.31151631E+03</totfact>
</mgrwt>
</event>
<event>
 9    1  0.2051157E-002  0.2753582E+03  0.7818608E-02  0.1098252E+00
          1   -1    0    0  501    0  0.00000000000E+00  0.00000000000E+00  0.83973238546E+03  0.83973238546E+03  0.00000000000E+00 0. -1.
         -1   -1    0    0    0  501 -0.00000000000E+00 -0.00000000000E+00 -0.22573306285E+02  0.22573306285E+02  0.00000000000E+00 0. -1.
         36    2    1    2    0    0  0.35527136788E-14  0.00000000000E+00  0.81715907918E+03  0.86230569175E+03  0.27535821277E+03 0.  0.
         25    2    3    3    0    0  0.18657058216E+02 -0.60418582780E+01  0.26194140455E+03  0.29082845544E+03  0.12483309338E+03 0.  0.
         25    2    3    3    0    0 -0.18657058216E+02  0.60418582780E+01  0.55521767463E+03  0.57147723631E+03  0.13392152750E+03 0.  0.
          5    1    4    4  502    0  0.40918791669E+02  0.46233169900E+02  0.18485874404E+03  0.19495306810E+03  0.47000000000E+01 0.  1.
         -5    1    4    4    0  502 -0.22261733453E+02 -0.52275028178E+02  0.77082660503E+02  0.95875387340E+02  0.47000000000E+01 0.  1.
          5    1    5    5  503    0  0.71323514978E+01 -0.56755941948E+02  0.36431980101E+03  0.36881311635E+03  0.47000000000E+01 0. -1.
         -5    1    5    5    0  503 -0.25789409714E+02  0.62797800226E+02  0.19089787362E+03  0.20266411996E+03  0.47000000000E+01 0. -1.
<mgrwt>
<rscale>  0 0.27535821E+03</rscale>
<asrwt>0</asrwt>
<pdfrwt beam="1">  1        1 0.12918957E+00 0.27535821E+03</pdfrwt>
<pdfrwt beam="2">  1       -1 0.34728170E-02 0.27535821E+03</pdfrwt>
<totfact> 0.64725054E+03</totfact>
</mgrwt>
</event>
<event>
 9    1  0.2051157E-002  0.2751844E+03  0.7818608E-02  0.1098349E+00
         -2   -1    0    0    0  501 -0.00000000000E+00  0.00000000000E+00  0.35505737586E+02  0.35505737586E+02  0.00000000000E+00 0.  1.
          2   -1    0    0  501    0  0.00000000000E+00 -0.00000000000E+00 -0.53319863867E+03  0.53319863867E+03  0.00000000000E+00 0.  1.
         36    2    1    2    0    0 -0.35527136788E-14  0.71054273576E-14 -0.49769290109E+03  0.56870437626E+03  0.27518438143E+03 0.  0.
         25    2    3    3    0    0 -0.25159199575E+02  0.41533189380E+02 -0.24757689060E+03  0.28405491100E+03  0.13051775573E+03 0.  0.
         25    2    3    3    0    0  0.25159199575E+02 -0.41533189380E+02 -0.25011601049E+03  0.28464946526E+03  0.12692244965E+03 0.  0.
          5    1    4    4  502    0 -0.11100432101E+01 -0.36627399751E+02 -0.15971879830E+03  0.16393591168E+03  0.47000000000E+01 0. -1.
         -5    1    4    4    0  502 -0.24049156365E+02  0.78160589131E+02 -0.87858092297E+02  0.12011899932E+03  0.47000000000E+01 0. -1.
          5    1    5    5  503    0  0.33889643655E+02 -0.70119178421E+02 -0.24059614436E+03  0.25293042879E+03  0.47000000000E+01 0.  1.
         -5    1    5    5    0  503 -0.87304440797E+01  0.28585989041E+02 -0.95198661348E+01  0.31719036469E+02  0.47000000000E+01 0.  1.
<mgrwt>
<rscale>  0 0.27518438E+03</rscale>
<asrwt>0</asrwt>
<pdfrwt beam="1">  1        2 0.82030553E-01 0.27518438E+03</pdfrwt>
<pdfrwt beam="2">  1       -2 0.54624216E-02 0.27518438E+03</pdfrwt>
<totfact> 0.98404380E+03</totfact>
</mgrwt>
</event>
<event>
 9    1  0.2051157E-002  0.2754216E+03  0.7818608E-02  0.1098216E+00
          1   -1    0    0  501    0  0.00000000000E+00  0.00000000000E+00  0.14645451692E+03  0.14645451692E+03  0.00000000000E+00 0. -1.
         -1   -1    0    0    0  501 -0.00000000000E+00 -0.00000000000E+00 -0.12948909693E+03  0.12948909693E+03  0.00000000000E+00 0. -1.
         36    2    1    2    0    0 -0.35527136788E-14  0.00000000000E+00  0.16965419989E+02  0.27594361385E+03  0.27542159056E+03 0.  0.
         25    2    3    3    0    0 -0.16759444041E+01  0.66808076200E+02 -0.33709544708E+00  0.12864529025E+03  0.10992437962E+03 0.  0.
         25    2    3    3    0    0  0.16759444041E+01 -0.66808076200E+02  0.17302515436E+02  0.14729832360E+03  0.13012029534E+03 0.  0.
          5    1    4    4  502    0  0.23725050717E+02 -0.23189579556E+02  0.85854244455E+01  0.34589509167E+02  0.47000000000E+01 0.  1.
         -5    1    4    4    0  502 -0.25400995121E+02  0.89997655755E+02 -0.89225198926E+01  0.94055781087E+02  0.47000000000E+01 0.  1.
          5    1    5    5  503    0 -0.16417195806E+02 -0.10658139527E+02  0.67037653576E+02  0.69994694465E+02  0.47000000000E+01 0.  1.
         -5    1    5    5    0  503  0.18093140210E+02 -0.56149936673E+02 -0.49735138140E+02  0.77303629131E+02  0.47000000000E+01 0.  1.
<mgrwt>
<rscale>  0 0.27542159E+03</rscale>
<asrwt>0</asrwt>
<pdfrwt beam="1">  1        1 0.22531464E-01 0.27542159E+03</pdfrwt>
<pdfrwt beam="2">  1       -1 0.19921400E-01 0.27542159E+03</pdfrwt>
<totfact> 0.44119863E+03</totfact>
</mgrwt>
</event>
<event>
 9    1  0.2051157E-002  0.2753459E+03  0.7818608E-02  0.1098258E+00
         -2   -1    0    0    0  501 -0.00000000000E+00  0.00000000000E+00  0.10097081821E+03  0.10097081821E+03  0.00000000000E+00 0.  1.
          2   -1    0    0  501    0  0.00000000000E+00 -0.00000000000E+00 -0.18771598351E+03  0.18771598351E+03  0.00000000000E+00 0.  1.
         36    2    1    2    0    0  0.00000000000E+00  0.00000000000E+00 -0.86745165293E+02  0.28868680172E+03  0.27534586575E+03 0.  0.
         25    2    3    3    0    0 -0.14302593209E+02 -0.11418631133E+02 -0.10074154283E+03  0.16424308264E+03  0.12842111366E+03 0.  0.
         25    2    3    3    0    0  0.14302593209E+02  0.11418631133E+02  0.13996377533E+02  0.12444371908E+03  0.12229223739E+03 0.  0.
          5    1    4    4  502    0 -0.61219693969E+02 -0.39973183226E+02 -0.68954211508E+02  0.10061053420E+03  0.47000000000E+01 0. -1.
         -5    1    4    4    0  502  0.46917100760E+02  0.28554552093E+02 -0.31787331318E+02  0.63632548443E+02  0.47000000000E+01 0. -1.
          5    1    5    5  503    0  0.45124521820E+02  0.35434509555E+02 -0.30412021730E+02  0.65106128764E+02  0.47000000000E+01 0. -1.
         -5    1    5    5    0  503 -0.30821928612E+02 -0.24015878422E+02  0.44408399263E+02  0.59337590318E+02  0.47000000000E+01 0. -1.
<mgrwt>
<rscale>  0 0.27534587E+03</rscale>
<asrwt>0</asrwt>
<pdfrwt beam="1">  1        2 0.28879382E-01 0.27534587E+03</pdfrwt>
<pdfrwt beam="2">  1       -2 0.15533972E-01 0.27534587E+03</pdfrwt>
<totfact> 0.58642412E+03</totfact>
</mgrwt>
</event>
<event>
 9    1  0.2051157E-002  0.2679088E+03  0.7818608E-02  0.1102482E+00
          1   -1    0    0  501    0  0.00000000000E+00  0.00000000000E+00  0.65776971584E+03  0.65776971584E+03  0.00000000000E+00 0.  1.
         -1   -1    0    0    0  501 -0.00000000000E+00 -0.00000000000E+00 -0.27279729453E+02  0.27279729453E+02  0.00000000000E+00 0.  1.
         36    2    1    2    0    0  0.71054273576E-14  0.71054273576E-14  0.63048998639E+03  0.68504944529E+03  0.26790878963E+03 0.  0.
         25    2    3    3    0    0  0.25179059258E+02 -0.32989436097E+02  0.36085794928E+03  0.38466624323E+03  0.12659925434E+03 0.  0.
         25    2    3    3    0    0 -0.25179059258E+02  0.32989436097E+02  0.26963203711E+03  0.30038320206E+03  0.12572328635E+03 0.  0.
          5    1    4    4  502    0  0.60008654111E+02 -0.10737048808E+01  0.30710565192E+03  0.31295073550E+03  0.47000000000E+01 0.  1.
         -5    1    4    4    0  502 -0.34829594853E+02 -0.31915731216E+02  0.53752297359E+02  0.71715507724E+02  0.47000000000E+01 0.  1.
          5    1    5    5  503    0  0.45407915841E+02  0.33276206543E+02  0.16215111238E+03  0.17170980749E+03  0.47000000000E+01 0. -1.
         -5    1    5    5    0  503 -0.70586975099E+02 -0.28677044639E+00  0.10748092473E+03  0.12867339457E+03  0.47000000000E+01 0. -1.
<mgrwt>
<rscale>  0 0.26790879E+03</rscale>
<asrwt>0</asrwt>
<pdfrwt beam="1">  1        1 0.10119533E+00 0.26790879E+03</pdfrwt>
<pdfrwt beam="2">  1       -1 0.41968820E-02 0.26790879E+03</pdfrwt>
<totfact> 0.70343923E+03</totfact>
</mgrwt>
</event>
<event>
 9    1  0.2051157E-002  0.2750409E+03  0.7818608E-02  0.1098429E+00
         -4   -1    0    0    0  501 -0.00000000000E+00  0.00000000000E+00  0.63219020551E+02  0.63219020551E+02  0.00000000000E+00 0.  1.
          4   -1    0    0  501    0  0.00000000000E+00 -0.00000000000E+00 -0.29914837726E+03  0.29914837726E+03  0.00000000000E+00 0.  1.
         36    2    1    2    0    0 -0.71054273576E-14  0.00000000000E+00 -0.23592935671E+03  0.36236739781E+03  0.27504085085E+03 0.  0.
         25    2    3    3    0    0 -0.59369332577E+02 -0.33359011900E+01 -0.16270332374E+03  0.20885209323E+03  0.11666610220E+03 0.  0.
         25    2    3    3    0    0  0.59369332577E+02  0.33359011900E+01 -0.73226032963E+02  0.15351530458E+03  0.12111585754E+03 0.  0.
          5    1    4    4  502    0 -0.67446488199E+02 -0.61506125026E+01 -0.27420551641E+02  0.73217726383E+02  0.47000000000E+01 0.  1.
         -5    1    4    4    0  502  0.80771556218E+01  0.28147113126E+01 -0.13528277210E+03  0.13563436685E+03  0.47000000000E+01 0.  1.
          5    1    5    5  503    0  0.30770967428E+02 -0.51234836245E+02 -0.69255622194E+02  0.91598537581E+02  0.47000000000E+01 0.  1.
         -5    1    5    5    0  503  0.28598365149E+02  0.54570737435E+02 -0.39704107691E+01  0.61916766995E+02  0.47000000000E+01 0.  1.
<mgrwt>
<rscale>  0 0.27504085E+03</rscale>
<asrwt>0</asrwt>
<pdfrwt beam="1">  1        4 0.46022827E-01 0.27504085E+03</pdfrwt>
<pdfrwt beam="2">  1       -4 0.97260033E-02 0.27504085E+03</pdfrwt>
<totfact> 0.68478977E+02</totfact>
</mgrwt>
</event>
<event>
 9    1  0.2051157E-002  0.2772989E+03  0.7818608E-02  0.1097173E+00
          2   -1    0    0  501    0  0.00000000000E+00  0.00000000000E+00  0.22719326632E+03  0.22719326632E+03  0.00000000000E+00 0.  1.
         -2   -1    0    0    0  501 -0.00000000000E+00 -0.00000000000E+00 -0.84613703039E+02  0.84613703039E+02  0.00000000000E+00 0.  1.
         36    2    1    2    0    0  0.35527136788E-14 -0.35527136788E-14  0.14257956328E+03  0.31180696936E+03  0.27729885372E+03 0.  0.
         25    2    3    3    0    0 -0.12351035303E+02 -0.90621009980E+01  0.13424073229E+03  0.18472402646E+03  0.12596714650E+03 0.  0.
         25    2    3    3    0    0  0.12351035303E+02  0.90621009980E+01  0.83388309936E+01  0.12708294290E+03  0.12588037388E+03 0.  0.
          5    1    4    4  502    0 -0.21733043757E+02 -0.56339065881E+02  0.11971528691E+03  0.13416503068E+03  0.47000000000E+01 0.  1.
         -5    1    4    4    0  502  0.93820084538E+01  0.47276964883E+02  0.14525445376E+02  0.50558995783E+02  0.47000000000E+01 0.  1.
          5    1    5    5  503    0  0.42675569950E+02  0.12499194930E+00  0.55465204751E+02  0.70140564808E+02  0.47000000000E+01 0. -1.
         -5    1    5    5    0  503 -0.30324534647E+02  0.89371090487E+01 -0.47126373757E+02  0.56942378096E+02  0.47000000000E+01 0. -1.
<mgrwt>
<rscale>  0 0.27729885E+03</rscale>
<asrwt>0</asrwt>
<pdfrwt beam="1">  1        2 0.34952810E-01 0.27729885E+03</pdfrwt>
<pdfrwt beam="2">  1       -2 0.13017493E-01 0.27729885E+03</pdfrwt>
<totfact> 0.63654240E+03</totfact>
</mgrwt>
</event>
<event>
 9    1  0.2051157E-002  0.2757557E+03  0.7818608E-02  0.1098030E+00
          2   -1    0    0  501    0  0.00000000000E+00  0.00000000000E+00  0.90794317228E+02  0.90794317228E+02  0.00000000000E+00 0. -1.
         -2   -1    0    0    0  501 -0.00000000000E+00 -0.00000000000E+00 -0.20937770839E+03  0.20937770839E+03  0.00000000000E+00 0. -1.
         36    2    1    2    0    0 -0.71054273576E-14 -0.14210854715E-13 -0.11858339116E+03  0.30017202562E+03  0.27575573304E+03 0.  0.
         25    2    3    3    0    0 -0.62324453043E+01  0.58099816666E+02 -0.66683624963E+02  0.15412406036E+03  0.12606779158E+03 0.  0.
         25    2    3    3    0    0  0.62324453043E+01 -0.58099816666E+02 -0.51899766200E+02  0.14604796526E+03  0.12337743049E+03 0.  0.
          5    1    4    4  502    0  0.47251390047E+02  0.69391171912E+02 -0.40943113135E+02  0.93521425961E+02  0.47000000000E+01 0.  1.
         -5    1    4    4    0  502 -0.53483835351E+02 -0.11291355246E+02 -0.25740511828E+02  0.60602634401E+02  0.47000000000E+01 0.  1.
          5    1    5    5  503    0 -0.44348687230E+02 -0.36534601176E+02  0.14757524432E+02  0.59510147617E+02  0.47000000000E+01 0. -1.
         -5    1    5    5    0  503  0.50581132534E+02 -0.21565215490E+02 -0.66657290632E+02  0.86537817640E+02  0.47000000000E+01 0. -1.
<mgrwt>
<rscale>  0 0.27575573E+03</rscale>
<asrwt>0</asrwt>
<pdfrwt beam="1">  1        2 0.13968357E-01 0.27575573E+03</pdfrwt>
<pdfrwt beam="2">  1       -2 0.32211955E-01 0.27575573E+03</pdfrwt>
<totfact> 0.37888712E+03</totfact>
</mgrwt>
</event>
<event>
 9    1  0.2051157E-002  0.2746120E+03  0.7818608E-02  0.1098669E+00
         -2   -1    0    0    0  501 -0.00000000000E+00  0.00000000000E+00  0.15569444306E+02  0.15569444306E+02  0.00000000000E+00 0.  1.
          2   -1    0    0  501    0  0.00000000000E+00 -0.00000000000E+00 -0.12108934945E+04  0.12108934945E+04  0.00000000000E+00 0.  1.
         36    2    1    2    0    0  0.71054273576E-14  0.71054273576E-14 -0.11953240502E+04  0.12264629388E+04  0.27461200864E+03 0.  0.
         25    2    3    3    0    0 -0.22302254027E+02 -0.27802968476E+02 -0.38114307128E+03  0.40207508436E+03  0.12297941733E+03 0.  0.
         25    2    3    3    0    0  0.22302254027E+02  0.27802968476E+02 -0.81418097889E+03  0.82438785442E+03  0.12431521444E+03 0.  0.
          5    1    4    4  502    0 -0.62317061535E+02  0.83821804245E+01 -0.28343025920E+03  0.29035922396E+03  0.47000000000E+01 0. -1.
         -5    1    4    4    0  502  0.40014807509E+02 -0.36185148901E+02 -0.97712812082E+02  0.11171586040E+03  0.47000000000E+01 0. -1.
          5    1    5    5  503    0 -0.84531018756E+01  0.73448005601E+02 -0.46421093983E+03  0.47008504669E+03  0.47000000000E+01 0. -1.
         -5    1    5    5    0  503  0.30755355903E+02 -0.45645037125E+02 -0.34997003906E+03  0.35430280774E+03  0.47000000000E+01 0. -1.
<mgrwt>
<rscale>  0 0.27461201E+03</rscale>
<asrwt>0</asrwt>
<pdfrwt beam="1">  1        2 0.18629135E+00 0.27461201E+03</pdfrwt>
<pdfrwt beam="2">  1       -2 0.23952985E-02 0.27461201E+03</pdfrwt>
<totfact> 0.11648199E+04</totfact>
</mgrwt>
</event>
<event>
 9    1  0.2051157E-002  0.2752553E+03  0.7818608E-02  0.1098309E+00
         -2   -1    0    0    0  501 -0.00000000000E+00  0.00000000000E+00  0.11848813256E+02  0.11848813256E+02  0.00000000000E+00 0. -1.
          2   -1    0    0  501    0  0.00000000000E+00 -0.00000000000E+00 -0.15985882944E+04  0.15985882944E+04  0.00000000000E+00 0. -1.
         36    2    1    2    0    0  0.71054273576E-14 -0.35527136788E-14 -0.15867394812E+04  0.16104371077E+04  0.27525533001E+03 0.  0.
         25    2    3    3    0    0 -0.28237194266E+02  0.28243614976E+02 -0.56981080328E+03  0.58471367401E+03  0.12494273932E+03 0.  0.
         25    2    3    3    0    0  0.28237194266E+02 -0.28243614976E+02 -0.10169286779E+04  0.10257234337E+04  0.12794368116E+03 0.  0.
          5    1    4    4  502    0  0.28779303331E+02 -0.27993944049E+02 -0.31473312450E+03  0.31731835569E+03  0.47000000000E+01 0.  1.
         -5    1    4    4    0  502 -0.57016497597E+02  0.56237559026E+02 -0.25507767878E+03  0.26739531832E+03  0.47000000000E+01 0.  1.
          5    1    5    5  503    0 -0.11887768726E+02 -0.71238044675E+02 -0.45706097503E+03  0.46275587835E+03  0.47000000000E+01 0.  1.
         -5    1    5    5    0  503  0.40124962992E+02  0.42994429698E+02 -0.55986770286E+03  0.56296755532E+03  0.47000000000E+01 0.  1.
<mgrwt>
<rscale>  0 0.27525533E+03</rscale>
<asrwt>0</asrwt>
<pdfrwt beam="1">  1        2 0.24593682E+00 0.27525533E+03</pdfrwt>
<pdfrwt beam="2">  1       -2 0.18228931E-02 0.27525533E+03</pdfrwt>
<totfact> 0.10712185E+04</totfact>
</mgrwt>
</event>
<event>
 9    1  0.2051157E-002  0.2772525E+03  0.7818608E-02  0.1097199E+00
         -2   -1    0    0    0  501 -0.00000000000E+00  0.00000000000E+00  0.53190430712E+02  0.53190430712E+02  0.00000000000E+00 0.  1.
          2   -1    0    0  501    0  0.00000000000E+00 -0.00000000000E+00 -0.36129127549E+03  0.36129127549E+03  0.00000000000E+00 0.  1.
         36    2    1    2    0    0  0.00000000000E+00  0.71054273576E-14 -0.30810084478E+03  0.41448170620E+03  0.27725250986E+03 0.  0.
         25    2    3    3    0    0 -0.18096079034E+02  0.48927074258E+02 -0.19331946729E+03  0.23701241241E+03  0.12681143691E+03 0.  0.
         25    2    3    3    0    0  0.18096079034E+02 -0.48927074258E+02 -0.11478137748E+03  0.17746929379E+03  0.12489699335E+03 0.  0.
          5    1    4    4  502    0  0.59038614231E+01 -0.95691720024E+01  0.14960557544E+02  0.19295929999E+02  0.47000000000E+01 0. -1.
         -5    1    4    4    0  502 -0.23999940457E+02  0.58496246260E+02 -0.20828002484E+03  0.21771648242E+03  0.47000000000E+01 0. -1.
          5    1    5    5  503    0  0.47055385318E+02 -0.67540083933E+02 -0.11645159034E+03  0.14268474031E+03  0.47000000000E+01 0. -1.
         -5    1    5    5    0  503 -0.28959306284E+02  0.18613009675E+02  0.16702128548E+01  0.34784553477E+02  0.47000000000E+01 0. -1.
<mgrwt>
<rscale>  0 0.27725251E+03</rscale>
<asrwt>0</asrwt>
<pdfrwt beam="1">  1        2 0.55583271E-01 0.27725251E+03</pdfrwt>
<pdfrwt beam="2">  1       -2 0.81831434E-02 0.27725251E+03</pdfrwt>
<totfact> 0.80912643E+03</totfact>
</mgrwt>
</event>
<event>
 9    1  0.2051157E-002  0.2750248E+03  0.7818608E-02  0.1098438E+00
          2   -1    0    0  501    0  0.00000000000E+00  0.00000000000E+00  0.13002149839E+04  0.13002149839E+04  0.00000000000E+00 0. -1.
         -2   -1    0    0    0  501 -0.00000000000E+00 -0.00000000000E+00 -0.14543489356E+02  0.14543489356E+02  0.00000000000E+00 0. -1.
         36    2    1    2    0    0 -0.17763568394E-14 -0.14210854715E-13  0.12856714945E+04  0.13147584732E+04  0.27502481909E+03 0.  0.
         25    2    3    3    0    0 -0.10433627232E+02  0.51121880789E+02  0.47804440126E+03  0.49727653951E+03  0.12663016978E+03 0.  0.
         25    2    3    3    0    0  0.10433627232E+02 -0.51121880789E+02  0.80762709326E+03  0.81748193373E+03  0.11529476538E+03 0.  0.
          5    1    4    4  502    0 -0.20061049226E+02 -0.16661191078E+02  0.35817198075E+03  0.35915080228E+03  0.47000000000E+01 0. -1.
         -5    1    4    4    0  502  0.96274219944E+01  0.67783071867E+02  0.11987242051E+03  0.13812573723E+03  0.47000000000E+01 0. -1.
          5    1    5    5  503    0 -0.69923398907E+01 -0.39995874278E+02  0.82743717124E+02  0.92288544793E+02  0.47000000000E+01 0.  1.
         -5    1    5    5    0  503  0.17425967123E+02 -0.11126006510E+02  0.72488337614E+03  0.72519338893E+03  0.47000000000E+01 0.  1.
<mgrwt>
<rscale>  0 0.27502482E+03</rscale>
<asrwt>0</asrwt>
<pdfrwt beam="1">  1        2 0.20003298E+00 0.27502482E+03</pdfrwt>
<pdfrwt beam="2">  1       -2 0.22374609E-02 0.27502482E+03</pdfrwt>
<totfact> 0.11481231E+04</totfact>
</mgrwt>
</event>
<event>
 9    1  0.2051157E-002  0.2749087E+03  0.7818608E-02  0.1098503E+00
         -2   -1    0    0    0  501 -0.00000000000E+00  0.00000000000E+00  0.37200186635E+02  0.37200186635E+02  0.00000000000E+00 0. -1.
          2   -1    0    0  501    0  0.00000000000E+00 -0.00000000000E+00 -0.50789255351E+03  0.50789255351E+03  0.00000000000E+00 0. -1.
         36    2    1    2    0    0  0.35527136788E-14  0.00000000000E+00 -0.47069236688E+03  0.54509274015E+03  0.27490869598E+03 0.  0.
         25    2    3    3    0    0  0.31858870754E+02  0.45103789338E+02 -0.22139377345E+03  0.25897066383E+03  0.12247964053E+03 0.  0.
         25    2    3    3    0    0 -0.31858870754E+02 -0.45103789338E+02 -0.24929859342E+03  0.28612207631E+03  0.12909962979E+03 0.  0.
          5    1    4    4  502    0  0.30823972849E+02  0.83439954957E+02 -0.11293775450E+03  0.14383799837E+03  0.47000000000E+01 0. -1.
         -5    1    4    4    0  502  0.10348979056E+01 -0.38336165619E+02 -0.10845601895E+03  0.11513266546E+03  0.47000000000E+01 0. -1.
          5    1    5    5  503    0 -0.25874913271E+02 -0.88746728922E+02 -0.19643132453E+03  0.21714706603E+03  0.47000000000E+01 0. -1.
         -5    1    5    5    0  503 -0.59839574835E+01  0.43642939584E+02 -0.52867268896E+02  0.68975010280E+02  0.47000000000E+01 0. -1.
<mgrwt>
<rscale>  0 0.27490870E+03</rscale>
<asrwt>0</asrwt>
<pdfrwt beam="1">  1        2 0.78137306E-01 0.27490870E+03</pdfrwt>
<pdfrwt beam="2">  1       -2 0.57231063E-02 0.27490870E+03</pdfrwt>
<totfact> 0.96794713E+03</totfact>
</mgrwt>
</event>
<event>
 9    1  0.2051157E-002  0.2792551E+03  0.7818608E-02  0.1096096E+00
         -2   -1    0    0    0  501 -0.00000000000E+00  0.00000000000E+00  0.15378147523E+02  0.15378147523E+02  0.00000000000E+00 0. -1.
          2   -1    0    0  501    0  0.00000000000E+00 -0.00000000000E+00 -0.12677633020E+04  0.12677633020E+04  0.00000000000E+00 0. -1.
         36    2    1    2    0    0  0.35527136788E-14  0.00000000000E+00 -0.12523851545E+04  0.12831414495E+04  0.27925508827E+03 0.  0.
         25    2    3    3    0    0 -0.32093820551E+01 -0.58272014905E+02 -0.65000275092E+03  0.66405151614E+03  0.12269845977E+03 0.  0.
         25    2    3    3    0    0  0.32093820551E+01  0.58272014905E+02 -0.60238240353E+03  0.61908993336E+03  0.13039117166E+03 0.  0.
          5    1    4    4  502    0 -0.22320490402E+02 -0.92833137863E+02 -0.43197098133E+03  0.44242198689E+03  0.47000000000E+01 0. -1.
         -5    1    4    4    0  502  0.19111108347E+02  0.34561122957E+02 -0.21803176959E+03  0.22162952924E+03  0.47000000000E+01 0. -1.
          5    1    5    5  503    0  0.22500661581E+02 -0.29683592459E+02 -0.73051975632E+02  0.82134502960E+02  0.47000000000E+01 0. -1.
         -5    1    5    5    0  503 -0.19291279525E+02  0.87955607364E+02 -0.52933042790E+03  0.53695543040E+03  0.47000000000E+01 0. -1.
<mgrwt>
<rscale>  0 0.27925509E+03</rscale>
<asrwt>0</asrwt>
<pdfrwt beam="1">  1        2 0.19504054E+00 0.27925509E+03</pdfrwt>
<pdfrwt beam="2">  1       -2 0.23658685E-02 0.27925509E+03</pdfrwt>
<totfact> 0.11025732E+04</totfact>
</mgrwt>
</event>
<event>
 9    1  0.2051157E-002  0.2750881E+03  0.7818608E-02  0.1098402E+00
         -2   -1    0    0    0  501 -0.00000000000E+00  0.00000000000E+00  0.36297932802E+02  0.36297932802E+02  0.00000000000E+00 0. -1.
          2   -1    0    0  501    0  0.00000000000E+00 -0.00000000000E+00 -0.52119682335E+03  0.52119682335E+03  0.00000000000E+00 0. -1.
         36    2    1    2    0    0  0.00000000000E+00  0.00000000000E+00 -0.48489889055E+03  0.55749475615E+03  0.27508811149E+03 0.  0.
         25    2    3    3    0    0 -0.24892777220E+02 -0.54347957533E+02 -0.22065261388E+03  0.25928289523E+03  0.12233843592E+03 0.  0.
         25    2    3    3    0    0  0.24892777220E+02  0.54347957533E+02 -0.26424627667E+03  0.29821186092E+03  0.12462290485E+03 0.  0.
          5    1    4    4  502    0 -0.52694845716E+02 -0.52600835431E+01 -0.31400342790E+02  0.61745338053E+02  0.47000000000E+01 0.  1.
         -5    1    4    4    0  502  0.27802068496E+02 -0.49087873990E+02 -0.18925227109E+03  0.19753755718E+03  0.47000000000E+01 0.  1.
          5    1    5    5  503    0 -0.50599232905E+02  0.20833323535E+02 -0.92449779312E+02  0.10753307135E+03  0.47000000000E+01 0.  1.
         -5    1    5    5    0  503  0.75492010125E+02  0.33514633998E+02 -0.17179649736E+03  0.19067878956E+03  0.47000000000E+01 0.  1.
<mgrwt>
<rscale>  0 0.27508811E+03</rscale>
<asrwt>0</asrwt>
<pdfrwt beam="1">  1        2 0.80184130E-01 0.27508811E+03</pdfrwt>
<pdfrwt beam="2">  1       -2 0.55842971E-02 0.27508811E+03</pdfrwt>
<totfact> 0.97620394E+03</totfact>
</mgrwt>
</event>
<event>
 9    1  0.2051157E-002  0.2750229E+03  0.7818608E-02  0.1098439E+00
         -2   -1    0    0    0  501 -0.00000000000E+00  0.00000000000E+00  0.40681731130E+03  0.40681731130E+03  0.00000000000E+00 0. -1.
          2   -1    0    0  501    0  0.00000000000E+00 -0.00000000000E+00 -0.46481307453E+02  0.46481307453E+02  0.00000000000E+00 0. -1.
         36    2    1    2    0    0  0.00000000000E+00 -0.71054273576E-14  0.36033600385E+03  0.45329861876E+03  0.27502291195E+03 0.  0.
         25    2    3    3    0    0 -0.52244417940E+02  0.42861744959E+02  0.29539584052E+03  0.32660974864E+03  0.12185490110E+03 0.  0.
         25    2    3    3    0    0  0.52244417940E+02 -0.42861744959E+02  0.64940163333E+02  0.12668887012E+03  0.85242223178E+02 0.  0.
          5    1    4    4  502    0 -0.49128609598E+02 -0.99784981200E+01  0.36178034674E+02  0.62001055625E+02  0.47000000000E+01 0.  1.
         -5    1    4    4    0  502 -0.31158083414E+01  0.52840243079E+02  0.25921780584E+03  0.26460869301E+03  0.47000000000E+01 0.  1.
          5    1    5    5  503    0  0.70078774421E+02 -0.44540237888E+02  0.32417138167E+02  0.89262692444E+02  0.47000000000E+01 0. -1.
         -5    1    5    5    0  503 -0.17834356481E+02  0.16784929289E+01  0.32523025166E+02  0.37426177678E+02  0.47000000000E+01 0. -1.
<mgrwt>
<rscale>  0 0.27502291E+03</rscale>
<asrwt>0</asrwt>
<pdfrwt beam="1">  1        2 0.71509706E-02 0.27502291E+03</pdfrwt>
<pdfrwt beam="2">  1       -2 0.62587276E-01 0.27502291E+03</pdfrwt>
<totfact> 0.23721949E+03</totfact>
</mgrwt>
</event>
<event>
 9    1  0.2051157E-002  0.2751130E+03  0.7818608E-02  0.1098388E+00
         -2   -1    0    0    0  501 -0.00000000000E+00  0.00000000000E+00  0.12861806463E+03  0.12861806463E+03  0.00000000000E+00 0. -1.
          2   -1    0    0  501    0  0.00000000000E+00 -0.00000000000E+00 -0.14711613428E+03  0.14711613428E+03  0.00000000000E+00 0. -1.
         36    2    1    2    0    0 -0.71054273576E-14  0.35527136788E-14 -0.18498069651E+02  0.27573419890E+03  0.27511301289E+03 0.  0.
         25    2    3    3    0    0  0.45420100217E+02 -0.31399443031E+02  0.37892844156E+01  0.13863768973E+03  0.12711073838E+03 0.  0.
         25    2    3    3    0    0 -0.45420100217E+02  0.31399443031E+02 -0.22287354066E+02  0.13709650918E+03  0.12349014596E+03 0.  0.
          5    1    4    4  502    0  0.41700154495E+02 -0.30218360851E+02 -0.57334119162E+02  0.77209736675E+02  0.47000000000E+01 0.  1.
         -5    1    4    4    0  502  0.37199457227E+01 -0.11810821804E+01  0.61123403578E+02  0.61427953052E+02  0.47000000000E+01 0.  1.
          5    1    5    5  503    0  0.24228910304E+02 -0.28638996905E+02  0.10699912658E+02  0.39291352345E+02  0.47000000000E+01 0.  1.
         -5    1    5    5    0  503 -0.69649010521E+02  0.60038439937E+02 -0.32987266724E+02  0.97805156830E+02  0.47000000000E+01 0.  1.
<mgrwt>
<rscale>  0 0.27511301E+03</rscale>
<asrwt>0</asrwt>
<pdfrwt beam="1">  1        2 0.22633251E-01 0.27511301E+03</pdfrwt>
<pdfrwt beam="2">  1       -2 0.19787395E-01 0.27511301E+03</pdfrwt>
<totfact> 0.51213409E+03</totfact>
</mgrwt>
</event>
<event>
 9    1  0.2051157E-002  0.2734866E+03  0.7818608E-02  0.1099301E+00
         -1   -1    0    0    0  501 -0.00000000000E+00  0.00000000000E+00  0.93438018440E+02  0.93438018440E+02  0.00000000000E+00 0.  1.
          1   -1    0    0  501    0  0.00000000000E+00 -0.00000000000E+00 -0.20011913918E+03  0.20011913918E+03  0.00000000000E+00 0.  1.
         36    2    1    2    0    0 -0.35527136788E-14  0.00000000000E+00 -0.10668112074E+03  0.29355715762E+03  0.27348664185E+03 0.  0.
         25    2    3    3    0    0 -0.25283349378E+02 -0.36690231886E+02 -0.33781630504E+02  0.13885776820E+03  0.12710177166E+03 0.  0.
         25    2    3    3    0    0  0.25283349378E+02  0.36690231886E+02 -0.72899490240E+02  0.15469938942E+03  0.12896567194E+03 0.  0.
          5    1    4    4  502    0 -0.72099948969E+02  0.35881808915E+01 -0.23565697996E+02  0.76083571193E+02  0.47000000000E+01 0.  1.
         -5    1    4    4    0  502  0.46816599590E+02 -0.40278412778E+02 -0.10215932508E+02  0.62774197009E+02  0.47000000000E+01 0.  1.
          5    1    5    5  503    0  0.72361997439E+01  0.72273857419E+02 -0.15343082567E+01  0.72803277088E+02  0.47000000000E+01 0. -1.
         -5    1    5    5    0  503  0.18047149635E+02 -0.35583625533E+02 -0.71365181983E+02  0.81896112334E+02  0.47000000000E+01 0. -1.
<mgrwt>
<rscale>  0 0.27348664E+03</rscale>
<asrwt>0</asrwt>
<pdfrwt beam="1">  1        1 0.30787560E-01 0.27348664E+03</pdfrwt>
<pdfrwt beam="2">  1       -1 0.14375080E-01 0.27348664E+03</pdfrwt>
<totfact> 0.50056447E+03</totfact>
</mgrwt>
</event>
<event>
 9    1  0.2051157E-002  0.2747469E+03  0.7818608E-02  0.1098593E+00
         -1   -1    0    0    0  501 -0.00000000000E+00  0.00000000000E+00  0.16149259163E+04  0.16149259163E+04  0.00000000000E+00 0. -1.
          1   -1    0    0  501    0  0.00000000000E+00 -0.00000000000E+00 -0.11685651412E+02  0.11685651412E+02  0.00000000000E+00 0. -1.
         36    2    1    2    0    0  0.71054273576E-14  0.35527136788E-14  0.16032402649E+04  0.16266115677E+04  0.27474687488E+03 0.  0.
         25    2    3    3    0    0 -0.20841965105E+02 -0.23813233801E+02  0.55165494413E+03  0.56442305157E+03  0.11510319780E+03 0.  0.
         25    2    3    3    0    0  0.20841965105E+02  0.23813233801E+02  0.10515853207E+04  0.10621885161E+04  0.14632600377E+03 0.  0.
          5    1    4    4  502    0  0.35263273725E+02 -0.44518801774E+02  0.32530559867E+03  0.33025935977E+03  0.47000000000E+01 0. -1.
         -5    1    4    4    0  502 -0.56105238830E+02  0.20705567973E+02  0.22634934546E+03  0.23416369181E+03  0.47000000000E+01 0. -1.
          5    1    5    5  503    0 -0.52114218308E+02  0.40806664298E+02  0.67097611653E+03  0.67424929703E+03  0.47000000000E+01 0. -1.
         -5    1    5    5    0  503  0.72956183413E+02 -0.16993430497E+02  0.38060920422E+03  0.38793921910E+03  0.47000000000E+01 0. -1.
<mgrwt>
<rscale>  0 0.27474687E+03</rscale>
<asrwt>0</asrwt>
<pdfrwt beam="1">  1        1 0.17977938E-02 0.27474687E+03</pdfrwt>
<pdfrwt beam="2">  1       -1 0.24844996E+00 0.27474687E+03</pdfrwt>
<totfact> 0.57104038E+02</totfact>
</mgrwt>
</event>
<event>
 9    1  0.2051157E-002  0.2815820E+03  0.7818608E-02  0.1094828E+00
         -1   -1    0    0    0  501 -0.00000000000E+00  0.00000000000E+00  0.49157631567E+02  0.49157631567E+02  0.00000000000E+00 0. -1.
          1   -1    0    0  501    0  0.00000000000E+00 -0.00000000000E+00 -0.40323557850E+03  0.40323557850E+03  0.00000000000E+00 0. -1.
         36    2    1    2    0    0  0.00000000000E+00  0.00000000000E+00 -0.35407794693E+03  0.45239321006E+03  0.28158200228E+03 0.  0.
         25    2    3    3    0    0  0.36427494896E+02  0.48573351809E+02 -0.16229816588E+03  0.21487277847E+03  0.12705622137E+03 0.  0.
         25    2    3    3    0    0 -0.36427494896E+02 -0.48573351809E+02 -0.19177978105E+03  0.23752043160E+03  0.12629385621E+03 0.  0.
          5    1    4    4  502    0  0.12708294809E+02  0.30233390902E+02 -0.17775391678E+03  0.18081510892E+03  0.47000000000E+01 0.  1.
         -5    1    4    4    0  502  0.23719200086E+02  0.18339960907E+02  0.15455750905E+02  0.34057669545E+02  0.47000000000E+01 0.  1.
          5    1    5    5  503    0 -0.58262523313E+02 -0.33387610607E+02 -0.30339508604E+02  0.73836508227E+02  0.47000000000E+01 0. -1.
         -5    1    5    5    0  503  0.21835028417E+02 -0.15185741202E+02 -0.16144027245E+03  0.16368392337E+03  0.47000000000E+01 0. -1.
<mgrwt>
<rscale>  0 0.28158200E+03</rscale>
<asrwt>0</asrwt>
<pdfrwt beam="1">  1        1 0.62036240E-01 0.28158200E+03</pdfrwt>
<pdfrwt beam="2">  1       -1 0.75627129E-02 0.28158200E+03</pdfrwt>
<totfact> 0.56024809E+03</totfact>
</mgrwt>
</event>
<event>
 9    1  0.2051157E-002  0.2746322E+03  0.7818608E-02  0.1098657E+00
         -1   -1    0    0    0  501 -0.00000000000E+00  0.00000000000E+00  0.40290580974E+02  0.40290580974E+02  0.00000000000E+00 0.  1.
          1   -1    0    0  501    0  0.00000000000E+00 -0.00000000000E+00 -0.46799291570E+03  0.46799291570E+03  0.00000000000E+00 0.  1.
         36    2    1    2    0    0  0.14210854715E-13  0.00000000000E+00 -0.42770233473E+03  0.50828349667E+03  0.27463216465E+03 0.  0.
         25    2    3    3    0    0 -0.34265419375E+02  0.45196818133E+02 -0.22905951624E+03  0.26743224692E+03  0.12583669327E+03 0.  0.
         25    2    3    3    0    0  0.34265419375E+02 -0.45196818133E+02 -0.19864281848E+03  0.24085124976E+03  0.12382844520E+03 0.  0.
          5    1    4    4  502    0  0.46420604471E+02  0.30193689467E+02 -0.84594611820E+02  0.10121694400E+03  0.47000000000E+01 0.  1.
         -5    1    4    4    0  502 -0.80686023847E+02  0.15003128666E+02 -0.14446490442E+03  0.16621530292E+03  0.47000000000E+01 0.  1.
          5    1    5    5  503    0  0.71359936447E+02 -0.36389995840E+02 -0.69626610289E+02  0.10623759780E+03  0.47000000000E+01 0. -1.
         -5    1    5    5    0  503 -0.37094517072E+02 -0.88068222931E+01 -0.12901620819E+03  0.13461365195E+03  0.47000000000E+01 0. -1.
<mgrwt>
<rscale>  0 0.27463216E+03</rscale>
<asrwt>0</asrwt>
<pdfrwt beam="1">  1        1 0.71998908E-01 0.27463216E+03</pdfrwt>
<pdfrwt beam="2">  1       -1 0.61985511E-02 0.27463216E+03</pdfrwt>
<totfact> 0.62400044E+03</totfact>
</mgrwt>
</event>
<event>
 9    1  0.2051157E-002  0.2771470E+03  0.7818608E-02  0.1097257E+00
         -2   -1    0    0    0  501 -0.00000000000E+00  0.00000000000E+00  0.13420071575E+02  0.13420071575E+02  0.00000000000E+00 0.  1.
          2   -1    0    0  501    0  0.00000000000E+00 -0.00000000000E+00 -0.14308874230E+04  0.14308874230E+04  0.00000000000E+00 0.  1.
         36    2    1    2    0    0  0.00000000000E+00  0.00000000000E+00 -0.14174673514E+04  0.14443074946E+04  0.27714697641E+03 0.  0.
         25    2    3    3    0    0 -0.33913738955E+02 -0.23318495311E+02 -0.91740771285E+03  0.92709229472E+03  0.12715863094E+03 0.  0.
         25    2    3    3    0    0  0.33913738955E+02  0.23318495311E+02 -0.50005963859E+03  0.51721519987E+03  0.12553097990E+03 0.  0.
          5    1    4    4  502    0  0.40922932848E+02 -0.26610644409E+02 -0.54464406400E+03  0.54684738208E+03  0.47000000000E+01 0.  1.
         -5    1    4    4    0  502 -0.74836671804E+02  0.32921490975E+01 -0.37276364885E+03  0.38024491265E+03  0.47000000000E+01 0.  1.
          5    1    5    5  503    0  0.16714547742E+02 -0.27056475789E+02 -0.41834874125E+03  0.41958215917E+03  0.47000000000E+01 0. -1.
         -5    1    5    5    0  503  0.17199191214E+02  0.50374971100E+02 -0.81710897340E+02  0.97633040697E+02  0.47000000000E+01 0. -1.
<mgrwt>
<rscale>  0 0.27714698E+03</rscale>
<asrwt>0</asrwt>
<pdfrwt beam="1">  1        2 0.22013653E+00 0.27714698E+03</pdfrwt>
<pdfrwt beam="2">  1       -2 0.20646264E-02 0.27714698E+03</pdfrwt>
<totfact> 0.10967159E+04</totfact>
</mgrwt>
</event>
<event>
 9    1  0.2051157E-002  0.2756895E+03  0.7818608E-02  0.1098067E+00
         -1   -1    0    0    0  501 -0.00000000000E+00  0.00000000000E+00  0.58490031659E+01  0.58490031659E+01  0.00000000000E+00 0.  1.
          1   -1    0    0  501    0  0.00000000000E+00 -0.00000000000E+00 -0.32486186919E+04  0.32486186919E+04  0.00000000000E+00 0.  1.
         36    2    1    2    0    0  0.71054273576E-14  0.71054273576E-14 -0.32427696888E+04  0.32544676951E+04  0.27568954288E+03 0.  0.
         25    2    3    3    0    0 -0.24357539236E+02  0.43065811693E+01 -0.22550099770E+04  0.22586601254E+04  0.12595129740E+03 0.  0.
         25    2    3    3    0    0  0.24357539236E+02 -0.43065811693E+01 -0.98775971177E+03  0.99580756970E+03  0.12390170028E+03 0.  0.
          5    1    4    4  502    0 -0.65931145380E+02 -0.31318366047E+02 -0.13586025378E+04  0.13605699914E+04  0.47000000000E+01 0. -1.
         -5    1    4    4    0  502  0.41573606144E+02  0.35624947216E+02 -0.89640743924E+03  0.89809013396E+03  0.47000000000E+01 0. -1.
          5    1    5    5  503    0  0.29143632234E+01  0.57489151007E+02 -0.57190382627E+03  0.57481264121E+03  0.47000000000E+01 0.  1.
         -5    1    5    5    0  503  0.21443176012E+02 -0.61795732176E+02 -0.41585588550E+03  0.42099492849E+03  0.47000000000E+01 0.  1.
<mgrwt>
<rscale>  0 0.27568954E+03</rscale>
<asrwt>0</asrwt>
<pdfrwt beam="1">  1        1 0.49978583E+00 0.27568954E+03</pdfrwt>
<pdfrwt beam="2">  1       -1 0.89984963E-03 0.27568954E+03</pdfrwt>
<totfact> 0.10549234E+03</totfact>
</mgrwt>
</event>
<event>
 9    1  0.2051157E-002  0.2730300E+03  0.7818608E-02  0.1099558E+00
         -2   -1    0    0    0  501 -0.00000000000E+00  0.00000000000E+00  0.18544963629E+02  0.18544963629E+02  0.00000000000E+00 0.  1.
          2   -1    0    0  501    0  0.00000000000E+00 -0.00000000000E+00 -0.10049275619E+04  0.10049275619E+04  0.00000000000E+00 0.  1.
         36    2    1    2    0    0  0.00000000000E+00 -0.71054273576E-14 -0.98638259825E+03  0.10234725255E+04  0.27302999897E+03 0.  0.
         25    2    3    3    0    0  0.21478970379E+02  0.47140057976E+02 -0.46481125932E+03  0.48419360648E+03  0.12534117655E+03 0.  0.
         25    2    3    3    0    0 -0.21478970379E+02 -0.47140057976E+02 -0.52157133894E+03  0.53927891903E+03  0.12689192122E+03 0.  0.
          5    1    4    4  502    0  0.22758171743E+02  0.39392793965E+02 -0.44599373045E+02  0.63882084135E+02  0.47000000000E+01 0. -1.
         -5    1    4    4    0  502 -0.12792013638E+01  0.77472640117E+01 -0.42021188627E+03  0.42031152235E+03  0.47000000000E+01 0. -1.
          5    1    5    5  503    0 -0.37464446771E+02  0.29209605848E+02 -0.10366030428E+03  0.11412420658E+03  0.47000000000E+01 0. -1.
         -5    1    5    5    0  503  0.15985476392E+02 -0.76349663824E+02 -0.41791103466E+03  0.42515471244E+03  0.47000000000E+01 0. -1.
<mgrwt>
<rscale>  0 0.27303000E+03</rscale>
<asrwt>0</asrwt>
<pdfrwt beam="1">  1        2 0.15460429E+00 0.27303000E+03</pdfrwt>
<pdfrwt beam="2">  1       -2 0.28530704E-02 0.27303000E+03</pdfrwt>
<totfact> 0.11870483E+04</totfact>
</mgrwt>
</event>
<event>
 9    1  0.2051157E-002  0.2737260E+03  0.7818608E-02  0.1099166E+00
          2   -1    0    0  501    0  0.00000000000E+00  0.00000000000E+00  0.21165503033E+03  0.21165503033E+03  0.00000000000E+00 0.  1.
         -2   -1    0    0    0  501 -0.00000000000E+00 -0.00000000000E+00 -0.88500064008E+02  0.88500064008E+02  0.00000000000E+00 0.  1.
         36    2    1    2    0    0 -0.10658141036E-13  0.00000000000E+00  0.12315496632E+03  0.30015509434E+03  0.27372602165E+03 0.  0.
         25    2    3    3    0    0 -0.18082377311E+02 -0.62985455258E+00 -0.16680066379E+01  0.12399218731E+03  0.12265362278E+03 0.  0.
         25    2    3    3    0    0  0.18082377311E+02  0.62985455258E+00  0.12482297296E+03  0.17616290703E+03  0.12298465819E+03 0.  0.
          5    1    4    4  502    0  0.21552911352E+02  0.22635294702E+02  0.47160427791E+02  0.56772180718E+02  0.47000000000E+01 0. -1.
         -5    1    4    4    0  502 -0.39635288663E+02 -0.23265149255E+02 -0.48828434429E+02  0.67220006590E+02  0.47000000000E+01 0. -1.
          5    1    5    5  503    0 -0.47661636760E+02  0.24143987588E+02  0.63460474509E+02  0.83089623782E+02  0.47000000000E+01 0. -1.
         -5    1    5    5    0  503  0.65744014071E+02 -0.23514133035E+02  0.61362498449E+02  0.93073283248E+02  0.47000000000E+01 0. -1.
<mgrwt>
<rscale>  0 0.27372602E+03</rscale>
<asrwt>0</asrwt>
<pdfrwt beam="1">  1        2 0.32562312E-01 0.27372602E+03</pdfrwt>
<pdfrwt beam="2">  1       -2 0.13615394E-01 0.27372602E+03</pdfrwt>
<totfact> 0.63867620E+03</totfact>
</mgrwt>
</event>
<event>
 9    1  0.2051157E-002  0.2750334E+03  0.7818608E-02  0.1098433E+00
         -2   -1    0    0    0  501 -0.00000000000E+00  0.00000000000E+00  0.88582247584E+01  0.88582247584E+01  0.00000000000E+00 0.  1.
          2   -1    0    0  501    0  0.00000000000E+00 -0.00000000000E+00 -0.21348350734E+04  0.21348350734E+04  0.00000000000E+00 0.  1.
         36    2    1    2    0    0  0.00000000000E+00 -0.35527136788E-14 -0.21259768486E+04  0.21436932981E+04  0.27503344453E+03 0.  0.
         25    2    3    3    0    0  0.52407553996E+02  0.19030130763E+02 -0.13941615007E+04  0.14005767113E+04  0.12173798407E+03 0.  0.
         25    2    3    3    0    0 -0.52407553996E+02 -0.19030130763E+02 -0.73181534794E+03  0.74311658680E+03  0.11644681406E+03 0.  0.
          5    1    4    4  502    0  0.67427566812E+02 -0.45466328218E+01 -0.13103730393E+04  0.13121229900E+04  0.47000000000E+01 0.  1.
         -5    1    4    4    0  502 -0.15020012817E+02  0.23576763584E+02 -0.83788461361E+02  0.88453721365E+02  0.47000000000E+01 0.  1.
          5    1    5    5  503    0 -0.79291039152E+02 -0.44855125544E+02 -0.49405149184E+03  0.50240224698E+03  0.47000000000E+01 0.  1.
         -5    1    5    5    0  503  0.26883485156E+02  0.25824994781E+02 -0.23776385610E+03  0.24071433982E+03  0.47000000000E+01 0.  1.
<mgrwt>
<rscale>  0 0.27503344E+03</rscale>
<asrwt>0</asrwt>
<pdfrwt beam="1">  1        2 0.32843603E+00 0.27503344E+03</pdfrwt>
<pdfrwt beam="2">  1       -2 0.13628044E-02 0.27503344E+03</pdfrwt>
<totfact> 0.85609128E+03</totfact>
</mgrwt>
</event>
<event>
 9    1  0.2051157E-002  0.2734236E+03  0.7818608E-02  0.1099336E+00
          1   -1    0    0  501    0  0.00000000000E+00  0.00000000000E+00  0.56814539032E+03  0.56814539032E+03  0.00000000000E+00 0. -1.
         -1   -1    0    0    0  501 -0.00000000000E+00 -0.00000000000E+00 -0.32896713210E+02  0.32896713210E+02  0.00000000000E+00 0. -1.
         36    2    1    2    0    0  0.00000000000E+00 -0.17763568394E-14  0.53524867711E+03  0.60104210353E+03  0.27342359786E+03 0.  0.
         25    2    3    3    0    0  0.14813771535E+02 -0.75875179384E+01  0.37882632497E+03  0.39904043033E+03  0.12428540662E+03 0.  0.
         25    2    3    3    0    0 -0.14813771535E+02  0.75875179384E+01  0.15642235215E+03  0.20200167320E+03  0.12672689323E+03 0.  0.
          5    1    4    4  502    0 -0.45256349389E+02  0.75385819576E+01  0.68646316374E+02  0.82700508642E+02  0.47000000000E+01 0. -1.
         -5    1    4    4    0  502  0.60070120925E+02 -0.15126099896E+02  0.31018000859E+03  0.31633992169E+03  0.47000000000E+01 0. -1.
          5    1    5    5  503    0  0.24523371201E+02  0.11539063753E+02  0.15970174346E+03  0.16205333255E+03  0.47000000000E+01 0. -1.
         -5    1    5    5    0  503 -0.39337142736E+02 -0.39515458149E+01 -0.32793913119E+01  0.39948340646E+02  0.47000000000E+01 0. -1.
<mgrwt>
<rscale>  0 0.27342360E+03</rscale>
<asrwt>0</asrwt>
<pdfrwt beam="1">  1        1 0.87406976E-01 0.27342360E+03</pdfrwt>
<pdfrwt beam="2">  1       -1 0.50610332E-02 0.27342360E+03</pdfrwt>
<totfact> 0.65294414E+03</totfact>
</mgrwt>
</event>
<event>
 9    1  0.2051157E-002  0.2746864E+03  0.7818608E-02  0.1098627E+00
          1   -1    0    0  501    0  0.00000000000E+00  0.00000000000E+00  0.68047794510E+03  0.68047794510E+03  0.00000000000E+00 0. -1.
         -1   -1    0    0    0  501 -0.00000000000E+00 -0.00000000000E+00 -0.27720440381E+02  0.27720440381E+02  0.00000000000E+00 0. -1.
         36    2    1    2    0    0  0.17763568394E-14  0.71054273576E-14  0.65275750472E+03  0.70819838548E+03  0.27468635429E+03 0.  0.
         25    2    3    3    0    0  0.46949040385E+01  0.32818424159E+02  0.24261842041E+03  0.27361244795E+03  0.12206958123E+03 0.  0.
         25    2    3    3    0    0 -0.46949040385E+01 -0.32818424159E+02  0.41013908430E+03  0.43458593753E+03  0.13982767086E+03 0.  0.
          5    1    4    4  502    0  0.33679625165E+02  0.57035162355E+02  0.21893665757E+03  0.22878522007E+03  0.47000000000E+01 0.  1.
         -5    1    4    4    0  502 -0.28984721126E+02 -0.24216738196E+02  0.23681762842E+02  0.44827227874E+02  0.47000000000E+01 0.  1.
          5    1    5    5  503    0 -0.47637716057E+01  0.38798992806E+02  0.35115853098E+02  0.52756691533E+02  0.47000000000E+01 0. -1.
         -5    1    5    5    0  503  0.68867567219E-01 -0.71617416965E+02  0.37502323121E+03  0.38182924600E+03  0.47000000000E+01 0. -1.
<mgrwt>
<rscale>  0 0.27468635E+03</rscale>
<asrwt>0</asrwt>
<pdfrwt beam="1">  1        1 0.10468890E+00 0.27468635E+03</pdfrwt>
<pdfrwt beam="2">  1       -1 0.42646836E-02 0.27468635E+03</pdfrwt>
<totfact> 0.65463709E+03</totfact>
</mgrwt>
</event>
<event>
 9    1  0.2051157E-002  0.2635058E+03  0.7818608E-02  0.1105055E+00
          2   -1    0    0  501    0  0.00000000000E+00  0.00000000000E+00  0.65656959016E+02  0.65656959016E+02  0.00000000000E+00 0. -1.
         -2   -1    0    0    0  501 -0.00000000000E+00 -0.00000000000E+00 -0.26438665870E+03  0.26438665870E+03  0.00000000000E+00 0. -1.
         36    2    1    2    0    0  0.00000000000E+00  0.35527136788E-14 -0.19872969968E+03  0.33004361771E+03  0.26350577993E+03 0.  0.
         25    2    3    3    0    0  0.18540942691E+02 -0.50531178960E+00 -0.57997401611E+02  0.14202050857E+03  0.12830473243E+03 0.  0.
         25    2    3    3    0    0 -0.18540942691E+02  0.50531178960E+00 -0.14073229807E+03  0.18802310914E+03  0.12330080274E+03 0.  0.
          5    1    4    4  502    0 -0.97071350629E+01  0.32429308913E+02 -0.84369244665E+02  0.91028281282E+02  0.47000000000E+01 0. -1.
         -5    1    4    4    0  502  0.28248077754E+02 -0.32934620703E+02  0.26371843055E+02  0.50992227288E+02  0.47000000000E+01 0. -1.
          5    1    5    5  503    0  0.19550446853E+02  0.14726886034E+02 -0.14476470883E+03  0.14689456105E+03  0.47000000000E+01 0. -1.
         -5    1    5    5    0  503 -0.38091389544E+02 -0.14221574245E+02  0.40324107609E+01  0.41128548090E+02  0.47000000000E+01 0. -1.
<mgrwt>
<rscale>  0 0.26350578E+03</rscale>
<asrwt>0</asrwt>
<pdfrwt beam="1">  1        2 0.10101071E-01 0.26350578E+03</pdfrwt>
<pdfrwt beam="2">  1       -2 0.40674869E-01 0.26350578E+03</pdfrwt>
<totfact> 0.36254067E+03</totfact>
</mgrwt>
</event>
<event>
 9    1  0.2051157E-002  0.2738163E+03  0.7818608E-02  0.1099115E+00
          4   -1    0    0  501    0  0.00000000000E+00  0.00000000000E+00  0.19141095089E+03  0.19141095089E+03  0.00000000000E+00 0. -1.
         -4   -1    0    0    0  501 -0.00000000000E+00 -0.00000000000E+00 -0.97924589575E+02  0.97924589575E+02  0.00000000000E+00 0. -1.
         36    2    1    2    0    0  0.71054273576E-14  0.00000000000E+00  0.93486361311E+02  0.28933554046E+03  0.27381628005E+03 0.  0.
         25    2    3    3    0    0  0.52508627360E+02 -0.18328786290E+02  0.11392118335E+02  0.12819920978E+03  0.11494414589E+03 0.  0.
         25    2    3    3    0    0 -0.52508627360E+02  0.18328786290E+02  0.82094242975E+02  0.16113633068E+03  0.12701319609E+03 0.  0.
          5    1    4    4  502    0  0.84765867009E+01  0.45543423886E+02  0.18608049634E+02  0.50143848003E+02  0.47000000000E+01 0.  1.
         -5    1    4    4    0  502  0.44032040659E+02 -0.63872210176E+02 -0.72159312986E+01  0.78055361775E+02  0.47000000000E+01 0.  1.
          5    1    5    5  503    0 -0.34263114532E+02 -0.47241325603E+02  0.58715684247E+01  0.58841050109E+02  0.47000000000E+01 0.  1.
         -5    1    5    5    0  503 -0.18245512828E+02  0.65570111892E+02  0.76222674551E+02  0.10229528057E+03  0.47000000000E+01 0.  1.
<mgrwt>
<rscale>  0 0.27381628E+03</rscale>
<asrwt>0</asrwt>
<pdfrwt beam="1">  1        4 0.29447839E-01 0.27381628E+03</pdfrwt>
<pdfrwt beam="2">  1       -4 0.15065321E-01 0.27381628E+03</pdfrwt>
<totfact> 0.77220726E+02</totfact>
</mgrwt>
</event>
<event>
 9    1  0.2051157E-002  0.2747091E+03  0.7818608E-02  0.1098614E+00
          2   -1    0    0  501    0  0.00000000000E+00  0.00000000000E+00  0.56077641475E+03  0.56077641475E+03  0.00000000000E+00 0.  1.
         -2   -1    0    0    0  501 -0.00000000000E+00 -0.00000000000E+00 -0.33643118078E+02  0.33643118078E+02  0.00000000000E+00 0.  1.
         36    2    1    2    0    0 -0.71054273576E-14  0.10658141036E-13  0.52713329667E+03  0.59441953283E+03  0.27470906164E+03 0.  0.
         25    2    3    3    0    0  0.40289220319E+02 -0.28104465660E+02  0.22170152077E+03  0.25996492497E+03  0.12655874382E+03 0.  0.
         25    2    3    3    0    0 -0.40289220319E+02  0.28104465660E+02  0.30543177590E+03  0.33445460786E+03  0.12711503737E+03 0.  0.
          5    1    4    4  502    0  0.38273645822E+02  0.46056652206E+02  0.81114684349E+02  0.10093447971E+03  0.47000000000E+01 0.  1.
         -5    1    4    4    0  502  0.20155744973E+01 -0.74161117866E+02  0.14058683642E+03  0.15903044526E+03  0.47000000000E+01 0.  1.
          5    1    5    5  503    0  0.38232300917E+02 -0.66638777102E+01  0.42176161534E+02  0.57506823085E+02  0.47000000000E+01 0.  1.
         -5    1    5    5    0  503 -0.78521521236E+02  0.34768343370E+02  0.26325561437E+03  0.27694778478E+03  0.47000000000E+01 0.  1.
<mgrwt>
<rscale>  0 0.27470906E+03</rscale>
<asrwt>0</asrwt>
<pdfrwt beam="1">  1        2 0.86273288E-01 0.27470906E+03</pdfrwt>
<pdfrwt beam="2">  1       -2 0.51758647E-02 0.27470906E+03</pdfrwt>
<totfact> 0.10086687E+04</totfact>
</mgrwt>
</event>
<event>
 9    1  0.2051157E-002  0.2753265E+03  0.7818608E-02  0.1098269E+00
         -2   -1    0    0    0  501 -0.00000000000E+00  0.00000000000E+00  0.50458445331E+01  0.50458445331E+01  0.00000000000E+00 0.  1.
          2   -1    0    0  501    0  0.00000000000E+00 -0.00000000000E+00 -0.37557974431E+04  0.37557974431E+04  0.00000000000E+00 0.  1.
         36    2    1    2    0    0  0.71054273576E-14  0.00000000000E+00 -0.37507515986E+04  0.37608432876E+04  0.27532649706E+03 0.  0.
         25    2    3    3    0    0 -0.25918965189E+02  0.50006513507E+02 -0.21060703274E+04  0.21105350275E+04  0.12511368575E+03 0.  0.
         25    2    3    3    0    0  0.25918965189E+02 -0.50006513507E+02 -0.16446812712E+04  0.16503082601E+04  0.12396945374E+03 0.  0.
          5    1    4    4  502    0  0.45419778155E+02  0.24978957346E+01 -0.47155139904E+03  0.47376366225E+03  0.47000000000E+01 0.  1.
         -5    1    4    4    0  502 -0.71338743344E+02  0.47508617772E+02 -0.16345189284E+04  0.16367713653E+04  0.47000000000E+01 0.  1.
          5    1    5    5  503    0 -0.11693281985E+02  0.37940336366E+02 -0.54543360591E+03  0.54689680052E+03  0.47000000000E+01 0.  1.
         -5    1    5    5    0  503  0.37612247174E+02 -0.87946849873E+02 -0.10992476653E+04  0.11034114596E+04  0.47000000000E+01 0.  1.
<mgrwt>
<rscale>  0 0.27532650E+03</rscale>
<asrwt>0</asrwt>
<pdfrwt beam="1">  1        2 0.57781604E+00 0.27532650E+03</pdfrwt>
<pdfrwt beam="2">  1       -2 0.77628237E-03 0.27532650E+03</pdfrwt>
<totfact> 0.20845833E+03</totfact>
</mgrwt>
</event>
<event>
 9    1  0.2051157E-002  0.2749564E+03  0.7818608E-02  0.1098476E+00
         -2   -1    0    0    0  501 -0.00000000000E+00  0.00000000000E+00  0.86378929000E+02  0.86378929000E+02  0.00000000000E+00 0. -1.
          2   -1    0    0  501    0  0.00000000000E+00 -0.00000000000E+00 -0.21880627998E+03  0.21880627998E+03  0.00000000000E+00 0. -1.
         36    2    1    2    0    0 -0.71054273576E-14  0.71054273576E-14 -0.13242735098E+03  0.30518520898E+03  0.27495637562E+03 0.  0.
         25    2    3    3    0    0  0.16866323235E+02 -0.55947257166E+02 -0.82406186351E+02  0.15903312577E+03  0.12282584053E+03 0.  0.
         25    2    3    3    0    0 -0.16866323235E+02  0.55947257166E+02 -0.50021164630E+02  0.14615208321E+03  0.12427286941E+03 0.  0.
          5    1    4    4  502    0 -0.21249448018E+02 -0.69923290985E+02 -0.91468013940E+02  0.11717206680E+03  0.47000000000E+01 0.  1.
         -5    1    4    4    0  502  0.38115771253E+02  0.13976033819E+02  0.90618275899E+01  0.41861058978E+02  0.47000000000E+01 0.  1.
          5    1    5    5  503    0 -0.47889030833E+02 -0.12944421462E+02  0.83962761290E+01  0.50532215209E+02  0.47000000000E+01 0.  1.
         -5    1    5    5    0  503  0.31022707599E+02  0.68891678628E+02 -0.58417440759E+02  0.95619867996E+02  0.47000000000E+01 0.  1.
<mgrwt>
<rscale>  0 0.27495638E+03</rscale>
<asrwt>0</asrwt>
<pdfrwt beam="1">  1        2 0.33662504E-01 0.27495638E+03</pdfrwt>
<pdfrwt beam="2">  1       -2 0.13289066E-01 0.27495638E+03</pdfrwt>
<totfact> 0.64097074E+03</totfact>
</mgrwt>
</event>
<event>
 9    1  0.2051157E-002  0.2751379E+03  0.7818608E-02  0.1098375E+00
          1   -1    0    0  501    0  0.00000000000E+00  0.00000000000E+00  0.13768573624E+04  0.13768573624E+04  0.00000000000E+00 0.  1.
         -1   -1    0    0    0  501 -0.00000000000E+00 -0.00000000000E+00 -0.13745230372E+02  0.13745230372E+02  0.00000000000E+00 0.  1.
         36    2    1    2    0    0  0.00000000000E+00  0.71054273576E-14  0.13631121320E+04  0.13906025928E+04  0.27513794094E+03 0.  0.
         25    2    3    3    0    0  0.39016237616E+01  0.56702475052E+02  0.56984228415E+03  0.58572171570E+03  0.12296058757E+03 0.  0.
         25    2    3    3    0    0 -0.39016237616E+01 -0.56702475052E+02  0.79326984789E+03  0.80488087708E+03  0.12379733994E+03 0.  0.
          5    1    4    4  502    0  0.17915727563E+02  0.65761017461E+02  0.56292630158E+03  0.56705695985E+03  0.47000000000E+01 0. -1.
         -5    1    4    4    0  502 -0.14014103801E+02 -0.90585424086E+01  0.69159825720E+01  0.18664755847E+02  0.47000000000E+01 0. -1.
          5    1    5    5  503    0 -0.12267983986E+02 -0.11736935008E+02  0.99888023213E+01  0.20251549232E+02  0.47000000000E+01 0. -1.
         -5    1    5    5    0  503  0.83663602249E+01 -0.44965540044E+02  0.78328104557E+03  0.78462932785E+03  0.47000000000E+01 0. -1.
<mgrwt>
<rscale>  0 0.27513794E+03</rscale>
<asrwt>0</asrwt>
<pdfrwt beam="1">  1        1 0.21182410E+00 0.27513794E+03</pdfrwt>
<pdfrwt beam="2">  1       -1 0.21146519E-02 0.27513794E+03</pdfrwt>
<totfact> 0.54666301E+03</totfact>
</mgrwt>
</event>
<event>
 9    1  0.2051157E-002  0.2742777E+03  0.7818608E-02  0.1098856E+00
         -2   -1    0    0    0  501 -0.00000000000E+00  0.00000000000E+00  0.10264552182E+03  0.10264552182E+03  0.00000000000E+00 0. -1.
          2   -1    0    0  501    0  0.00000000000E+00 -0.00000000000E+00 -0.18322339482E+03  0.18322339482E+03  0.00000000000E+00 0. -1.
         36    2    1    2    0    0  0.00000000000E+00  0.00000000000E+00 -0.80577873005E+02  0.28586891664E+03  0.27427767660E+03 0.  0.
         25    2    3    3    0    0 -0.35892934517E+02  0.36835690680E+02 -0.45410845863E+02  0.14148500523E+03  0.12373637673E+03 0.  0.
         25    2    3    3    0    0  0.35892934517E+02 -0.36835690680E+02 -0.35167027141E+02  0.14438391142E+03  0.13024908146E+03 0.  0.
          5    1    4    4  502    0  0.19153041333E+02 -0.18445064592E+02 -0.56429698783E+02  0.62557655845E+02  0.47000000000E+01 0. -1.
         -5    1    4    4    0  502 -0.55045975850E+02  0.55280755272E+02  0.11018852920E+02  0.78927349381E+02  0.47000000000E+01 0. -1.
          5    1    5    5  503    0 -0.37030496236E+02 -0.18415776770E+02  0.24467959176E+02  0.48282186278E+02  0.47000000000E+01 0.  1.
         -5    1    5    5    0  503  0.72923430753E+02 -0.18419913910E+02 -0.59634986318E+02  0.96101725137E+02  0.47000000000E+01 0.  1.
<mgrwt>
<rscale>  0 0.27427768E+03</rscale>
<asrwt>0</asrwt>
<pdfrwt beam="1">  1        2 0.28188214E-01 0.27427768E+03</pdfrwt>
<pdfrwt beam="2">  1       -2 0.15791619E-01 0.27427768E+03</pdfrwt>
<totfact> 0.58598600E+03</totfact>
</mgrwt>
</event>
<event>
 9    1  0.2051157E-002  0.2670208E+03  0.7818608E-02  0.1102997E+00
          1   -1    0    0  501    0  0.00000000000E+00  0.00000000000E+00  0.34694756660E+03  0.34694756660E+03  0.00000000000E+00 0.  1.
         -1   -1    0    0    0  501 -0.00000000000E+00 -0.00000000000E+00 -0.51376715186E+02  0.51376715186E+02  0.00000000000E+00 0.  1.
         36    2    1    2    0    0  0.71054273576E-14  0.00000000000E+00  0.29557085142E+03  0.39832428179E+03  0.26702079555E+03 0.  0.
         25    2    3    3    0    0 -0.53479066583E+02 -0.19567906038E+02  0.17852457937E+03  0.22232229839E+03  0.11963806004E+03 0.  0.
         25    2    3    3    0    0  0.53479066583E+02  0.19567906038E+02  0.11704627204E+03  0.17600198340E+03  0.11846499421E+03 0.  0.
          5    1    4    4  502    0 -0.56761088366E+02  0.31617756644E+02  0.14979306493E+03  0.16334489887E+03  0.47000000000E+01 0.  1.
         -5    1    4    4    0  502  0.32820217831E+01 -0.51185662682E+02  0.28731514448E+02  0.58977399516E+02  0.47000000000E+01 0.  1.
          5    1    5    5  503    0  0.45843075490E+02 -0.36912428448E+02  0.10034182319E+03  0.11642459545E+03  0.47000000000E+01 0. -1.
         -5    1    5    5    0  503  0.76359910928E+01  0.56480334486E+02  0.16704448851E+02  0.59577387950E+02  0.47000000000E+01 0. -1.
<mgrwt>
<rscale>  0 0.26702080E+03</rscale>
<asrwt>0</asrwt>
<pdfrwt beam="1">  1        1 0.53376547E-01 0.26702080E+03</pdfrwt>
<pdfrwt beam="2">  1       -1 0.79041102E-02 0.26702080E+03</pdfrwt>
<totfact> 0.63333489E+03</totfact>
</mgrwt>
</event>
<event>
 9    1  0.2051157E-002  0.2744259E+03  0.7818608E-02  0.1098773E+00
          2   -1    0    0  501    0  0.00000000000E+00  0.00000000000E+00  0.17855823752E+03  0.17855823752E+03  0.00000000000E+00 0.  1.
         -2   -1    0    0    0  501 -0.00000000000E+00 -0.00000000000E+00 -0.10544121766E+03  0.10544121766E+03  0.00000000000E+00 0.  1.
         36    2    1    2    0    0 -0.71054273576E-14 -0.35527136788E-14  0.73117019853E+02  0.28399945518E+03  0.27442593163E+03 0.  0.
         25    2    3    3    0    0  0.43988992017E+02 -0.23589220691E+02  0.56735226113E+02  0.14662314568E+03  0.12565022171E+03 0.  0.
         25    2    3    3    0    0 -0.43988992017E+02  0.23589220691E+02  0.16381793740E+02  0.13737630950E+03  0.12693464654E+03 0.  0.
          5    1    4    4  502    0 -0.17275402022E+02  0.27379544193E+02  0.58215009028E+02  0.66776913910E+02  0.47000000000E+01 0. -1.
         -5    1    4    4    0  502  0.61264394039E+02 -0.50968764884E+02 -0.14797829150E+01  0.79846231772E+02  0.47000000000E+01 0. -1.
          5    1    5    5  503    0  0.10053320895E+02  0.50845565809E+02 -0.30813412733E+02  0.60480552475E+02  0.47000000000E+01 0. -1.
         -5    1    5    5    0  503 -0.54042312912E+02 -0.27256345117E+02  0.47195206473E+02  0.76895757022E+02  0.47000000000E+01 0. -1.
<mgrwt>
<rscale>  0 0.27442593E+03</rscale>
<asrwt>0</asrwt>
<pdfrwt beam="1">  1        2 0.27470498E-01 0.27442593E+03</pdfrwt>
<pdfrwt beam="2">  1       -2 0.16221726E-01 0.27442593E+03</pdfrwt>
<totfact> 0.57656759E+03</totfact>
</mgrwt>
</event>
<event>
 9    1  0.2051157E-002  0.2641886E+03  0.7818608E-02  0.1104652E+00
          1   -1    0    0  501    0  0.00000000000E+00  0.00000000000E+00  0.30686273672E+02  0.30686273672E+02  0.00000000000E+00 0. -1.
         -1   -1    0    0    0  501 -0.00000000000E+00 -0.00000000000E+00 -0.56862235543E+03  0.56862235543E+03  0.00000000000E+00 0. -1.
         36    2    1    2    0    0  0.00000000000E+00  0.00000000000E+00 -0.53793608176E+03  0.59930862910E+03  0.26418857822E+03 0.  0.
         25    2    3    3    0    0  0.21302493494E+02  0.42677500463E+02 -0.25160902292E+03  0.28540908128E+03  0.12600030948E+03 0.  0.
         25    2    3    3    0    0 -0.21302493494E+02 -0.42677500463E+02 -0.28632705884E+03  0.31389954782E+03  0.11947625800E+03 0.  0.
          5    1    4    4  502    0  0.26890591400E+02 -0.16444476539E+02 -0.56837301627E+01  0.32371584809E+02  0.47000000000E+01 0. -1.
         -5    1    4    4    0  502 -0.55880979065E+01  0.59121977002E+02 -0.24592529276E+03  0.25303749647E+03  0.47000000000E+01 0. -1.
          5    1    5    5  503    0 -0.28648381621E+02 -0.82336331972E+02 -0.21044398194E+03  0.22783494216E+03  0.47000000000E+01 0.  1.
         -5    1    5    5    0  503  0.73458881268E+01  0.39658831509E+02 -0.75883076895E+02  0.86064605664E+02  0.47000000000E+01 0.  1.
<mgrwt>
<rscale>  0 0.26418858E+03</rscale>
<asrwt>0</asrwt>
<pdfrwt beam="1">  1        1 0.47209655E-02 0.26418858E+03</pdfrwt>
<pdfrwt beam="2">  1       -1 0.87480357E-01 0.26418858E+03</pdfrwt>
<totfact> 0.24280007E+03</totfact>
</mgrwt>
</event>
<event>
 9    1  0.2051157E-002  0.2756142E+03  0.7818608E-02  0.1098109E+00
          2   -1    0    0  501    0  0.00000000000E+00  0.00000000000E+00  0.12970376550E+04  0.12970376550E+04  0.00000000000E+00 0.  1.
         -2   -1    0    0    0  501 -0.00000000000E+00 -0.00000000000E+00 -0.14641671252E+02  0.14641671252E+02  0.00000000000E+00 0.  1.
         36    2    1    2    0    0  0.00000000000E+00  0.00000000000E+00  0.12823959838E+04  0.13116793263E+04  0.27561421550E+03 0.  0.
         25    2    3    3    0    0  0.15916771786E+02  0.89515943523E+01  0.36061950370E+03  0.38144833413E+03  0.12297532474E+03 0.  0.
         25    2    3    3    0    0 -0.15916771786E+02 -0.89515943523E+01  0.92177648007E+03  0.93023099215E+03  0.12379153797E+03 0.  0.
          5    1    4    4  502    0 -0.16575893146E+02  0.17952940838E+01  0.34313094112E+03  0.34356792060E+03  0.47000000000E+01 0.  1.
         -5    1    4    4    0  502  0.32492664931E+02  0.71563002685E+01  0.17488562585E+02  0.37880413530E+02  0.47000000000E+01 0.  1.
          5    1    5    5  503    0 -0.32736592926E+02 -0.20466375856E+01  0.62423892654E+02  0.70673231254E+02  0.47000000000E+01 0.  1.
         -5    1    5    5    0  503  0.16819821140E+02 -0.69049567667E+01  0.85935258742E+03  0.85955776089E+03  0.47000000000E+01 0.  1.
<mgrwt>
<rscale>  0 0.27561422E+03</rscale>
<asrwt>0</asrwt>
<pdfrwt beam="1">  1        2 0.19954416E+00 0.27561422E+03</pdfrwt>
<pdfrwt beam="2">  1       -2 0.22525658E-02 0.27561422E+03</pdfrwt>
<totfact> 0.11414592E+04</totfact>
</mgrwt>
</event>
<event>
 9    1  0.2051157E-002  0.2759623E+03  0.7818608E-02  0.1097915E+00
         -1   -1    0    0    0  501 -0.00000000000E+00  0.00000000000E+00  0.13854438198E+02  0.13854438198E+02  0.00000000000E+00 0.  1.
          1   -1    0    0  501    0  0.00000000000E+00 -0.00000000000E+00 -0.13742016988E+04  0.13742016988E+04  0.00000000000E+00 0.  1.
         36    2    1    2    0    0  0.00000000000E+00  0.71054273576E-14 -0.13603472606E+04  0.13880561370E+04  0.27596226197E+03 0.  0.
         25    2    3    3    0    0 -0.35548094825E+02 -0.45450402802E+02 -0.68739160973E+03  0.70101057051E+03  0.12481662021E+03 0.  0.
         25    2    3    3    0    0  0.35548094825E+02  0.45450402802E+02 -0.67295565088E+03  0.68704556650E+03  0.12582883703E+03 0.  0.
          5    1    4    4  502    0 -0.32301744021E+02  0.37874201077E+02 -0.18106087253E+03  0.18783766219E+03  0.47000000000E+01 0.  1.
         -5    1    4    4    0  502 -0.32463508035E+01 -0.83324603879E+02 -0.50633073720E+03  0.51317290832E+03  0.47000000000E+01 0.  1.
          5    1    5    5  503    0  0.48907438015E+02 -0.22880444319E+02 -0.45436927093E+03  0.45759040265E+03  0.47000000000E+01 0. -1.
         -5    1    5    5    0  503 -0.13359343191E+02  0.68330847121E+02 -0.21858637995E+03  0.22945516385E+03  0.47000000000E+01 0. -1.
<mgrwt>
<rscale>  0 0.27596226E+03</rscale>
<asrwt>0</asrwt>
<pdfrwt beam="1">  1        1 0.21141579E+00 0.27596226E+03</pdfrwt>
<pdfrwt beam="2">  1       -1 0.21314506E-02 0.27596226E+03</pdfrwt>
<totfact> 0.54261617E+03</totfact>
</mgrwt>
</event>
<event>
 9    1  0.2051157E-002  0.2709294E+03  0.7818608E-02  0.1100749E+00
         -2   -1    0    0    0  501 -0.00000000000E+00  0.00000000000E+00  0.15649753511E+02  0.15649753511E+02  0.00000000000E+00 0.  1.
          2   -1    0    0  501    0  0.00000000000E+00 -0.00000000000E+00 -0.11725864076E+04  0.11725864076E+04  0.00000000000E+00 0.  1.
         36    2    1    2    0    0  0.00000000000E+00  0.35527136788E-14 -0.11569366541E+04  0.11882361611E+04  0.27092942438E+03 0.  0.
         25    2    3    3    0    0 -0.21859711947E+02  0.16207607677E+02 -0.75433794159E+03  0.76540768452E+03  0.12681742726E+03 0.  0.
         25    2    3    3    0    0  0.21859711947E+02 -0.16207607677E+02 -0.40259871248E+03  0.42282847657E+03  0.12632364684E+03 0.  0.
          5    1    4    4  502    0 -0.36098876137E+02  0.42583252168E+02 -0.14701808221E+03  0.15733044436E+03  0.47000000000E+01 0. -1.
         -5    1    4    4    0  502  0.14239164191E+02 -0.26375644490E+02 -0.60731985938E+03  0.60807724017E+03  0.47000000000E+01 0. -1.
          5    1    5    5  503    0 -0.25199061095E+02  0.15707536729E+02 -0.20252347655E+02  0.36248682400E+02  0.47000000000E+01 0.  1.
         -5    1    5    5    0  503  0.47058773042E+02 -0.31915144406E+02 -0.38234636483E+03  0.38657979417E+03  0.47000000000E+01 0.  1.
<mgrwt>
<rscale>  0 0.27092942E+03</rscale>
<asrwt>0</asrwt>
<pdfrwt beam="1">  1        2 0.18039791E+00 0.27092942E+03</pdfrwt>
<pdfrwt beam="2">  1       -2 0.24076543E-02 0.27092942E+03</pdfrwt>
<totfact> 0.12150816E+04</totfact>
</mgrwt>
</event>
<event>
 9    1  0.2051157E-002  0.2745371E+03  0.7818608E-02  0.1098711E+00
         -2   -1    0    0    0  501 -0.00000000000E+00  0.00000000000E+00  0.11842038969E+02  0.11842038969E+02  0.00000000000E+00 0. -1.
          2   -1    0    0  501    0  0.00000000000E+00 -0.00000000000E+00 -0.15911660761E+04  0.15911660761E+04  0.00000000000E+00 0. -1.
         36    2    1    2    0    0 -0.17763568394E-14 -0.71054273576E-14 -0.15793240372E+04  0.16030081151E+04  0.27453706984E+03 0.  0.
         25    2    3    3    0    0 -0.13628357621E+02 -0.51141852711E+00 -0.48166964553E+03  0.49802962891E+03  0.12586449130E+03 0.  0.
         25    2    3    3    0    0  0.13628357621E+02  0.51141852711E+00 -0.10976543916E+04  0.11049784862E+04  0.12627865135E+03 0.  0.
          5    1    4    4  502    0 -0.21686330748E+02 -0.61160683806E+02 -0.26102242610E+03  0.26900877887E+03  0.47000000000E+01 0.  1.
         -5    1    4    4    0  502  0.80579731273E+01  0.60649265279E+02 -0.22064721943E+03  0.22902085003E+03  0.47000000000E+01 0.  1.
          5    1    5    5  503    0 -0.33894718956E+01 -0.43472647828E+02 -0.92199543872E+03  0.92303793998E+03  0.47000000000E+01 0. -1.
         -5    1    5    5    0  503  0.17017829516E+02  0.43984066355E+02 -0.17565895292E+03  0.18194054621E+03  0.47000000000E+01 0. -1.
<mgrwt>
<rscale>  0 0.27453707E+03</rscale>
<asrwt>0</asrwt>
<pdfrwt beam="1">  1        2 0.24479448E+00 0.27453707E+03</pdfrwt>
<pdfrwt beam="2">  1       -2 0.18218544E-02 0.27453707E+03</pdfrwt>
<totfact> 0.10818247E+04</totfact>
</mgrwt>
</event>
<event>
 9    1  0.2051157E-002  0.2770036E+03  0.7818608E-02  0.1097337E+00
          2   -1    0    0  501    0  0.00000000000E+00  0.00000000000E+00  0.83536692406E+02  0.83536692406E+02  0.00000000000E+00 0. -1.
         -2   -1    0    0    0  501 -0.00000000000E+00 -0.00000000000E+00 -0.22963253645E+03  0.22963253645E+03  0.00000000000E+00 0. -1.
         36    2    1    2    0    0  0.17763568394E-14 -0.14210854715E-13 -0.14609584404E+03  0.31316922886E+03  0.27700355639E+03 0.  0.
         25    2    3    3    0    0  0.26625622929E+01 -0.52575884619E+02 -0.38510197299E+02  0.14037079189E+03  0.12429646430E+03 0.  0.
         25    2    3    3    0    0 -0.26625622929E+01  0.52575884619E+02 -0.10758564675E+03  0.17279843697E+03  0.12455246104E+03 0.  0.
          5    1    4    4  502    0  0.17843918428E+02  0.26778933264E+02 -0.48951478851E+02  0.58769498666E+02  0.47000000000E+01 0. -1.
         -5    1    4    4    0  502 -0.15181356135E+02 -0.79354817884E+02  0.10441281553E+02  0.81601293225E+02  0.47000000000E+01 0. -1.
          5    1    5    5  503    0 -0.62909694183E+02  0.18021076496E+02 -0.52119627225E+02  0.83791016000E+02  0.47000000000E+01 0. -1.
         -5    1    5    5    0  503  0.60247131890E+02  0.34554808123E+02 -0.55466019520E+02  0.89007420965E+02  0.47000000000E+01 0. -1.
<mgrwt>
<rscale>  0 0.27700356E+03</rscale>
<asrwt>0</asrwt>
<pdfrwt beam="1">  1        2 0.12851799E-01 0.27700356E+03</pdfrwt>
<pdfrwt beam="2">  1       -2 0.35328082E-01 0.27700356E+03</pdfrwt>
<totfact> 0.35298272E+03</totfact>
</mgrwt>
</event>
<event>
 9    1  0.2051157E-002  0.2749836E+03  0.7818608E-02  0.1098461E+00
          2   -1    0    0  501    0  0.00000000000E+00  0.00000000000E+00  0.13818377415E+03  0.13818377415E+03  0.00000000000E+00 0.  1.
         -2   -1    0    0    0  501 -0.00000000000E+00 -0.00000000000E+00 -0.13680326608E+03  0.13680326608E+03  0.00000000000E+00 0.  1.
         36    2    1    2    0    0  0.00000000000E+00  0.00000000000E+00  0.13805080640E+01  0.27498704023E+03  0.27498357495E+03 0.  0.
         25    2    3    3    0    0  0.80149373629E+01  0.37859660270E+02 -0.70081184653E+00  0.14281928183E+03  0.13747459049E+03 0.  0.
         25    2    3    3    0    0 -0.80149373629E+01 -0.37859660270E+02  0.20813199105E+01  0.13216775840E+03  0.12635818680E+03 0.  0.
          5    1    4    4  502    0 -0.81540242433E+00  0.23276935502E+02  0.67920138484E+02  0.71956346622E+02  0.47000000000E+01 0. -1.
         -5    1    4    4    0  502  0.88303397872E+01  0.14582724768E+02 -0.68620950330E+02  0.70862935211E+02  0.47000000000E+01 0. -1.
          5    1    5    5  503    0 -0.53154559119E+02 -0.61132913962E+02  0.93453702716E+00  0.81151732477E+02  0.47000000000E+01 0. -1.
         -5    1    5    5    0  503  0.45139621756E+02  0.23273253692E+02  0.11467828833E+01  0.51016025920E+02  0.47000000000E+01 0. -1.
<mgrwt>
<rscale>  0 0.27498357E+03</rscale>
<asrwt>0</asrwt>
<pdfrwt beam="1">  1        2 0.21259042E-01 0.27498357E+03</pdfrwt>
<pdfrwt beam="2">  1       -2 0.21046656E-01 0.27498357E+03</pdfrwt>
<totfact> 0.49458965E+03</totfact>
</mgrwt>
</event>
<event>
 9    1  0.2051157E-002  0.2746518E+03  0.7818608E-02  0.1098646E+00
          2   -1    0    0  501    0  0.00000000000E+00  0.00000000000E+00  0.77209989467E+03  0.77209989467E+03  0.00000000000E+00 0. -1.
         -2   -1    0    0    0  501 -0.00000000000E+00 -0.00000000000E+00 -0.24424821288E+02  0.24424821288E+02  0.00000000000E+00 0. -1.
         36    2    1    2    0    0  0.71054273576E-14  0.00000000000E+00  0.74767507338E+03  0.79652471595E+03  0.27465179368E+03 0.  0.
         25    2    3    3    0    0  0.24984358059E+02  0.37530249238E+02  0.24895403564E+03  0.28121272121E+03  0.12275888951E+03 0.  0.
         25    2    3    3    0    0 -0.24984358059E+02 -0.37530249238E+02  0.49872103774E+03  0.51531199474E+03  0.12161842248E+03 0.  0.
          5    1    4    4  502    0  0.68108970979E+02 -0.69672024553E+01  0.12917476762E+03  0.14627229548E+03  0.47000000000E+01 0. -1.
         -5    1    4    4    0  502 -0.43124612920E+02  0.44497451693E+02  0.11977926803E+03  0.13494042573E+03  0.47000000000E+01 0. -1.
          5    1    5    5  503    0  0.19634873035E+02  0.35946383313E+02  0.21086034222E+03  0.21485307685E+03  0.47000000000E+01 0. -1.
         -5    1    5    5    0  503 -0.44619231094E+02 -0.73476632552E+02  0.28786069552E+03  0.30045891789E+03  0.47000000000E+01 0. -1.
<mgrwt>
<rscale>  0 0.27465179E+03</rscale>
<asrwt>0</asrwt>
<pdfrwt beam="1">  1        2 0.11878458E+00 0.27465179E+03</pdfrwt>
<pdfrwt beam="2">  1       -2 0.37576654E-02 0.27465179E+03</pdfrwt>
<totfact> 0.11170732E+04</totfact>
</mgrwt>
</event>
<event>
 9    1  0.2051157E-002  0.2759005E+03  0.7818608E-02  0.1097949E+00
         -2   -1    0    0    0  501 -0.00000000000E+00  0.00000000000E+00  0.42198188731E+02  0.42198188731E+02  0.00000000000E+00 0. -1.
          2   -1    0    0  501    0  0.00000000000E+00 -0.00000000000E+00 -0.45097379128E+03  0.45097379128E+03  0.00000000000E+00 0. -1.
         36    2    1    2    0    0  0.00000000000E+00  0.35527136788E-14 -0.40877560255E+03  0.49317198001E+03  0.27590054119E+03 0.  0.
         25    2    3    3    0    0 -0.34778175422E+02  0.31543663384E+02 -0.15989655626E+03  0.20990554279E+03  0.12762799069E+03 0.  0.
         25    2    3    3    0    0  0.34778175422E+02 -0.31543663384E+02 -0.24887904629E+03  0.28326643722E+03  0.12686437871E+03 0.  0.
          5    1    4    4  502    0 -0.25756691873E+02 -0.29629281755E+02 -0.12387855295E+01  0.39559146896E+02  0.47000000000E+01 0. -1.
         -5    1    4    4    0  502 -0.90214835489E+01  0.61172945139E+02 -0.15865777073E+03  0.17034639590E+03  0.47000000000E+01 0. -1.
          5    1    5    5  503    0 -0.28742834498E+02 -0.58728621063E+02 -0.13280262201E+03  0.14810073558E+03  0.47000000000E+01 0. -1.
         -5    1    5    5    0  503  0.63521009920E+02  0.27184957679E+02 -0.11607642428E+03  0.13516570164E+03  0.47000000000E+01 0. -1.
<mgrwt>
<rscale>  0 0.27590054E+03</rscale>
<asrwt>0</asrwt>
<pdfrwt beam="1">  1        2 0.69380580E-01 0.27590054E+03</pdfrwt>
<pdfrwt beam="2">  1       -2 0.64920294E-02 0.27590054E+03</pdfrwt>
<totfact> 0.91031442E+03</totfact>
</mgrwt>
</event>
<event>
 9    1  0.2051157E-002  0.2749010E+03  0.7818608E-02  0.1098507E+00
          4   -1    0    0  501    0  0.00000000000E+00  0.00000000000E+00  0.41112275630E+03  0.41112275630E+03  0.00000000000E+00 0. -1.
         -4   -1    0    0    0  501 -0.00000000000E+00 -0.00000000000E+00 -0.45953758581E+02  0.45953758581E+02  0.00000000000E+00 0. -1.
         36    2    1    2    0    0  0.00000000000E+00  0.00000000000E+00  0.36516899771E+03  0.45707651488E+03  0.27490097046E+03 0.  0.
         25    2    3    3    0    0 -0.16008507970E+02 -0.16339782964E+02  0.95884231235E+02  0.16119685141E+03  0.12754363282E+03 0.  0.
         25    2    3    3    0    0  0.16008507970E+02  0.16339782964E+02  0.26928476648E+03  0.29587966346E+03  0.12044595866E+03 0.  0.
          5    1    4    4  502    0  0.53277793745E+02 -0.25964720971E+02  0.45235891582E+02  0.74706532035E+02  0.47000000000E+01 0. -1.
         -5    1    4    4    0  502 -0.69286301714E+02  0.96249380068E+01  0.50648339652E+02  0.86490319380E+02  0.47000000000E+01 0. -1.
          5    1    5    5  503    0 -0.15473915290E+01 -0.59910035216E+01  0.26687409703E+03  0.26698719109E+03  0.47000000000E+01 0.  1.
         -5    1    5    5    0  503  0.17555899499E+02  0.22330786486E+02  0.24106694517E+01  0.28892472367E+02  0.47000000000E+01 0.  1.
<mgrwt>
<rscale>  0 0.27490097E+03</rscale>
<asrwt>0</asrwt>
<pdfrwt beam="1">  1        4 0.63249652E-01 0.27490097E+03</pdfrwt>
<pdfrwt beam="2">  1       -4 0.70698093E-02 0.27490097E+03</pdfrwt>
<totfact> 0.60243749E+02</totfact>
</mgrwt>
</event>
<event>
 9    1  0.2051157E-002  0.2748997E+03  0.7818608E-02  0.1098508E+00
         -2   -1    0    0    0  501 -0.00000000000E+00  0.00000000000E+00  0.13964481960E+02  0.13964481960E+02  0.00000000000E+00 0. -1.
          2   -1    0    0  501    0  0.00000000000E+00 -0.00000000000E+00 -0.13528942153E+04  0.13528942153E+04  0.00000000000E+00 0. -1.
         36    2    1    2    0    0  0.71054273576E-14  0.00000000000E+00 -0.13389297333E+04  0.13668586973E+04  0.27489974073E+03 0.  0.
         25    2    3    3    0    0 -0.39174723158E+02  0.10276521003E+02 -0.86395383609E+03  0.87415024721E+03  0.12681544855E+03 0.  0.
         25    2    3    3    0    0  0.39174723158E+02 -0.10276521003E+02 -0.47497589726E+03  0.49270845006E+03  0.12457627366E+03 0.  0.
          5    1    4    4  502    0 -0.47415765534E+02 -0.38570669886E+02 -0.22314904563E+03  0.23141637359E+03  0.47000000000E+01 0. -1.
         -5    1    4    4    0  502  0.82410423758E+01  0.48847190889E+02 -0.64080479045E+03  0.64273387362E+03  0.47000000000E+01 0. -1.
          5    1    5    5  503    0 -0.18064775302E+01  0.14419025474E+02 -0.41748522252E+03  0.41776449427E+03  0.47000000000E+01 0.  1.
         -5    1    5    5    0  503  0.40981200688E+02 -0.24695546478E+02 -0.57490674745E+02  0.74943955782E+02  0.47000000000E+01 0.  1.
<mgrwt>
<rscale>  0 0.27489974E+03</rscale>
<asrwt>0</asrwt>
<pdfrwt beam="1">  1        2 0.20813760E+00 0.27489974E+03</pdfrwt>
<pdfrwt beam="2">  1       -2 0.21483816E-02 0.27489974E+03</pdfrwt>
<totfact> 0.11402322E+04</totfact>
</mgrwt>
</event>
<event>
 9    1  0.2051157E-002  0.2763728E+03  0.7818608E-02  0.1097687E+00
         -2   -1    0    0    0  501 -0.00000000000E+00  0.00000000000E+00  0.41576166344E+01  0.41576166344E+01  0.00000000000E+00 0. -1.
          2   -1    0    0  501    0  0.00000000000E+00 -0.00000000000E+00 -0.45928902367E+04  0.45928902367E+04  0.00000000000E+00 0. -1.
         36    2    1    2    0    0  0.00000000000E+00  0.35527136788E-14 -0.45887326201E+04  0.45970478534E+04  0.27637276891E+03 0.  0.
         25    2    3    3    0    0 -0.33233078392E+02  0.10787490188E+02 -0.30850401498E+04  0.30881354892E+04  0.13374328539E+03 0.  0.
         25    2    3    3    0    0  0.33233078392E+02 -0.10787490188E+02 -0.15036924704E+04  0.15089123642E+04  0.12043533549E+03 0.  0.
          5    1    4    4  502    0  0.29663782172E+02 -0.19912083589E+02 -0.29206620173E+03  0.29428079659E+03  0.47000000000E+01 0. -1.
         -5    1    4    4    0  502 -0.62896860564E+02  0.30699573777E+02 -0.27929739480E+04  0.27938546926E+04  0.47000000000E+01 0. -1.
          5    1    5    5  503    0  0.98710106983E+01 -0.29509005988E+02 -0.14118232915E+04  0.14121739675E+04  0.47000000000E+01 0. -1.
         -5    1    5    5    0  503  0.23362067694E+02  0.18721515799E+02 -0.91869178914E+02  0.96738396694E+02  0.47000000000E+01 0. -1.
<mgrwt>
<rscale>  0 0.27637277E+03</rscale>
<asrwt>0</asrwt>
<pdfrwt beam="1">  1        2 0.70659765E+00 0.27637277E+03</pdfrwt>
<pdfrwt beam="2">  1       -2 0.63963410E-03 0.27637277E+03</pdfrwt>
<totfact> 0.56449670E+02</totfact>
</mgrwt>
</event>
<event>
 9    1  0.2051157E-002  0.2722606E+03  0.7818608E-02  0.1099993E+00
         -1   -1    0    0    0  501 -0.00000000000E+00  0.00000000000E+00  0.13619994291E+02  0.13619994291E+02  0.00000000000E+00 0. -1.
          1   -1    0    0  501    0  0.00000000000E+00 -0.00000000000E+00 -0.13606072172E+04  0.13606072172E+04  0.00000000000E+00 0. -1.
         36    2    1    2    0    0  0.71054273576E-14  0.53290705182E-14 -0.13469872230E+04  0.13742272115E+04  0.27226062904E+03 0.  0.
         25    2    3    3    0    0  0.51102466292E+02  0.16322253024E+01 -0.62882279594E+03  0.64327319242E+03  0.12557135488E+03 0.  0.
         25    2    3    3    0    0 -0.51102466292E+02 -0.16322253024E+01 -0.71816442701E+03  0.73095401912E+03  0.12617253116E+03 0.  0.
          5    1    4    4  502    0  0.81948276350E+02  0.91453883152E+01 -0.57267827469E+03  0.57860319255E+03  0.47000000000E+01 0.  1.
         -5    1    4    4    0  502 -0.30845810059E+02 -0.75131630129E+01 -0.56144521249E+02  0.64669999868E+02  0.47000000000E+01 0.  1.
          5    1    5    5  503    0 -0.27162119795E+02 -0.47678762130E+02 -0.13995686780E+03  0.15040299184E+03  0.47000000000E+01 0. -1.
         -5    1    5    5    0  503 -0.23940346496E+02  0.46046536827E+02 -0.57820755921E+03  0.58055102728E+03  0.47000000000E+01 0. -1.
<mgrwt>
<rscale>  0 0.27226063E+03</rscale>
<asrwt>0</asrwt>
<pdfrwt beam="1">  1        1 0.20932428E+00 0.27226063E+03</pdfrwt>
<pdfrwt beam="2">  1       -1 0.20953828E-02 0.27226063E+03</pdfrwt>
<totfact> 0.56813553E+03</totfact>
</mgrwt>
</event>
<event>
 9    1  0.2051157E-002  0.2754316E+03  0.7818608E-02  0.1098211E+00
         -1   -1    0    0    0  501 -0.00000000000E+00  0.00000000000E+00  0.69372266829E+01  0.69372266829E+01  0.00000000000E+00 0.  1.
          1   -1    0    0  501    0  0.00000000000E+00 -0.00000000000E+00 -0.27338934342E+04  0.27338934342E+04  0.00000000000E+00 0.  1.
         36    2    1    2    0    0 -0.71054273576E-14  0.00000000000E+00 -0.27269562075E+04  0.27408306609E+04  0.27543157757E+03 0.  0.
         25    2    3    3    0    0  0.42742002701E+02  0.13919081037E+02 -0.11464577020E+04  0.11542534620E+04  0.12615535060E+03 0.  0.
         25    2    3    3    0    0 -0.42742002701E+02 -0.13919081037E+02 -0.15804985055E+04  0.15865771988E+04  0.13126714142E+03 0.  0.
          5    1    4    4  502    0  0.53690716876E+01 -0.49618297953E+02 -0.26451551125E+03  0.26922360245E+03  0.47000000000E+01 0.  1.
         -5    1    4    4    0  502  0.37372931013E+02  0.63537378990E+02 -0.88194219078E+03  0.88502985960E+03  0.47000000000E+01 0.  1.
          5    1    5    5  503    0  0.45356958217E+02  0.39544338393E+01 -0.38908023025E+03  0.39176320243E+03  0.47000000000E+01 0. -1.
         -5    1    5    5    0  503 -0.88098960917E+02 -0.17873514876E+02 -0.11914182752E+04  0.11948139964E+04  0.47000000000E+01 0. -1.
<mgrwt>
<rscale>  0 0.27543158E+03</rscale>
<asrwt>0</asrwt>
<pdfrwt beam="1">  1        1 0.42059896E+00 0.27543158E+03</pdfrwt>
<pdfrwt beam="2">  1       -1 0.10672657E-02 0.27543158E+03</pdfrwt>
<totfact> 0.18899677E+03</totfact>
</mgrwt>
</event>
<event>
 9    1  0.2051157E-002  0.2755117E+03  0.7818608E-02  0.1098166E+00
          1   -1    0    0  501    0  0.00000000000E+00  0.00000000000E+00  0.48560447480E+03  0.48560447480E+03  0.00000000000E+00 0. -1.
         -1   -1    0    0    0  501 -0.00000000000E+00 -0.00000000000E+00 -0.39078464671E+02  0.39078464671E+02  0.00000000000E+00 0. -1.
         36    2    1    2    0    0  0.35527136788E-14 -0.14210854715E-13  0.44652601013E+03  0.52468293947E+03  0.27551172253E+03 0.  0.
         25    2    3    3    0    0  0.29804217240E+02 -0.50095425588E+02  0.25426464904E+03  0.28801082371E+03  0.12207325584E+03 0.  0.
         25    2    3    3    0    0 -0.29804217240E+02  0.50095425588E+02  0.19226136109E+03  0.23667211577E+03  0.12510562091E+03 0.  0.
          5    1    4    4  502    0  0.74599393271E+02 -0.49440290125E+02  0.18175054541E+03  0.20264442386E+03  0.47000000000E+01 0. -1.
         -5    1    4    4    0  502 -0.44795176031E+02 -0.65513546352E+00  0.72514103629E+02  0.85366399849E+02  0.47000000000E+01 0. -1.
          5    1    5    5  503    0  0.20990652574E+01  0.66808590000E+02  0.35641841765E+02  0.75896143888E+02  0.47000000000E+01 0. -1.
         -5    1    5    5    0  503 -0.31903282498E+02 -0.16713164412E+02  0.15661951933E+03  0.16077597188E+03  0.47000000000E+01 0. -1.
<mgrwt>
<rscale>  0 0.27551172E+03</rscale>
<asrwt>0</asrwt>
<pdfrwt beam="1">  1        1 0.74708376E-01 0.27551172E+03</pdfrwt>
<pdfrwt beam="2">  1       -1 0.60120718E-02 0.27551172E+03</pdfrwt>
<totfact> 0.62248480E+03</totfact>
</mgrwt>
</event>
<event>
 9    1  0.2051157E-002  0.2744010E+03  0.7818608E-02  0.1098787E+00
         -2   -1    0    0    0  501 -0.00000000000E+00  0.00000000000E+00  0.21453586169E+02  0.21453586169E+02  0.00000000000E+00 0.  1.
          2   -1    0    0  501    0  0.00000000000E+00 -0.00000000000E+00 -0.87742782534E+03  0.87742782534E+03  0.00000000000E+00 0.  1.
         36    2    1    2    0    0  0.17763568394E-14  0.00000000000E+00 -0.85597423917E+03  0.89888141151E+03  0.27440097272E+03 0.  0.
         25    2    3    3    0    0 -0.26661564783E+01 -0.42337662972E+01 -0.55289509267E+03  0.56949638582E+03  0.13641157134E+03 0.  0.
         25    2    3    3    0    0  0.26661564783E+01  0.42337662972E+01 -0.30307914650E+03  0.32938502569E+03  0.12888946015E+03 0.  0.
          5    1    4    4  502    0 -0.65180635527E+02 -0.22864089931E+02 -0.23717084528E+03  0.24706958880E+03  0.47000000000E+01 0.  1.
         -5    1    4    4    0  502  0.62514479049E+02  0.18630323633E+02 -0.31572424739E+03  0.32242679702E+03  0.47000000000E+01 0.  1.
          5    1    5    5  503    0 -0.14386917695E+02 -0.63506247747E+01 -0.30780024063E+03  0.30823755769E+03  0.47000000000E+01 0. -1.
         -5    1    5    5    0  503  0.17053074173E+02  0.10584391072E+02  0.47210941320E+01  0.21147468002E+02  0.47000000000E+01 0. -1.
<mgrwt>
<rscale>  0 0.27440097E+03</rscale>
<asrwt>0</asrwt>
<pdfrwt beam="1">  1        2 0.13498891E+00 0.27440097E+03</pdfrwt>
<pdfrwt beam="2">  1       -2 0.33005514E-02 0.27440097E+03</pdfrwt>
<totfact> 0.11503705E+04</totfact>
</mgrwt>
</event>
<event>
 8    1  0.2051157E-002  0.2963432E+03  0.7818608E-02  0.1087083E+00
          2   -1    0    0  501    0  0.00000000000E+00  0.00000000000E+00  0.81726011080E+03  0.81726011080E+03  0.00000000000E+00 0. -1.
         -2   -1    0    0    0  501 -0.00000000000E+00 -0.00000000000E+00 -0.26863927629E+02  0.26863927629E+02  0.00000000000E+00 0. -1.
         25    2    1    2    0    0  0.23481437810E+02 -0.59459034251E+02  0.23380696382E+03  0.27397507778E+03  0.12771018847E+03 0.  0.
         25    2    1    2    0    0 -0.23481437810E+02  0.59459034251E+02  0.55658921935E+03  0.57014896065E+03  0.10578999742E+03 0.  0.
          5    1    3    3  502    0  0.73179236199E+02 -0.52618224087E+02  0.12616788974E+03  0.15512673696E+03  0.47000000000E+01 0. -1.
         -5    1    3    3    0  502 -0.49697798389E+02 -0.68408101635E+01  0.10763907408E+03  0.11884834082E+03  0.47000000000E+01 0. -1.
          5    1    4    4  503    0  0.35504875432E+02  0.23066870399E+02  0.10606327352E+03  0.11429866438E+03  0.47000000000E+01 0.  1.
         -5    1    4    4    0  503 -0.58986313242E+02  0.36392163852E+02  0.45052594583E+03  0.45585029627E+03  0.47000000000E+01 0.  1.
<mgrwt>
<rscale>  0 0.29634316E+03</rscale>
<asrwt>0</asrwt>
<pdfrwt beam="1">  1        2 0.12573231E+00 0.29634316E+03</pdfrwt>
<pdfrwt beam="2">  1       -2 0.41329126E-02 0.29634316E+03</pdfrwt>
<totfact> 0.90266289E+03</totfact>
</mgrwt>
</event>
<event>
 9    1  0.2051157E-002  0.2756032E+03  0.7818608E-02  0.1098115E+00
          1   -1    0    0  501    0  0.00000000000E+00  0.00000000000E+00  0.56198137799E+03  0.56198137799E+03  0.00000000000E+00 0.  1.
         -1   -1    0    0    0  501 -0.00000000000E+00 -0.00000000000E+00 -0.33789877144E+02  0.33789877144E+02  0.00000000000E+00 0.  1.
         36    2    1    2    0    0  0.88817841970E-14  0.71054273576E-14  0.52819150085E+03  0.59577125513E+03  0.27560320549E+03 0.  0.
         25    2    3    3    0    0 -0.14688500345E+02 -0.44193737260E+02  0.19534060876E+03  0.23722909749E+03  0.12629668568E+03 0.  0.
         25    2    3    3    0    0  0.14688500345E+02  0.44193737260E+02  0.33285089209E+03  0.35854215764E+03  0.12487563407E+03 0.  0.
          5    1    4    4  502    0 -0.30020837518E+02 -0.84299101041E+02  0.11270822464E+03  0.14398896841E+03  0.47000000000E+01 0. -1.
         -5    1    4    4    0  502  0.15332337173E+02  0.40105363781E+02  0.82632384118E+02  0.93240129088E+02  0.47000000000E+01 0. -1.
          5    1    5    5  503    0  0.67369270177E+02  0.27810913901E+02  0.14007223473E+03  0.15796957441E+03  0.47000000000E+01 0. -1.
         -5    1    5    5    0  503 -0.52680769832E+02  0.16382823359E+02  0.19277865736E+03  0.20057258323E+03  0.47000000000E+01 0. -1.
<mgrwt>
<rscale>  0 0.27560321E+03</rscale>
<asrwt>0</asrwt>
<pdfrwt beam="1">  1        1 0.86458667E-01 0.27560321E+03</pdfrwt>
<pdfrwt beam="2">  1       -1 0.51984431E-02 0.27560321E+03</pdfrwt>
<totfact> 0.63680783E+03</totfact>
</mgrwt>
</event>
<event>
 9    1  0.2051157E-002  0.2750048E+03  0.7818608E-02  0.1098449E+00
          1   -1    0    0  501    0  0.00000000000E+00  0.00000000000E+00  0.53815442393E+03  0.53815442393E+03  0.00000000000E+00 0.  1.
         -1   -1    0    0    0  501 -0.00000000000E+00 -0.00000000000E+00 -0.35132861664E+02  0.35132861664E+02  0.00000000000E+00 0.  1.
         36    2    1    2    0    0  0.17763568394E-14 -0.14210854715E-13  0.50302156227E+03  0.57328728559E+03  0.27500476308E+03 0.  0.
         25    2    3    3    0    0 -0.61960672272E+01 -0.53064562448E+02  0.20205164573E+03  0.24440318453E+03  0.12670363069E+03 0.  0.
         25    2    3    3    0    0  0.61960672272E+01  0.53064562448E+02  0.30096991654E+03  0.32888410106E+03  0.12135741524E+03 0.  0.
          5    1    4    4  502    0 -0.21559308339E+00  0.27146396610E+02  0.73365047740E+00  0.27560870311E+02  0.47000000000E+01 0. -1.
         -5    1    4    4    0  502 -0.59804741438E+01 -0.80210959059E+02  0.20131799525E+03  0.21684231422E+03  0.47000000000E+01 0. -1.
          5    1    5    5  503    0  0.18270271518E+02  0.89597806749E+02  0.18158005313E+03  0.20335922770E+03  0.47000000000E+01 0.  1.
         -5    1    5    5    0  503 -0.12074204291E+02 -0.36533244301E+02  0.11938986341E+03  0.12552487337E+03  0.47000000000E+01 0.  1.
<mgrwt>
<rscale>  0 0.27500476E+03</rscale>
<asrwt>0</asrwt>
<pdfrwt beam="1">  1        1 0.82792982E-01 0.27500476E+03</pdfrwt>
<pdfrwt beam="2">  1       -1 0.54050560E-02 0.27500476E+03</pdfrwt>
<totfact> 0.63695808E+03</totfact>
</mgrwt>
</event>
<event>
 9    1  0.2051157E-002  0.2754275E+03  0.7818608E-02  0.1098213E+00
          1   -1    0    0  501    0  0.00000000000E+00  0.00000000000E+00  0.18777158455E+04  0.18777158455E+04  0.00000000000E+00 0.  1.
         -1   -1    0    0    0  501 -0.00000000000E+00 -0.00000000000E+00 -0.10100079933E+02  0.10100079933E+02  0.00000000000E+00 0.  1.
         36    2    1    2    0    0  0.71054273576E-14  0.71054273576E-14  0.18676157656E+04  0.18878159254E+04  0.27542752317E+03 0.  0.
         25    2    3    3    0    0  0.64853613113E+01  0.35551308721E+02  0.11231565456E+04  0.11318531233E+04  0.13529564414E+03 0.  0.
         25    2    3    3    0    0 -0.64853613113E+01 -0.35551308721E+02  0.74445921995E+03  0.75596280212E+03  0.12631022350E+03 0.  0.
          5    1    4    4  502    0 -0.44257351524E+02 -0.21704594825E+02  0.22261940131E+03  0.22805983960E+03  0.47000000000E+01 0.  1.
         -5    1    4    4    0  502  0.50742712835E+02  0.57255903546E+02  0.90053714430E+03  0.90379328370E+03  0.47000000000E+01 0.  1.
          5    1    5    5  503    0 -0.52292866494E+02 -0.58674386429E+02  0.40059199191E+03  0.40825636736E+03  0.47000000000E+01 0.  1.
         -5    1    5    5    0  503  0.45807505183E+02  0.23123077708E+02  0.34386722804E+03  0.34770643476E+03  0.47000000000E+01 0.  1.
<mgrwt>
<rscale>  0 0.27542752E+03</rscale>
<asrwt>0</asrwt>
<pdfrwt beam="1">  1        1 0.28887908E+00 0.27542752E+03</pdfrwt>
<pdfrwt beam="2">  1       -1 0.15538599E-02 0.27542752E+03</pdfrwt>
<totfact> 0.40159753E+03</totfact>
</mgrwt>
</event>
<event>
 9    1  0.2051157E-002  0.2746074E+03  0.7818608E-02  0.1098671E+00
          1   -1    0    0  501    0  0.00000000000E+00  0.00000000000E+00  0.18636905486E+04  0.18636905486E+04  0.00000000000E+00 0. -1.
         -1   -1    0    0    0  501 -0.00000000000E+00 -0.00000000000E+00 -0.10115574219E+02  0.10115574219E+02  0.00000000000E+00 0. -1.
         36    2    1    2    0    0 -0.17763568394E-14  0.10658141036E-13  0.18535749744E+04  0.18738061228E+04  0.27460735654E+03 0.  0.
         25    2    3    3    0    0  0.14081980213E+02  0.27032968324E+02  0.60902676712E+03  0.62295296989E+03  0.12738805313E+03 0.  0.
         25    2    3    3    0    0 -0.14081980213E+02 -0.27032968324E+02  0.12445482072E+04  0.12508531529E+04  0.12167286658E+03 0.  0.
          5    1    4    4  502    0  0.17021675515E+02  0.70248314306E+02  0.50503444556E+03  0.51020235623E+03  0.47000000000E+01 0. -1.
         -5    1    4    4    0  502 -0.29396953025E+01 -0.43215345981E+02  0.10399232156E+03  0.11275061366E+03  0.47000000000E+01 0. -1.
          5    1    5    5  503    0  0.17331109203E+02 -0.89451970084E+01  0.32095709879E+02  0.37849814905E+02  0.47000000000E+01 0. -1.
         -5    1    5    5    0  503 -0.31413089415E+02 -0.18087771316E+02  0.12124524974E+04  0.12130033380E+04  0.47000000000E+01 0. -1.
<mgrwt>
<rscale>  0 0.27460736E+03</rscale>
<asrwt>0</asrwt>
<pdfrwt beam="1">  1        1 0.28672135E+00 0.27460736E+03</pdfrwt>
<pdfrwt beam="2">  1       -1 0.15562437E-02 0.27460736E+03</pdfrwt>
<totfact> 0.40919287E+03</totfact>
</mgrwt>
</event>
<event>
 9    1  0.2051157E-002  0.2754600E+03  0.7818608E-02  0.1098195E+00
          2   -1    0    0  501    0  0.00000000000E+00  0.00000000000E+00  0.99375142426E+03  0.99375142426E+03  0.00000000000E+00 0.  1.
         -2   -1    0    0    0  501 -0.00000000000E+00 -0.00000000000E+00 -0.19088832851E+02  0.19088832851E+02  0.00000000000E+00 0.  1.
         36    2    1    2    0    0 -0.71054273576E-14  0.14210854715E-13  0.97466259141E+03  0.10128402571E+04  0.27546001403E+03 0.  0.
         25    2    3    3    0    0 -0.46367205564E+02  0.30091643910E+02  0.58349656628E+03  0.59898055644E+03  0.12350724410E+03 0.  0.
         25    2    3    3    0    0  0.46367205564E+02 -0.30091643910E+02  0.39116602513E+03  0.41385970067E+03  0.12334329264E+03 0.  0.
          5    1    4    4  502    0 -0.11184637345E+02 -0.39790110451E+02  0.35469962807E+03  0.35713059958E+03  0.47000000000E+01 0.  1.
         -5    1    4    4    0  502 -0.35182568218E+02  0.69881754361E+02  0.22879693821E+03  0.24184995686E+03  0.47000000000E+01 0.  1.
          5    1    5    5  503    0 -0.54804907325E+01  0.39943471314E+02  0.19468361429E+03  0.19887009919E+03  0.47000000000E+01 0.  1.
         -5    1    5    5    0  503  0.51847696296E+02 -0.70035115225E+02  0.19648241084E+03  0.21498960148E+03  0.47000000000E+01 0.  1.
<mgrwt>
<rscale>  0 0.27546001E+03</rscale>
<asrwt>0</asrwt>
<pdfrwt beam="1">  1        2 0.15288479E+00 0.27546001E+03</pdfrwt>
<pdfrwt beam="2">  1       -2 0.29367443E-02 0.27546001E+03</pdfrwt>
<totfact> 0.11555262E+04</totfact>
</mgrwt>
</event>
<event>
 9    1  0.2051157E-002  0.2749876E+03  0.7818608E-02  0.1098459E+00
          1   -1    0    0  501    0  0.00000000000E+00  0.00000000000E+00  0.71056828962E+03  0.71056828962E+03  0.00000000000E+00 0. -1.
         -1   -1    0    0    0  501 -0.00000000000E+00 -0.00000000000E+00 -0.26604824422E+02  0.26604824422E+02  0.00000000000E+00 0. -1.
         36    2    1    2    0    0  0.00000000000E+00 -0.71054273576E-14  0.68396346519E+03  0.73717311404E+03  0.27498759670E+03 0.  0.
         25    2    3    3    0    0  0.53102470049E+02 -0.18946926874E+02  0.34799099813E+03  0.37290079582E+03  0.12156648542E+03 0.  0.
         25    2    3    3    0    0 -0.53102470049E+02  0.18946926874E+02  0.33597246706E+03  0.36427231822E+03  0.12898823526E+03 0.  0.
          5    1    4    4  502    0  0.43501958946E+02  0.35310655077E+02  0.27835923755E+03  0.28398101684E+03  0.47000000000E+01 0. -1.
         -5    1    4    4    0  502  0.96005111030E+01 -0.54257581951E+02  0.69631760586E+02  0.88919778986E+02  0.47000000000E+01 0. -1.
          5    1    5    5  503    0 -0.19239523955E+02  0.63983269945E+02  0.26603704306E+03  0.27433887146E+03  0.47000000000E+01 0.  1.
         -5    1    5    5    0  503 -0.33862946094E+02 -0.45036343071E+02  0.69935423999E+02  0.89933446756E+02  0.47000000000E+01 0.  1.
<mgrwt>
<rscale>  0 0.27498760E+03</rscale>
<asrwt>0</asrwt>
<pdfrwt beam="1">  1        1 0.10931818E+00 0.27498760E+03</pdfrwt>
<pdfrwt beam="2">  1       -1 0.40930505E-02 0.27498760E+03</pdfrwt>
<totfact> 0.65345401E+03</totfact>
</mgrwt>
</event>
<event>
 9    1  0.2051157E-002  0.2751369E+03  0.7818608E-02  0.1098375E+00
         -2   -1    0    0    0  501 -0.00000000000E+00  0.00000000000E+00  0.71644576786E+01  0.71644576786E+01  0.00000000000E+00 0. -1.
          2   -1    0    0  501    0  0.00000000000E+00 -0.00000000000E+00 -0.26415236488E+04  0.26415236488E+04  0.00000000000E+00 0. -1.
         36    2    1    2    0    0  0.00000000000E+00 -0.53290705182E-14 -0.26343591911E+04  0.26486881065E+04  0.27513694328E+03 0.  0.
         25    2    3    3    0    0  0.49575866268E+02 -0.21204800402E+01 -0.10170243542E+04  0.10259158280E+04  0.12530956113E+03 0.  0.
         25    2    3    3    0    0 -0.49575866268E+02  0.21204800402E+01 -0.16173348369E+04  0.16227722785E+04  0.12310820523E+03 0.  0.
          5    1    4    4  502    0  0.13975303892E+02  0.37824709766E+02 -0.83859398784E+03  0.83957607412E+03  0.47000000000E+01 0. -1.
         -5    1    4    4    0  502  0.35600562377E+02 -0.39945189806E+02 -0.17843036636E+03  0.18633975386E+03  0.47000000000E+01 0. -1.
          5    1    5    5  503    0 -0.68234025126E+02  0.94572948167E+01 -0.15651383941E+04  0.15666606541E+04  0.47000000000E+01 0.  1.
         -5    1    5    5    0  503  0.18658158857E+02 -0.73368147765E+01 -0.52196442860E+02  0.56111624377E+02  0.47000000000E+01 0.  1.
<mgrwt>
<rscale>  0 0.27513694E+03</rscale>
<asrwt>0</asrwt>
<pdfrwt beam="1">  1        2 0.40638794E+00 0.27513694E+03</pdfrwt>
<pdfrwt beam="2">  1       -2 0.11022251E-02 0.27513694E+03</pdfrwt>
<totfact> 0.61970917E+03</totfact>
</mgrwt>
</event>
<event>
 9    1  0.2051157E-002  0.2748147E+03  0.7818608E-02  0.1098555E+00
         -2   -1    0    0    0  501 -0.00000000000E+00  0.00000000000E+00  0.12811833818E+02  0.12811833818E+02  0.00000000000E+00 0. -1.
          2   -1    0    0  501    0  0.00000000000E+00 -0.00000000000E+00 -0.14736986053E+04  0.14736986053E+04  0.00000000000E+00 0. -1.
         36    2    1    2    0    0  0.71054273576E-14 -0.35527136788E-14 -0.14608867715E+04  0.14865104391E+04  0.27481471306E+03 0.  0.
         25    2    3    3    0    0  0.31145559387E+02  0.21612674533E+02 -0.87893213451E+03  0.88813635592E+03  0.12176754926E+03 0.  0.
         25    2    3    3    0    0 -0.31145559387E+02 -0.21612674533E+02 -0.58195463696E+03  0.59837408319E+03  0.13395219440E+03 0.  0.
          5    1    4    4  502    0  0.74911958538E+02  0.22450267500E+02 -0.67338238480E+03  0.67792458445E+03  0.47000000000E+01 0. -1.
         -5    1    4    4    0  502 -0.43766399151E+02 -0.83759296746E+00 -0.20554974971E+03  0.21021177147E+03  0.47000000000E+01 0. -1.
          5    1    5    5  503    0  0.37261398856E+02 -0.45214427242E+02 -0.36287736406E+03  0.36760689278E+03  0.47000000000E+01 0. -1.
         -5    1    5    5    0  503 -0.68406958242E+02  0.23601752710E+02 -0.21907727290E+03  0.23076719041E+03  0.47000000000E+01 0. -1.
<mgrwt>
<rscale>  0 0.27481471E+03</rscale>
<asrwt>0</asrwt>
<pdfrwt beam="1">  1        2 0.22672275E+00 0.27481471E+03</pdfrwt>
<pdfrwt beam="2">  1       -2 0.19710523E-02 0.27481471E+03</pdfrwt>
<totfact> 0.11132568E+04</totfact>
</mgrwt>
</event>
<event>
 9    1  0.2051157E-002  0.2754584E+03  0.7818608E-02  0.1098196E+00
         -2   -1    0    0    0  501 -0.00000000000E+00  0.00000000000E+00  0.12347392228E+04  0.12347392228E+04  0.00000000000E+00 0.  1.
          2   -1    0    0  501    0  0.00000000000E+00 -0.00000000000E+00 -0.15363023247E+02  0.15363023247E+02  0.00000000000E+00 0.  1.
         36    2    1    2    0    0  0.00000000000E+00  0.14210854715E-13  0.12193761995E+04  0.12501022460E+04  0.27545836261E+03 0.  0.
         25    2    3    3    0    0  0.22794743329E+01 -0.37583298931E+02  0.64042946986E+03  0.65526365083E+03  0.13342730554E+03 0.  0.
         25    2    3    3    0    0 -0.22794743329E+01  0.37583298931E+02  0.57894672968E+03  0.59483859521E+03  0.13128571203E+03 0.  0.
          5    1    4    4  502    0  0.12055336802E+02  0.41050305840E+02  0.39450220379E+03  0.39684321532E+03  0.47000000000E+01 0. -1.
         -5    1    4    4    0  502 -0.97758624696E+01 -0.78633604771E+02  0.24592726608E+03  0.25842043551E+03  0.47000000000E+01 0. -1.
          5    1    5    5  503    0 -0.20246063929E+02  0.74004474143E+02  0.50059470777E+03  0.50646195982E+03  0.47000000000E+01 0. -1.
         -5    1    5    5    0  503  0.17966589596E+02 -0.36421175213E+02  0.78352021918E+02  0.88376635398E+02  0.47000000000E+01 0. -1.
<mgrwt>
<rscale>  0 0.27545836E+03</rscale>
<asrwt>0</asrwt>
<pdfrwt beam="1">  1        2 0.23635430E-02 0.27545836E+03</pdfrwt>
<pdfrwt beam="2">  1       -2 0.18995980E+00 0.27545836E+03</pdfrwt>
<totfact> 0.72729886E+02</totfact>
</mgrwt>
</event>
<event>
 9    1  0.2051157E-002  0.2743716E+03  0.7818608E-02  0.1098803E+00
          3   -1    0    0  501    0  0.00000000000E+00  0.00000000000E+00  0.79488516047E+02  0.79488516047E+02  0.00000000000E+00 0. -1.
         -3   -1    0    0    0  501 -0.00000000000E+00 -0.00000000000E+00 -0.23676311991E+03  0.23676311991E+03  0.00000000000E+00 0. -1.
         36    2    1    2    0    0  0.00000000000E+00  0.00000000000E+00 -0.15727460386E+03  0.31625163596E+03  0.27437163889E+03 0.  0.
         25    2    3    3    0    0  0.44710606903E+02  0.23632631923E+02 -0.41828228393E+02  0.13900036505E+03  0.12253146997E+03 0.  0.
         25    2    3    3    0    0 -0.44710606903E+02 -0.23632631923E+02 -0.11544637547E+03  0.17725127091E+03  0.12462988313E+03 0.  0.
          5    1    4    4  502    0  0.24055320322E+02  0.71139311503E+02 -0.43585003350E+02  0.86955175774E+02  0.47000000000E+01 0. -1.
         -5    1    4    4    0  502  0.20655286581E+02 -0.47506679579E+02  0.17567749571E+01  0.52045189275E+02  0.47000000000E+01 0. -1.
          5    1    5    5  503    0 -0.53083225058E+02  0.31000603630E+02 -0.10355873432E+03  0.12052123324E+03  0.47000000000E+01 0. -1.
         -5    1    5    5    0  503  0.83726181547E+01 -0.54633235553E+02 -0.11887641152E+02  0.56730037669E+02  0.47000000000E+01 0. -1.
<mgrwt>
<rscale>  0 0.27437164E+03</rscale>
<asrwt>0</asrwt>
<pdfrwt beam="1">  1        3 0.12229002E-01 0.27437164E+03</pdfrwt>
<pdfrwt beam="2">  1       -3 0.36425095E-01 0.27437164E+03</pdfrwt>
<totfact> 0.99525987E+02</totfact>
</mgrwt>
</event>
<event>
 9    1  0.2051157E-002  0.2741080E+03  0.7818608E-02  0.1098951E+00
         -1   -1    0    0    0  501 -0.00000000000E+00  0.00000000000E+00  0.18091805589E+03  0.18091805589E+03  0.00000000000E+00 0. -1.
          1   -1    0    0  501    0  0.00000000000E+00 -0.00000000000E+00 -0.10382492081E+03  0.10382492081E+03  0.00000000000E+00 0. -1.
         36    2    1    2    0    0 -0.35527136788E-14  0.00000000000E+00  0.77093135086E+02  0.28474297670E+03  0.27410802853E+03 0.  0.
         25    2    3    3    0    0  0.27742067304E+02  0.25306192520E+02  0.96390940099E+02  0.16541892093E+03  0.12908206843E+03 0.  0.
         25    2    3    3    0    0 -0.27742067304E+02 -0.25306192520E+02 -0.19297805013E+02  0.11932405577E+03  0.11160555241E+03 0.  0.
          5    1    4    4  502    0 -0.10848675236E+02  0.16491490147E+02 -0.28123182641E+02  0.34679481015E+02  0.47000000000E+01 0.  1.
         -5    1    4    4    0  502  0.38590742540E+02  0.88147023726E+01  0.12451412274E+03  0.13073943992E+03  0.47000000000E+01 0.  1.
          5    1    5    5  503    0 -0.72069198179E+01 -0.65334775191E+02 -0.30664769932E+02  0.72684184370E+02  0.47000000000E+01 0. -1.
         -5    1    5    5    0  503 -0.20535147486E+02  0.40028582671E+02  0.11366964919E+02  0.46639871402E+02  0.47000000000E+01 0. -1.
<mgrwt>
<rscale>  0 0.27410803E+03</rscale>
<asrwt>0</asrwt>
<pdfrwt beam="1">  1        1 0.15973065E-01 0.27410803E+03</pdfrwt>
<pdfrwt beam="2">  1       -1 0.27833547E-01 0.27410803E+03</pdfrwt>
<totfact> 0.39592937E+03</totfact>
</mgrwt>
</event>
<event>
 9    1  0.2051157E-002  0.2753858E+03  0.7818608E-02  0.1098236E+00
         -1   -1    0    0    0  501 -0.00000000000E+00  0.00000000000E+00  0.89590257914E+02  0.89590257914E+02  0.00000000000E+00 0.  1.
          1   -1    0    0  501    0  0.00000000000E+00 -0.00000000000E+00 -0.21162278892E+03  0.21162278892E+03  0.00000000000E+00 0.  1.
         36    2    1    2    0    0 -0.35527136788E-14  0.71054273576E-14 -0.12203253100E+03  0.30121304683E+03  0.27538584016E+03 0.  0.
         25    2    3    3    0    0 -0.28734012609E+02 -0.47848692902E+01 -0.66190650619E+01  0.13062861295E+03  0.12716715002E+03 0.  0.
         25    2    3    3    0    0  0.28734012609E+02  0.47848692902E+01 -0.11541346594E+03  0.17058443388E+03  0.12218937150E+03 0.  0.
          5    1    4    4  502    0  0.37589911306E+02 -0.36914080241E+02 -0.18080251543E+02  0.55898445845E+02  0.47000000000E+01 0. -1.
         -5    1    4    4    0  502 -0.66323923914E+02  0.32129210951E+02  0.11461186481E+02  0.74730167103E+02  0.47000000000E+01 0. -1.
          5    1    5    5  503    0 -0.99024413148E+00 -0.56184421440E+02 -0.64296859758E+02  0.85521026484E+02  0.47000000000E+01 0.  1.
         -5    1    5    5    0  503  0.29724256740E+02  0.60969290730E+02 -0.51116606182E+02  0.85063407400E+02  0.47000000000E+01 0.  1.
<mgrwt>
<rscale>  0 0.27538584E+03</rscale>
<asrwt>0</asrwt>
<pdfrwt beam="1">  1        1 0.32557352E-01 0.27538584E+03</pdfrwt>
<pdfrwt beam="2">  1       -1 0.13783117E-01 0.27538584E+03</pdfrwt>
<totfact> 0.49868404E+03</totfact>
</mgrwt>
</event>
<event>
 9    1  0.2051157E-002  0.2748813E+03  0.7818608E-02  0.1098518E+00
          1   -1    0    0  501    0  0.00000000000E+00  0.00000000000E+00  0.30068136442E+03  0.30068136442E+03  0.00000000000E+00 0.  1.
         -1   -1    0    0    0  501 -0.00000000000E+00 -0.00000000000E+00 -0.62823761405E+02  0.62823761405E+02  0.00000000000E+00 0.  1.
         36    2    1    2    0    0 -0.21316282073E-13  0.00000000000E+00  0.23785760302E+03  0.36350512583E+03  0.27488131473E+03 0.  0.
         25    2    3    3    0    0 -0.61145487648E+02 -0.45211503154E+02  0.12986245222E+03  0.19497581539E+03  0.12396959875E+03 0.  0.
         25    2    3    3    0    0  0.61145487648E+02  0.45211503154E+02  0.10799515080E+03  0.16852931044E+03  0.10467246631E+03 0.  0.
          5    1    4    4  502    0  0.22490402591E+02 -0.19523304356E+02 -0.83908251447E+01  0.31296542434E+02  0.47000000000E+01 0.  1.
         -5    1    4    4    0  502 -0.83635890239E+02 -0.25688198797E+02  0.13825327736E+03  0.16367927295E+03  0.47000000000E+01 0.  1.
          5    1    5    5  503    0  0.70619604073E+02  0.71616699528E+02  0.88409826218E+02  0.13399428160E+03  0.47000000000E+01 0.  1.
         -5    1    5    5    0  503 -0.94741164254E+01 -0.26405196375E+02  0.19585324584E+02  0.34535028836E+02  0.47000000000E+01 0.  1.
<mgrwt>
<rscale>  0 0.27488131E+03</rscale>
<asrwt>0</asrwt>
<pdfrwt beam="1">  1        1 0.46258670E-01 0.27488131E+03</pdfrwt>
<pdfrwt beam="2">  1       -1 0.96651943E-02 0.27488131E+03</pdfrwt>
<totfact> 0.55779661E+03</totfact>
</mgrwt>
</event>
<event>
 9    1  0.2051157E-002  0.2737539E+03  0.7818608E-02  0.1099150E+00
         -2   -1    0    0    0  501 -0.00000000000E+00  0.00000000000E+00  0.23162313299E+02  0.23162313299E+02  0.00000000000E+00 0.  1.
          2   -1    0    0  501    0  0.00000000000E+00 -0.00000000000E+00 -0.80887010575E+03  0.80887010575E+03  0.00000000000E+00 0.  1.
         36    2    1    2    0    0  0.00000000000E+00  0.10658141036E-13 -0.78570779245E+03  0.83203241905E+03  0.27375392459E+03 0.  0.
         25    2    3    3    0    0 -0.21317774975E+02 -0.29113466756E+02 -0.26921573536E+03  0.29915179933E+03  0.12535009135E+03 0.  0.
         25    2    3    3    0    0  0.21317774975E+02  0.29113466756E+02 -0.51649205710E+03  0.53288061972E+03  0.12607802486E+03 0.  0.
          5    1    4    4  502    0 -0.21538197401E+02  0.47141140081E+02 -0.84225021937E+02  0.99005683451E+02  0.47000000000E+01 0. -1.
         -5    1    4    4    0  502  0.22042242646E+00 -0.76254606836E+02 -0.18499071342E+03  0.20014611588E+03  0.47000000000E+01 0. -1.
          5    1    5    5  503    0  0.16134544455E+02 -0.11126378490E+02 -0.47220497936E+03  0.47263490387E+03  0.47000000000E+01 0.  1.
         -5    1    5    5    0  503  0.51832305196E+01  0.40239845246E+02 -0.44287077740E+02  0.60245715855E+02  0.47000000000E+01 0.  1.
<mgrwt>
<rscale>  0 0.27375392E+03</rscale>
<asrwt>0</asrwt>
<pdfrwt beam="1">  1        2 0.12444155E+00 0.27375392E+03</pdfrwt>
<pdfrwt beam="2">  1       -2 0.35634330E-02 0.27375392E+03</pdfrwt>
<totfact> 0.11401989E+04</totfact>
</mgrwt>
</event>
<event>
 9    1  0.2051157E-002  0.2747947E+03  0.7818608E-02  0.1098566E+00
          4   -1    0    0  501    0  0.00000000000E+00  0.00000000000E+00  0.89844179562E+02  0.89844179562E+02  0.00000000000E+00 0. -1.
         -4   -1    0    0    0  501 -0.00000000000E+00 -0.00000000000E+00 -0.21011974534E+03  0.21011974534E+03  0.00000000000E+00 0. -1.
         36    2    1    2    0    0  0.00000000000E+00  0.14210854715E-13 -0.12027556578E+03  0.29996392491E+03  0.27479473161E+03 0.  0.
         25    2    3    3    0    0 -0.28058323978E+02 -0.52372717636E+02 -0.90789095997E+02  0.16143799457E+03  0.11953825765E+03 0.  0.
         25    2    3    3    0    0  0.28058323978E+02  0.52372717636E+02 -0.29486469786E+02  0.13852593034E+03  0.12161336431E+03 0.  0.
          5    1    4    4  502    0 -0.20378238575E+02 -0.89652776529E+02 -0.79015356088E+02  0.12131945204E+03  0.47000000000E+01 0. -1.
         -5    1    4    4    0  502 -0.76800854024E+01  0.37280058892E+02 -0.11773739909E+02  0.40118542524E+02  0.47000000000E+01 0. -1.
          5    1    5    5  503    0 -0.40202770518E+02  0.72413508792E+01  0.16770718239E+02  0.44407734801E+02  0.47000000000E+01 0.  1.
         -5    1    5    5    0  503  0.68261094496E+02  0.45131366757E+02 -0.46257188025E+02  0.94118195537E+02  0.47000000000E+01 0.  1.
<mgrwt>
<rscale>  0 0.27479473E+03</rscale>
<asrwt>0</asrwt>
<pdfrwt beam="1">  1        4 0.13822182E-01 0.27479473E+03</pdfrwt>
<pdfrwt beam="2">  1       -4 0.32326115E-01 0.27479473E+03</pdfrwt>
<totfact> 0.75171752E+02</totfact>
</mgrwt>
</event>
<event>
 9    1  0.2051157E-002  0.2751968E+03  0.7818608E-02  0.1098342E+00
         -2   -1    0    0    0  501 -0.00000000000E+00  0.00000000000E+00  0.52444420419E+02  0.52444420419E+02  0.00000000000E+00 0.  1.
          2   -1    0    0  501    0  0.00000000000E+00 -0.00000000000E+00 -0.36101683502E+03  0.36101683502E+03  0.00000000000E+00 0.  1.
         36    2    1    2    0    0  0.71054273576E-14  0.71054273576E-14 -0.30857241460E+03  0.41346125544E+03  0.27519679267E+03 0.  0.
         25    2    3    3    0    0  0.49970412091E+02 -0.33556779187E+02 -0.19121598055E+03  0.23309113150E+03  0.11893201778E+03 0.  0.
         25    2    3    3    0    0 -0.49970412091E+02  0.33556779187E+02 -0.11735643405E+03  0.18037012394E+03  0.12303556186E+03 0.  0.
          5    1    4    4  502    0  0.50763395437E+02  0.13825065094E+02 -0.17497922318E+03  0.18277820791E+03  0.47000000000E+01 0.  1.
         -5    1    4    4    0  502 -0.79298334644E+00 -0.47381844282E+02 -0.16236757363E+02  0.50312923586E+02  0.47000000000E+01 0.  1.
          5    1    5    5  503    0 -0.88003459615E+02  0.33013404954E+02 -0.10280308721E+03  0.13937380869E+03  0.47000000000E+01 0. -1.
         -5    1    5    5    0  503  0.38033047524E+02  0.54337423361E+00 -0.14553346849E+02  0.40996315249E+02  0.47000000000E+01 0. -1.
<mgrwt>
<rscale>  0 0.27519679E+03</rscale>
<asrwt>0</asrwt>
<pdfrwt beam="1">  1        2 0.55541050E-01 0.27519679E+03</pdfrwt>
<pdfrwt beam="2">  1       -2 0.80683727E-02 0.27519679E+03</pdfrwt>
<totfact> 0.82764498E+03</totfact>
</mgrwt>
</event>
<event>
 9    1  0.2051157E-002  0.2750563E+03  0.7818608E-02  0.1098420E+00
         -2   -1    0    0    0  501 -0.00000000000E+00  0.00000000000E+00  0.21606009961E+04  0.21606009961E+04  0.00000000000E+00 0.  1.
          2   -1    0    0  501    0  0.00000000000E+00 -0.00000000000E+00 -0.87540390517E+01  0.87540390517E+01  0.00000000000E+00 0.  1.
         36    2    1    2    0    0 -0.71054273576E-14  0.00000000000E+00  0.21518469570E+04  0.21693550351E+04  0.27505625239E+03 0.  0.
         25    2    3    3    0    0 -0.24715556494E+02 -0.49715402978E+02  0.13570848151E+04  0.13640088044E+04  0.12553223881E+03 0.  0.
         25    2    3    3    0    0  0.24715556494E+02  0.49715402978E+02  0.79476214188E+03  0.80534623072E+03  0.11769965651E+03 0.  0.
          5    1    4    4  502    0  0.49873079451E+02 -0.29307575757E+02  0.69120393203E+03  0.69363623299E+03  0.47000000000E+01 0. -1.
         -5    1    4    4    0  502 -0.74588635945E+02 -0.20407827221E+02  0.66588088310E+03  0.67037257141E+03  0.47000000000E+01 0. -1.
          5    1    5    5  503    0 -0.37666985002E+02 -0.10695696400E+02  0.34555728168E+03  0.34780040914E+03  0.47000000000E+01 0.  1.
         -5    1    5    5    0  503  0.62382541496E+02  0.60411099379E+02  0.44920486020E+03  0.45754582157E+03  0.47000000000E+01 0.  1.
<mgrwt>
<rscale>  0 0.27505625E+03</rscale>
<asrwt>0</asrwt>
<pdfrwt beam="1">  1        2 0.13467770E-02 0.27505625E+03</pdfrwt>
<pdfrwt beam="2">  1       -2 0.33239973E+00 0.27505625E+03</pdfrwt>
<totfact> 0.22385452E+02</totfact>
</mgrwt>
</event>
<event>
 9    1  0.2051157E-002  0.2761128E+03  0.7818608E-02  0.1097831E+00
          4   -1    0    0  501    0  0.00000000000E+00  0.00000000000E+00  0.52478347626E+02  0.52478347626E+02  0.00000000000E+00 0.  1.
         -4   -1    0    0    0  501 -0.00000000000E+00 -0.00000000000E+00 -0.36318917271E+03  0.36318917271E+03  0.00000000000E+00 0.  1.
         36    2    1    2    0    0  0.00000000000E+00  0.71054273576E-14 -0.31071082508E+03  0.41566752033E+03  0.27611278608E+03 0.  0.
         25    2    3    3    0    0 -0.80288338921E+02  0.30539643822E+02 -0.13529008071E+03  0.18395575778E+03  0.90318479119E+02 0.  0.
         25    2    3    3    0    0  0.80288338921E+02 -0.30539643822E+02 -0.17542074437E+03  0.23171176255E+03  0.12465559008E+03 0.  0.
          5    1    4    4  502    0 -0.18382560887E+02 -0.51907390791E+00 -0.10752868308E+03  0.10919109702E+03  0.47000000000E+01 0.  1.
         -5    1    4    4    0  502 -0.61905778034E+02  0.31058717730E+02 -0.27761397631E+02  0.74764660766E+02  0.47000000000E+01 0.  1.
          5    1    5    5  503    0  0.82847938374E+02  0.31720967524E+02 -0.99785648632E+02  0.13360114650E+03  0.47000000000E+01 0. -1.
         -5    1    5    5    0  503 -0.25595994533E+01 -0.62260611346E+02 -0.75635095738E+02  0.98110616051E+02  0.47000000000E+01 0. -1.
<mgrwt>
<rscale>  0 0.27611279E+03</rscale>
<asrwt>0</asrwt>
<pdfrwt beam="1">  1        4 0.80735919E-02 0.27611279E+03</pdfrwt>
<pdfrwt beam="2">  1       -4 0.55875258E-01 0.27611279E+03</pdfrwt>
<totfact> 0.62839966E+02</totfact>
</mgrwt>
</event>
<event>
 9    1  0.2051157E-002  0.2752756E+03  0.7818608E-02  0.1098298E+00
          2   -1    0    0  501    0  0.00000000000E+00  0.00000000000E+00  0.53211563153E+03  0.53211563153E+03  0.00000000000E+00 0. -1.
         -2   -1    0    0    0  501 -0.00000000000E+00 -0.00000000000E+00 -0.35601583081E+02  0.35601583081E+02  0.00000000000E+00 0. -1.
         36    2    1    2    0    0 -0.71054273576E-14 -0.71054273576E-14  0.49651404845E+03  0.56771721461E+03  0.27527556277E+03 0.  0.
         25    2    3    3    0    0  0.44274510925E+02 -0.51913087312E+01  0.17012103029E+03  0.21513872915E+03  0.12392064328E+03 0.  0.
         25    2    3    3    0    0 -0.44274510925E+02  0.51913087312E+01  0.32639301816E+03  0.35257848546E+03  0.12566624090E+03 0.  0.
          5    1    4    4  502    0 -0.34278914274E+02 -0.31879949022E+02  0.77882104030E+02  0.90989489732E+02  0.47000000000E+01 0. -1.
         -5    1    4    4    0  502  0.78553425199E+02  0.26688640291E+02  0.92238926258E+02  0.12414923942E+03  0.47000000000E+01 0. -1.
          5    1    5    5  503    0 -0.50818332657E+02 -0.35499296230E+02  0.73318253711E+02  0.96126787599E+02  0.47000000000E+01 0. -1.
         -5    1    5    5    0  503  0.65438217320E+01  0.40690604961E+02  0.25307476445E+03  0.25645169786E+03  0.47000000000E+01 0. -1.
<mgrwt>
<rscale>  0 0.27527556E+03</rscale>
<asrwt>0</asrwt>
<pdfrwt beam="1">  1        2 0.81863937E-01 0.27527556E+03</pdfrwt>
<pdfrwt beam="2">  1       -2 0.54771670E-02 0.27527556E+03</pdfrwt>
<totfact> 0.98227289E+03</totfact>
</mgrwt>
</event>
<event>
 8    1  0.2051157E-002  0.2967786E+03  0.7818608E-02  0.1086862E+00
          4   -1    0    0  501    0  0.00000000000E+00  0.00000000000E+00  0.30614784565E+03  0.30614784565E+03  0.00000000000E+00 0.  1.
         -4   -1    0    0    0  501 -0.00000000000E+00 -0.00000000000E+00 -0.71924028051E+02  0.71924028051E+02  0.00000000000E+00 0.  1.
         25    2    1    2    0    0 -0.80685229456E+02  0.50610700255E+02  0.99428957660E+02  0.18531987642E+03  0.12403946848E+03 0.  0.
         25    2    1    2    0    0  0.80685229456E+02 -0.50610700255E+02  0.13479485994E+03  0.19275199728E+03  0.99559675355E+02 0.  0.
          5    1    3    3  502    0 -0.11485563772E+02  0.80039721833E+02  0.53807658423E+02  0.97240060423E+02  0.47000000000E+01 0.  1.
         -5    1    3    3    0  502 -0.69199665683E+02 -0.29429021577E+02  0.45621299237E+02  0.88079815995E+02  0.47000000000E+01 0.  1.
          5    1    4    4  503    0 -0.64182094511E+01 -0.33779232837E+02  0.82889560013E+02  0.89860999008E+02  0.47000000000E+01 0.  1.
         -5    1    4    4    0  503  0.87103438907E+02 -0.16831467419E+02  0.51905299922E+02  0.10289099827E+03  0.47000000000E+01 0.  1.
<mgrwt>
<rscale>  0 0.29677861E+03</rscale>
<asrwt>0</asrwt>
<pdfrwt beam="1">  1        4 0.47099668E-01 0.29677861E+03</pdfrwt>
<pdfrwt beam="2">  1       -4 0.11065235E-01 0.29677861E+03</pdfrwt>
<totfact> 0.52944020E+02</totfact>
</mgrwt>
</event>
<event>
 9    1  0.2051157E-002  0.2750156E+03  0.7818608E-02  0.1098443E+00
          2   -1    0    0  501    0  0.00000000000E+00  0.00000000000E+00  0.13567363712E+04  0.13567363712E+04  0.00000000000E+00 0. -1.
         -2   -1    0    0    0  501 -0.00000000000E+00 -0.00000000000E+00 -0.13936676482E+02  0.13936676482E+02  0.00000000000E+00 0. -1.
         36    2    1    2    0    0  0.71054273576E-14 -0.71054273576E-14  0.13427996947E+04  0.13706730477E+04  0.27501560593E+03 0.  0.
         25    2    3    3    0    0  0.12069919198E+02  0.44811876647E+02  0.48435847628E+03  0.50184074086E+03  0.12282999798E+03 0.  0.
         25    2    3    3    0    0 -0.12069919198E+02 -0.44811876647E+02  0.85844121842E+03  0.86883230680E+03  0.12567603044E+03 0.  0.
          5    1    4    4  502    0  0.57600315502E+02 -0.11104662624E+02  0.20390583207E+03  0.21222815136E+03  0.47000000000E+01 0.  1.
         -5    1    4    4    0  502 -0.45530396304E+02  0.55916539270E+02  0.28045264421E+03  0.28961258950E+03  0.47000000000E+01 0.  1.
          5    1    5    5  503    0  0.46271467589E+02 -0.39197594011E+02  0.23944177558E+03  0.24704646118E+03  0.47000000000E+01 0. -1.
         -5    1    5    5    0  503 -0.58341386787E+02 -0.56142826355E+01  0.61899944284E+03  0.62178584562E+03  0.47000000000E+01 0. -1.
<mgrwt>
<rscale>  0 0.27501561E+03</rscale>
<asrwt>0</asrwt>
<pdfrwt beam="1">  1        2 0.20872857E+00 0.27501561E+03</pdfrwt>
<pdfrwt beam="2">  1       -2 0.21441052E-02 0.27501561E+03</pdfrwt>
<totfact> 0.11380724E+04</totfact>
</mgrwt>
</event>
<event>
 9    1  0.2051157E-002  0.2699803E+03  0.7818608E-02  0.1101291E+00
          2   -1    0    0  501    0  0.00000000000E+00  0.00000000000E+00  0.13243955422E+04  0.13243955422E+04  0.00000000000E+00 0. -1.
         -2   -1    0    0    0  501 -0.00000000000E+00 -0.00000000000E+00 -0.13758982714E+02  0.13758982714E+02  0.00000000000E+00 0. -1.
         36    2    1    2    0    0  0.14210854715E-13  0.00000000000E+00  0.13106365595E+04  0.13381545249E+04  0.26998026130E+03 0.  0.
         25    2    3    3    0    0 -0.37164348683E+02 -0.19209788809E+02  0.78510974086E+03  0.79659135391E+03  0.12810259612E+03 0.  0.
         25    2    3    3    0    0  0.37164348683E+02  0.19209788809E+02  0.52552681865E+03  0.54156317103E+03  0.12394364161E+03 0.  0.
          5    1    4    4  502    0  0.15646203853E+01 -0.46484442698E+02  0.67519837657E+03  0.67681473770E+03  0.47000000000E+01 0. -1.
         -5    1    4    4    0  502 -0.38728969068E+02  0.27274653889E+02  0.10991136429E+03  0.11977661621E+03  0.47000000000E+01 0. -1.
          5    1    5    5  503    0  0.47974400006E+02 -0.33340897882E+02  0.40917383398E+03  0.41335030536E+03  0.47000000000E+01 0.  1.
         -5    1    5    5    0  503 -0.10810051323E+02  0.52550686691E+02  0.11635298467E+03  0.12821286567E+03  0.47000000000E+01 0.  1.
<mgrwt>
<rscale>  0 0.26998026E+03</rscale>
<asrwt>0</asrwt>
<pdfrwt beam="1">  1        2 0.20375306E+00 0.26998026E+03</pdfrwt>
<pdfrwt beam="2">  1       -2 0.21167676E-02 0.26998026E+03</pdfrwt>
<totfact> 0.12076168E+04</totfact>
</mgrwt>
</event>
<event>
 9    1  0.2051157E-002  0.2748248E+03  0.7818608E-02  0.1098550E+00
          2   -1    0    0  501    0  0.00000000000E+00  0.00000000000E+00  0.39432386274E+02  0.39432386274E+02  0.00000000000E+00 0. -1.
         -2   -1    0    0    0  501 -0.00000000000E+00 -0.00000000000E+00 -0.47884923620E+03  0.47884923620E+03  0.00000000000E+00 0. -1.
         36    2    1    2    0    0 -0.71054273576E-14  0.00000000000E+00 -0.43941684992E+03  0.51828162247E+03  0.27482480273E+03 0.  0.
         25    2    3    3    0    0 -0.30197194830E+02  0.16182962644E+02 -0.29473460186E+03  0.32159819734E+03  0.12402885205E+03 0.  0.
         25    2    3    3    0    0  0.30197194830E+02 -0.16182962644E+02 -0.14468224806E+03  0.19668342513E+03  0.12875425415E+03 0.  0.
          5    1    4    4  502    0 -0.63505792920E+02  0.43564219504E+02 -0.12928229435E+03  0.15055506829E+03  0.47000000000E+01 0. -1.
         -5    1    4    4    0  502  0.33308598090E+02 -0.27381256859E+02 -0.16545230752E+03  0.17104312906E+03  0.47000000000E+01 0. -1.
          5    1    5    5  503    0 -0.13599193086E+02 -0.61297659965E+02 -0.40364866274E+02  0.74791400570E+02  0.47000000000E+01 0. -1.
         -5    1    5    5    0  503  0.43796387916E+02  0.45114697321E+02 -0.10431738178E+03  0.12189202456E+03  0.47000000000E+01 0. -1.
<mgrwt>
<rscale>  0 0.27482480E+03</rscale>
<asrwt>0</asrwt>
<pdfrwt beam="1">  1        2 0.60665215E-02 0.27482480E+03</pdfrwt>
<pdfrwt beam="2">  1       -2 0.73669107E-01 0.27482480E+03</pdfrwt>
<totfact> 0.20746279E+03</totfact>
</mgrwt>
</event>
<event>
 9    1  0.2051157E-002  0.2759005E+03  0.7818608E-02  0.1097949E+00
         -2   -1    0    0    0  501 -0.00000000000E+00  0.00000000000E+00  0.17596245950E+02  0.17596245950E+02  0.00000000000E+00 0.  1.
          2   -1    0    0  501    0  0.00000000000E+00 -0.00000000000E+00 -0.10814962493E+04  0.10814962493E+04  0.00000000000E+00 0.  1.
         36    2    1    2    0    0 -0.35527136788E-14 -0.71054273576E-14 -0.10639000033E+04  0.10990924952E+04  0.27590051827E+03 0.  0.
         25    2    3    3    0    0  0.26088844395E+02  0.24878236978E+02 -0.69229132663E+03  0.70494434139E+03  0.12798315923E+03 0.  0.
         25    2    3    3    0    0 -0.26088844395E+02 -0.24878236978E+02 -0.37160867669E+03  0.39414815383E+03  0.12633370137E+03 0.  0.
          5    1    4    4  502    0  0.12341070425E+02 -0.44193727767E+02 -0.45625237845E+03  0.45857792187E+03  0.47000000000E+01 0. -1.
         -5    1    4    4    0  502  0.13747773970E+02  0.69071964745E+02 -0.23603894819E+03  0.24636641951E+03  0.47000000000E+01 0. -1.
          5    1    5    5  503    0 -0.65121763217E+02 -0.45814637728E+02 -0.29438886375E+03  0.30500281667E+03  0.47000000000E+01 0. -1.
         -5    1    5    5    0  503  0.39032918821E+02  0.20936400750E+02 -0.77219812937E+02  0.89145337165E+02  0.47000000000E+01 0. -1.
<mgrwt>
<rscale>  0 0.27590052E+03</rscale>
<asrwt>0</asrwt>
<pdfrwt beam="1">  1        2 0.16638405E+00 0.27590052E+03</pdfrwt>
<pdfrwt beam="2">  1       -2 0.27071146E-02 0.27590052E+03</pdfrwt>
<totfact> 0.11546467E+04</totfact>
</mgrwt>
</event>
<event>
 9    1  0.2051157E-002  0.2745670E+03  0.7818608E-02  0.1098694E+00
         -2   -1    0    0    0  501 -0.00000000000E+00  0.00000000000E+00  0.27245494451E+03  0.27245494451E+03  0.00000000000E+00 0.  1.
          2   -1    0    0  501    0  0.00000000000E+00 -0.00000000000E+00 -0.69173867905E+02  0.69173867905E+02  0.00000000000E+00 0.  1.
         36    2    1    2    0    0  0.17763568394E-14 -0.35527136788E-14  0.20328107660E+03  0.34162881241E+03  0.27456702163E+03 0.  0.
         25    2    3    3    0    0 -0.15633058565E+02 -0.18911109827E+02  0.67488593189E+02  0.14373438921E+03  0.12451040854E+03 0.  0.
         25    2    3    3    0    0  0.15633058565E+02  0.18911109827E+02  0.13579248341E+03  0.19789442321E+03  0.14184703588E+03 0.  0.
          5    1    4    4  502    0  0.52077489595E+01 -0.14522682961E+02 -0.35219182547E+02  0.38736414250E+02  0.47000000000E+01 0.  1.
         -5    1    4    4    0  502 -0.20840807524E+02 -0.43884268664E+01  0.10270777574E+03  0.10499797496E+03  0.47000000000E+01 0.  1.
          5    1    5    5  503    0  0.11108725765E+02 -0.46007335451E+02  0.35840809431E+00  0.47563611719E+02  0.47000000000E+01 0. -1.
         -5    1    5    5    0  503  0.45243327998E+01  0.64918445278E+02  0.13543407532E+03  0.15033081149E+03  0.47000000000E+01 0. -1.
<mgrwt>
<rscale>  0 0.27456702E+03</rscale>
<asrwt>0</asrwt>
<pdfrwt beam="1">  1        2 0.10642134E-01 0.27456702E+03</pdfrwt>
<pdfrwt beam="2">  1       -2 0.41916145E-01 0.27456702E+03</pdfrwt>
<totfact> 0.32123719E+03</totfact>
</mgrwt>
</event>
<event>
 9    1  0.2051157E-002  0.2756510E+03  0.7818608E-02  0.1098088E+00
         -1   -1    0    0    0  501 -0.00000000000E+00  0.00000000000E+00  0.25479869026E+02  0.25479869026E+02  0.00000000000E+00 0.  1.
          1   -1    0    0  501    0  0.00000000000E+00 -0.00000000000E+00 -0.74552450577E+03  0.74552450577E+03  0.00000000000E+00 0.  1.
         36    2    1    2    0    0  0.35527136788E-14  0.35527136788E-14 -0.72004463674E+03  0.77100437479E+03  0.27565098776E+03 0.  0.
         25    2    3    3    0    0  0.15190417662E+02  0.22643446730E+02 -0.21831061437E+03  0.25326172675E+03  0.12545319216E+03 0.  0.
         25    2    3    3    0    0 -0.15190417662E+02 -0.22643446730E+02 -0.50173402237E+03  0.51774264804E+03  0.12480763569E+03 0.  0.
          5    1    4    4  502    0  0.12883881383E+01  0.44333742994E+02 -0.13238283065E+02  0.46524002948E+02  0.47000000000E+01 0. -1.
         -5    1    4    4    0  502  0.13902029524E+02 -0.21690296264E+02 -0.20507233131E+03  0.20673772381E+03  0.47000000000E+01 0. -1.
          5    1    5    5  503    0 -0.57379174264E+02  0.56559366922E+01 -0.12703474702E+03  0.13958608888E+03  0.47000000000E+01 0. -1.
         -5    1    5    5    0  503  0.42188756602E+02 -0.28299383422E+02 -0.37469927535E+03  0.37815655916E+03  0.47000000000E+01 0. -1.
<mgrwt>
<rscale>  0 0.27565099E+03</rscale>
<asrwt>0</asrwt>
<pdfrwt beam="1">  1        1 0.11469607E+00 0.27565099E+03</pdfrwt>
<pdfrwt beam="2">  1       -1 0.39199800E-02 0.27565099E+03</pdfrwt>
<totfact> 0.64903302E+03</totfact>
</mgrwt>
</event>
<event>
 9    1  0.2051157E-002  0.2755615E+03  0.7818608E-02  0.1098138E+00
         -2   -1    0    0    0  501 -0.00000000000E+00  0.00000000000E+00  0.21227106493E+02  0.21227106493E+02  0.00000000000E+00 0. -1.
          2   -1    0    0  501    0  0.00000000000E+00 -0.00000000000E+00 -0.89430641245E+03  0.89430641245E+03  0.00000000000E+00 0. -1.
         36    2    1    2    0    0  0.71054273576E-14 -0.17763568394E-14 -0.87307930596E+03  0.91553351895E+03  0.27556151730E+03 0.  0.
         25    2    3    3    0    0  0.28335631519E+02 -0.98337914976E+01 -0.31110969796E+03  0.33806402241E+03  0.12883488508E+03 0.  0.
         25    2    3    3    0    0 -0.28335631519E+02  0.98337914976E+01 -0.56196960800E+03  0.57746949654E+03  0.12946647305E+03 0.  0.
          5    1    4    4  502    0 -0.43356740142E+02 -0.25435725091E+01 -0.20571499539E+03  0.21030222539E+03  0.47000000000E+01 0. -1.
         -5    1    4    4    0  502  0.71692371661E+02 -0.72902189884E+01 -0.10539470257E+03  0.12776179702E+03  0.47000000000E+01 0. -1.
          5    1    5    5  503    0  0.11668694280E+02  0.78233838591E+01 -0.51641684742E+03  0.51662928107E+03  0.47000000000E+01 0.  1.
         -5    1    5    5    0  503 -0.40004325799E+02  0.20104076385E+01 -0.45552760589E+02  0.60840215473E+02  0.47000000000E+01 0.  1.
<mgrwt>
<rscale>  0 0.27556152E+03</rscale>
<asrwt>0</asrwt>
<pdfrwt beam="1">  1        2 0.13758557E+00 0.27556152E+03</pdfrwt>
<pdfrwt beam="2">  1       -2 0.32657095E-02 0.27556152E+03</pdfrwt>
<totfact> 0.11396792E+04</totfact>
</mgrwt>
</event>
<event>
 9    1  0.2051157E-002  0.2751596E+03  0.7818608E-02  0.1098362E+00
          1   -1    0    0  501    0  0.00000000000E+00  0.00000000000E+00  0.12336274672E+03  0.12336274672E+03  0.00000000000E+00 0.  1.
         -1   -1    0    0    0  501 -0.00000000000E+00 -0.00000000000E+00 -0.15343536534E+03  0.15343536534E+03  0.00000000000E+00 0.  1.
         36    2    1    2    0    0  0.00000000000E+00  0.00000000000E+00 -0.30072618619E+02  0.27679811206E+03  0.27515964902E+03 0.  0.
         25    2    3    3    0    0 -0.21371673924E+01 -0.61614947056E+01  0.39003723841E+02  0.13288843338E+03  0.12686809587E+03 0.  0.
         25    2    3    3    0    0  0.21371673924E+01  0.61614947056E+01 -0.69076342460E+02  0.14390967869E+03  0.12607903486E+03 0.  0.
          5    1    4    4  502    0  0.10477047323E+02  0.17023162167E+02 -0.42439521642E+02  0.47146151147E+02  0.47000000000E+01 0. -1.
         -5    1    4    4    0  502 -0.12614214715E+02 -0.23184656872E+02  0.81443245483E+02  0.85742282230E+02  0.47000000000E+01 0. -1.
          5    1    5    5  503    0  0.54375706036E+02 -0.23975079393E+02 -0.56483308614E+02  0.82121714490E+02  0.47000000000E+01 0.  1.
         -5    1    5    5    0  503 -0.52238538644E+02  0.30136574099E+02 -0.12593033846E+02  0.61787964196E+02  0.47000000000E+01 0.  1.
<mgrwt>
<rscale>  0 0.27515965E+03</rscale>
<asrwt>0</asrwt>
<pdfrwt beam="1">  1        1 0.18978884E-01 0.27515965E+03</pdfrwt>
<pdfrwt beam="2">  1       -1 0.23605441E-01 0.27515965E+03</pdfrwt>
<totfact> 0.41658065E+03</totfact>
</mgrwt>
</event>
<event>
 9    1  0.2051157E-002  0.2749596E+03  0.7818608E-02  0.1098474E+00
          2   -1    0    0  501    0  0.00000000000E+00  0.00000000000E+00  0.14026285137E+04  0.14026285137E+04  0.00000000000E+00 0. -1.
         -2   -1    0    0    0  501 -0.00000000000E+00 -0.00000000000E+00 -0.13475199631E+02  0.13475199631E+02  0.00000000000E+00 0. -1.
         36    2    1    2    0    0  0.00000000000E+00 -0.71054273576E-14  0.13891533141E+04  0.14161037134E+04  0.27495962780E+03 0.  0.
         25    2    3    3    0    0  0.17651467558E+02 -0.49857041176E+02  0.78040610629E+03  0.79205476009E+03  0.12457830222E+03 0.  0.
         25    2    3    3    0    0 -0.17651467558E+02  0.49857041176E+02  0.60874720782E+03  0.62404895328E+03  0.12675422755E+03 0.  0.
          5    1    4    4  502    0  0.69383226543E+02 -0.45702988087E+02  0.48540728129E+03  0.49248869426E+03  0.47000000000E+01 0.  1.
         -5    1    4    4    0  502 -0.51731758985E+02 -0.41540530896E+01  0.29499882499E+03  0.29956606582E+03  0.47000000000E+01 0.  1.
          5    1    5    5  503    0 -0.12079273448E+02  0.31695518797E+02  0.60254859706E+03  0.60352085016E+03  0.47000000000E+01 0.  1.
         -5    1    5    5    0  503 -0.55721941096E+01  0.18161522380E+02  0.61986107568E+01  0.20528103119E+02  0.47000000000E+01 0.  1.
<mgrwt>
<rscale>  0 0.27495963E+03</rscale>
<asrwt>0</asrwt>
<pdfrwt beam="1">  1        2 0.21578889E+00 0.27495963E+03</pdfrwt>
<pdfrwt beam="2">  1       -2 0.20731087E-02 0.27495963E+03</pdfrwt>
<totfact> 0.11290196E+04</totfact>
</mgrwt>
</event>
<event>
 9    1  0.2051157E-002  0.2748923E+03  0.7818608E-02  0.1098512E+00
          2   -1    0    0  501    0  0.00000000000E+00  0.00000000000E+00  0.11387508509E+03  0.11387508509E+03  0.00000000000E+00 0.  1.
         -2   -1    0    0    0  501 -0.00000000000E+00 -0.00000000000E+00 -0.16589619068E+03  0.16589619068E+03  0.00000000000E+00 0.  1.
         36    2    1    2    0    0 -0.17763568394E-14  0.00000000000E+00 -0.52021105598E+02  0.27977127577E+03  0.27489229039E+03 0.  0.
         25    2    3    3    0    0 -0.56106118546E+01  0.38169201195E+02 -0.70934519736E+02  0.14610107740E+03  0.12175981209E+03 0.  0.
         25    2    3    3    0    0  0.56106118546E+01 -0.38169201195E+02  0.18913414138E+02  0.13367019837E+03  0.12657660848E+03 0.  0.
          5    1    4    4  502    0  0.17407430613E+02 -0.39970655141E+02 -0.12042427183E+02  0.45472870652E+02  0.47000000000E+01 0.  1.
         -5    1    4    4    0  502 -0.23018042468E+02  0.78139856336E+02 -0.58892092554E+02  0.10062820674E+03  0.47000000000E+01 0.  1.
          5    1    5    5  503    0  0.19501608454E+02  0.38263385206E+02  0.33272159586E+02  0.54530046609E+02  0.47000000000E+01 0. -1.
         -5    1    5    5    0  503 -0.13890996599E+02 -0.76432586401E+02 -0.14358745447E+02  0.79140151764E+02  0.47000000000E+01 0. -1.
<mgrwt>
<rscale>  0 0.27489229E+03</rscale>
<asrwt>0</asrwt>
<pdfrwt beam="1">  1        2 0.17519244E-01 0.27489229E+03</pdfrwt>
<pdfrwt beam="2">  1       -2 0.25522491E-01 0.27489229E+03</pdfrwt>
<totfact> 0.44128389E+03</totfact>
</mgrwt>
</event>
<event>
 9    1  0.2051157E-002  0.2752262E+03  0.7818608E-02  0.1098325E+00
         -2   -1    0    0    0  501 -0.00000000000E+00  0.00000000000E+00  0.29988382065E+03  0.29988382065E+03  0.00000000000E+00 0.  1.
          2   -1    0    0  501    0  0.00000000000E+00 -0.00000000000E+00 -0.63148989231E+02  0.63148989231E+02  0.00000000000E+00 0.  1.
         36    2    1    2    0    0  0.00000000000E+00  0.00000000000E+00  0.23673483142E+03  0.36303280988E+03  0.27522616272E+03 0.  0.
         25    2    3    3    0    0 -0.19358602439E+02 -0.70064755823E+02  0.69832527786E+02  0.15118808721E+03  0.11268287484E+03 0.  0.
         25    2    3    3    0    0  0.19358602439E+02  0.70064755823E+02  0.16690230363E+03  0.21184472267E+03  0.10834196817E+03 0.  0.
          5    1    4    4  502    0 -0.27553243108E+02  0.32312106634E+01 -0.20252687481E+02  0.34668188276E+02  0.47000000000E+01 0. -1.
         -5    1    4    4    0  502  0.81946406697E+01 -0.73295966486E+02  0.90085215267E+02  0.11651989894E+03  0.47000000000E+01 0. -1.
          5    1    5    5  503    0  0.46794939045E+02 -0.40412734551E-02  0.10216305019E+03  0.11246841851E+03  0.47000000000E+01 0.  1.
         -5    1    5    5    0  503 -0.27436336606E+02  0.70068797096E+02  0.64739253441E+02  0.99376304162E+02  0.47000000000E+01 0.  1.
<mgrwt>
<rscale>  0 0.27522616E+03</rscale>
<asrwt>0</asrwt>
<pdfrwt beam="1">  1        2 0.97152293E-02 0.27522616E+03</pdfrwt>
<pdfrwt beam="2">  1       -2 0.46135972E-01 0.27522616E+03</pdfrwt>
<totfact> 0.29847790E+03</totfact>
</mgrwt>
</event>
<event>
 9    1  0.2051157E-002  0.2739393E+03  0.7818608E-02  0.1099046E+00
          2   -1    0    0  501    0  0.00000000000E+00  0.00000000000E+00  0.73843826210E+03  0.73843826210E+03  0.00000000000E+00 0. -1.
         -2   -1    0    0    0  501 -0.00000000000E+00 -0.00000000000E+00 -0.25405892955E+02  0.25405892955E+02  0.00000000000E+00 0. -1.
         36    2    1    2    0    0  0.00000000000E+00  0.00000000000E+00  0.71303236914E+03  0.76384415505E+03  0.27393928846E+03 0.  0.
         25    2    3    3    0    0 -0.50407195171E+02 -0.28314157731E+02  0.34946340294E+03  0.37562447042E+03  0.12500598356E+03 0.  0.
         25    2    3    3    0    0  0.50407195171E+02  0.28314157731E+02  0.36356896620E+03  0.38821968464E+03  0.12324590664E+03 0.  0.
          5    1    4    4  502    0  0.69767926179E+00 -0.37162029150E+02  0.30457611822E+03  0.30687164248E+03  0.47000000000E+01 0. -1.
         -5    1    4    4    0  502 -0.51104874433E+02  0.88478714195E+01  0.44887284719E+02  0.68752827934E+02  0.47000000000E+01 0. -1.
          5    1    5    5  503    0  0.20995539732E+02 -0.40771087247E+02  0.23309342692E+03  0.23760835405E+03  0.47000000000E+01 0.  1.
         -5    1    5    5    0  503  0.29411655440E+02  0.69085244978E+02  0.13047553929E+03  0.15061133059E+03  0.47000000000E+01 0.  1.
<mgrwt>
<rscale>  0 0.27393929E+03</rscale>
<asrwt>0</asrwt>
<pdfrwt beam="1">  1        2 0.11360587E+00 0.27393929E+03</pdfrwt>
<pdfrwt beam="2">  1       -2 0.39085995E-02 0.27393929E+03</pdfrwt>
<totfact> 0.11129273E+04</totfact>
</mgrwt>
</event>
<event>
 9    1  0.2051157E-002  0.2772124E+03  0.7818608E-02  0.1097221E+00
         -2   -1    0    0    0  501 -0.00000000000E+00  0.00000000000E+00  0.12723036740E+03  0.12723036740E+03  0.00000000000E+00 0.  1.
          2   -1    0    0  501    0  0.00000000000E+00 -0.00000000000E+00 -0.15099917879E+03  0.15099917879E+03  0.00000000000E+00 0.  1.
         36    2    1    2    0    0  0.71054273576E-14  0.00000000000E+00 -0.23768811382E+02  0.27822954619E+03  0.27721241671E+03 0.  0.
         25    2    3    3    0    0  0.49178381353E+02 -0.12485943276E+02 -0.65042044292E+00  0.13615583778E+03  0.12634705039E+03 0.  0.
         25    2    3    3    0    0 -0.49178381353E+02  0.12485943276E+02 -0.23118390939E+02  0.14207370841E+03  0.13067542482E+03 0.  0.
          5    1    4    4  502    0  0.24085059567E+01 -0.54265399763E+02  0.34097117834E+02  0.64305815888E+02  0.47000000000E+01 0. -1.
         -5    1    4    4    0  502  0.46769875397E+02  0.41779456487E+02 -0.34747538277E+02  0.71850021888E+02  0.47000000000E+01 0. -1.
          5    1    5    5  503    0  0.40139359049E+02 -0.13669401785E+02 -0.23863993403E+02  0.48883543971E+02  0.47000000000E+01 0. -1.
         -5    1    5    5    0  503 -0.89317740402E+02  0.26155345060E+02  0.74560246368E+00  0.93190164443E+02  0.47000000000E+01 0. -1.
<mgrwt>
<rscale>  0 0.27721242E+03</rscale>
<asrwt>0</asrwt>
<pdfrwt beam="1">  1        2 0.23230643E-01 0.27721242E+03</pdfrwt>
<pdfrwt beam="2">  1       -2 0.19573903E-01 0.27721242E+03</pdfrwt>
<totfact> 0.50673540E+03</totfact>
</mgrwt>
</event>
<event>
 9    1  0.2051157E-002  0.2748387E+03  0.7818608E-02  0.1098542E+00
          1   -1    0    0  501    0  0.00000000000E+00  0.00000000000E+00  0.53814690753E+02  0.53814690753E+02  0.00000000000E+00 0.  1.
         -1   -1    0    0    0  501 -0.00000000000E+00 -0.00000000000E+00 -0.35090933323E+03  0.35090933323E+03  0.00000000000E+00 0.  1.
         36    2    1    2    0    0  0.00000000000E+00 -0.14210854715E-13 -0.29709464248E+03  0.40472402398E+03  0.27483869633E+03 0.  0.
         25    2    3    3    0    0 -0.10956450201E+02  0.46269826688E+02 -0.17186366481E+03  0.22162514770E+03  0.13160412665E+03 0.  0.
         25    2    3    3    0    0  0.10956450201E+02 -0.46269826688E+02 -0.12523097767E+03  0.18309887628E+03  0.12482571876E+03 0.  0.
          5    1    4    4  502    0 -0.52821304710E+02  0.39363027414E+02 -0.16584708378E+03  0.17851297812E+03  0.47000000000E+01 0. -1.
         -5    1    4    4    0  502  0.41864854509E+02  0.69067992742E+01 -0.60165810304E+01  0.43112169588E+02  0.47000000000E+01 0. -1.
          5    1    5    5  503    0 -0.15146518933E+02 -0.29114125104E+02 -0.14304344004E+03  0.14683516287E+03  0.47000000000E+01 0. -1.
         -5    1    5    5    0  503  0.26102969135E+02 -0.17155701584E+02  0.17812462372E+02  0.36263713409E+02  0.47000000000E+01 0. -1.
<mgrwt>
<rscale>  0 0.27483870E+03</rscale>
<asrwt>0</asrwt>
<pdfrwt beam="1">  1        1 0.82791829E-02 0.27483870E+03</pdfrwt>
<pdfrwt beam="2">  1       -1 0.53986053E-01 0.27483870E+03</pdfrwt>
<totfact> 0.29410753E+03</totfact>
</mgrwt>
</event>
<event>
 9    1  0.2051157E-002  0.2734470E+03  0.7818608E-02  0.1099323E+00
         -2   -1    0    0    0  501 -0.00000000000E+00  0.00000000000E+00  0.24948333425E+02  0.24948333425E+02  0.00000000000E+00 0.  1.
          2   -1    0    0  501    0  0.00000000000E+00 -0.00000000000E+00 -0.74928137073E+03  0.74928137073E+03  0.00000000000E+00 0.  1.
         36    2    1    2    0    0  0.00000000000E+00 -0.71054273576E-14 -0.72433303730E+03  0.77422970415E+03  0.27344704399E+03 0.  0.
         25    2    3    3    0    0 -0.54979571911E+01 -0.58726591766E+02 -0.38890020294E+03  0.41214693968E+03  0.12305564565E+03 0.  0.
         25    2    3    3    0    0  0.54979571911E+01  0.58726591766E+02 -0.33543283436E+03  0.36208276447E+03  0.12292152719E+03 0.  0.
          5    1    4    4  502    0  0.14686332556E+02 -0.37687613779E+02 -0.26585073082E+02  0.48630244777E+02  0.47000000000E+01 0. -1.
         -5    1    4    4    0  502 -0.20184289747E+02 -0.21038977987E+02 -0.36231512986E+03  0.36351669490E+03  0.47000000000E+01 0. -1.
          5    1    5    5  503    0  0.33025793013E+02  0.89062158051E+02 -0.23518791487E+03  0.25368921203E+03  0.47000000000E+01 0. -1.
         -5    1    5    5    0  503 -0.27527835822E+02 -0.30335566285E+02 -0.10024491949E+03  0.10839355244E+03  0.47000000000E+01 0. -1.
<mgrwt>
<rscale>  0 0.27344704E+03</rscale>
<asrwt>0</asrwt>
<pdfrwt beam="1">  1        2 0.11527404E+00 0.27344704E+03</pdfrwt>
<pdfrwt beam="2">  1       -2 0.38382056E-02 0.27344704E+03</pdfrwt>
<totfact> 0.11231929E+04</totfact>
</mgrwt>
</event>
<event>
 9    1  0.2051157E-002  0.2769814E+03  0.7818608E-02  0.1097349E+00
          1   -1    0    0  501    0  0.00000000000E+00  0.00000000000E+00  0.69162469658E+03  0.69162469658E+03  0.00000000000E+00 0.  1.
         -1   -1    0    0    0  501 -0.00000000000E+00 -0.00000000000E+00 -0.27731338042E+02  0.27731338042E+02  0.00000000000E+00 0.  1.
         36    2    1    2    0    0  0.00000000000E+00  0.00000000000E+00  0.66389335854E+03  0.71935603463E+03  0.27698143085E+03 0.  0.
         25    2    3    3    0    0  0.34933399933E+02  0.33891737337E+02  0.42534265397E+03  0.44582386704E+03  0.12439274435E+03 0.  0.
         25    2    3    3    0    0 -0.34933399933E+02 -0.33891737337E+02  0.23855070457E+03  0.27353216759E+03  0.12467724637E+03 0.  0.
          5    1    4    4  502    0 -0.25925653604E+02 -0.33494889814E+02  0.13085888062E+03  0.13762334030E+03  0.47000000000E+01 0. -1.
         -5    1    4    4    0  502  0.60859053537E+02  0.67386627151E+02  0.29448377335E+03  0.30820052674E+03  0.47000000000E+01 0. -1.
          5    1    5    5  503    0 -0.71693196938E+02 -0.47659504820E+02  0.11447688370E+03  0.14331221089E+03  0.47000000000E+01 0. -1.
         -5    1    5    5    0  503  0.36759797005E+02  0.13767767483E+02  0.12407382087E+03  0.13021995670E+03  0.47000000000E+01 0. -1.
<mgrwt>
<rscale>  0 0.27698143E+03</rscale>
<asrwt>0</asrwt>
<pdfrwt beam="1">  1        1 0.10640379E+00 0.27698143E+03</pdfrwt>
<pdfrwt beam="2">  1       -1 0.42663602E-02 0.27698143E+03</pdfrwt>
<totfact> 0.63917037E+03</totfact>
</mgrwt>
</event>
<event>
 9    1  0.2051157E-002  0.2673090E+03  0.7818608E-02  0.1102830E+00
          2   -1    0    0  501    0  0.00000000000E+00  0.00000000000E+00  0.55672854990E+03  0.55672854990E+03  0.00000000000E+00 0.  1.
         -2   -1    0    0    0  501 -0.00000000000E+00 -0.00000000000E+00 -0.32086588699E+02  0.32086588699E+02  0.00000000000E+00 0.  1.
         36    2    1    2    0    0  0.71054273576E-14  0.00000000000E+00  0.52464196120E+03  0.58881513860E+03  0.26730895980E+03 0.  0.
         25    2    3    3    0    0  0.14399485629E+02  0.79974128067E+01  0.17149173169E+03  0.21355314335E+03  0.12619123265E+03 0.  0.
         25    2    3    3    0    0 -0.14399485629E+02 -0.79974128067E+01  0.35315022951E+03  0.37526199525E+03  0.12583789842E+03 0.  0.
          5    1    4    4  502    0 -0.46564911497E+02  0.36908874943E+02  0.82300501239E+02  0.10161701893E+03  0.47000000000E+01 0.  1.
         -5    1    4    4    0  502  0.60964397127E+02 -0.28911462137E+02  0.89191230452E+02  0.11193612442E+03  0.47000000000E+01 0.  1.
          5    1    5    5  503    0 -0.64979187990E+02 -0.26623702569E+02  0.16256404545E+03  0.17714478621E+03  0.47000000000E+01 0. -1.
         -5    1    5    5    0  503  0.50579702361E+02  0.18626289762E+02  0.19058618406E+03  0.19811720904E+03  0.47000000000E+01 0. -1.
<mgrwt>
<rscale>  0 0.26730896E+03</rscale>
<asrwt>0</asrwt>
<pdfrwt beam="1">  1        2 0.85650539E-01 0.26730896E+03</pdfrwt>
<pdfrwt beam="2">  1       -2 0.49363987E-02 0.26730896E+03</pdfrwt>
<totfact> 0.10918033E+04</totfact>
</mgrwt>
</event>
<event>
 9    1  0.2051157E-002  0.2745418E+03  0.7818608E-02  0.1098708E+00
          1   -1    0    0  501    0  0.00000000000E+00  0.00000000000E+00  0.13197757011E+02  0.13197757011E+02  0.00000000000E+00 0. -1.
         -1   -1    0    0    0  501 -0.00000000000E+00 -0.00000000000E+00 -0.14277657137E+04  0.14277657137E+04  0.00000000000E+00 0. -1.
         36    2    1    2    0    0  0.00000000000E+00  0.00000000000E+00 -0.14145679567E+04  0.14409634707E+04  0.27454183621E+03 0.  0.
         25    2    3    3    0    0 -0.48669946736E+02  0.52448302162E+02 -0.49403375143E+03  0.50943988921E+03  0.10168611041E+03 0.  0.
         25    2    3    3    0    0  0.48669946736E+02 -0.52448302162E+02 -0.92053420526E+03  0.93152358151E+03  0.12342354608E+03 0.  0.
          5    1    4    4  502    0 -0.60725567238E+02 -0.89650899881E+01 -0.24114266615E+03  0.24887716406E+03  0.47000000000E+01 0.  1.
         -5    1    4    4    0  502  0.12055620502E+02  0.61413392150E+02 -0.25289108529E+03  0.26056272515E+03  0.47000000000E+01 0.  1.
          5    1    5    5  503    0  0.60363542974E+02 -0.16152967156E+01 -0.76529847935E+03  0.76769148686E+03  0.47000000000E+01 0. -1.
         -5    1    5    5    0  503 -0.11693596239E+02 -0.50833005446E+02 -0.15523572592E+03  0.16383209465E+03  0.47000000000E+01 0. -1.
<mgrwt>
<rscale>  0 0.27454184E+03</rscale>
<asrwt>0</asrwt>
<pdfrwt beam="1">  1        1 0.20304236E-02 0.27454184E+03</pdfrwt>
<pdfrwt beam="2">  1       -1 0.21965632E+00 0.27454184E+03</pdfrwt>
<totfact> 0.73390427E+02</totfact>
</mgrwt>
</event>
<event>
 9    1  0.2051157E-002  0.2749613E+03  0.7818608E-02  0.1098473E+00
          2   -1    0    0  501    0  0.00000000000E+00  0.00000000000E+00  0.31810839596E+03  0.31810839596E+03  0.00000000000E+00 0. -1.
         -2   -1    0    0    0  501 -0.00000000000E+00 -0.00000000000E+00 -0.59416651523E+02  0.59416651523E+02  0.00000000000E+00 0. -1.
         36    2    1    2    0    0 -0.71054273576E-14 -0.17763568394E-14  0.25869174444E+03  0.37752504748E+03  0.27496134790E+03 0.  0.
         25    2    3    3    0    0 -0.56536750347E+02 -0.93804402240E+01  0.11476136420E+03  0.17972088175E+03  0.12587703455E+03 0.  0.
         25    2    3    3    0    0  0.56536750347E+02  0.93804402240E+01  0.14393038024E+03  0.19780416573E+03  0.12298836053E+03 0.  0.
          5    1    4    4  502    0 -0.82274708937E+02  0.14408356688E+02  0.31731587131E+02  0.89474644984E+02  0.47000000000E+01 0. -1.
         -5    1    4    4    0  502  0.25737958590E+02 -0.23788796912E+02  0.83029777068E+02  0.90246236768E+02  0.47000000000E+01 0. -1.
          5    1    5    5  503    0  0.41473708243E+02  0.14033212168E+02 -0.81956015131E+01  0.44791264811E+02  0.47000000000E+01 0.  1.
         -5    1    5    5    0  503  0.15063042104E+02 -0.46527719443E+01  0.15212598175E+03  0.15301290092E+03  0.47000000000E+01 0.  1.
<mgrwt>
<rscale>  0 0.27496135E+03</rscale>
<asrwt>0</asrwt>
<pdfrwt beam="1">  1        2 0.48939752E-01 0.27496135E+03</pdfrwt>
<pdfrwt beam="2">  1       -2 0.91410235E-02 0.27496135E+03</pdfrwt>
<totfact> 0.77974078E+03</totfact>
</mgrwt>
</event>
<event>
 9    1  0.2051157E-002  0.2732779E+03  0.7818608E-02  0.1099418E+00
         -2   -1    0    0    0  501 -0.00000000000E+00  0.00000000000E+00  0.15948704622E+03  0.15948704622E+03  0.00000000000E+00 0.  1.
          2   -1    0    0  501    0  0.00000000000E+00 -0.00000000000E+00 -0.11706406104E+03  0.11706406104E+03  0.00000000000E+00 0.  1.
         36    2    1    2    0    0  0.00000000000E+00  0.00000000000E+00  0.42422985178E+02  0.27655110726E+03  0.27327789017E+03 0.  0.
         25    2    3    3    0    0  0.36069388913E+02  0.45648879253E+01  0.42439948663E+02  0.14443494708E+03  0.13318583137E+03 0.  0.
         25    2    3    3    0    0 -0.36069388913E+02 -0.45648879253E+01 -0.16963485016E-01  0.13211616018E+03  0.12701511908E+03 0.  0.
          5    1    4    4  502    0  0.51046559202E+02  0.59455350591E+02  0.37873271903E+02  0.87161715477E+02  0.47000000000E+01 0.  1.
         -5    1    4    4    0  502 -0.14977170289E+02 -0.54890462665E+02  0.45666767603E+01  0.57273231602E+02  0.47000000000E+01 0.  1.
          5    1    5    5  503    0 -0.20552596026E+01  0.17387086977E+02 -0.58268552561E+02  0.61023348836E+02  0.47000000000E+01 0.  1.
         -5    1    5    5    0  503 -0.34014129310E+02 -0.21951974902E+02  0.58251589076E+02  0.71092811343E+02  0.47000000000E+01 0.  1.
<mgrwt>
<rscale>  0 0.27327789E+03</rscale>
<asrwt>0</asrwt>
<pdfrwt beam="1">  1        2 0.18009855E-01 0.27327789E+03</pdfrwt>
<pdfrwt beam="2">  1       -2 0.24536469E-01 0.27327789E+03</pdfrwt>
<totfact> 0.45802586E+03</totfact>
</mgrwt>
</event>
<event>
 9    1  0.2051157E-002  0.2753685E+03  0.7818608E-02  0.1098246E+00
         -1   -1    0    0    0  501 -0.00000000000E+00  0.00000000000E+00  0.49684832621E+02  0.49684832621E+02  0.00000000000E+00 0. -1.
          1   -1    0    0  501    0  0.00000000000E+00 -0.00000000000E+00 -0.38154392311E+03  0.38154392311E+03  0.00000000000E+00 0. -1.
         36    2    1    2    0    0  0.71054273576E-14 -0.35527136788E-14 -0.33185909049E+03  0.43122875573E+03  0.27536845104E+03 0.  0.
         25    2    3    3    0    0  0.32833495879E+02  0.14575357747E+02 -0.97548125809E+02  0.16294213685E+03  0.12547519120E+03 0.  0.
         25    2    3    3    0    0 -0.32833495879E+02 -0.14575357747E+02 -0.23431096468E+03  0.26828661888E+03  0.12564076647E+03 0.  0.
          5    1    4    4  502    0  0.43663108880E+02 -0.23281265877E+02 -0.11055023138E+03  0.12121026390E+03  0.47000000000E+01 0.  1.
         -5    1    4    4    0  502 -0.10829613001E+02  0.37856623624E+02  0.13002105569E+02  0.41731872941E+02  0.47000000000E+01 0.  1.
          5    1    5    5  503    0 -0.96679305657E+01 -0.58111100793E+02 -0.19863169385E+03  0.20723660082E+03  0.47000000000E+01 0. -1.
         -5    1    5    5    0  503 -0.23165565313E+02  0.43535743047E+02 -0.35679270826E+02  0.61050018064E+02  0.47000000000E+01 0. -1.
<mgrwt>
<rscale>  0 0.27536845E+03</rscale>
<asrwt>0</asrwt>
<pdfrwt beam="1">  1        1 0.58699066E-01 0.27536845E+03</pdfrwt>
<pdfrwt beam="2">  1       -1 0.76438203E-02 0.27536845E+03</pdfrwt>
<totfact> 0.59125083E+03</totfact>
</mgrwt>
</event>
<event>
 9    1  0.2051157E-002  0.2753567E+03  0.7818608E-02  0.1098252E+00
          3   -1    0    0  501    0  0.00000000000E+00  0.00000000000E+00  0.12929542810E+02  0.12929542810E+02  0.00000000000E+00 0.  1.
         -3   -1    0    0    0  501 -0.00000000000E+00 -0.00000000000E+00 -0.14660482049E+04  0.14660482049E+04  0.00000000000E+00 0.  1.
         36    2    1    2    0    0  0.35527136788E-14 -0.71054273576E-14 -0.14531186621E+04  0.14789777478E+04  0.27535673609E+03 0.  0.
         25    2    3    3    0    0 -0.30391509243E+02 -0.50269054615E+02 -0.80172613974E+03  0.81336360540E+03  0.12387465341E+03 0.  0.
         25    2    3    3    0    0  0.30391509243E+02  0.50269054615E+02 -0.65139252239E+03  0.66561414235E+03  0.12360965410E+03 0.  0.
          5    1    4    4  502    0 -0.41796822648E+02  0.24826914476E+02 -0.16415904073E+03  0.17127063590E+03  0.47000000000E+01 0. -1.
         -5    1    4    4    0  502  0.11405313405E+02 -0.75095969091E+02 -0.63756709901E+03  0.64209296950E+03  0.47000000000E+01 0. -1.
          5    1    5    5  503    0  0.63948516760E+02  0.52789366648E+02 -0.58662026643E+03  0.59247072250E+03  0.47000000000E+01 0.  1.
         -5    1    5    5    0  503 -0.33557007517E+02 -0.25203120326E+01 -0.64772255959E+02  0.73143419856E+02  0.47000000000E+01 0.  1.
<mgrwt>
<rscale>  0 0.27535674E+03</rscale>
<asrwt>0</asrwt>
<pdfrwt beam="1">  1        3 0.19891614E-02 0.27535674E+03</pdfrwt>
<pdfrwt beam="2">  1       -3 0.22554576E+00 0.27535674E+03</pdfrwt>
<totfact> 0.27391112E+02</totfact>
</mgrwt>
</event>
<event>
 9    1  0.2051157E-002  0.2749753E+03  0.7818608E-02  0.1098465E+00
          2   -1    0    0  501    0  0.00000000000E+00  0.00000000000E+00  0.16310041799E+04  0.16310041799E+04  0.00000000000E+00 0.  1.
         -2   -1    0    0    0  501 -0.00000000000E+00 -0.00000000000E+00 -0.11589706010E+02  0.11589706010E+02  0.00000000000E+00 0.  1.
         36    2    1    2    0    0  0.35527136788E-14  0.00000000000E+00  0.16194144739E+04  0.16425938859E+04  0.27497533669E+03 0.  0.
         25    2    3    3    0    0  0.22950793476E+02 -0.50413340230E+02  0.88101767495E+03  0.89162638259E+03  0.12544807197E+03 0.  0.
         25    2    3    3    0    0 -0.22950793476E+02  0.50413340230E+02  0.73839679890E+03  0.75096750328E+03  0.12511640406E+03 0.  0.
          5    1    4    4  502    0 -0.25766119073E+02  0.14066450092E+01  0.63368225375E+03  0.63422484992E+03  0.47000000000E+01 0. -1.
         -5    1    4    4    0  502  0.48716912549E+02 -0.51819985239E+02  0.24733542120E+03  0.25740153267E+03  0.47000000000E+01 0. -1.
          5    1    5    5  503    0 -0.34270367154E+02  0.80376450116E+02  0.33383849189E+03  0.34511601015E+03  0.47000000000E+01 0. -1.
         -5    1    5    5    0  503  0.11319573678E+02 -0.29963109886E+02  0.40455830702E+03  0.40585149313E+03  0.47000000000E+01 0. -1.
<mgrwt>
<rscale>  0 0.27497534E+03</rscale>
<asrwt>0</asrwt>
<pdfrwt beam="1">  1        2 0.25092354E+00 0.27497534E+03</pdfrwt>
<pdfrwt beam="2">  1       -2 0.17830330E-02 0.27497534E+03</pdfrwt>
<totfact> 0.10636682E+04</totfact>
</mgrwt>
</event>
<event>
 9    1  0.2051157E-002  0.2748748E+03  0.7818608E-02  0.1098522E+00
          1   -1    0    0  501    0  0.00000000000E+00  0.00000000000E+00  0.51669482679E+03  0.51669482679E+03  0.00000000000E+00 0. -1.
         -1   -1    0    0    0  501 -0.00000000000E+00 -0.00000000000E+00 -0.36557448858E+02  0.36557448858E+02  0.00000000000E+00 0. -1.
         36    2    1    2    0    0  0.71054273576E-14  0.71054273576E-14  0.48013737793E+03  0.55325227564E+03  0.27487484210E+03 0.  0.
         25    2    3    3    0    0  0.28250612332E+02  0.49581388975E+02  0.23726551579E+03  0.27430590435E+03  0.12526928174E+03 0.  0.
         25    2    3    3    0    0 -0.28250612332E+02 -0.49581388975E+02  0.24287186213E+03  0.27894637129E+03  0.12477149278E+03 0.  0.
          5    1    4    4  502    0 -0.80526643459E+01  0.29395855106E+02  0.22977747762E+03  0.23183774698E+03  0.47000000000E+01 0.  1.
         -5    1    4    4    0  502  0.36303276678E+02  0.20185533868E+02  0.74880381680E+01  0.42468157373E+02  0.47000000000E+01 0.  1.
          5    1    5    5  503    0  0.84199341743E+01 -0.37459249296E+02  0.62923825734E+01  0.39188961811E+02  0.47000000000E+01 0.  1.
         -5    1    5    5    0  503 -0.36670546506E+02 -0.12122139678E+02  0.23657947956E+03  0.23975740948E+03  0.47000000000E+01 0.  1.
<mgrwt>
<rscale>  0 0.27487484E+03</rscale>
<asrwt>0</asrwt>
<pdfrwt beam="1">  1        1 0.79491506E-01 0.27487484E+03</pdfrwt>
<pdfrwt beam="2">  1       -1 0.56242233E-02 0.27487484E+03</pdfrwt>
<totfact> 0.63372640E+03</totfact>
</mgrwt>
</event>
<event>
 9    1  0.2051157E-002  0.2736530E+03  0.7818608E-02  0.1099207E+00
          1   -1    0    0  501    0  0.00000000000E+00  0.00000000000E+00  0.55197942595E+03  0.55197942595E+03  0.00000000000E+00 0. -1.
         -1   -1    0    0    0  501 -0.00000000000E+00 -0.00000000000E+00 -0.33917011857E+02  0.33917011857E+02  0.00000000000E+00 0. -1.
         36    2    1    2    0    0  0.00000000000E+00  0.71054273576E-14  0.51806241409E+03  0.58589643781E+03  0.27365301193E+03 0.  0.
         25    2    3    3    0    0  0.32355495915E+02 -0.34310980643E+02  0.31917943386E+03  0.34692421647E+03  0.12750207631E+03 0.  0.
         25    2    3    3    0    0 -0.32355495915E+02  0.34310980643E+02  0.19888298023E+03  0.23897222134E+03  0.12381098997E+03 0.  0.
          5    1    4    4  502    0  0.73678999503E+02  0.10755197689E+02  0.17747969953E+03  0.19252377253E+03  0.47000000000E+01 0.  1.
         -5    1    4    4    0  502 -0.41323503588E+02 -0.45066178331E+02  0.14169973433E+03  0.15440044394E+03  0.47000000000E+01 0.  1.
          5    1    5    5  503    0 -0.31417425898E+02  0.56788846737E+02  0.20509046493E+03  0.21516555618E+03  0.47000000000E+01 0. -1.
         -5    1    5    5    0  503 -0.93807001621E+00 -0.22477866095E+02 -0.62074846957E+01  0.23806665154E+02  0.47000000000E+01 0. -1.
<mgrwt>
<rscale>  0 0.27365301E+03</rscale>
<asrwt>0</asrwt>
<pdfrwt beam="1">  1        1 0.84919905E-01 0.27365301E+03</pdfrwt>
<pdfrwt beam="2">  1       -1 0.52180022E-02 0.27365301E+03</pdfrwt>
<totfact> 0.64876757E+03</totfact>
</mgrwt>
</event>
<event>
 9    1  0.2051157E-002  0.2752889E+03  0.7818608E-02  0.1098290E+00
          2   -1    0    0  501    0  0.00000000000E+00  0.00000000000E+00  0.13888532546E+04  0.13888532546E+04  0.00000000000E+00 0. -1.
         -2   -1    0    0    0  501 -0.00000000000E+00 -0.00000000000E+00 -0.13641462013E+02  0.13641462013E+02  0.00000000000E+00 0. -1.
         36    2    1    2    0    0  0.35527136788E-14  0.00000000000E+00  0.13752117926E+04  0.14024947166E+04  0.27528885857E+03 0.  0.
         25    2    3    3    0    0 -0.96835219273E+01 -0.50582773696E+02  0.58411577075E+03  0.59965946010E+03  0.12549042535E+03 0.  0.
         25    2    3    3    0    0  0.96835219273E+01  0.50582773696E+02  0.79109602181E+03  0.80283525649E+03  0.12672468483E+03 0.  0.
          5    1    4    4  502    0 -0.51134415388E+02 -0.12042298206E+02  0.46178718262E+03  0.46478945493E+03  0.47000000000E+01 0. -1.
         -5    1    4    4    0  502  0.41450893460E+02 -0.38540475490E+02  0.12232858813E+03  0.13487000516E+03  0.47000000000E+01 0. -1.
          5    1    5    5  503    0  0.87415730171E+00  0.51643941373E+02  0.10946463940E+03  0.12112992244E+03  0.47000000000E+01 0.  1.
         -5    1    5    5    0  503  0.88093646256E+01 -0.10611676777E+01  0.68163138242E+03  0.68170533406E+03  0.47000000000E+01 0.  1.
<mgrwt>
<rscale>  0 0.27528886E+03</rscale>
<asrwt>0</asrwt>
<pdfrwt beam="1">  1        2 0.21366962E+00 0.27528886E+03</pdfrwt>
<pdfrwt beam="2">  1       -2 0.20986876E-02 0.27528886E+03</pdfrwt>
<totfact> 0.11281206E+04</totfact>
</mgrwt>
</event>
<event>
 9    1  0.2051157E-002  0.2756136E+03  0.7818608E-02  0.1098109E+00
          2   -1    0    0  501    0  0.00000000000E+00  0.00000000000E+00  0.22031880355E+03  0.22031880355E+03  0.00000000000E+00 0. -1.
         -2   -1    0    0    0  501 -0.00000000000E+00 -0.00000000000E+00 -0.86196526461E+02  0.86196526461E+02  0.00000000000E+00 0. -1.
         36    2    1    2    0    0  0.00000000000E+00  0.00000000000E+00  0.13412227709E+03  0.30651533002E+03  0.27561361055E+03 0.  0.
         25    2    3    3    0    0  0.14874641274E+02 -0.20467453318E+02  0.63646353480E+01  0.12786060056E+03  0.12517049570E+03 0.  0.
         25    2    3    3    0    0 -0.14874641274E+02  0.20467453318E+02  0.12775764175E+03  0.17865472946E+03  0.12229196922E+03 0.  0.
          5    1    4    4  502    0 -0.23229187080E+01 -0.72444020129E+02  0.63605784641E+01  0.72911446030E+02  0.47000000000E+01 0. -1.
         -5    1    4    4    0  502  0.17197559982E+02  0.51976566811E+02  0.40568838320E-02  0.54949154527E+02  0.47000000000E+01 0. -1.
          5    1    5    5  503    0 -0.39798244510E+01 -0.44273352382E+02  0.95311670548E+02  0.10527285156E+03  0.47000000000E+01 0. -1.
         -5    1    5    5    0  503 -0.10894816823E+02  0.64740805701E+02  0.32445971198E+02  0.73381877895E+02  0.47000000000E+01 0. -1.
<mgrwt>
<rscale>  0 0.27561361E+03</rscale>
<asrwt>0</asrwt>
<pdfrwt beam="1">  1        2 0.33895200E-01 0.27561361E+03</pdfrwt>
<pdfrwt beam="2">  1       -2 0.13261004E-01 0.27561361E+03</pdfrwt>
<totfact> 0.63843748E+03</totfact>
</mgrwt>
</event>
<event>
 9    1  0.2051157E-002  0.2770167E+03  0.7818608E-02  0.1097330E+00
          1   -1    0    0  501    0  0.00000000000E+00  0.00000000000E+00  0.13377281428E+03  0.13377281428E+03  0.00000000000E+00 0.  1.
         -1   -1    0    0    0  501 -0.00000000000E+00 -0.00000000000E+00 -0.14341153170E+03  0.14341153170E+03  0.00000000000E+00 0.  1.
         36    2    1    2    0    0  0.17763568394E-14  0.71054273576E-14 -0.96387174199E+01  0.27718434597E+03  0.27701670848E+03 0.  0.
         25    2    3    3    0    0  0.12333492070E+02  0.58519677934E+02 -0.34249170732E+02  0.13810894266E+03  0.11968461310E+03 0.  0.
         25    2    3    3    0    0 -0.12333492070E+02 -0.58519677934E+02  0.24610453312E+02  0.13907540332E+03  0.12312443163E+03 0.  0.
          5    1    4    4  502    0 -0.12894109310E+02  0.46409729667E+02 -0.74513323511E+02  0.88850697483E+02  0.47000000000E+01 0.  1.
         -5    1    4    4    0  502  0.25227601380E+02  0.12109948267E+02  0.40264152779E+02  0.49258245172E+02  0.47000000000E+01 0.  1.
          5    1    5    5  503    0  0.71957522035E+01 -0.18394860328E+02 -0.48902375383E+02  0.52949806934E+02  0.47000000000E+01 0. -1.
         -5    1    5    5    0  503 -0.19529244274E+02 -0.40124817606E+02  0.73512828695E+02  0.86125596385E+02  0.47000000000E+01 0. -1.
<mgrwt>
<rscale>  0 0.27701671E+03</rscale>
<asrwt>0</asrwt>
<pdfrwt beam="1">  1        1 0.20580433E-01 0.27701671E+03</pdfrwt>
<pdfrwt beam="2">  1       -1 0.22063313E-01 0.27701671E+03</pdfrwt>
<totfact> 0.41951265E+03</totfact>
</mgrwt>
</event>
<event>
 9    1  0.2051157E-002  0.2755094E+03  0.7818608E-02  0.1098167E+00
          1   -1    0    0  501    0  0.00000000000E+00  0.00000000000E+00  0.66992144274E+03  0.66992144274E+03  0.00000000000E+00 0.  1.
         -1   -1    0    0    0  501 -0.00000000000E+00 -0.00000000000E+00 -0.28326236733E+02  0.28326236733E+02  0.00000000000E+00 0.  1.
         36    2    1    2    0    0  0.00000000000E+00  0.00000000000E+00  0.64159520601E+03  0.69824767948E+03  0.27550937102E+03 0.  0.
         25    2    3    3    0    0  0.27635314444E+02 -0.54257836423E+02  0.38420103672E+03  0.40787505886E+03  0.12265399953E+03 0.  0.
         25    2    3    3    0    0 -0.27635314444E+02  0.54257836423E+02  0.25739416929E+03  0.29037262062E+03  0.11982018613E+03 0.  0.
          5    1    4    4  502    0  0.75432235448E+02 -0.41796947114E+02  0.22015820869E+03  0.23649256603E+03  0.47000000000E+01 0.  1.
         -5    1    4    4    0  502 -0.47796921003E+02 -0.12460889309E+02  0.16404282803E+03  0.17138249283E+03  0.47000000000E+01 0.  1.
          5    1    5    5  503    0 -0.69765866626E+02  0.53209879776E+02  0.13727269860E+03  0.16298604613E+03  0.47000000000E+01 0.  1.
         -5    1    5    5    0  503  0.42130552182E+02  0.10479566466E+01  0.12012147068E+03  0.12738657449E+03  0.47000000000E+01 0.  1.
<mgrwt>
<rscale>  0 0.27550937E+03</rscale>
<asrwt>0</asrwt>
<pdfrwt beam="1">  1        1 0.10306483E+00 0.27550937E+03</pdfrwt>
<pdfrwt beam="2">  1       -1 0.43578831E-02 0.27550937E+03</pdfrwt>
<totfact> 0.64837634E+03</totfact>
</mgrwt>
</event>
<event>
 9    1  0.2051157E-002  0.2742415E+03  0.7818608E-02  0.1098876E+00
         -1   -1    0    0    0  501 -0.00000000000E+00  0.00000000000E+00  0.35312301637E+03  0.35312301637E+03  0.00000000000E+00 0.  1.
          1   -1    0    0  501    0  0.00000000000E+00 -0.00000000000E+00 -0.53245196551E+02  0.53245196551E+02  0.00000000000E+00 0.  1.
         36    2    1    2    0    0  0.14210854715E-13 -0.71054273576E-14  0.29987781981E+03  0.40636821292E+03  0.27424153160E+03 0.  0.
         25    2    3    3    0    0  0.56884009031E+02  0.30696226612E+00  0.18125791697E+03  0.22615504580E+03  0.12270202756E+03 0.  0.
         25    2    3    3    0    0 -0.56884009031E+02 -0.30696226612E+00  0.11861990284E+03  0.18021316711E+03  0.12316744513E+03 0.  0.
          5    1    4    4  502    0 -0.18267698397E+02  0.41078898585E+02  0.37075624582E+02  0.58462609007E+02  0.47000000000E+01 0.  1.
         -5    1    4    4    0  502  0.75151707428E+02 -0.40771936319E+02  0.14418229239E+03  0.16769243680E+03  0.47000000000E+01 0.  1.
          5    1    5    5  503    0 -0.21415418548E+02  0.53688077966E+02  0.94932970725E+02  0.11124472481E+03  0.47000000000E+01 0.  1.
         -5    1    5    5    0  503 -0.35468590482E+02 -0.53995040232E+02  0.23686932117E+02  0.68968442302E+02  0.47000000000E+01 0.  1.
<mgrwt>
<rscale>  0 0.27424153E+03</rscale>
<asrwt>0</asrwt>
<pdfrwt beam="1">  1        1 0.81915690E-02 0.27424153E+03</pdfrwt>
<pdfrwt beam="2">  1       -1 0.54326616E-01 0.27424153E+03</pdfrwt>
<totfact> 0.29486402E+03</totfact>
</mgrwt>
</event>
<event>
 9    1  0.2051157E-002  0.2753384E+03  0.7818608E-02  0.1098263E+00
          1   -1    0    0  501    0  0.00000000000E+00  0.00000000000E+00  0.10668025246E+03  0.10668025246E+03  0.00000000000E+00 0. -1.
         -1   -1    0    0    0  501 -0.00000000000E+00 -0.00000000000E+00 -0.17765998319E+03  0.17765998319E+03  0.00000000000E+00 0. -1.
         36    2    1    2    0    0 -0.71054273576E-14  0.00000000000E+00 -0.70979730722E+02  0.28434023565E+03  0.27533842346E+03 0.  0.
         25    2    3    3    0    0  0.22554031748E+02  0.23979101130E+02  0.17701073762E+02  0.13134608986E+03  0.12591578801E+03 0.  0.
         25    2    3    3    0    0 -0.22554031748E+02 -0.23979101130E+02 -0.88680804485E+02  0.15299414579E+03  0.12024658799E+03 0.  0.
          5    1    4    4  502    0 -0.12227570319E+02 -0.97735199979E+01  0.62850954560E+02  0.64941263139E+02  0.47000000000E+01 0. -1.
         -5    1    4    4    0  502  0.34781602067E+02  0.33752621128E+02 -0.45149880798E+02  0.66404826718E+02  0.47000000000E+01 0. -1.
          5    1    5    5  503    0 -0.48244523507E+02 -0.21780449946E+02  0.71715212677E+01  0.53623155125E+02  0.47000000000E+01 0. -1.
         -5    1    5    5    0  503  0.25690491759E+02 -0.21986511843E+01 -0.95852325752E+02  0.99370990666E+02  0.47000000000E+01 0. -1.
<mgrwt>
<rscale>  0 0.27533842E+03</rscale>
<asrwt>0</asrwt>
<pdfrwt beam="1">  1        1 0.16412347E-01 0.27533842E+03</pdfrwt>
<pdfrwt beam="2">  1       -1 0.27332305E-01 0.27533842E+03</pdfrwt>
<totfact> 0.39406994E+03</totfact>
</mgrwt>
</event>
<event>
 9    1  0.2051157E-002  0.2884032E+03  0.7818608E-02  0.1091186E+00
         -2   -1    0    0    0  501 -0.00000000000E+00  0.00000000000E+00  0.55134469453E+02  0.55134469453E+02  0.00000000000E+00 0.  1.
          2   -1    0    0  501    0  0.00000000000E+00 -0.00000000000E+00 -0.37715251809E+03  0.37715251809E+03  0.00000000000E+00 0.  1.
         36    2    1    2    0    0 -0.71054273576E-14 -0.14210854715E-13 -0.32201804863E+03  0.43228698754E+03  0.28840321765E+03 0.  0.
         25    2    3    3    0    0 -0.54843795361E+02 -0.52388600465E+02 -0.15198424203E+03  0.20842575684E+03  0.12078774334E+03 0.  0.
         25    2    3    3    0    0  0.54843795361E+02  0.52388600465E+02 -0.17003380661E+03  0.22386123070E+03  0.12429781927E+03 0.  0.
          5    1    4    4  502    0 -0.38961568927E+02 -0.71305542541E+02 -0.34705211498E+02  0.88481783184E+02  0.47000000000E+01 0. -1.
         -5    1    4    4    0  502 -0.15882226435E+02  0.18916942076E+02 -0.11727903053E+03  0.11994397365E+03  0.47000000000E+01 0. -1.
          5    1    5    5  503    0 -0.17317232899E+01 -0.22840320123E+02 -0.10922685479E+03  0.11170172289E+03  0.47000000000E+01 0. -1.
         -5    1    5    5    0  503  0.56575518651E+02  0.75228920588E+02 -0.60806951812E+02  0.11215950781E+03  0.47000000000E+01 0. -1.
<mgrwt>
<rscale>  0 0.28840322E+03</rscale>
<asrwt>0</asrwt>
<pdfrwt beam="1">  1        2 0.58023465E-01 0.28840322E+03</pdfrwt>
<pdfrwt beam="2">  1       -2 0.84822260E-02 0.28840322E+03</pdfrwt>
<totfact> 0.73108689E+03</totfact>
</mgrwt>
</event>
<event>
 9    1  0.2051157E-002  0.2752934E+03  0.7818608E-02  0.1098288E+00
          1   -1    0    0  501    0  0.00000000000E+00  0.00000000000E+00  0.87225895865E+02  0.87225895865E+02  0.00000000000E+00 0.  1.
         -1   -1    0    0    0  501 -0.00000000000E+00 -0.00000000000E+00 -0.21721321844E+03  0.21721321844E+03  0.00000000000E+00 0.  1.
         36    2    1    2    0    0 -0.71054273576E-14 -0.17763568394E-14 -0.12998732258E+03  0.30443911431E+03  0.27529342580E+03 0.  0.
         25    2    3    3    0    0  0.10101569071E+02  0.12899681747E+02 -0.12843253482E+03  0.18047687339E+03  0.12573202592E+03 0.  0.
         25    2    3    3    0    0 -0.10101569071E+02 -0.12899681747E+02 -0.15547877622E+01  0.12396224092E+03  0.12286487017E+03 0.  0.
          5    1    4    4  502    0  0.53339519872E+02  0.30774031410E+01 -0.12468534094E+03  0.13573171713E+03  0.47000000000E+01 0. -1.
         -5    1    4    4    0  502 -0.43237950801E+02  0.98222786058E+01 -0.37471938723E+01  0.44745156256E+02  0.47000000000E+01 0. -1.
          5    1    5    5  503    0 -0.44852681319E+02 -0.10871014692E+02  0.45675335885E+02  0.65101983765E+02  0.47000000000E+01 0. -1.
         -5    1    5    5    0  503  0.34751112248E+02 -0.20286670550E+01 -0.47230123647E+02  0.58860257153E+02  0.47000000000E+01 0. -1.
<mgrwt>
<rscale>  0 0.27529343E+03</rscale>
<asrwt>0</asrwt>
<pdfrwt beam="1">  1        1 0.13419369E-01 0.27529343E+03</pdfrwt>
<pdfrwt beam="2">  1       -1 0.33417418E-01 0.27529343E+03</pdfrwt>
<totfact> 0.36450120E+03</totfact>
</mgrwt>
</event>
<event>
 9    1  0.2051157E-002  0.2760797E+03  0.7818608E-02  0.1097850E+00
          2   -1    0    0  501    0  0.00000000000E+00  0.00000000000E+00  0.69933679397E+03  0.69933679397E+03  0.00000000000E+00 0. -1.
         -2   -1    0    0    0  501 -0.00000000000E+00 -0.00000000000E+00 -0.27247235371E+02  0.27247235371E+02  0.00000000000E+00 0. -1.
         36    2    1    2    0    0 -0.71054273576E-14 -0.71054273576E-14  0.67208955860E+03  0.72658402934E+03  0.27607965683E+03 0.  0.
         25    2    3    3    0    0  0.12048494010E+02 -0.35308800916E+02  0.21236668546E+03  0.24848167676E+03  0.12349759901E+03 0.  0.
         25    2    3    3    0    0 -0.12048494010E+02  0.35308800916E+02  0.45972287314E+03  0.47810235258E+03  0.12587637518E+03 0.  0.
          5    1    4    4  502    0  0.42678684559E+02 -0.28755482194E+02  0.21050262320E+03  0.21675283677E+03  0.47000000000E+01 0.  1.
         -5    1    4    4    0  502 -0.30630190549E+02 -0.65533187215E+01  0.18640622631E+01  0.31728839995E+02  0.47000000000E+01 0.  1.
          5    1    5    5  503    0 -0.36826612902E+02  0.64222326514E+02  0.16519639430E+03  0.18108739694E+03  0.47000000000E+01 0. -1.
         -5    1    5    5    0  503  0.24778118892E+02 -0.28913525598E+02  0.29452647884E+03  0.29701495565E+03  0.47000000000E+01 0. -1.
<mgrwt>
<rscale>  0 0.27607966E+03</rscale>
<asrwt>0</asrwt>
<pdfrwt beam="1">  1        2 0.10759026E+00 0.27607966E+03</pdfrwt>
<pdfrwt beam="2">  1       -2 0.41918829E-02 0.27607966E+03</pdfrwt>
<totfact> 0.10709775E+04</totfact>
</mgrwt>
</event>
<event>
 9    1  0.2051157E-002  0.2708340E+03  0.7818608E-02  0.1100803E+00
          2   -1    0    0  501    0  0.00000000000E+00  0.00000000000E+00  0.25881258059E+03  0.25881258059E+03  0.00000000000E+00 0.  1.
         -2   -1    0    0    0  501 -0.00000000000E+00 -0.00000000000E+00 -0.70853435493E+02  0.70853435493E+02  0.00000000000E+00 0.  1.
         36    2    1    2    0    0  0.71054273576E-14  0.00000000000E+00  0.18795914510E+03  0.32966601609E+03  0.27083397485E+03 0.  0.
         25    2    3    3    0    0  0.30608654321E+02 -0.49153767308E+02  0.85581659204E+02  0.16222894192E+03  0.12506409015E+03 0.  0.
         25    2    3    3    0    0 -0.30608654321E+02  0.49153767308E+02  0.10237748590E+03  0.16743707417E+03  0.11916812337E+03 0.  0.
          5    1    4    4  502    0 -0.33464100700E+02 -0.63033400818E+02  0.51954252264E+02  0.88399038358E+02  0.47000000000E+01 0. -1.
         -5    1    4    4    0  502  0.64072755021E+02  0.13879633510E+02  0.33627406940E+02  0.73829903561E+02  0.47000000000E+01 0. -1.
          5    1    5    5  503    0 -0.71402350368E+02  0.11492916638E+02  0.78435785031E+02  0.10679253319E+03  0.47000000000E+01 0. -1.
         -5    1    5    5    0  503  0.40793696047E+02  0.37660850670E+02  0.23941700865E+02  0.60644540980E+02  0.47000000000E+01 0. -1.
<mgrwt>
<rscale>  0 0.27083397E+03</rscale>
<asrwt>0</asrwt>
<pdfrwt beam="1">  1        2 0.39817320E-01 0.27083397E+03</pdfrwt>
<pdfrwt beam="2">  1       -2 0.10900529E-01 0.27083397E+03</pdfrwt>
<totfact> 0.73550173E+03</totfact>
</mgrwt>
</event>
<event>
 9    1  0.2051157E-002  0.2769408E+03  0.7818608E-02  0.1097372E+00
         -2   -1    0    0    0  501 -0.00000000000E+00  0.00000000000E+00  0.18617424095E+03  0.18617424095E+03  0.00000000000E+00 0.  1.
          2   -1    0    0  501    0  0.00000000000E+00 -0.00000000000E+00 -0.10298979073E+03  0.10298979073E+03  0.00000000000E+00 0.  1.
         36    2    1    2    0    0  0.00000000000E+00  0.00000000000E+00  0.83184450226E+02  0.28916403168E+03  0.27694075984E+03 0.  0.
         25    2    3    3    0    0  0.32992342787E+02 -0.74185662682E-01  0.86379140773E+01  0.13178006984E+03  0.12729050656E+03 0.  0.
         25    2    3    3    0    0 -0.32992342787E+02  0.74185662682E-01  0.74546536149E+02  0.15738396184E+03  0.13462549984E+03 0.  0.
          5    1    4    4  502    0 -0.11604286493E+02  0.48424166641E+02  0.34589212048E+02  0.60811700929E+02  0.47000000000E+01 0. -1.
         -5    1    4    4    0  502  0.44596629280E+02 -0.48498352303E+02 -0.25951297970E+02  0.70968368909E+02  0.47000000000E+01 0. -1.
          5    1    5    5  503    0  0.20896475871E+02 -0.54486460244E+02  0.15720505554E+02  0.60618985052E+02  0.47000000000E+01 0. -1.
         -5    1    5    5    0  503 -0.53888818659E+02  0.54560645907E+02  0.58826030595E+02  0.96764976793E+02  0.47000000000E+01 0. -1.
<mgrwt>
<rscale>  0 0.27694076E+03</rscale>
<asrwt>0</asrwt>
<pdfrwt beam="1">  1        2 0.15844583E-01 0.27694076E+03</pdfrwt>
<pdfrwt beam="2">  1       -2 0.28642191E-01 0.27694076E+03</pdfrwt>
<totfact> 0.40407291E+03</totfact>
</mgrwt>
</event>
<event>
 9    1  0.2051157E-002  0.2730265E+03  0.7818608E-02  0.1099560E+00
         -2   -1    0    0    0  501 -0.00000000000E+00  0.00000000000E+00  0.47148619544E+02  0.47148619544E+02  0.00000000000E+00 0. -1.
          2   -1    0    0  501    0  0.00000000000E+00 -0.00000000000E+00 -0.39525802216E+03  0.39525802216E+03  0.00000000000E+00 0. -1.
         36    2    1    2    0    0  0.00000000000E+00  0.17763568394E-14 -0.34810940261E+03  0.44240664170E+03  0.27302651965E+03 0.  0.
         25    2    3    3    0    0 -0.58419960512E+02 -0.12316157473E+01 -0.17646690668E+03  0.22159170675E+03  0.12061470343E+03 0.  0.
         25    2    3    3    0    0  0.58419960512E+02  0.12316157473E+01 -0.17164249593E+03  0.22081493495E+03  0.12603047419E+03 0.  0.
          5    1    4    4  502    0  0.31576736841E+02  0.12422427190E+02 -0.17792855085E+02  0.38601589331E+02  0.47000000000E+01 0.  1.
         -5    1    4    4    0  502 -0.89996697354E+02 -0.13654042938E+02 -0.15867405160E+03  0.18299011742E+03  0.47000000000E+01 0.  1.
          5    1    5    5  503    0  0.80042465096E+02  0.35664581844E+02 -0.15177439481E+03  0.17531775591E+03  0.47000000000E+01 0.  1.
         -5    1    5    5    0  503 -0.21622504584E+02 -0.34432966097E+02 -0.19868101123E+02  0.45497179044E+02  0.47000000000E+01 0.  1.
<mgrwt>
<rscale>  0 0.27302652E+03</rscale>
<asrwt>0</asrwt>
<pdfrwt beam="1">  1        2 0.60808927E-01 0.27302652E+03</pdfrwt>
<pdfrwt beam="2">  1       -2 0.72536337E-02 0.27302652E+03</pdfrwt>
<totfact> 0.88532131E+03</totfact>
</mgrwt>
</event>
<event>
 9    1  0.2051157E-002  0.2743459E+03  0.7818608E-02  0.1098818E+00
          1   -1    0    0  501    0  0.00000000000E+00  0.00000000000E+00  0.38055871824E+03  0.38055871824E+03  0.00000000000E+00 0. -1.
         -1   -1    0    0    0  501 -0.00000000000E+00 -0.00000000000E+00 -0.49444193427E+02  0.49444193427E+02  0.00000000000E+00 0. -1.
         36    2    1    2    0    0  0.00000000000E+00  0.71054273576E-14  0.33111452481E+03  0.43000291167E+03  0.27434590484E+03 0.  0.
         25    2    3    3    0    0  0.10769655984E+02  0.34760958929E+02  0.13698610785E+03  0.19581904307E+03  0.13511326408E+03 0.  0.
         25    2    3    3    0    0 -0.10769655984E+02 -0.34760958929E+02  0.19412841697E+03  0.23418386859E+03  0.12582500658E+03 0.  0.
          5    1    4    4  502    0 -0.53171801189E+02 -0.18010057489E+02  0.46928291100E+02  0.73320918693E+02  0.47000000000E+01 0.  1.
         -5    1    4    4    0  502  0.63941457173E+02  0.52771016418E+02  0.90057816746E+02  0.12249812438E+03  0.47000000000E+01 0.  1.
          5    1    5    5  503    0 -0.66169550006E+02 -0.28143790808E+02  0.84258926948E+02  0.11086991963E+03  0.47000000000E+01 0.  1.
         -5    1    5    5    0  503  0.55399894022E+02 -0.66171681205E+01  0.10986949002E+03  0.12331394896E+03  0.47000000000E+01 0.  1.
<mgrwt>
<rscale>  0 0.27434590E+03</rscale>
<asrwt>0</asrwt>
<pdfrwt beam="1">  1        1 0.58547493E-01 0.27434590E+03</pdfrwt>
<pdfrwt beam="2">  1       -1 0.76067992E-02 0.27434590E+03</pdfrwt>
<totfact> 0.59753896E+03</totfact>
</mgrwt>
</event>
<event>
 9    1  0.2051157E-002  0.2756874E+03  0.7818608E-02  0.1098068E+00
          2   -1    0    0  501    0  0.00000000000E+00  0.00000000000E+00  0.50873091053E+02  0.50873091053E+02  0.00000000000E+00 0. -1.
         -2   -1    0    0    0  501 -0.00000000000E+00 -0.00000000000E+00 -0.37349582456E+03  0.37349582456E+03  0.00000000000E+00 0. -1.
         36    2    1    2    0    0  0.00000000000E+00  0.00000000000E+00 -0.32262273350E+03  0.42436891561E+03  0.27568741060E+03 0.  0.
         25    2    3    3    0    0 -0.41864152323E+02 -0.30687648335E+02 -0.14565593747E+03  0.19955694066E+03  0.12614666637E+03 0.  0.
         25    2    3    3    0    0  0.41864152323E+02  0.30687648335E+02 -0.17696679604E+03  0.22481197495E+03  0.12856452922E+03 0.  0.
          5    1    4    4  502    0 -0.68145627524E+02 -0.30507988090E+02 -0.15431175056E+03  0.17148985465E+03  0.47000000000E+01 0. -1.
         -5    1    4    4    0  502  0.26281475201E+02 -0.17966024502E+00  0.86558130924E+01  0.28067086005E+02  0.47000000000E+01 0. -1.
          5    1    5    5  503    0  0.28690577915E+02  0.53269262504E+02 -0.17515920098E+02  0.63163763707E+02  0.47000000000E+01 0.  1.
         -5    1    5    5    0  503  0.13173574408E+02 -0.22581614168E+02 -0.15945087594E+03  0.16164821124E+03  0.47000000000E+01 0.  1.
<mgrwt>
<rscale>  0 0.27568741E+03</rscale>
<asrwt>0</asrwt>
<pdfrwt beam="1">  1        2 0.78266296E-02 0.27568741E+03</pdfrwt>
<pdfrwt beam="2">  1       -2 0.57460895E-01 0.27568741E+03</pdfrwt>
<totfact> 0.25227516E+03</totfact>
</mgrwt>
</event>
<event>
 9    1  0.2051157E-002  0.2681808E+03  0.7818608E-02  0.1102325E+00
         -2   -1    0    0    0  501 -0.00000000000E+00  0.00000000000E+00  0.97142783275E+01  0.97142783275E+01  0.00000000000E+00 0. -1.
          2   -1    0    0  501    0  0.00000000000E+00 -0.00000000000E+00 -0.18509079603E+04  0.18509079603E+04  0.00000000000E+00 0. -1.
         36    2    1    2    0    0  0.35527136788E-14  0.00000000000E+00 -0.18411936820E+04  0.18606222387E+04  0.26818079786E+03 0.  0.
         25    2    3    3    0    0  0.24029526578E+02  0.14532071546E+02 -0.66305022396E+03  0.67569249283E+03  0.12702813125E+03 0.  0.
         25    2    3    3    0    0 -0.24029526578E+02 -0.14532071546E+02 -0.11781434581E+04  0.11849297458E+04  0.12348236941E+03 0.  0.
          5    1    4    4  502    0 -0.27326163428E+02  0.44160074953E+02 -0.48876611530E+03  0.49153965953E+03  0.47000000000E+01 0.  1.
         -5    1    4    4    0  502  0.51355690007E+02 -0.29628003407E+02 -0.17428410866E+03  0.18415283330E+03  0.47000000000E+01 0.  1.
          5    1    5    5  503    0 -0.38395256568E+02  0.48356589435E+02 -0.58940460343E+03  0.59264865816E+03  0.47000000000E+01 0.  1.
         -5    1    5    5    0  503  0.14365729989E+02 -0.62888660981E+02 -0.58873885463E+03  0.59228108769E+03  0.47000000000E+01 0.  1.
<mgrwt>
<rscale>  0 0.26818080E+03</rscale>
<asrwt>0</asrwt>
<pdfrwt beam="1">  1        2 0.28475515E+00 0.26818080E+03</pdfrwt>
<pdfrwt beam="2">  1       -2 0.14945040E-02 0.26818080E+03</pdfrwt>
<totfact> 0.10550217E+04</totfact>
</mgrwt>
</event>
<event>
 9    1  0.2051157E-002  0.2758967E+03  0.7818608E-02  0.1097951E+00
          2   -1    0    0  501    0  0.00000000000E+00  0.00000000000E+00  0.23706629259E+03  0.23706629259E+03  0.00000000000E+00 0.  1.
         -2   -1    0    0    0  501 -0.00000000000E+00 -0.00000000000E+00 -0.80271824888E+02  0.80271824888E+02  0.00000000000E+00 0.  1.
         36    2    1    2    0    0 -0.17763568394E-14  0.00000000000E+00  0.15679446770E+03  0.31733811748E+03  0.27589667577E+03 0.  0.
         25    2    3    3    0    0  0.15523851653E+02 -0.94821370471E+01 -0.20145630121E+02  0.12519155772E+03  0.12221366052E+03 0.  0.
         25    2    3    3    0    0 -0.15523851653E+02  0.94821370471E+01  0.17694009782E+03  0.19214655976E+03  0.72674626363E+02 0.  0.
          5    1    4    4  502    0 -0.38006322769E+02  0.35549587490E+02 -0.29685562427E-01  0.52252699665E+02  0.47000000000E+01 0.  1.
         -5    1    4    4    0  502  0.53530174421E+02 -0.45031724537E+02 -0.20115944559E+02  0.72938858051E+02  0.47000000000E+01 0.  1.
          5    1    5    5  503    0  0.15434103413E+02  0.18592582788E+02  0.14290526920E+03  0.14501000534E+03  0.47000000000E+01 0. -1.
         -5    1    5    5    0  503 -0.30957955066E+02 -0.91104457405E+01  0.34034828622E+02  0.47136554422E+02  0.47000000000E+01 0.  1.
<mgrwt>
<rscale>  0 0.27589668E+03</rscale>
<asrwt>0</asrwt>
<pdfrwt beam="1">  1        2 0.36471737E-01 0.27589668E+03</pdfrwt>
<pdfrwt beam="2">  1       -2 0.12349512E-01 0.27589668E+03</pdfrwt>
<totfact> 0.66198139E+03</totfact>
</mgrwt>
</event>
<event>
 9    1  0.2051157E-002  0.2751380E+03  0.7818608E-02  0.1098374E+00
         -1   -1    0    0    0  501 -0.00000000000E+00  0.00000000000E+00  0.17314104884E+02  0.17314104884E+02  0.00000000000E+00 0.  1.
          1   -1    0    0  501    0  0.00000000000E+00 -0.00000000000E+00 -0.10930530350E+04  0.10930530350E+04  0.00000000000E+00 0.  1.
         36    2    1    2    0    0  0.35527136788E-14  0.00000000000E+00 -0.10757389301E+04  0.11103671399E+04  0.27513803729E+03 0.  0.
         25    2    3    3    0    0 -0.83083177437E+01 -0.53282178746E+02 -0.57163542137E+03  0.58810643251E+03  0.12725605008E+03 0.  0.
         25    2    3    3    0    0  0.83083177437E+01  0.53282178746E+02 -0.50410350875E+03  0.52226070738E+03  0.12541084569E+03 0.  0.
          5    1    4    4  502    0 -0.26841794428E+02  0.29675243470E+02 -0.31851925953E+03  0.32105717668E+03  0.47000000000E+01 0. -1.
         -5    1    4    4    0  502  0.18533476684E+02 -0.82957422217E+02 -0.25311616183E+03  0.26704925583E+03  0.47000000000E+01 0. -1.
          5    1    5    5  503    0  0.22382077830E+01  0.68017240762E+02 -0.50066847489E+03  0.50529433637E+03  0.47000000000E+01 0. -1.
         -5    1    5    5    0  503  0.60701099607E+01 -0.14735062015E+02 -0.34350338585E+01  0.16966371007E+02  0.47000000000E+01 0. -1.
<mgrwt>
<rscale>  0 0.27513804E+03</rscale>
<asrwt>0</asrwt>
<pdfrwt beam="1">  1        1 0.16816203E+00 0.27513804E+03</pdfrwt>
<pdfrwt beam="2">  1       -1 0.26637081E-02 0.27513804E+03</pdfrwt>
<totfact> 0.61363002E+03</totfact>
</mgrwt>
</event>
<event>
 9    1  0.2051157E-002  0.2749226E+03  0.7818608E-02  0.1098495E+00
          2   -1    0    0  501    0  0.00000000000E+00  0.00000000000E+00  0.57008428074E+03  0.57008428074E+03  0.00000000000E+00 0.  1.
         -2   -1    0    0    0  501 -0.00000000000E+00 -0.00000000000E+00 -0.33145299677E+02  0.33145299677E+02  0.00000000000E+00 0.  1.
         36    2    1    2    0    0  0.00000000000E+00  0.00000000000E+00  0.53693898106E+03  0.60322958042E+03  0.27492263876E+03 0.  0.
         25    2    3    3    0    0 -0.60339315183E+02  0.10737579043E+02  0.30264308320E+03  0.33236420876E+03  0.12295122162E+03 0.  0.
         25    2    3    3    0    0  0.60339315183E+02 -0.10737579043E+02  0.23429589786E+03  0.27086537165E+03  0.12131509900E+03 0.  0.
          5    1    4    4  502    0 -0.70749318980E+02  0.42485526083E+02  0.27945692144E+03  0.29142537125E+03  0.47000000000E+01 0. -1.
         -5    1    4    4    0  502  0.10410003797E+02 -0.31747947040E+02  0.23186161755E+02  0.40938837517E+02  0.47000000000E+01 0. -1.
          5    1    5    5  503    0  0.88597068357E+02 -0.37497108855E+02  0.15685274061E+03  0.18406614553E+03  0.47000000000E+01 0. -1.
         -5    1    5    5    0  503 -0.28257753174E+02  0.26759529811E+02  0.77443157250E+02  0.86799226120E+02  0.47000000000E+01 0. -1.
<mgrwt>
<rscale>  0 0.27492264E+03</rscale>
<asrwt>0</asrwt>
<pdfrwt beam="1">  1        2 0.87705267E-01 0.27492264E+03</pdfrwt>
<pdfrwt beam="2">  1       -2 0.50992773E-02 0.27492264E+03</pdfrwt>
<totfact> 0.10125685E+04</totfact>
</mgrwt>
</event>
<event>
 9    1  0.2051157E-002  0.2748631E+03  0.7818608E-02  0.1098528E+00
         -2   -1    0    0    0  501 -0.00000000000E+00  0.00000000000E+00  0.39214195479E+02  0.39214195479E+02  0.00000000000E+00 0. -1.
          2   -1    0    0  501    0  0.00000000000E+00 -0.00000000000E+00 -0.48164778566E+03  0.48164778566E+03  0.00000000000E+00 0. -1.
         36    2    1    2    0    0  0.71054273576E-14  0.00000000000E+00 -0.44243359018E+03  0.52086198114E+03  0.27486309624E+03 0.  0.
         25    2    3    3    0    0 -0.35984152801E+01 -0.34562179156E+02 -0.34986955454E+03  0.37247569326E+03  0.12297131395E+03 0.  0.
         25    2    3    3    0    0  0.35984152801E+01  0.34562179156E+02 -0.92564035635E+02  0.14838628787E+03  0.11064762499E+03 0.  0.
          5    1    4    4  502    0  0.50961055522E+02 -0.71908604748E+01 -0.76403170395E+02  0.92240295428E+02  0.47000000000E+01 0. -1.
         -5    1    4    4    0  502 -0.54559470802E+02 -0.27371318681E+02 -0.27346638415E+03  0.28023539783E+03  0.47000000000E+01 0. -1.
          5    1    5    5  503    0 -0.46217083457E+02  0.82469467511E+01 -0.98522821370E+01  0.48199464699E+02  0.47000000000E+01 0. -1.
         -5    1    5    5    0  503  0.49815498737E+02  0.26315232405E+02 -0.82711753498E+02  0.10018682317E+03  0.47000000000E+01 0. -1.
<mgrwt>
<rscale>  0 0.27486310E+03</rscale>
<asrwt>0</asrwt>
<pdfrwt beam="1">  1        2 0.74099657E-01 0.27486310E+03</pdfrwt>
<pdfrwt beam="2">  1       -2 0.60329534E-02 0.27486310E+03</pdfrwt>
<totfact> 0.94731567E+03</totfact>
</mgrwt>
</event>
<event>
 9    1  0.2051157E-002  0.2746513E+03  0.7818608E-02  0.1098647E+00
          2   -1    0    0  501    0  0.00000000000E+00  0.00000000000E+00  0.35886347863E+03  0.35886347863E+03  0.00000000000E+00 0.  1.
         -2   -1    0    0    0  501 -0.00000000000E+00 -0.00000000000E+00 -0.52550174831E+02  0.52550174831E+02  0.00000000000E+00 0.  1.
         36    2    1    2    0    0 -0.35527136788E-14  0.00000000000E+00  0.30631330380E+03  0.41141365346E+03  0.27465133200E+03 0.  0.
         25    2    3    3    0    0 -0.14037239050E+02 -0.36653562991E+02  0.22360851706E+03  0.25699740627E+03  0.12044239357E+03 0.  0.
         25    2    3    3    0    0  0.14037239050E+02  0.36653562991E+02  0.82704786735E+02  0.15441624718E+03  0.12435339917E+03 0.  0.
          5    1    4    4  502    0 -0.43164556309E+02  0.30515249990E+02  0.10178165585E+03  0.11478656224E+03  0.47000000000E+01 0.  1.
         -5    1    4    4    0  502  0.29127317259E+02 -0.67168812981E+02  0.12182686121E+03  0.14221084403E+03  0.47000000000E+01 0.  1.
          5    1    5    5  503    0 -0.27545120582E+02  0.70852336167E+02  0.52496619950E+02  0.92502823278E+02  0.47000000000E+01 0.  1.
         -5    1    5    5    0  503  0.41582359632E+02 -0.34198773176E+02  0.30208166785E+02  0.61913423906E+02  0.47000000000E+01 0.  1.
<mgrwt>
<rscale>  0 0.27465133E+03</rscale>
<asrwt>0</asrwt>
<pdfrwt beam="1">  1        2 0.55209764E-01 0.27465133E+03</pdfrwt>
<pdfrwt beam="2">  1       -2 0.80846425E-02 0.27465133E+03</pdfrwt>
<totfact> 0.83033138E+03</totfact>
</mgrwt>
</event>
<event>
 9    1  0.2051157E-002  0.2753541E+03  0.7818608E-02  0.1098254E+00
         -2   -1    0    0    0  501 -0.00000000000E+00  0.00000000000E+00  0.10486652157E+02  0.10486652157E+02  0.00000000000E+00 0. -1.
          2   -1    0    0  501    0  0.00000000000E+00 -0.00000000000E+00 -0.18075328528E+04  0.18075328528E+04  0.00000000000E+00 0. -1.
         36    2    1    2    0    0  0.17763568394E-14 -0.71054273576E-14 -0.17970462007E+04  0.18180195050E+04  0.27535408688E+03 0.  0.
         25    2    3    3    0    0  0.91300660340E+01  0.34709327717E+02 -0.70927004818E+03  0.72217405024E+03  0.13108494214E+03 0.  0.
         25    2    3    3    0    0 -0.91300660340E+01 -0.34709327717E+02 -0.10877761525E+04  0.10958454547E+04  0.12779752434E+03 0.  0.
          5    1    4    4  502    0  0.26911100368E+02 -0.74372482172E+01 -0.62921590798E+03  0.62985257707E+03  0.47000000000E+01 0. -1.
         -5    1    4    4    0  502 -0.17781034334E+02  0.42146575934E+02 -0.80054140197E+02  0.92321473166E+02  0.47000000000E+01 0. -1.
          5    1    5    5  503    0 -0.16772878048E+02  0.10253513184E+02 -0.95791218821E+03  0.95812541678E+03  0.47000000000E+01 0. -1.
         -5    1    5    5    0  503  0.76428120136E+01 -0.44962840901E+02 -0.12986396428E+03  0.13772003796E+03  0.47000000000E+01 0. -1.
<mgrwt>
<rscale>  0 0.27535409E+03</rscale>
<asrwt>0</asrwt>
<pdfrwt beam="1">  1        2 0.27808188E+00 0.27535409E+03</pdfrwt>
<pdfrwt beam="2">  1       -2 0.16133317E-02 0.27535409E+03</pdfrwt>
<totfact> 0.99441413E+03</totfact>
</mgrwt>
</event>
<event>
 9    1  0.2051157E-002  0.2743626E+03  0.7818608E-02  0.1098808E+00
          2   -1    0    0  501    0  0.00000000000E+00  0.00000000000E+00  0.10838881067E+04  0.10838881067E+04  0.00000000000E+00 0.  1.
         -2   -1    0    0    0  501 -0.00000000000E+00 -0.00000000000E+00 -0.17362225484E+02  0.17362225484E+02  0.00000000000E+00 0.  1.
         36    2    1    2    0    0 -0.71054273576E-14  0.00000000000E+00  0.10665258812E+04  0.11012503322E+04  0.27436260465E+03 0.  0.
         25    2    3    3    0    0  0.47838258345E+02 -0.40462048684E+02  0.50508969574E+03  0.52410188973E+03  0.12506603747E+03 0.  0.
         25    2    3    3    0    0 -0.47838258345E+02  0.40462048684E+02  0.56143618547E+03  0.57714844246E+03  0.11816961506E+03 0.  0.
          5    1    4    4  502    0  0.73402095123E+02 -0.47610810389E+02  0.47771027542E+03  0.48567875605E+03  0.47000000000E+01 0. -1.
         -5    1    4    4    0  502 -0.25563836778E+02  0.71487617056E+01  0.27379420323E+02  0.38423133682E+02  0.47000000000E+01 0. -1.
          5    1    5    5  503    0  0.34373970348E+02 -0.10295122918E+02  0.12580582462E+03  0.13090742875E+03  0.47000000000E+01 0. -1.
         -5    1    5    5    0  503 -0.82212228694E+02  0.50757171602E+02  0.43563036085E+03  0.44624101370E+03  0.47000000000E+01 0. -1.
<mgrwt>
<rscale>  0 0.27436260E+03</rscale>
<asrwt>0</asrwt>
<pdfrwt beam="1">  1        2 0.16675196E+00 0.27436260E+03</pdfrwt>
<pdfrwt beam="2">  1       -2 0.26711125E-02 0.27436260E+03</pdfrwt>
<totfact> 0.11737766E+04</totfact>
</mgrwt>
</event>
<event>
 9    1  0.2051157E-002  0.2747612E+03  0.7818608E-02  0.1098585E+00
          2   -1    0    0  501    0  0.00000000000E+00  0.00000000000E+00  0.35759012237E+03  0.35759012237E+03  0.00000000000E+00 0.  1.
         -2   -1    0    0    0  501 -0.00000000000E+00 -0.00000000000E+00 -0.52779522095E+02  0.52779522095E+02  0.00000000000E+00 0.  1.
         36    2    1    2    0    0 -0.71054273576E-14  0.00000000000E+00  0.30481060028E+03  0.41036964447E+03  0.27476124737E+03 0.  0.
         25    2    3    3    0    0  0.98732054871E+01 -0.11206290885E+02  0.87557818183E+02  0.15275757778E+03  0.12427970430E+03 0.  0.
         25    2    3    3    0    0 -0.98732054871E+01  0.11206290885E+02  0.21725278209E+03  0.25761206669E+03  0.13763046332E+03 0.  0.
          5    1    4    4  502    0 -0.45290057024E+02 -0.32918978172E+02  0.71922978566E+02  0.91268029643E+02  0.47000000000E+01 0. -1.
         -5    1    4    4    0  502  0.55163262511E+02  0.21712687286E+02  0.15634839617E+02  0.61489548136E+02  0.47000000000E+01 0. -1.
          5    1    5    5  503    0 -0.34102277312E+02 -0.51794283964E+02  0.14921800398E+03  0.16165925857E+03  0.47000000000E+01 0. -1.
         -5    1    5    5    0  503  0.24229071825E+02  0.63000574850E+02  0.68034778113E+02  0.95952808118E+02  0.47000000000E+01 0. -1.
<mgrwt>
<rscale>  0 0.27476125E+03</rscale>
<asrwt>0</asrwt>
<pdfrwt beam="1">  1        2 0.55013864E-01 0.27476125E+03</pdfrwt>
<pdfrwt beam="2">  1       -2 0.81199267E-02 0.27476125E+03</pdfrwt>
<totfact> 0.82788322E+03</totfact>
</mgrwt>
</event>
<event>
 9    1  0.2051157E-002  0.2757545E+03  0.7818608E-02  0.1098031E+00
          2   -1    0    0  501    0  0.00000000000E+00  0.00000000000E+00  0.25066416416E+03  0.25066416416E+03  0.00000000000E+00 0. -1.
         -2   -1    0    0    0  501 -0.00000000000E+00 -0.00000000000E+00 -0.75839082212E+02  0.75839082212E+02  0.00000000000E+00 0. -1.
         36    2    1    2    0    0 -0.35527136788E-14  0.14210854715E-13  0.17482508194E+03  0.32650324637E+03  0.27575452963E+03 0.  0.
         25    2    3    3    0    0 -0.11447569132E+02  0.49338479335E+02  0.40609489521E+02  0.13859589128E+03  0.12245145185E+03 0.  0.
         25    2    3    3    0    0  0.11447569132E+02 -0.49338479335E+02  0.13421559242E+03  0.18790735508E+03  0.12136727921E+03 0.  0.
          5    1    4    4  502    0  0.29787530019E+02  0.45335967098E+02  0.69190459689E+02  0.88045764062E+02  0.47000000000E+01 0.  1.
         -5    1    4    4    0  502 -0.41235099152E+02  0.40025122374E+01 -0.28580970168E+02  0.50550127220E+02  0.47000000000E+01 0.  1.
          5    1    5    5  503    0 -0.48848048968E+02 -0.28265556175E+02  0.26351252730E+02  0.62462405287E+02  0.47000000000E+01 0. -1.
         -5    1    5    5    0  503  0.60295618100E+02 -0.21072923160E+02  0.10786433969E+03  0.12544494980E+03  0.47000000000E+01 0. -1.
<mgrwt>
<rscale>  0 0.27575453E+03</rscale>
<asrwt>0</asrwt>
<pdfrwt beam="1">  1        2 0.38563717E-01 0.27575453E+03</pdfrwt>
<pdfrwt beam="2">  1       -2 0.11667551E-01 0.27575453E+03</pdfrwt>
<totfact> 0.68306876E+03</totfact>
</mgrwt>
</event>
<event>
 9    1  0.2051157E-002  0.2754584E+03  0.7818608E-02  0.1098196E+00
         -2   -1    0    0    0  501 -0.00000000000E+00  0.00000000000E+00  0.91122468345E+02  0.91122468345E+02  0.00000000000E+00 0. -1.
          2   -1    0    0  501    0  0.00000000000E+00 -0.00000000000E+00 -0.20817406704E+03  0.20817406704E+03  0.00000000000E+00 0. -1.
         36    2    1    2    0    0  0.00000000000E+00  0.71054273576E-14 -0.11705159870E+03  0.29929653539E+03  0.27545841671E+03 0.  0.
         25    2    3    3    0    0 -0.84927122631E+01 -0.50109509937E+02 -0.31009461292E+02  0.14120794422E+03  0.12804299151E+03 0.  0.
         25    2    3    3    0    0  0.84927122631E+01  0.50109509937E+02 -0.86042137403E+02  0.15808859116E+03  0.12249760855E+03 0.  0.
          5    1    4    4  502    0  0.23846295504E+02 -0.64090631962E+02  0.26592549480E+02  0.73522164022E+02  0.47000000000E+01 0. -1.
         -5    1    4    4    0  502 -0.32339007767E+02  0.13981122025E+02 -0.57602010772E+02  0.67685780201E+02  0.47000000000E+01 0. -1.
          5    1    5    5  503    0 -0.21002556748E+02 -0.32447977365E+02 -0.62167979430E+01  0.39429902380E+02  0.47000000000E+01 0.  1.
         -5    1    5    5    0  503  0.29495269011E+02  0.82557487302E+02 -0.79825339460E+02  0.11865868878E+03  0.47000000000E+01 0.  1.
<mgrwt>
<rscale>  0 0.27545842E+03</rscale>
<asrwt>0</asrwt>
<pdfrwt beam="1">  1        2 0.32026779E-01 0.27545842E+03</pdfrwt>
<pdfrwt beam="2">  1       -2 0.14018841E-01 0.27545842E+03</pdfrwt>
<totfact> 0.62011364E+03</totfact>
</mgrwt>
</event>
<event>
 9    1  0.2051157E-002  0.2736013E+03  0.7818608E-02  0.1099236E+00
         -2   -1    0    0    0  501 -0.00000000000E+00  0.00000000000E+00  0.16067260199E+02  0.16067260199E+02  0.00000000000E+00 0. -1.
          2   -1    0    0  501    0  0.00000000000E+00 -0.00000000000E+00 -0.11647551687E+04  0.11647551687E+04  0.00000000000E+00 0. -1.
         36    2    1    2    0    0 -0.53290705182E-14 -0.35527136788E-14 -0.11486879085E+04  0.11808224289E+04  0.27360134768E+03 0.  0.
         25    2    3    3    0    0 -0.14252230663E+02  0.85556031840E+01 -0.35260923878E+03  0.37489030250E+03  0.12622653925E+03 0.  0.
         25    2    3    3    0    0  0.14252230663E+02 -0.85556031840E+01 -0.79607866969E+03  0.80593212637E+03  0.12453521410E+03 0.  0.
          5    1    4    4  502    0  0.48770460102E+02  0.27285227029E+02 -0.21671661603E+03  0.22385536191E+03  0.47000000000E+01 0.  1.
         -5    1    4    4    0  502 -0.63022690766E+02 -0.18729623845E+02 -0.13589262275E+03  0.15103494059E+03  0.47000000000E+01 0.  1.
          5    1    5    5  503    0  0.25405688610E+02 -0.28941024605E+02 -0.74786765579E+02  0.84250710530E+02  0.47000000000E+01 0. -1.
         -5    1    5    5    0  503 -0.11153457947E+02  0.20385421421E+02 -0.72129190411E+03  0.72168141584E+03  0.47000000000E+01 0. -1.
<mgrwt>
<rscale>  0 0.27360135E+03</rscale>
<asrwt>0</asrwt>
<pdfrwt beam="1">  1        2 0.17919312E+00 0.27360135E+03</pdfrwt>
<pdfrwt beam="2">  1       -2 0.24718859E-02 0.27360135E+03</pdfrwt>
<totfact> 0.11811753E+04</totfact>
</mgrwt>
</event>
<event>
 9    1  0.2051157E-002  0.2752898E+03  0.7818608E-02  0.1098290E+00
         -2   -1    0    0    0  501 -0.00000000000E+00  0.00000000000E+00  0.21830828439E+03  0.21830828439E+03  0.00000000000E+00 0.  1.
          2   -1    0    0  501    0  0.00000000000E+00 -0.00000000000E+00 -0.86786093867E+02  0.86786093867E+02  0.00000000000E+00 0.  1.
         36    2    1    2    0    0 -0.71054273576E-14  0.00000000000E+00  0.13152219052E+03  0.30509437825E+03  0.27528983462E+03 0.  0.
         25    2    3    3    0    0 -0.43058188522E+02 -0.38041365659E+01  0.32525769761E+02  0.13825548347E+03  0.12723275504E+03 0.  0.
         25    2    3    3    0    0  0.43058188522E+02  0.38041365659E+01  0.98996420759E+02  0.16683889479E+03  0.12714734145E+03 0.  0.
          5    1    4    4  502    0  0.38379780246E+02 -0.29453413224E+02  0.15918280340E+02  0.51146776352E+02  0.47000000000E+01 0.  1.
         -5    1    4    4    0  502 -0.81437968768E+02  0.25649276658E+02  0.16607489421E+02  0.87108707114E+02  0.47000000000E+01 0.  1.
          5    1    5    5  503    0  0.55730400425E+02 -0.21063911852E+02  0.11832774646E+03  0.13256361302E+03  0.47000000000E+01 0.  1.
         -5    1    5    5    0  503 -0.12672211903E+02  0.24868048418E+02 -0.19331325705E+02  0.34275281766E+02  0.47000000000E+01 0.  1.
<mgrwt>
<rscale>  0 0.27528983E+03</rscale>
<asrwt>0</asrwt>
<pdfrwt beam="1">  1        2 0.13351707E-01 0.27528983E+03</pdfrwt>
<pdfrwt beam="2">  1       -2 0.33585890E-01 0.27528983E+03</pdfrwt>
<totfact> 0.37028503E+03</totfact>
</mgrwt>
</event>
<event>
 9    1  0.2051157E-002  0.2808252E+03  0.7818608E-02  0.1095239E+00
         -1   -1    0    0    0  501 -0.00000000000E+00  0.00000000000E+00  0.27188492304E+02  0.27188492304E+02  0.00000000000E+00 0. -1.
          1   -1    0    0  501    0  0.00000000000E+00 -0.00000000000E+00 -0.72514889760E+03  0.72514889760E+03  0.00000000000E+00 0. -1.
         36    2    1    2    0    0  0.71054273576E-14  0.35527136788E-14 -0.69796040530E+03  0.75233738991E+03  0.28082524973E+03 0.  0.
         25    2    3    3    0    0 -0.52270157830E+02 -0.30729060808E+02 -0.30016627871E+03  0.33095623525E+03  0.12552207055E+03 0.  0.
         25    2    3    3    0    0  0.52270157830E+02  0.30729060808E+02 -0.39779412659E+03  0.42138115466E+03  0.12508183633E+03 0.  0.
          5    1    4    4  502    0  0.60134897338E+01 -0.32862183952E+02 -0.10344713949E+02  0.35287225727E+02  0.47000000000E+01 0.  1.
         -5    1    4    4    0  502 -0.58283647563E+02  0.21331231439E+01 -0.28982156476E+03  0.29566900952E+03  0.47000000000E+01 0.  1.
          5    1    5    5  503    0  0.38835373793E+01  0.16051969782E+02  0.29585741118E+01  0.17423855981E+02  0.47000000000E+01 0. -1.
         -5    1    5    5    0  503  0.48386620450E+02  0.14677091025E+02 -0.40075270070E+03  0.40395729868E+03  0.47000000000E+01 0. -1.
<mgrwt>
<rscale>  0 0.28082525E+03</rscale>
<asrwt>0</asrwt>
<pdfrwt beam="1">  1        1 0.11156137E+00 0.28082525E+03</pdfrwt>
<pdfrwt beam="2">  1       -1 0.41828450E-02 0.28082525E+03</pdfrwt>
<totfact> 0.61435824E+03</totfact>
</mgrwt>
</event>
<event>
 9    1  0.2051157E-002  0.2751836E+03  0.7818608E-02  0.1098349E+00
         -1   -1    0    0    0  501 -0.00000000000E+00  0.00000000000E+00  0.23854752538E+03  0.23854752538E+03  0.00000000000E+00 0. -1.
          1   -1    0    0  501    0  0.00000000000E+00 -0.00000000000E+00 -0.79361537674E+02  0.79361537674E+02  0.00000000000E+00 0. -1.
         36    2    1    2    0    0  0.00000000000E+00 -0.14210854715E-13  0.15918598771E+03  0.31790906306E+03  0.27518356363E+03 0.  0.
         25    2    3    3    0    0  0.42781848824E+01 -0.52151095980E+02  0.59865071695E+02  0.14904063123E+03  0.12606047466E+03 0.  0.
         25    2    3    3    0    0 -0.42781848824E+01  0.52151095980E+02  0.99320916014E+02  0.16886843183E+03  0.12615016144E+03 0.  0.
          5    1    4    4  502    0 -0.38433437598E+02 -0.49960767836E+02 -0.12895998621E+02  0.64510497044E+02  0.47000000000E+01 0. -1.
         -5    1    4    4    0  502  0.42711622480E+02 -0.21903281435E+01  0.72761070316E+02  0.84530134188E+02  0.47000000000E+01 0. -1.
          5    1    5    5  503    0  0.49861242530E+02  0.33008670790E+02  0.93328748057E+02  0.11094170121E+03  0.47000000000E+01 0.  1.
         -5    1    5    5    0  503 -0.54139427413E+02  0.19142425190E+02  0.59921679571E+01  0.57926730613E+02  0.47000000000E+01 0.  1.
<mgrwt>
<rscale>  0 0.27518356E+03</rscale>
<asrwt>0</asrwt>
<pdfrwt beam="1">  1        1 0.12209467E-01 0.27518356E+03</pdfrwt>
<pdfrwt beam="2">  1       -1 0.36699619E-01 0.27518356E+03</pdfrwt>
<totfact> 0.35103210E+03</totfact>
</mgrwt>
</event>
<event>
 9    1  0.2051157E-002  0.2763689E+03  0.7818608E-02  0.1097689E+00
         -2   -1    0    0    0  501 -0.00000000000E+00  0.00000000000E+00  0.22366784023E+02  0.22366784023E+02  0.00000000000E+00 0.  1.
          2   -1    0    0  501    0  0.00000000000E+00 -0.00000000000E+00 -0.85371866847E+03  0.85371866847E+03  0.00000000000E+00 0.  1.
         36    2    1    2    0    0 -0.71054273576E-14 -0.71054273576E-14 -0.83135188445E+03  0.87608545250E+03  0.27636889170E+03 0.  0.
         25    2    3    3    0    0 -0.19482548802E+02 -0.46231285391E+02 -0.56273970410E+03  0.57783898508E+03  0.12126424310E+03 0.  0.
         25    2    3    3    0    0  0.19482548802E+02  0.46231285391E+02 -0.26861218035E+03  0.29824646741E+03  0.11950544103E+03 0.  0.
          5    1    4    4  502    0 -0.27251399441E+02 -0.67508692005E+02 -0.54163116750E+03  0.54652216229E+03  0.47000000000E+01 0. -1.
         -5    1    4    4    0  502  0.77688506383E+01  0.21277406614E+02 -0.21108536601E+02  0.31316822794E+02  0.47000000000E+01 0. -1.
          5    1    5    5  503    0  0.54483374617E+02  0.55123382251E+02 -0.10477412772E+03  0.13040986627E+03  0.47000000000E+01 0. -1.
         -5    1    5    5    0  503 -0.35000825815E+02 -0.88920968596E+01 -0.16383805263E+03  0.16783660115E+03  0.47000000000E+01 0. -1.
<mgrwt>
<rscale>  0 0.27636889E+03</rscale>
<asrwt>0</asrwt>
<pdfrwt beam="1">  1        2 0.13134133E+00 0.27636889E+03</pdfrwt>
<pdfrwt beam="2">  1       -2 0.34410437E-02 0.27636889E+03</pdfrwt>
<totfact> 0.11208264E+04</totfact>
</mgrwt>
</event>
<event>
 9    1  0.2051157E-002  0.2777371E+03  0.7818608E-02  0.1096931E+00
         -2   -1    0    0    0  501 -0.00000000000E+00  0.00000000000E+00  0.16078406844E+02  0.16078406844E+02  0.00000000000E+00 0. -1.
          2   -1    0    0  501    0  0.00000000000E+00 -0.00000000000E+00 -0.11994019057E+04  0.11994019057E+04  0.00000000000E+00 0. -1.
         36    2    1    2    0    0  0.00000000000E+00  0.00000000000E+00 -0.11833234988E+04  0.12154803125E+04  0.27773708293E+03 0.  0.
         25    2    3    3    0    0 -0.33454511634E+02 -0.59108168180E+02 -0.60698217408E+03  0.62368807418E+03  0.12627935037E+03 0.  0.
         25    2    3    3    0    0  0.33454511634E+02  0.59108168180E+02 -0.57634132472E+03  0.59179223831E+03  0.11591268630E+03 0.  0.
          5    1    4    4  502    0 -0.21468687270E+02 -0.53420298097E+02 -0.92774672206E+02  0.10928798006E+03  0.47000000000E+01 0. -1.
         -5    1    4    4    0  502 -0.11985824364E+02 -0.56878700827E+01 -0.51420750188E+03  0.51440009413E+03  0.47000000000E+01 0. -1.
          5    1    5    5  503    0 -0.23587388284E+02 -0.74076023317E+00 -0.34916346707E+03  0.34999161469E+03  0.47000000000E+01 0. -1.
         -5    1    5    5    0  503  0.57041899918E+02  0.59848928413E+02 -0.22717785765E+03  0.24180062362E+03  0.47000000000E+01 0. -1.
<mgrwt>
<rscale>  0 0.27773708E+03</rscale>
<asrwt>0</asrwt>
<pdfrwt beam="1">  1        2 0.18452346E+00 0.27773708E+03</pdfrwt>
<pdfrwt beam="2">  1       -2 0.24735998E-02 0.27773708E+03</pdfrwt>
<totfact> 0.11278543E+04</totfact>
</mgrwt>
</event>
<event>
 9    1  0.2051157E-002  0.2750692E+03  0.7818608E-02  0.1098413E+00
         -1   -1    0    0    0  501 -0.00000000000E+00  0.00000000000E+00  0.28234155255E+03  0.28234155255E+03  0.00000000000E+00 0. -1.
          1   -1    0    0  501    0  0.00000000000E+00 -0.00000000000E+00 -0.66996024424E+02  0.66996024424E+02  0.00000000000E+00 0. -1.
         36    2    1    2    0    0 -0.17763568394E-14 -0.71054273576E-14  0.21534552812E+03  0.34933757697E+03  0.27506916622E+03 0.  0.
         25    2    3    3    0    0  0.57248512563E+00  0.42341321083E+02  0.69687260656E+02  0.15033916688E+03  0.12630295163E+03 0.  0.
         25    2    3    3    0    0 -0.57248512563E+00 -0.42341321083E+02  0.14565826747E+03  0.19899841009E+03  0.12880574959E+03 0.  0.
          5    1    4    4  502    0 -0.95335602788E+01 -0.44452104192E+02  0.23623307123E+02  0.51449285497E+02  0.47000000000E+01 0.  1.
         -5    1    4    4    0  502  0.10106045404E+02  0.86793425275E+02  0.46063953533E+02  0.98889881382E+02  0.47000000000E+01 0.  1.
          5    1    5    5  503    0 -0.27522984996E+02  0.19951392816E+02  0.12236515410E+03  0.12708616650E+03  0.47000000000E+01 0.  1.
         -5    1    5    5    0  503  0.26950499870E+02 -0.62292713899E+02  0.23293113371E+02  0.71912243593E+02  0.47000000000E+01 0.  1.
<mgrwt>
<rscale>  0 0.27506917E+03</rscale>
<asrwt>0</asrwt>
<pdfrwt beam="1">  1        1 0.10307081E-01 0.27506917E+03</pdfrwt>
<pdfrwt beam="2">  1       -1 0.43437161E-01 0.27506917E+03</pdfrwt>
<totfact> 0.32632310E+03</totfact>
</mgrwt>
</event>
<event>
 9    1  0.2051157E-002  0.2753832E+03  0.7818608E-02  0.1098238E+00
         -2   -1    0    0    0  501 -0.00000000000E+00  0.00000000000E+00  0.24835971324E+02  0.24835971324E+02  0.00000000000E+00 0.  1.
          2   -1    0    0  501    0  0.00000000000E+00 -0.00000000000E+00 -0.76336754386E+03  0.76336754386E+03  0.00000000000E+00 0.  1.
         36    2    1    2    0    0 -0.71054273576E-14  0.14210854715E-13 -0.73853157253E+03  0.78820351518E+03  0.27538318343E+03 0.  0.
         25    2    3    3    0    0  0.14535698811E+02 -0.51893105327E+02 -0.35332746674E+03  0.37747716688E+03  0.12142706389E+03 0.  0.
         25    2    3    3    0    0 -0.14535698811E+02  0.51893105327E+02 -0.38520410579E+03  0.41072634830E+03  0.13194600845E+03 0.  0.
          5    1    4    4  502    0 -0.20547838008E+02 -0.77122456670E+02 -0.28888895962E+03  0.29974824096E+03  0.47000000000E+01 0.  1.
         -5    1    4    4    0  502  0.35083536819E+02  0.25229351344E+02 -0.64438507122E+02  0.77728925922E+02  0.47000000000E+01 0.  1.
          5    1    5    5  503    0  0.18286662154E+02 -0.36280617388E+02 -0.18499924651E+03  0.18946634641E+03  0.47000000000E+01 0. -1.
         -5    1    5    5    0  503 -0.32822360965E+02  0.88173722715E+02 -0.20020485928E+03  0.22126000189E+03  0.47000000000E+01 0. -1.
<mgrwt>
<rscale>  0 0.27538318E+03</rscale>
<asrwt>0</asrwt>
<pdfrwt beam="1">  1        2 0.11744116E+00 0.27538318E+03</pdfrwt>
<pdfrwt beam="2">  1       -2 0.38209185E-02 0.27538318E+03</pdfrwt>
<totfact> 0.11051737E+04</totfact>
</mgrwt>
</event>
<event>
 9    1  0.2051157E-002  0.2743563E+03  0.7818608E-02  0.1098812E+00
          1   -1    0    0  501    0  0.00000000000E+00  0.00000000000E+00  0.11215960564E+03  0.11215960564E+03  0.00000000000E+00 0.  1.
         -1   -1    0    0    0  501 -0.00000000000E+00 -0.00000000000E+00 -0.16777736210E+03  0.16777736210E+03  0.00000000000E+00 0.  1.
         36    2    1    2    0    0 -0.35527136788E-14 -0.17763568394E-14 -0.55617756463E+02  0.27993696774E+03  0.27435628492E+03 0.  0.
         25    2    3    3    0    0 -0.29951919326E+02 -0.15611856969E+02 -0.62221308124E+02  0.15109623520E+03  0.13348308341E+03 0.  0.
         25    2    3    3    0    0  0.29951919326E+02  0.15611856969E+02  0.66035516606E+01  0.12884073254E+03  0.12415909116E+03 0.  0.
          5    1    4    4  502    0 -0.27790139019E+02 -0.22738408291E+02 -0.10310246895E+03  0.10927733590E+03  0.47000000000E+01 0. -1.
         -5    1    4    4    0  502 -0.21617803070E+01  0.71265513220E+01  0.40881160826E+02  0.41818899296E+02  0.47000000000E+01 0. -1.
          5    1    5    5  503    0  0.22160512915E+02  0.28159605210E+02 -0.54726157962E+02  0.65582726868E+02  0.47000000000E+01 0. -1.
         -5    1    5    5    0  503  0.77914064116E+01 -0.12547748241E+02  0.61329709622E+02  0.63258005677E+02  0.47000000000E+01 0. -1.
<mgrwt>
<rscale>  0 0.27435628E+03</rscale>
<asrwt>0</asrwt>
<pdfrwt beam="1">  1        1 0.17255324E-01 0.27435628E+03</pdfrwt>
<pdfrwt beam="2">  1       -1 0.25811902E-01 0.27435628E+03</pdfrwt>
<totfact> 0.40627753E+03</totfact>
</mgrwt>
</event>
<event>
 9    1  0.2051157E-002  0.2757528E+03  0.7818608E-02  0.1098032E+00
          1   -1    0    0  501    0  0.00000000000E+00  0.00000000000E+00  0.49693456945E+03  0.49693456945E+03  0.00000000000E+00 0.  1.
         -1   -1    0    0    0  501 -0.00000000000E+00 -0.00000000000E+00 -0.38254328033E+02  0.38254328033E+02  0.00000000000E+00 0.  1.
         36    2    1    2    0    0  0.00000000000E+00 -0.71054273576E-14  0.45868024142E+03  0.53518889748E+03  0.27575277355E+03 0.  0.
         25    2    3    3    0    0 -0.13990000764E+02  0.32736691118E+02  0.29467902069E+03  0.32222466989E+03  0.12540176070E+03 0.  0.
         25    2    3    3    0    0  0.13990000764E+02 -0.32736691118E+02  0.16400122073E+03  0.21296422759E+03  0.13111045254E+03 0.  0.
          5    1    4    4  502    0  0.50572186981E+02  0.32513342500E+02  0.97015224866E+02  0.11423093886E+03  0.47000000000E+01 0.  1.
         -5    1    4    4    0  502 -0.64562187745E+02  0.22334861788E+00  0.19766379582E+03  0.20799373103E+03  0.47000000000E+01 0.  1.
          5    1    5    5  503    0 -0.45830557093E+02 -0.45961882095E+02  0.12281938022E+03  0.13899505288E+03  0.47000000000E+01 0. -1.
         -5    1    5    5    0  503  0.59820557857E+02  0.13225190977E+02  0.41181840512E+02  0.73969174706E+02  0.47000000000E+01 0. -1.
<mgrwt>
<rscale>  0 0.27575277E+03</rscale>
<asrwt>0</asrwt>
<pdfrwt beam="1">  1        1 0.76451468E-01 0.27575277E+03</pdfrwt>
<pdfrwt beam="2">  1       -1 0.58852816E-02 0.27575277E+03</pdfrwt>
<totfact> 0.62349814E+03</totfact>
</mgrwt>
</event>
<event>
 9    1  0.2051157E-002  0.2734793E+03  0.7818608E-02  0.1099305E+00
          1   -1    0    0  501    0  0.00000000000E+00  0.00000000000E+00  0.90774956298E+03  0.90774956298E+03  0.00000000000E+00 0.  1.
         -1   -1    0    0    0  501 -0.00000000000E+00 -0.00000000000E+00 -0.20597900037E+02  0.20597900037E+02  0.00000000000E+00 0.  1.
         36    2    1    2    0    0  0.71054273576E-14 -0.71054273576E-14  0.88715166295E+03  0.92834746302E+03  0.27347932102E+03 0.  0.
         25    2    3    3    0    0  0.42352981721E+02  0.44500731060E+02  0.34707248990E+03  0.37285450136E+03  0.12160212093E+03 0.  0.
         25    2    3    3    0    0 -0.42352981721E+02 -0.44500731060E+02  0.54007917305E+03  0.55549296166E+03  0.11451125346E+03 0.  0.
          5    1    4    4  502    0  0.79334911563E+02  0.52271759818E+02  0.20903867032E+03  0.22966414774E+03  0.47000000000E+01 0.  1.
         -5    1    4    4    0  502 -0.36981929842E+02 -0.77710287580E+01  0.13803381957E+03  0.14319035362E+03  0.47000000000E+01 0.  1.
          5    1    5    5  503    0 -0.18487515637E+02  0.14272316370E+02  0.18802414999E+02  0.30349762088E+02  0.47000000000E+01 0.  1.
         -5    1    5    5    0  503 -0.23865466084E+02 -0.58773047430E+02  0.52127675805E+03  0.52514319957E+03  0.47000000000E+01 0.  1.
<mgrwt>
<rscale>  0 0.27347932E+03</rscale>
<asrwt>0</asrwt>
<pdfrwt beam="1">  1        1 0.13965375E+00 0.27347932E+03</pdfrwt>
<pdfrwt beam="2">  1       -1 0.31689084E-02 0.27347932E+03</pdfrwt>
<totfact> 0.65401845E+03</totfact>
</mgrwt>
</event>
<event>
 9    1  0.2051157E-002  0.2749564E+03  0.7818608E-02  0.1098476E+00
          2   -1    0    0  501    0  0.00000000000E+00  0.00000000000E+00  0.21101726364E+04  0.21101726364E+04  0.00000000000E+00 0.  1.
         -2   -1    0    0    0  501 -0.00000000000E+00 -0.00000000000E+00 -0.89567313654E+01  0.89567313654E+01  0.00000000000E+00 0.  1.
         36    2    1    2    0    0  0.00000000000E+00  0.00000000000E+00  0.21012159050E+04  0.21191293678E+04  0.27495635609E+03 0.  0.
         25    2    3    3    0    0  0.23848047295E+02 -0.41537259447E+02  0.91575346148E+03  0.92610495414E+03  0.12950641135E+03 0.  0.
         25    2    3    3    0    0 -0.23848047295E+02  0.41537259447E+02  0.11854624436E+04  0.11930244136E+04  0.12526760616E+03 0.  0.
          5    1    4    4  502    0 -0.18496126052E+02 -0.30428887665E+02  0.81919602575E+03  0.81998307451E+03  0.47000000000E+01 0. -1.
         -5    1    4    4    0  502  0.42344173348E+02 -0.11108371782E+02  0.96557435735E+02  0.10612187963E+03  0.47000000000E+01 0. -1.
          5    1    5    5  503    0 -0.29281075905E+02 -0.39593430939E+02  0.32904992933E+03  0.33274760280E+03  0.47000000000E+01 0. -1.
         -5    1    5    5    0  503  0.54330286098E+01  0.81130690386E+02  0.85641251423E+03  0.86027681083E+03  0.47000000000E+01 0. -1.
<mgrwt>
<rscale>  0 0.27495636E+03</rscale>
<asrwt>0</asrwt>
<pdfrwt beam="1">  1        2 0.32464155E+00 0.27495636E+03</pdfrwt>
<pdfrwt beam="2">  1       -2 0.13779603E-02 0.27495636E+03</pdfrwt>
<totfact> 0.86807479E+03</totfact>
</mgrwt>
</event>
<event>
 9    1  0.2051157E-002  0.2757573E+03  0.7818608E-02  0.1098029E+00
         -2   -1    0    0    0  501 -0.00000000000E+00  0.00000000000E+00  0.33253067928E+02  0.33253067928E+02  0.00000000000E+00 0. -1.
          2   -1    0    0  501    0  0.00000000000E+00 -0.00000000000E+00 -0.57169214055E+03  0.57169214055E+03  0.00000000000E+00 0. -1.
         36    2    1    2    0    0  0.00000000000E+00  0.00000000000E+00 -0.53843907263E+03  0.60494520848E+03  0.27575726706E+03 0.  0.
         25    2    3    3    0    0 -0.50870478785E+02 -0.11550651228E+02 -0.20611774848E+03  0.24670399064E+03  0.12512837249E+03 0.  0.
         25    2    3    3    0    0  0.50870478785E+02  0.11550651228E+02 -0.33232132414E+03  0.35824121784E+03  0.12319936901E+03 0.  0.
          5    1    4    4  502    0 -0.54863454063E+01  0.55315247787E+00  0.17088335760E+02  0.18560904683E+02  0.47000000000E+01 0.  1.
         -5    1    4    4    0  502 -0.45384133379E+02 -0.12103803706E+02 -0.22320608424E+03  0.22814308596E+03  0.47000000000E+01 0.  1.
          5    1    5    5  503    0  0.23721419090E+02 -0.55480312885E+02 -0.13199922195E+03  0.14521244932E+03  0.47000000000E+01 0. -1.
         -5    1    5    5    0  503  0.27149059695E+02  0.67030964112E+02 -0.20032210219E+03  0.21302876853E+03  0.47000000000E+01 0. -1.
<mgrwt>
<rscale>  0 0.27575727E+03</rscale>
<asrwt>0</asrwt>
<pdfrwt beam="1">  1        2 0.87952633E-01 0.27575727E+03</pdfrwt>
<pdfrwt beam="2">  1       -2 0.51158568E-02 0.27575727E+03</pdfrwt>
<totfact> 0.10044439E+04</totfact>
</mgrwt>
</event>
<event>
 9    1  0.2051157E-002  0.2744062E+03  0.7818608E-02  0.1098784E+00
          2   -1    0    0  501    0  0.00000000000E+00  0.00000000000E+00  0.26137813643E+02  0.26137813643E+02  0.00000000000E+00 0. -1.
         -2   -1    0    0    0  501 -0.00000000000E+00 -0.00000000000E+00 -0.72020919950E+03  0.72020919950E+03  0.00000000000E+00 0. -1.
         36    2    1    2    0    0 -0.17763568394E-14  0.35527136788E-14 -0.69407138585E+03  0.74634701314E+03  0.27440622325E+03 0.  0.
         25    2    3    3    0    0  0.48917520740E+01 -0.17347686589E+02 -0.21078093581E+03  0.24653032176E+03  0.12658485365E+03 0.  0.
         25    2    3    3    0    0 -0.48917520740E+01  0.17347686589E+02 -0.48329045004E+03  0.49981669138E+03  0.12618317803E+03 0.  0.
          5    1    4    4  502    0  0.36243852906E+02 -0.27967640128E+02 -0.15729985559E+02  0.48634640057E+02  0.47000000000E+01 0.  1.
         -5    1    4    4    0  502 -0.31352100832E+02  0.10619953539E+02 -0.19505095026E+03  0.19789568170E+03  0.47000000000E+01 0.  1.
          5    1    5    5  503    0 -0.68342978317E+01 -0.38856117649E+02 -0.38037241723E+03  0.38244185349E+03  0.47000000000E+01 0. -1.
         -5    1    5    5    0  503  0.19425457577E+01  0.56203804237E+02 -0.10291803281E+03  0.11737483790E+03  0.47000000000E+01 0. -1.
<mgrwt>
<rscale>  0 0.27440622E+03</rscale>
<asrwt>0</asrwt>
<pdfrwt beam="1">  1        2 0.40212017E-02 0.27440622E+03</pdfrwt>
<pdfrwt beam="2">  1       -2 0.11080143E+00 0.27440622E+03</pdfrwt>
<totfact> 0.14154695E+03</totfact>
</mgrwt>
</event>
<event>
 9    1  0.2051157E-002  0.2756475E+03  0.7818608E-02  0.1098090E+00
         -4   -1    0    0    0  501 -0.00000000000E+00  0.00000000000E+00  0.40420047438E+02  0.40420047438E+02  0.00000000000E+00 0.  1.
          4   -1    0    0  501    0  0.00000000000E+00 -0.00000000000E+00 -0.46994968010E+03  0.46994968010E+03  0.00000000000E+00 0.  1.
         36    2    1    2    0    0  0.35527136788E-14  0.35527136788E-14 -0.42952963267E+03  0.51036972754E+03  0.27564751668E+03 0.  0.
         25    2    3    3    0    0 -0.14432135833E+02  0.29043411376E+02 -0.21755628901E+03  0.25548009817E+03  0.12995205034E+03 0.  0.
         25    2    3    3    0    0  0.14432135833E+02 -0.29043411376E+02 -0.21197334366E+03  0.25488962937E+03  0.13778322993E+03 0.  0.
          5    1    4    4  502    0 -0.21668710541E+02  0.21723700893E+02 -0.23370732931E+03  0.23575974629E+03  0.47000000000E+01 0. -1.
         -5    1    4    4    0  502  0.72365747077E+01  0.73197104838E+01  0.16151040310E+02  0.19720351877E+02  0.47000000000E+01 0. -1.
          5    1    5    5  503    0 -0.15242533753E+02 -0.74253194943E+02 -0.17026030757E+03  0.18643104390E+03  0.47000000000E+01 0.  1.
         -5    1    5    5    0  503  0.29674669586E+02  0.45209783566E+02 -0.41713036089E+02  0.68458585473E+02  0.47000000000E+01 0.  1.
<mgrwt>
<rscale>  0 0.27564752E+03</rscale>
<asrwt>0</asrwt>
<pdfrwt beam="1">  1        4 0.72299954E-01 0.27564752E+03</pdfrwt>
<pdfrwt beam="2">  1       -4 0.62184686E-02 0.27564752E+03</pdfrwt>
<totfact> 0.55737851E+02</totfact>
</mgrwt>
</event>
<event>
 9    1  0.2051157E-002  0.2746351E+03  0.7818608E-02  0.1098656E+00
          4   -1    0    0  501    0  0.00000000000E+00  0.00000000000E+00  0.23427793095E+03  0.23427793095E+03  0.00000000000E+00 0. -1.
         -4   -1    0    0    0  501 -0.00000000000E+00 -0.00000000000E+00 -0.80486044490E+02  0.80486044490E+02  0.00000000000E+00 0. -1.
         36    2    1    2    0    0  0.00000000000E+00  0.00000000000E+00  0.15379188646E+03  0.31476397544E+03  0.27463505948E+03 0.  0.
         25    2    3    3    0    0  0.32491025500E+02 -0.36670511014E+02  0.94856803755E+02  0.16752839366E+03  0.12910289055E+03 0.  0.
         25    2    3    3    0    0 -0.32491025500E+02  0.36670511014E+02  0.58935082704E+02  0.14723558178E+03  0.12571626566E+03 0.  0.
          5    1    4    4  502    0 -0.35214601605E+02 -0.69644279591E+01  0.85507482886E+02  0.92855754009E+02  0.47000000000E+01 0.  1.
         -5    1    4    4    0  502  0.67705627105E+02 -0.29706083055E+02  0.93493208694E+01  0.74672639654E+02  0.47000000000E+01 0.  1.
          5    1    5    5  503    0  0.40836711980E+02  0.26454654907E+02  0.54069933627E+02  0.72891244563E+02  0.47000000000E+01 0. -1.
         -5    1    5    5    0  503 -0.73327737481E+02  0.10215856107E+02  0.48651490773E+01  0.74344337213E+02  0.47000000000E+01 0. -1.
<mgrwt>
<rscale>  0 0.27463506E+03</rscale>
<asrwt>0</asrwt>
<pdfrwt beam="1">  1        4 0.36042758E-01 0.27463506E+03</pdfrwt>
<pdfrwt beam="2">  1       -4 0.12382469E-01 0.27463506E+03</pdfrwt>
<totfact> 0.73678390E+02</totfact>
</mgrwt>
</event>
<event>
 9    1  0.2051157E-002  0.2720640E+03  0.7818608E-02  0.1100104E+00
          4   -1    0    0  501    0  0.00000000000E+00  0.00000000000E+00  0.70307037621E+03  0.70307037621E+03  0.00000000000E+00 0.  1.
         -4   -1    0    0    0  501 -0.00000000000E+00 -0.00000000000E+00 -0.26319844040E+02  0.26319844040E+02  0.00000000000E+00 0.  1.
         36    2    1    2    0    0 -0.71054273576E-14  0.00000000000E+00  0.67675053217E+03  0.72939022025E+03  0.27206398256E+03 0.  0.
         25    2    3    3    0    0  0.38711098810E+02 -0.50834302696E+02  0.27345657842E+03  0.30736931410E+03  0.12495887109E+03 0.  0.
         25    2    3    3    0    0 -0.38711098810E+02  0.50834302696E+02  0.40329395374E+03  0.42202090615E+03  0.10664406501E+03 0.  0.
          5    1    4    4  502    0  0.32448522829E+02  0.10610779282E+02  0.88089167730E+01  0.35569400971E+02  0.47000000000E+01 0.  1.
         -5    1    4    4    0  502  0.62625759805E+01 -0.61445081978E+02  0.26464766165E+03  0.27179991313E+03  0.47000000000E+01 0.  1.
          5    1    5    5  503    0 -0.59052088766E+02  0.23378166208E+02  0.36487254250E+03  0.37038864739E+03  0.47000000000E+01 0.  1.
         -5    1    5    5    0  503  0.20340989956E+02  0.27456136488E+02  0.38421411245E+02  0.51632258767E+02  0.47000000000E+01 0.  1.
<mgrwt>
<rscale>  0 0.27206398E+03</rscale>
<asrwt>0</asrwt>
<pdfrwt beam="1">  1        4 0.10816466E+00 0.27206398E+03</pdfrwt>
<pdfrwt beam="2">  1       -4 0.40492073E-02 0.27206398E+03</pdfrwt>
<totfact> 0.44486564E+02</totfact>
</mgrwt>
</event>
<event>
 9    1  0.2051157E-002  0.2752434E+03  0.7818608E-02  0.1098316E+00
         -2   -1    0    0    0  501 -0.00000000000E+00  0.00000000000E+00  0.26059839373E+02  0.26059839373E+02  0.00000000000E+00 0. -1.
          2   -1    0    0  501    0  0.00000000000E+00 -0.00000000000E+00 -0.72677838913E+03  0.72677838913E+03  0.00000000000E+00 0. -1.
         36    2    1    2    0    0  0.35527136788E-14  0.00000000000E+00 -0.70071854976E+03  0.75283822850E+03  0.27524336926E+03 0.  0.
         25    2    3    3    0    0  0.21967650243E+02 -0.44445803293E+02 -0.27139080071E+03  0.30286789569E+03  0.12497195063E+03 0.  0.
         25    2    3    3    0    0 -0.21967650243E+02  0.44445803293E+02 -0.42932774905E+03  0.44997033281E+03  0.12527161378E+03 0.  0.
          5    1    4    4  502    0  0.18307996540E+02  0.46417088241E+00  0.74859396241E+01  0.20335375186E+02  0.47000000000E+01 0.  1.
         -5    1    4    4    0  502  0.36596537034E+01 -0.44909974176E+02 -0.27887674033E+03  0.28253252051E+03  0.47000000000E+01 0.  1.
          5    1    5    5  503    0 -0.26099263275E+00  0.33223066945E+01 -0.38660700167E+03  0.38664993157E+03  0.47000000000E+01 0. -1.
         -5    1    5    5    0  503 -0.21706657610E+02  0.41123496599E+02 -0.42720747377E+02  0.63320401243E+02  0.47000000000E+01 0. -1.
<mgrwt>
<rscale>  0 0.27524337E+03</rscale>
<asrwt>0</asrwt>
<pdfrwt beam="1">  1        2 0.11181205E+00 0.27524337E+03</pdfrwt>
<pdfrwt beam="2">  1       -2 0.40092064E-02 0.27524337E+03</pdfrwt>
<totfact> 0.10926033E+04</totfact>
</mgrwt>
</event>
<event>
 9    1  0.2051157E-002  0.2759405E+03  0.7818608E-02  0.1097927E+00
          1   -1    0    0  501    0  0.00000000000E+00  0.00000000000E+00  0.76147075206E+03  0.76147075206E+03  0.00000000000E+00 0.  1.
         -1   -1    0    0    0  501 -0.00000000000E+00 -0.00000000000E+00 -0.24998714916E+02  0.24998714916E+02  0.00000000000E+00 0.  1.
         36    2    1    2    0    0  0.00000000000E+00  0.26645352591E-14  0.73647203714E+03  0.78646946697E+03  0.27594050262E+03 0.  0.
         25    2    3    3    0    0  0.19173772491E+02  0.61663318944E+01  0.45434593131E+03  0.47711584677E+03  0.14423470022E+03 0.  0.
         25    2    3    3    0    0 -0.19173772491E+02 -0.61663318944E+01  0.28212610583E+03  0.30935362020E+03  0.12529511377E+03 0.  0.
          5    1    4    4  502    0  0.22855814304E+01 -0.46503362421E+01 -0.10060015711E+02  0.12253302647E+02  0.47000000000E+01 0. -1.
         -5    1    4    4    0  502  0.16888191061E+02  0.10816668136E+02  0.46440594702E+03  0.46486254413E+03  0.47000000000E+01 0. -1.
          5    1    5    5  503    0  0.23081916488E+02  0.47296053257E+02  0.17037205162E+03  0.17837717762E+03  0.47000000000E+01 0. -1.
         -5    1    5    5    0  503 -0.42255688979E+02 -0.53462385151E+02  0.11175405422E+03  0.13097644258E+03  0.47000000000E+01 0. -1.
<mgrwt>
<rscale>  0 0.27594050E+03</rscale>
<asrwt>0</asrwt>
<pdfrwt beam="1">  1        1 0.11714933E+00 0.27594050E+03</pdfrwt>
<pdfrwt beam="2">  1       -1 0.38459567E-02 0.27594050E+03</pdfrwt>
<totfact> 0.64682714E+03</totfact>
</mgrwt>
</event>
<event>
 9    1  0.2051157E-002  0.2745283E+03  0.7818608E-02  0.1098716E+00
         -1   -1    0    0    0  501 -0.00000000000E+00  0.00000000000E+00  0.31530836360E+02  0.31530836360E+02  0.00000000000E+00 0.  1.
          1   -1    0    0  501    0  0.00000000000E+00 -0.00000000000E+00 -0.59755638890E+03  0.59755638890E+03  0.00000000000E+00 0.  1.
         36    2    1    2    0    0 -0.35527136788E-14 -0.14210854715E-13 -0.56602555254E+03  0.62908722526E+03  0.27452834254E+03 0.  0.
         25    2    3    3    0    0 -0.36751393911E+01 -0.36283271448E+02 -0.18794340867E+03  0.22894245147E+03  0.12554656023E+03 0.  0.
         25    2    3    3    0    0  0.36751393911E+01  0.36283271448E+02 -0.37808214387E+03  0.40014477379E+03  0.12585606875E+03 0.  0.
          5    1    4    4  502    0 -0.23758331773E+02 -0.74884740538E+02 -0.15609724694E+03  0.17481596951E+03  0.47000000000E+01 0. -1.
         -5    1    4    4    0  502  0.20083192382E+02  0.38601469090E+02 -0.31846161728E+02  0.54126481956E+02  0.47000000000E+01 0. -1.
          5    1    5    5  503    0 -0.16705298462E+02  0.28469381951E+02 -0.37626968520E+03  0.37774401214E+03  0.47000000000E+01 0.  1.
         -5    1    5    5    0  503  0.20380437853E+02  0.78138894971E+01 -0.18124586701E+01  0.22400761652E+02  0.47000000000E+01 0.  1.
<mgrwt>
<rscale>  0 0.27452834E+03</rscale>
<asrwt>0</asrwt>
<pdfrwt beam="1">  1        1 0.91931745E-01 0.27452834E+03</pdfrwt>
<pdfrwt beam="2">  1       -1 0.48508983E-02 0.27452834E+03</pdfrwt>
<totfact> 0.64910221E+03</totfact>
</mgrwt>
</event>
<event>
 9    1  0.2051157E-002  0.2757113E+03  0.7818608E-02  0.1098055E+00
         -1   -1    0    0    0  501 -0.00000000000E+00  0.00000000000E+00  0.91106329061E+03  0.91106329061E+03  0.00000000000E+00 0.  1.
          1   -1    0    0  501    0  0.00000000000E+00 -0.00000000000E+00 -0.20859343449E+02  0.20859343449E+02  0.00000000000E+00 0.  1.
         36    2    1    2    0    0  0.17763568394E-14  0.26645352591E-14  0.89020394716E+03  0.93192263406E+03  0.27571131339E+03 0.  0.
         25    2    3    3    0    0  0.14748736508E+01  0.37853438419E+01  0.64120713006E+03  0.65319300819E+03  0.12449103672E+03 0.  0.
         25    2    3    3    0    0 -0.14748736508E+01 -0.37853438419E+01  0.24899681710E+03  0.27872962587E+03  0.12519698611E+03 0.  0.
          5    1    4    4  502    0  0.15865646967E+02 -0.35377106710E+02  0.56363827449E+03  0.56498978124E+03  0.47000000000E+01 0. -1.
         -5    1    4    4    0  502 -0.14390773316E+02  0.39162450552E+02  0.77568855575E+02  0.88203226954E+02  0.47000000000E+01 0. -1.
          5    1    5    5  503    0  0.48144945925E+02 -0.33099034652E+01  0.37108251443E+02  0.61057379605E+02  0.47000000000E+01 0.  1.
         -5    1    5    5    0  503 -0.49619819576E+02 -0.47544037671E+00  0.21188856566E+03  0.21767224627E+03  0.47000000000E+01 0.  1.
<mgrwt>
<rscale>  0 0.27571131E+03</rscale>
<asrwt>0</asrwt>
<pdfrwt beam="1">  1        1 0.32091305E-02 0.27571131E+03</pdfrwt>
<pdfrwt beam="2">  1       -1 0.14016355E+00 0.27571131E+03</pdfrwt>
<totfact> 0.13965537E+03</totfact>
</mgrwt>
</event>
<event>
 9    1  0.2051157E-002  0.2707363E+03  0.7818608E-02  0.1100859E+00
         -3   -1    0    0    0  501 -0.00000000000E+00  0.00000000000E+00  0.33070119143E+02  0.33070119143E+02  0.00000000000E+00 0.  1.
          3   -1    0    0  501    0  0.00000000000E+00 -0.00000000000E+00 -0.55411162453E+03  0.55411162453E+03  0.00000000000E+00 0.  1.
         36    2    1    2    0    0  0.00000000000E+00 -0.35527136788E-14 -0.52104150539E+03  0.58718174367E+03  0.27073631039E+03 0.  0.
         25    2    3    3    0    0 -0.37578331993E+02  0.27516446662E+02 -0.30843607252E+03  0.33733120492E+03  0.12841434931E+03 0.  0.
         25    2    3    3    0    0  0.37578331993E+02 -0.27516446662E+02 -0.21260543287E+03  0.24985053876E+03  0.12269855646E+03 0.  0.
          5    1    4    4  502    0 -0.41839957795E+02 -0.41695485454E+02 -0.87145062356E+02  0.10538238690E+03  0.47000000000E+01 0.  1.
         -5    1    4    4    0  502  0.42616258021E+01  0.69211932116E+02 -0.22129101016E+03  0.23194881802E+03  0.47000000000E+01 0.  1.
          5    1    5    5  503    0  0.17913826306E+02  0.20123044217E+02 -0.19233563983E+03  0.19427025102E+03  0.47000000000E+01 0.  1.
         -5    1    5    5    0  503  0.19664505687E+02 -0.47639490879E+02 -0.20269793039E+02  0.55580287737E+02  0.47000000000E+01 0.  1.
<mgrwt>
<rscale>  0 0.27073631E+03</rscale>
<asrwt>0</asrwt>
<pdfrwt beam="1">  1        3 0.85247939E-01 0.27073631E+03</pdfrwt>
<pdfrwt beam="2">  1       -3 0.50877108E-02 0.27073631E+03</pdfrwt>
<totfact> 0.72985594E+02</totfact>
</mgrwt>
</event>
<event>
 9    1  0.2051157E-002  0.2744222E+03  0.7818608E-02  0.1098775E+00
          2   -1    0    0  501    0  0.00000000000E+00  0.00000000000E+00  0.14337520006E+04  0.14337520006E+04  0.00000000000E+00 0. -1.
         -2   -1    0    0    0  501 -0.00000000000E+00 -0.00000000000E+00 -0.13131205321E+02  0.13131205321E+02  0.00000000000E+00 0. -1.
         36    2    1    2    0    0  0.00000000000E+00  0.00000000000E+00  0.14206207953E+04  0.14468832059E+04  0.27442224326E+03 0.  0.
         25    2    3    3    0    0 -0.17862037238E+02  0.19475320584E+02  0.95104568955E+03  0.95927714420E+03  0.12258219809E+03 0.  0.
         25    2    3    3    0    0  0.17862037238E+02 -0.19475320584E+02  0.46957510571E+03  0.48760606170E+03  0.12868780447E+03 0.  0.
          5    1    4    4  502    0 -0.16485578778E+02 -0.35520917018E+02  0.11827100153E+03  0.12467409377E+03  0.47000000000E+01 0. -1.
         -5    1    4    4    0  502 -0.13764584603E+01  0.54996237602E+02  0.83277468802E+03  0.83460305043E+03  0.47000000000E+01 0. -1.
          5    1    5    5  503    0 -0.30220168534E+02 -0.42045192431E+02  0.87143249640E+02  0.10147459165E+03  0.47000000000E+01 0. -1.
         -5    1    5    5    0  503  0.48082205772E+02  0.22569871847E+02  0.38243185607E+03  0.38613147005E+03  0.47000000000E+01 0. -1.
<mgrwt>
<rscale>  0 0.27442224E+03</rscale>
<asrwt>0</asrwt>
<pdfrwt beam="1">  1        2 0.22057711E+00 0.27442224E+03</pdfrwt>
<pdfrwt beam="2">  1       -2 0.20201866E-02 0.27442224E+03</pdfrwt>
<totfact> 0.11281433E+04</totfact>
</mgrwt>
</event>
<event>
 9    1  0.2051157E-002  0.2753184E+03  0.7818608E-02  0.1098274E+00
         -2   -1    0    0    0  501 -0.00000000000E+00  0.00000000000E+00  0.49141256751E+03  0.49141256751E+03  0.00000000000E+00 0. -1.
          2   -1    0    0  501    0  0.00000000000E+00 -0.00000000000E+00 -0.38562422977E+02  0.38562422977E+02  0.00000000000E+00 0. -1.
         36    2    1    2    0    0  0.17763568394E-14  0.00000000000E+00  0.45285014453E+03  0.52997499048E+03  0.27531842862E+03 0.  0.
         25    2    3    3    0    0 -0.13847739890E+02  0.46616638645E+02  0.29483830985E+03  0.32220976893E+03  0.12051819504E+03 0.  0.
         25    2    3    3    0    0  0.13847739890E+02 -0.46616638645E+02  0.15801183468E+03  0.20776522156E+03  0.12583233484E+03 0.  0.
          5    1    4    4  502    0 -0.17591112524E+02  0.75187995094E+01  0.27884839806E+03  0.27954337533E+03  0.47000000000E+01 0.  1.
         -5    1    4    4    0  502  0.37433726349E+01  0.39097839135E+02  0.15989911788E+02  0.42666393599E+02  0.47000000000E+01 0.  1.
          5    1    5    5  503    0  0.42029064408E+02 -0.22678517554E+02  0.27224243631E+01  0.48065153779E+02  0.47000000000E+01 0. -1.
         -5    1    5    5    0  503 -0.28181324518E+02 -0.23938121091E+02  0.15528941031E+03  0.15970006778E+03  0.47000000000E+01 0. -1.
<mgrwt>
<rscale>  0 0.27531843E+03</rscale>
<asrwt>0</asrwt>
<pdfrwt beam="1">  1        2 0.59326808E-02 0.27531843E+03</pdfrwt>
<pdfrwt beam="2">  1       -2 0.75601929E-01 0.27531843E+03</pdfrwt>
<totfact> 0.20191325E+03</totfact>
</mgrwt>
</event>
<event>
 9    1  0.2051157E-002  0.2744365E+03  0.7818608E-02  0.1098767E+00
          1   -1    0    0  501    0  0.00000000000E+00  0.00000000000E+00  0.30601957715E+04  0.30601957715E+04  0.00000000000E+00 0. -1.
         -1   -1    0    0    0  501 -0.00000000000E+00 -0.00000000000E+00 -0.61528247818E+01  0.61528247818E+01  0.00000000000E+00 0. -1.
         36    2    1    2    0    0  0.35527136788E-14  0.14210854715E-13  0.30540429467E+04  0.30663485963E+04  0.27443650180E+03 0.  0.
         25    2    3    3    0    0  0.14548479897E+02  0.35464059058E+02  0.20395677312E+04  0.20437705977E+04  0.12526918288E+03 0.  0.
         25    2    3    3    0    0 -0.14548479897E+02 -0.35464059058E+02  0.10144752155E+04  0.10225779986E+04  0.12262317277E+03 0.  0.
          5    1    4    4  502    0  0.64907261437E+02  0.74634347945E+01  0.14204716922E+04  0.14219812143E+04  0.47000000000E+01 0.  1.
         -5    1    4    4    0  502 -0.50358781541E+02  0.28000624263E+02  0.61909603903E+03  0.62178938346E+03  0.47000000000E+01 0.  1.
          5    1    5    5  503    0 -0.61601636595E+01 -0.68100345933E+02  0.91262860880E+03  0.91519870648E+03  0.47000000000E+01 0.  1.
         -5    1    5    5    0  503 -0.83883162372E+01  0.32636286875E+02  0.10184660672E+03  0.10737929210E+03  0.47000000000E+01 0.  1.
<mgrwt>
<rscale>  0 0.27443650E+03</rscale>
<asrwt>0</asrwt>
<pdfrwt beam="1">  1        1 0.47079813E+00 0.27443650E+03</pdfrwt>
<pdfrwt beam="2">  1       -1 0.94659087E-03 0.27443650E+03</pdfrwt>
<totfact> 0.13372650E+03</totfact>
</mgrwt>
</event>
<event>
 9    1  0.2051157E-002  0.2745343E+03  0.7818608E-02  0.1098712E+00
          4   -1    0    0  501    0  0.00000000000E+00  0.00000000000E+00  0.19599658466E+03  0.19599658466E+03  0.00000000000E+00 0. -1.
         -4   -1    0    0    0  501 -0.00000000000E+00 -0.00000000000E+00 -0.96135722321E+02  0.96135722321E+02  0.00000000000E+00 0. -1.
         36    2    1    2    0    0  0.00000000000E+00  0.00000000000E+00  0.99860862337E+02  0.29213230698E+03  0.27453432018E+03 0.  0.
         25    2    3    3    0    0 -0.21696815978E+02  0.26038557802E+02  0.90380256145E+02  0.16224321648E+03  0.13040518501E+03 0.  0.
         25    2    3    3    0    0  0.21696815978E+02 -0.26038557802E+02  0.94806061922E+01  0.12988909050E+03  0.12503013885E+03 0.  0.
          5    1    4    4  502    0 -0.30575446499E+02  0.52803613317E+00  0.11879494917E+03  0.12275775617E+03  0.47000000000E+01 0. -1.
         -5    1    4    4    0  502  0.88786305210E+01  0.25510521669E+02 -0.28414693029E+02  0.39485460308E+02  0.47000000000E+01 0. -1.
          5    1    5    5  503    0  0.59457736962E+02  0.83769637814E+00 -0.31842469876E+02  0.67616248844E+02  0.47000000000E+01 0. -1.
         -5    1    5    5    0  503 -0.37760920984E+02 -0.26876254181E+02  0.41323076069E+02  0.62272841657E+02  0.47000000000E+01 0. -1.
<mgrwt>
<rscale>  0 0.27453432E+03</rscale>
<asrwt>0</asrwt>
<pdfrwt beam="1">  1        4 0.30153321E-01 0.27453432E+03</pdfrwt>
<pdfrwt beam="2">  1       -4 0.14790111E-01 0.27453432E+03</pdfrwt>
<totfact> 0.76277771E+02</totfact>
</mgrwt>
</event>
<event>
 9    1  0.2051157E-002  0.2749198E+03  0.7818608E-02  0.1098496E+00
          1   -1    0    0  501    0  0.00000000000E+00  0.00000000000E+00  0.22395318818E+03  0.22395318818E+03  0.00000000000E+00 0. -1.
         -1   -1    0    0    0  501 -0.00000000000E+00 -0.00000000000E+00 -0.84371284805E+02  0.84371284805E+02  0.00000000000E+00 0. -1.
         36    2    1    2    0    0 -0.35527136788E-14  0.00000000000E+00  0.13958190337E+03  0.30832447298E+03  0.27491975719E+03 0.  0.
         25    2    3    3    0    0 -0.14116341123E+02 -0.59481966179E+02  0.74693132942E+02  0.15724028071E+03  0.12412923258E+03 0.  0.
         25    2    3    3    0    0  0.14116341123E+02  0.59481966179E+02  0.64888770430E+02  0.15108419227E+03  0.12197747841E+03 0.  0.
          5    1    4    4  502    0  0.50292509672E+02 -0.31263712765E+01  0.41043834077E+02  0.65159780864E+02  0.47000000000E+01 0.  1.
         -5    1    4    4    0  502 -0.64408850796E+02 -0.56355594902E+02  0.33649298864E+02  0.92080499845E+02  0.47000000000E+01 0.  1.
          5    1    5    5  503    0 -0.12575373284E+02  0.84344550535E+01 -0.33450944927E+02  0.37018046434E+02  0.47000000000E+01 0.  1.
         -5    1    5    5    0  503  0.26691714408E+02  0.51047511125E+02  0.98339715356E+02  0.11406614584E+03  0.47000000000E+01 0.  1.
<mgrwt>
<rscale>  0 0.27491976E+03</rscale>
<asrwt>0</asrwt>
<pdfrwt beam="1">  1        1 0.34454336E-01 0.27491976E+03</pdfrwt>
<pdfrwt beam="2">  1       -1 0.12980198E-01 0.27491976E+03</pdfrwt>
<totfact> 0.51037280E+03</totfact>
</mgrwt>
</event>
<event>
 9    1  0.2051157E-002  0.2744230E+03  0.7818608E-02  0.1098775E+00
          2   -1    0    0  501    0  0.00000000000E+00  0.00000000000E+00  0.16165376854E+04  0.16165376854E+04  0.00000000000E+00 0.  1.
         -2   -1    0    0    0  501 -0.00000000000E+00 -0.00000000000E+00 -0.11646492078E+02  0.11646492078E+02  0.00000000000E+00 0.  1.
         36    2    1    2    0    0  0.00000000000E+00  0.71054273576E-14  0.16048911933E+04  0.16281841775E+04  0.27442298262E+03 0.  0.
         25    2    3    3    0    0 -0.32094330065E+02 -0.46060178216E+02  0.68756207507E+03  0.70116239687E+03  0.12544127577E+03 0.  0.
         25    2    3    3    0    0  0.32094330065E+02  0.46060178216E+02  0.91732911825E+03  0.92702178061E+03  0.12134695915E+03 0.  0.
          5    1    4    4  502    0 -0.52664119604E+02  0.25859442750E+02  0.22518981712E+03  0.23275472929E+03  0.47000000000E+01 0.  1.
         -5    1    4    4    0  502  0.20569789539E+02 -0.71919620966E+02  0.46237225795E+03  0.46840766758E+03  0.47000000000E+01 0.  1.
          5    1    5    5  503    0  0.55389454660E+02 -0.18333340517E+02  0.56838084025E+03  0.57138688524E+03  0.47000000000E+01 0. -1.
         -5    1    5    5    0  503 -0.23295124595E+02  0.64393518733E+02  0.34894827800E+03  0.35563489537E+03  0.47000000000E+01 0. -1.
<mgrwt>
<rscale>  0 0.27442298E+03</rscale>
<asrwt>0</asrwt>
<pdfrwt beam="1">  1        2 0.24869793E+00 0.27442298E+03</pdfrwt>
<pdfrwt beam="2">  1       -2 0.17917693E-02 0.27442298E+03</pdfrwt>
<totfact> 0.10747987E+04</totfact>
</mgrwt>
</event>
<event>
 9    1  0.2051157E-002  0.2752379E+03  0.7818608E-02  0.1098319E+00
          1   -1    0    0  501    0  0.00000000000E+00  0.00000000000E+00  0.16530795475E+03  0.16530795475E+03  0.00000000000E+00 0. -1.
         -1   -1    0    0    0  501 -0.00000000000E+00 -0.00000000000E+00 -0.11456788216E+03  0.11456788216E+03  0.00000000000E+00 0. -1.
         36    2    1    2    0    0  0.00000000000E+00  0.71054273576E-14  0.50740072591E+02  0.27987583691E+03  0.27523794999E+03 0.  0.
         25    2    3    3    0    0  0.33052408341E+02 -0.48596828173E+02  0.67205826736E+01  0.13504793423E+03  0.12140290319E+03 0.  0.
         25    2    3    3    0    0 -0.33052408341E+02  0.48596828173E+02  0.44019489917E+02  0.14482790267E+03  0.12483305850E+03 0.  0.
          5    1    4    4  502    0 -0.65241886326E+01  0.37391934581E+02 -0.81695767108E+01  0.39109510258E+02  0.47000000000E+01 0.  1.
         -5    1    4    4    0  502  0.39576596974E+02 -0.85988762754E+02  0.14890159384E+02  0.95938423974E+02  0.47000000000E+01 0.  1.
          5    1    5    5  503    0 -0.38090546038E+02  0.80156015742E+02 -0.16538440056E+01  0.88885891778E+02  0.47000000000E+01 0. -1.
         -5    1    5    5    0  503  0.50381376970E+01 -0.31559187569E+02  0.45673333923E+02  0.55942010896E+02  0.47000000000E+01 0. -1.
<mgrwt>
<rscale>  0 0.27523795E+03</rscale>
<asrwt>0</asrwt>
<pdfrwt beam="1">  1        1 0.25431993E-01 0.27523795E+03</pdfrwt>
<pdfrwt beam="2">  1       -1 0.17625828E-01 0.27523795E+03</pdfrwt>
<totfact> 0.46074400E+03</totfact>
</mgrwt>
</event>
<event>
 9    1  0.2051157E-002  0.2748216E+03  0.7818608E-02  0.1098551E+00
         -2   -1    0    0    0  501 -0.00000000000E+00  0.00000000000E+00  0.52027639610E+03  0.52027639610E+03  0.00000000000E+00 0.  1.
          2   -1    0    0  501    0  0.00000000000E+00 -0.00000000000E+00 -0.36291737380E+02  0.36291737380E+02  0.00000000000E+00 0.  1.
         36    2    1    2    0    0  0.00000000000E+00  0.00000000000E+00  0.48398465872E+03  0.55656813348E+03  0.27482164640E+03 0.  0.
         25    2    3    3    0    0  0.39426519899E+01 -0.66288952554E+02  0.15946821790E+03  0.20154939787E+03  0.10383774614E+03 0.  0.
         25    2    3    3    0    0 -0.39426519899E+01  0.66288952554E+02  0.32451644081E+03  0.35501873561E+03  0.12774041076E+03 0.  0.
          5    1    4    4  502    0  0.43977087883E+02 -0.69968916217E+02  0.10634508923E+03  0.13476276006E+03  0.47000000000E+01 0. -1.
         -5    1    4    4    0  502 -0.40034435894E+02  0.36799636630E+01  0.53123128676E+02  0.66786637812E+02  0.47000000000E+01 0. -1.
          5    1    5    5  503    0 -0.51847967068E+02 -0.83119833178E-01  0.67515724437E+02  0.85256563643E+02  0.47000000000E+01 0. -1.
         -5    1    5    5    0  503  0.47905315078E+02  0.66372072387E+02  0.25700071638E+03  0.26976217197E+03  0.47000000000E+01 0. -1.
<mgrwt>
<rscale>  0 0.27482165E+03</rscale>
<asrwt>0</asrwt>
<pdfrwt beam="1">  1        2 0.55833446E-02 0.27482165E+03</pdfrwt>
<pdfrwt beam="2">  1       -2 0.80042517E-01 0.27482165E+03</pdfrwt>
<totfact> 0.19287710E+03</totfact>
</mgrwt>
</event>
<event>
 9    1  0.2051157E-002  0.2743618E+03  0.7818608E-02  0.1098809E+00
         -1   -1    0    0    0  501 -0.00000000000E+00  0.00000000000E+00  0.89947643606E+02  0.89947643606E+02  0.00000000000E+00 0. -1.
          1   -1    0    0  501    0  0.00000000000E+00 -0.00000000000E+00 -0.20921722841E+03  0.20921722841E+03  0.00000000000E+00 0. -1.
         36    2    1    2    0    0 -0.71054273576E-14  0.00000000000E+00 -0.11926958480E+03  0.29916487201E+03  0.27436178084E+03 0.  0.
         25    2    3    3    0    0  0.19253834417E+02 -0.38679614571E+02 -0.96435184029E+02  0.16532239990E+03  0.12714137198E+03 0.  0.
         25    2    3    3    0    0 -0.19253834417E+02  0.38679614571E+02 -0.22834400771E+02  0.13384247211E+03  0.12460166435E+03 0.  0.
          5    1    4    4  502    0  0.56457934691E+02 -0.61287456693E+02 -0.86940694482E+02  0.12051732280E+03  0.47000000000E+01 0. -1.
         -5    1    4    4    0  502 -0.37204100274E+02  0.22607842122E+02 -0.94944895470E+01  0.44805077105E+02  0.47000000000E+01 0. -1.
          5    1    5    5  503    0 -0.51477518977E+02  0.59053300044E+02 -0.44010780596E+02  0.89979253247E+02  0.47000000000E+01 0. -1.
         -5    1    5    5    0  503  0.32223684560E+02 -0.20373685473E+02  0.21176379826E+02  0.43863218862E+02  0.47000000000E+01 0. -1.
<mgrwt>
<rscale>  0 0.27436178E+03</rscale>
<asrwt>0</asrwt>
<pdfrwt beam="1">  1        1 0.32187266E-01 0.27436178E+03</pdfrwt>
<pdfrwt beam="2">  1       -1 0.13838099E-01 0.27436178E+03</pdfrwt>
<totfact> 0.50268533E+03</totfact>
</mgrwt>
</event>
<event>
 9    1  0.2051157E-002  0.2749831E+03  0.7818608E-02  0.1098461E+00
          1   -1    0    0  501    0  0.00000000000E+00  0.00000000000E+00  0.32411682212E+03  0.32411682212E+03  0.00000000000E+00 0.  1.
         -1   -1    0    0    0  501 -0.00000000000E+00 -0.00000000000E+00 -0.58324411648E+02  0.58324411648E+02  0.00000000000E+00 0.  1.
         36    2    1    2    0    0  0.71054273576E-14  0.35527136788E-14  0.26579241047E+03  0.38244123377E+03  0.27498307552E+03 0.  0.
         25    2    3    3    0    0  0.23391304358E+02  0.12833060342E+02  0.78899660713E+02  0.15684988801E+03  0.13290933131E+03 0.  0.
         25    2    3    3    0    0 -0.23391304358E+02 -0.12833060342E+02  0.18689274976E+03  0.22559134576E+03  0.12349378451E+03 0.  0.
          5    1    4    4  502    0  0.76942090439E+02 -0.52247796504E+01  0.33523740171E+02  0.84221818779E+02  0.47000000000E+01 0.  1.
         -5    1    4    4    0  502 -0.53550786080E+02  0.18057839992E+02  0.45375920542E+02  0.72628069230E+02  0.47000000000E+01 0.  1.
          5    1    5    5  503    0 -0.62448200916E+02 -0.43503957112E+02  0.11924830357E+03  0.14154370345E+03  0.47000000000E+01 0.  1.
         -5    1    5    5    0  503  0.39056896558E+02  0.30670896770E+02  0.67644446187E+02  0.84047642307E+02  0.47000000000E+01 0.  1.
<mgrwt>
<rscale>  0 0.27498308E+03</rscale>
<asrwt>0</asrwt>
<pdfrwt beam="1">  1        1 0.49864125E-01 0.27498308E+03</pdfrwt>
<pdfrwt beam="2">  1       -1 0.89729866E-02 0.27498308E+03</pdfrwt>
<totfact> 0.56899086E+03</totfact>
</mgrwt>
</event>
<event>
 9    1  0.2051157E-002  0.2715601E+03  0.7818608E-02  0.1100390E+00
          2   -1    0    0  501    0  0.00000000000E+00  0.00000000000E+00  0.12651534000E+04  0.12651534000E+04  0.00000000000E+00 0.  1.
         -2   -1    0    0    0  501 -0.00000000000E+00 -0.00000000000E+00 -0.14572317286E+02  0.14572317286E+02  0.00000000000E+00 0.  1.
         36    2    1    2    0    0  0.00000000000E+00  0.00000000000E+00  0.12505810827E+04  0.12797257173E+04  0.27156006157E+03 0.  0.
         25    2    3    3    0    0  0.31212871484E+01 -0.22340538593E+02  0.37965953038E+03  0.40024264652E+03  0.12467547867E+03 0.  0.
         25    2    3    3    0    0 -0.31212871484E+01  0.22340538593E+02  0.87092155233E+03  0.87948307077E+03  0.12032156647E+03 0.  0.
          5    1    4    4  502    0 -0.91128594949E+00  0.36050624386E+02  0.29488144756E+03  0.29711552648E+03  0.47000000000E+01 0.  1.
         -5    1    4    4    0  502  0.40325730979E+01 -0.58391162978E+02  0.84778082822E+02  0.10312712003E+03  0.47000000000E+01 0.  1.
          5    1    5    5  503    0 -0.35350264960E+01 -0.43358235794E+02  0.17251690153E+03  0.17797922445E+03  0.47000000000E+01 0. -1.
         -5    1    5    5    0  503  0.41373934764E+00  0.65698774386E+02  0.69840465080E+03  0.70150384632E+03  0.47000000000E+01 0. -1.
<mgrwt>
<rscale>  0 0.27156006E+03</rscale>
<asrwt>0</asrwt>
<pdfrwt beam="1">  1        2 0.19463890E+00 0.27156006E+03</pdfrwt>
<pdfrwt beam="2">  1       -2 0.22418960E-02 0.27156006E+03</pdfrwt>
<totfact> 0.11969214E+04</totfact>
</mgrwt>
</event>
<event>
 9    1  0.2051157E-002  0.2753854E+03  0.7818608E-02  0.1098236E+00
         -2   -1    0    0    0  501 -0.00000000000E+00  0.00000000000E+00  0.24213896207E+03  0.24213896207E+03  0.00000000000E+00 0. -1.
          2   -1    0    0  501    0  0.00000000000E+00 -0.00000000000E+00 -0.78299165588E+02  0.78299165588E+02  0.00000000000E+00 0. -1.
         36    2    1    2    0    0 -0.71054273576E-14  0.00000000000E+00  0.16383979648E+03  0.32043812766E+03  0.27538539312E+03 0.  0.
         25    2    3    3    0    0  0.62790787751E+02  0.37186030019E+02  0.73848042933E+02  0.15999014550E+03  0.12172850676E+03 0.  0.
         25    2    3    3    0    0 -0.62790787751E+02 -0.37186030019E+02  0.89991753549E+02  0.16044798216E+03  0.11099349267E+03 0.  0.
          5    1    4    4  502    0  0.89038462365E+02  0.59452174008E+02  0.54547150336E+02  0.12024928434E+03  0.47000000000E+01 0. -1.
         -5    1    4    4    0  502 -0.26247674614E+02 -0.22266143989E+02  0.19300892598E+02  0.39740861161E+02  0.47000000000E+01 0. -1.
          5    1    5    5  503    0 -0.77944198107E+02 -0.15369808366E+02  0.15309353385E+02  0.81043169538E+02  0.47000000000E+01 0.  1.
         -5    1    5    5    0  503  0.15153410356E+02 -0.21816221653E+02  0.74682400164E+02  0.79404812618E+02  0.47000000000E+01 0.  1.
<mgrwt>
<rscale>  0 0.27538539E+03</rscale>
<asrwt>0</asrwt>
<pdfrwt beam="1">  1        2 0.12046026E-01 0.27538539E+03</pdfrwt>
<pdfrwt beam="2">  1       -2 0.37252148E-01 0.27538539E+03</pdfrwt>
<totfact> 0.34558413E+03</totfact>
</mgrwt>
</event>
<event>
 9    1  0.2051157E-002  0.2735832E+03  0.7818608E-02  0.1099246E+00
          1   -1    0    0  501    0  0.00000000000E+00  0.00000000000E+00  0.16694248118E+03  0.16694248118E+03  0.00000000000E+00 0.  1.
         -1   -1    0    0    0  501 -0.00000000000E+00 -0.00000000000E+00 -0.11208619979E+03  0.11208619979E+03  0.00000000000E+00 0.  1.
         36    2    1    2    0    0  0.00000000000E+00 -0.71054273576E-14  0.54856281396E+02  0.27902868097E+03  0.27358324728E+03 0.  0.
         25    2    3    3    0    0 -0.50483685967E+02  0.21262986724E+02  0.37129101002E+02  0.14103629743E+03  0.12454697868E+03 0.  0.
         25    2    3    3    0    0  0.50483685967E+02 -0.21262986724E+02  0.17727180394E+02  0.13799238354E+03  0.12540704859E+03 0.  0.
          5    1    4    4  502    0  0.24729076388E+02  0.35922018872E+02  0.46228878769E+02  0.63726900844E+02  0.47000000000E+01 0.  1.
         -5    1    4    4    0  502 -0.75212762356E+02 -0.14659032149E+02 -0.90997777665E+01  0.77309396584E+02  0.47000000000E+01 0.  1.
          5    1    5    5  503    0  0.21315160562E+02 -0.51180827365E+01  0.71287096718E+02  0.74729318204E+02  0.47000000000E+01 0. -1.
         -5    1    5    5    0  503  0.29168525405E+02 -0.16144903987E+02 -0.53559916324E+02  0.63263065336E+02  0.47000000000E+01 0. -1.
<mgrwt>
<rscale>  0 0.27358325E+03</rscale>
<asrwt>0</asrwt>
<pdfrwt beam="1">  1        1 0.25683459E-01 0.27358325E+03</pdfrwt>
<pdfrwt beam="2">  1       -1 0.17244031E-01 0.27358325E+03</pdfrwt>
<totfact> 0.47120977E+03</totfact>
</mgrwt>
</event>
<event>
 9    1  0.2051157E-002  0.2686178E+03  0.7818608E-02  0.1102073E+00
         -2   -1    0    0    0  501 -0.00000000000E+00  0.00000000000E+00  0.23254052763E+02  0.23254052763E+02  0.00000000000E+00 0.  1.
          2   -1    0    0  501    0  0.00000000000E+00 -0.00000000000E+00 -0.77573050321E+03  0.77573050321E+03  0.00000000000E+00 0.  1.
         36    2    1    2    0    0  0.00000000000E+00  0.00000000000E+00 -0.75247645045E+03  0.79898455598E+03  0.26861778088E+03 0.  0.
         25    2    3    3    0    0  0.55000122377E+02 -0.11261887486E+02 -0.46912525066E+03  0.48735513728E+03  0.11951855693E+03 0.  0.
         25    2    3    3    0    0 -0.55000122377E+02  0.11261887486E+02 -0.28335119979E+03  0.31162941870E+03  0.11693223938E+03 0.  0.
          5    1    4    4  502    0  0.71374021760E+02 -0.27462300033E+01 -0.13601489524E+03  0.15370079534E+03  0.47000000000E+01 0.  1.
         -5    1    4    4    0  502 -0.16373899383E+02 -0.85156574829E+01 -0.33311035542E+03  0.33365434194E+03  0.47000000000E+01 0.  1.
          5    1    5    5  503    0 -0.29886871467E+02  0.50277164517E+02 -0.61786062226E+02  0.85209306085E+02  0.47000000000E+01 0.  1.
         -5    1    5    5    0  503 -0.25113250910E+02 -0.39015277031E+02 -0.22156513756E+03  0.22642011261E+03  0.47000000000E+01 0.  1.
<mgrwt>
<rscale>  0 0.26861778E+03</rscale>
<asrwt>0</asrwt>
<pdfrwt beam="1">  1        2 0.11934316E+00 0.26861778E+03</pdfrwt>
<pdfrwt beam="2">  1       -2 0.35775465E-02 0.26861778E+03</pdfrwt>
<totfact> 0.11943707E+04</totfact>
</mgrwt>
</event>
<event>
 9    1  0.2051157E-002  0.2746966E+03  0.7818608E-02  0.1098621E+00
         -2   -1    0    0    0  501 -0.00000000000E+00  0.00000000000E+00  0.17614777542E+02  0.17614777542E+02  0.00000000000E+00 0.  1.
          2   -1    0    0  501    0  0.00000000000E+00 -0.00000000000E+00 -0.10709507580E+04  0.10709507580E+04  0.00000000000E+00 0.  1.
         36    2    1    2    0    0  0.14210854715E-13  0.00000000000E+00 -0.10533359804E+04  0.10885655355E+04  0.27469662801E+03 0.  0.
         25    2    3    3    0    0 -0.39837921540E+02 -0.28073965106E+02 -0.67723497539E+03  0.69027259009E+03  0.12431343137E+03 0.  0.
         25    2    3    3    0    0  0.39837921540E+02  0.28073965106E+02 -0.37610100505E+03  0.39829294544E+03  0.12169674144E+03 0.  0.
          5    1    4    4  502    0 -0.25051577428E+01 -0.25253583240E+02 -0.21889360958E+02  0.33841592825E+02  0.47000000000E+01 0.  1.
         -5    1    4    4    0  502 -0.37332763797E+02 -0.28203818659E+01 -0.65534561444E+03  0.65643099726E+03  0.47000000000E+01 0.  1.
          5    1    5    5  503    0 -0.31595407991E+02  0.43753028629E+02 -0.20747066801E+03  0.21442659678E+03  0.47000000000E+01 0. -1.
         -5    1    5    5    0  503  0.71433329531E+02 -0.15679063524E+02 -0.16863033704E+03  0.18386634867E+03  0.47000000000E+01 0. -1.
<mgrwt>
<rscale>  0 0.27469663E+03</rscale>
<asrwt>0</asrwt>
<pdfrwt beam="1">  1        2 0.16476170E+00 0.27469663E+03</pdfrwt>
<pdfrwt beam="2">  1       -2 0.27099651E-02 0.27469663E+03</pdfrwt>
<totfact> 0.11694054E+04</totfact>
</mgrwt>
</event>
<event>
 9    1  0.2051157E-002  0.2792663E+03  0.7818608E-02  0.1096090E+00
         -2   -1    0    0    0  501 -0.00000000000E+00  0.00000000000E+00  0.54283738929E+03  0.54283738929E+03  0.00000000000E+00 0.  1.
          2   -1    0    0  501    0  0.00000000000E+00 -0.00000000000E+00 -0.35917611794E+02  0.35917611794E+02  0.00000000000E+00 0.  1.
         36    2    1    2    0    0 -0.71054273576E-14  0.00000000000E+00  0.50691977750E+03  0.57875500109E+03  0.27926634323E+03 0.  0.
         25    2    3    3    0    0  0.25440069751E+02 -0.85908452950E+01  0.12704094546E+03  0.17769673392E+03  0.12130839893E+03 0.  0.
         25    2    3    3    0    0 -0.25440069751E+02  0.85908452950E+01  0.37987883204E+03  0.40105826717E+03  0.12577283832E+03 0.  0.
          5    1    4    4  502    0  0.69569664974E+02  0.18639910201E+02  0.74032334432E+02  0.10339371876E+03  0.47000000000E+01 0. -1.
         -5    1    4    4    0  502 -0.44129595223E+02 -0.27230755496E+02  0.53008611026E+02  0.74303015163E+02  0.47000000000E+01 0. -1.
          5    1    5    5  503    0 -0.98411080067E+00  0.65913388828E+02  0.19164860380E+03  0.20272350786E+03  0.47000000000E+01 0. -1.
         -5    1    5    5    0  503 -0.24455958951E+02 -0.57322543533E+02  0.18823022825E+03  0.19833475931E+03  0.47000000000E+01 0. -1.
<mgrwt>
<rscale>  0 0.27926634E+03</rscale>
<asrwt>0</asrwt>
<pdfrwt beam="1">  1        2 0.55257868E-02 0.27926634E+03</pdfrwt>
<pdfrwt beam="2">  1       -2 0.83513438E-01 0.27926634E+03</pdfrwt>
<totfact> 0.17803591E+03</totfact>
</mgrwt>
</event>
<event>
 9    1  0.2051157E-002  0.2736911E+03  0.7818608E-02  0.1099185E+00
         -1   -1    0    0    0  501 -0.00000000000E+00  0.00000000000E+00  0.17095400451E+02  0.17095400451E+02  0.00000000000E+00 0.  1.
          1   -1    0    0  501    0  0.00000000000E+00 -0.00000000000E+00 -0.10954238259E+04  0.10954238259E+04  0.00000000000E+00 0.  1.
         36    2    1    2    0    0  0.00000000000E+00  0.53290705182E-14 -0.10783284254E+04  0.11125192263E+04  0.27369113224E+03 0.  0.
         25    2    3    3    0    0 -0.17462676849E+02 -0.85438703713E+01 -0.31649445452E+03  0.34018005176E+03  0.12319003639E+03 0.  0.
         25    2    3    3    0    0  0.17462676849E+02  0.85438703713E+01 -0.76183397092E+03  0.77233917459E+03  0.12545460754E+03 0.  0.
          5    1    4    4  502    0 -0.43911631317E+01  0.14927105149E+02  0.54036329359E+01  0.17128631897E+02  0.47000000000E+01 0.  1.
         -5    1    4    4    0  502 -0.13071513717E+02 -0.23470975520E+02 -0.32189808746E+03  0.32305141986E+03  0.47000000000E+01 0.  1.
          5    1    5    5  503    0  0.10860093738E+02 -0.36370457669E+02 -0.65562070658E+03  0.65673537496E+03  0.47000000000E+01 0. -1.
         -5    1    5    5    0  503  0.66025831106E+01  0.44914328040E+02 -0.10621326434E+03  0.11560379963E+03  0.47000000000E+01 0. -1.
<mgrwt>
<rscale>  0 0.27369113E+03</rscale>
<asrwt>0</asrwt>
<pdfrwt beam="1">  1        1 0.16852674E+00 0.27369113E+03</pdfrwt>
<pdfrwt beam="2">  1       -1 0.26300617E-02 0.27369113E+03</pdfrwt>
<totfact> 0.62268997E+03</totfact>
</mgrwt>
</event>
<event>
 9    1  0.2051157E-002  0.2747460E+03  0.7818608E-02  0.1098594E+00
          1   -1    0    0  501    0  0.00000000000E+00  0.00000000000E+00  0.22615186890E+03  0.22615186890E+03  0.00000000000E+00 0. -1.
         -1   -1    0    0    0  501 -0.00000000000E+00 -0.00000000000E+00 -0.83445464321E+02  0.83445464321E+02  0.00000000000E+00 0. -1.
         36    2    1    2    0    0  0.00000000000E+00  0.00000000000E+00  0.14270640458E+03  0.30959733322E+03  0.27474604789E+03 0.  0.
         25    2    3    3    0    0 -0.16018198491E+02  0.70364882697E+02  0.80855762941E+02  0.16388969274E+03  0.12294054492E+03 0.  0.
         25    2    3    3    0    0  0.16018198491E+02 -0.70364882697E+02  0.61850641641E+02  0.14570764048E+03  0.11044190882E+03 0.  0.
          5    1    4    4  502    0 -0.13863541925E+02  0.70063346606E+02  0.11167181553E+03  0.13264145173E+03  0.47000000000E+01 0.  1.
         -5    1    4    4    0  502 -0.21546565664E+01  0.30153609028E+00 -0.30816052592E+02  0.31248241011E+02  0.47000000000E+01 0.  1.
          5    1    5    5  503    0  0.47148215722E+02 -0.21250197439E+02 -0.10281102791E+02  0.52936907839E+02  0.47000000000E+01 0.  1.
         -5    1    5    5    0  503 -0.31130017231E+02 -0.49114685258E+02  0.72131744432E+02  0.92770732645E+02  0.47000000000E+01 0.  1.
<mgrwt>
<rscale>  0 0.27474605E+03</rscale>
<asrwt>0</asrwt>
<pdfrwt beam="1">  1        1 0.34792595E-01 0.27474605E+03</pdfrwt>
<pdfrwt beam="2">  1       -1 0.12837764E-01 0.27474605E+03</pdfrwt>
<totfact> 0.51294110E+03</totfact>
</mgrwt>
</event>
<event>
 9    1  0.2051157E-002  0.2752568E+03  0.7818608E-02  0.1098308E+00
          1   -1    0    0  501    0  0.00000000000E+00  0.00000000000E+00  0.14288276386E+04  0.14288276386E+04  0.00000000000E+00 0.  1.
         -1   -1    0    0    0  501 -0.00000000000E+00 -0.00000000000E+00 -0.13256721594E+02  0.13256721594E+02  0.00000000000E+00 0.  1.
         36    2    1    2    0    0  0.00000000000E+00  0.00000000000E+00  0.14155709170E+04  0.14420843602E+04  0.27525675441E+03 0.  0.
         25    2    3    3    0    0 -0.83480280974E+01  0.48594461185E+02  0.64536157379E+03  0.65898107367E+03  0.12382803926E+03 0.  0.
         25    2    3    3    0    0  0.83480280974E+01 -0.48594461185E+02  0.77020934326E+03  0.78310328657E+03  0.13265449013E+03 0.  0.
          5    1    4    4  502    0  0.31794567975E+02  0.37206599102E+02  0.94532177455E+02  0.10655349897E+03  0.47000000000E+01 0.  1.
         -5    1    4    4    0  502 -0.40142596072E+02  0.11387862083E+02  0.55082939633E+03  0.55242757470E+03  0.47000000000E+01 0.  1.
          5    1    5    5  503    0 -0.57423563313E+02 -0.48322239369E+02  0.38144283325E+03  0.38878429686E+03  0.47000000000E+01 0. -1.
         -5    1    5    5    0  503  0.65771591410E+02 -0.27222181532E+00  0.38876651001E+03  0.39431898971E+03  0.47000000000E+01 0. -1.
<mgrwt>
<rscale>  0 0.27525675E+03</rscale>
<asrwt>0</asrwt>
<pdfrwt beam="1">  1        1 0.21981951E+00 0.27525675E+03</pdfrwt>
<pdfrwt beam="2">  1       -1 0.20394968E-02 0.27525675E+03</pdfrwt>
<totfact> 0.53189237E+03</totfact>
</mgrwt>
</event>
<event>
 9    1  0.2051157E-002  0.2740027E+03  0.7818608E-02  0.1099010E+00
          1   -1    0    0  501    0  0.00000000000E+00  0.00000000000E+00  0.55088805869E+02  0.55088805869E+02  0.00000000000E+00 0.  1.
         -1   -1    0    0    0  501 -0.00000000000E+00 -0.00000000000E+00 -0.34071109252E+03  0.34071109252E+03  0.00000000000E+00 0.  1.
         36    2    1    2    0    0  0.00000000000E+00 -0.71054273576E-14 -0.28562228665E+03  0.39579989839E+03  0.27400268052E+03 0.  0.
         25    2    3    3    0    0  0.47228333705E+02  0.26064787664E+02 -0.14487155441E+03  0.19840610089E+03  0.12436770053E+03 0.  0.
         25    2    3    3    0    0 -0.47228333705E+02 -0.26064787664E+02 -0.14075073224E+03  0.19739379750E+03  0.12745059436E+03 0.  0.
          5    1    4    4  502    0 -0.36440501878E+02 -0.17331075468E+02 -0.35513070331E+02  0.53958729770E+02  0.47000000000E+01 0. -1.
         -5    1    4    4    0  502  0.83668835583E+02  0.43395863133E+02 -0.10935848408E+03  0.14444737113E+03  0.47000000000E+01 0. -1.
          5    1    5    5  503    0 -0.48550897247E+02 -0.73531868121E+02 -0.72977799768E+02  0.11450753037E+03  0.47000000000E+01 0. -1.
         -5    1    5    5    0  503  0.13225635423E+01  0.47467080457E+02 -0.67772932475E+02  0.82886267123E+02  0.47000000000E+01 0. -1.
<mgrwt>
<rscale>  0 0.27400268E+03</rscale>
<asrwt>0</asrwt>
<pdfrwt beam="1">  1        1 0.84752009E-02 0.27400268E+03</pdfrwt>
<pdfrwt beam="2">  1       -1 0.52417091E-01 0.27400268E+03</pdfrwt>
<totfact> 0.30107017E+03</totfact>
</mgrwt>
</event>
<event>
 9    1  0.2051157E-002  0.2743877E+03  0.7818608E-02  0.1098794E+00
         -2   -1    0    0    0  501 -0.00000000000E+00  0.00000000000E+00  0.28148725639E+02  0.28148725639E+02  0.00000000000E+00 0.  1.
          2   -1    0    0  501    0  0.00000000000E+00 -0.00000000000E+00 -0.66866818743E+03  0.66866818743E+03  0.00000000000E+00 0.  1.
         36    2    1    2    0    0 -0.71054273576E-14  0.00000000000E+00 -0.64051946179E+03  0.69681691307E+03  0.27438773552E+03 0.  0.
         25    2    3    3    0    0  0.35331012856E+02 -0.34849177300E+02 -0.26394874421E+03  0.29702862471E+03  0.12686338597E+03 0.  0.
         25    2    3    3    0    0 -0.35331012856E+02  0.34849177300E+02 -0.37657071758E+03  0.39978828836E+03  0.12474944706E+03 0.  0.
          5    1    4    4  502    0 -0.41048503694E+02  0.96018027794E+01 -0.50434880708E+02  0.65900997445E+02  0.47000000000E+01 0. -1.
         -5    1    4    4    0  502  0.76379516551E+02 -0.44450980079E+02 -0.21351386350E+03  0.23112762726E+03  0.47000000000E+01 0. -1.
          5    1    5    5  503    0 -0.32108742683E+02  0.56897028650E+02 -0.37046593996E+03  0.37621183646E+03  0.47000000000E+01 0.  1.
         -5    1    5    5    0  503 -0.32222701737E+01 -0.22047851350E+02 -0.61047776265E+01  0.23576451898E+02  0.47000000000E+01 0.  1.
<mgrwt>
<rscale>  0 0.27438774E+03</rscale>
<asrwt>0</asrwt>
<pdfrwt beam="1">  1        2 0.10287202E+00 0.27438774E+03</pdfrwt>
<pdfrwt beam="2">  1       -2 0.43305734E-02 0.27438774E+03</pdfrwt>
<totfact> 0.10760236E+04</totfact>
</mgrwt>
</event>
<event>
 9    1  0.2051157E-002  0.2754120E+03  0.7818608E-02  0.1098222E+00
         -2   -1    0    0    0  501 -0.00000000000E+00  0.00000000000E+00  0.62501238258E+03  0.62501238258E+03  0.00000000000E+00 0. -1.
          2   -1    0    0  501    0  0.00000000000E+00 -0.00000000000E+00 -0.30340106582E+02  0.30340106582E+02  0.00000000000E+00 0. -1.
         36    2    1    2    0    0  0.00000000000E+00  0.00000000000E+00  0.59467227600E+03  0.65535248917E+03  0.27541199903E+03 0.  0.
         25    2    3    3    0    0  0.46762989996E+02 -0.22055328701E+02  0.35259446914E+03  0.37798363671E+03  0.12599823490E+03 0.  0.
         25    2    3    3    0    0 -0.46762989996E+02  0.22055328701E+02  0.24207780687E+03  0.27736885246E+03  0.12513433173E+03 0.  0.
          5    1    4    4  502    0  0.66693421439E+02  0.12780408613E+02  0.92925343615E+02  0.11518923905E+03  0.47000000000E+01 0. -1.
         -5    1    4    4    0  502 -0.19930431443E+02 -0.34835737314E+02  0.25966912552E+03  0.26279439766E+03  0.47000000000E+01 0. -1.
          5    1    5    5  503    0 -0.48322572860E+02  0.21394449688E+02  0.22328127258E+02  0.57562390431E+02  0.47000000000E+01 0.  1.
         -5    1    5    5    0  503  0.15595828636E+01  0.66087901253E+00  0.21974967961E+03  0.21980646202E+03  0.47000000000E+01 0.  1.
<mgrwt>
<rscale>  0 0.27541200E+03</rscale>
<asrwt>0</asrwt>
<pdfrwt beam="1">  1        2 0.46677092E-02 0.27541200E+03</pdfrwt>
<pdfrwt beam="2">  1       -2 0.96155742E-01 0.27541200E+03</pdfrwt>
<totfact> 0.16169345E+03</totfact>
</mgrwt>
</event>
<event>
 9    1  0.2051157E-002  0.2745520E+03  0.7818608E-02  0.1098702E+00
          4   -1    0    0  501    0  0.00000000000E+00  0.00000000000E+00  0.45833965383E+02  0.45833965383E+02  0.00000000000E+00 0. -1.
         -4   -1    0    0    0  501 -0.00000000000E+00 -0.00000000000E+00 -0.41115148436E+03  0.41115148436E+03  0.00000000000E+00 0. -1.
         36    2    1    2    0    0  0.00000000000E+00  0.35527136788E-14 -0.36531751898E+03  0.45698544974E+03  0.27455201985E+03 0.  0.
         25    2    3    3    0    0  0.79714892747E+00 -0.27299814491E+02 -0.10179110731E+03  0.16334523123E+03  0.12479711423E+03 0.  0.
         25    2    3    3    0    0 -0.79714892747E+00  0.27299814491E+02 -0.26352641167E+03  0.29364021851E+03  0.12661948098E+03 0.  0.
          5    1    4    4  502    0  0.46164084305E+02 -0.40893666314E+02 -0.97627628171E+02  0.11557101023E+03  0.47000000000E+01 0. -1.
         -5    1    4    4    0  502 -0.45366935378E+02  0.13593851823E+02 -0.41634791365E+01  0.47774220993E+02  0.47000000000E+01 0. -1.
          5    1    5    5  503    0 -0.36290528551E+02  0.28692312865E+02 -0.25700829552E+02  0.53130724819E+02  0.47000000000E+01 0. -1.
         -5    1    5    5    0  503  0.35493379624E+02 -0.13924983740E+01 -0.23782558212E+03  0.24050949370E+03  0.47000000000E+01 0. -1.
<mgrwt>
<rscale>  0 0.27455202E+03</rscale>
<asrwt>0</asrwt>
<pdfrwt beam="1">  1        4 0.70513791E-02 0.27455202E+03</pdfrwt>
<pdfrwt beam="2">  1       -4 0.63254076E-01 0.27455202E+03</pdfrwt>
<totfact> 0.60485358E+02</totfact>
</mgrwt>
</event>
<event>
 9    1  0.2051157E-002  0.2737662E+03  0.7818608E-02  0.1099143E+00
         -2   -1    0    0    0  501 -0.00000000000E+00  0.00000000000E+00  0.26825712081E+02  0.26825712081E+02  0.00000000000E+00 0.  1.
          2   -1    0    0  501    0  0.00000000000E+00 -0.00000000000E+00 -0.69847092064E+03  0.69847092064E+03  0.00000000000E+00 0.  1.
         36    2    1    2    0    0  0.71054273576E-14  0.14210854715E-13 -0.67164520856E+03  0.72529663272E+03  0.27376617625E+03 0.  0.
         25    2    3    3    0    0  0.18039736483E+02  0.38868096374E+02 -0.24055677747E+03  0.27453325519E+03  0.12515903487E+03 0.  0.
         25    2    3    3    0    0 -0.18039736483E+02 -0.38868096374E+02 -0.43108843109E+03  0.45076337753E+03  0.12455611626E+03 0.  0.
          5    1    4    4  502    0  0.54650244878E+02 -0.22405003730E+02 -0.88663447363E+02  0.10663925335E+03  0.47000000000E+01 0. -1.
         -5    1    4    4    0  502 -0.36610508394E+02  0.61273100104E+02 -0.15189333010E+03  0.16789400183E+03  0.47000000000E+01 0. -1.
          5    1    5    5  503    0 -0.20707474018E+02 -0.25886493744E+02 -0.19122154728E+02  0.38557189214E+02  0.47000000000E+01 0.  1.
         -5    1    5    5    0  503  0.26677375350E+01 -0.12981602629E+02 -0.41196627636E+03  0.41220618832E+03  0.47000000000E+01 0.  1.
<mgrwt>
<rscale>  0 0.27376618E+03</rscale>
<asrwt>0</asrwt>
<pdfrwt beam="1">  1        2 0.10745707E+00 0.27376618E+03</pdfrwt>
<pdfrwt beam="2">  1       -2 0.41270326E-02 0.27376618E+03</pdfrwt>
<totfact> 0.10977434E+04</totfact>
</mgrwt>
</event>
<event>
 9    1  0.2051157E-002  0.2818698E+03  0.7818608E-02  0.1094672E+00
         -4   -1    0    0    0  501 -0.00000000000E+00  0.00000000000E+00  0.14556258789E+03  0.14556258789E+03  0.00000000000E+00 0.  1.
          4   -1    0    0  501    0  0.00000000000E+00 -0.00000000000E+00 -0.13645433468E+03  0.13645433468E+03  0.00000000000E+00 0.  1.
         36    2    1    2    0    0 -0.35527136788E-14 -0.35527136788E-14  0.91082532085E+01  0.28201692256E+03  0.28186980033E+03 0.  0.
         25    2    3    3    0    0 -0.11480586593E+02 -0.16000093015E+02 -0.60362510185E+02  0.14075583354E+03  0.12562151565E+03 0.  0.
         25    2    3    3    0    0  0.11480586593E+02  0.16000093015E+02  0.69470763394E+02  0.14126108902E+03  0.12141129050E+03 0.  0.
          5    1    4    4  502    0  0.11213290641E+02  0.26611968522E+02  0.27653567292E+02  0.40258471650E+02  0.47000000000E+01 0. -1.
         -5    1    4    4    0  502 -0.22693877233E+02 -0.42612061538E+02 -0.88016077477E+02  0.10049736189E+03  0.47000000000E+01 0. -1.
          5    1    5    5  503    0  0.43713347921E+02  0.39981415269E+02 -0.16425815805E+01  0.59448788277E+02  0.47000000000E+01 0. -1.
         -5    1    5    5    0  503 -0.32232761328E+02 -0.23981322253E+02  0.71113344974E+02  0.81812300746E+02  0.47000000000E+01 0. -1.
<mgrwt>
<rscale>  0 0.28186980E+03</rscale>
<asrwt>0</asrwt>
<pdfrwt beam="1">  1        4 0.20992975E-01 0.28186980E+03</pdfrwt>
<pdfrwt beam="2">  1       -4 0.22394244E-01 0.28186980E+03</pdfrwt>
<totfact> 0.71368803E+02</totfact>
</mgrwt>
</event>
<event>
 9    1  0.2051157E-002  0.2753164E+03  0.7818608E-02  0.1098275E+00
          2   -1    0    0  501    0  0.00000000000E+00  0.00000000000E+00  0.10973816921E+04  0.10973816921E+04  0.00000000000E+00 0.  1.
         -2   -1    0    0    0  501 -0.00000000000E+00 -0.00000000000E+00 -0.17268172048E+02  0.17268172048E+02  0.00000000000E+00 0.  1.
         36    2    1    2    0    0  0.00000000000E+00  0.71054273576E-14  0.10801135201E+04  0.11146498642E+04  0.27531636975E+03 0.  0.
         25    2    3    3    0    0  0.35825064146E+02 -0.40616176455E+02  0.49988854283E+03  0.51885210282E+03  0.12800718858E+03 0.  0.
         25    2    3    3    0    0 -0.35825064146E+02  0.40616176455E+02  0.58022497726E+03  0.59579776138E+03  0.12401951142E+03 0.  0.
          5    1    4    4  502    0 -0.31354872305E+02 -0.46588709284E+02  0.11493800110E+03  0.12800964787E+03  0.47000000000E+01 0.  1.
         -5    1    4    4    0  502  0.67179936450E+02  0.59725328280E+01  0.38495054173E+03  0.39084245495E+03  0.47000000000E+01 0.  1.
          5    1    5    5  503    0 -0.22269057952E+02 -0.37613464735E+02  0.33805412245E+03  0.34090081164E+03  0.47000000000E+01 0.  1.
         -5    1    5    5    0  503 -0.13556006194E+02  0.78229641191E+02  0.24217085481E+03  0.25489694974E+03  0.47000000000E+01 0.  1.
<mgrwt>
<rscale>  0 0.27531637E+03</rscale>
<asrwt>0</asrwt>
<pdfrwt beam="1">  1        2 0.16882790E+00 0.27531637E+03</pdfrwt>
<pdfrwt beam="2">  1       -2 0.26566427E-02 0.27531637E+03</pdfrwt>
<totfact> 0.11619144E+04</totfact>
</mgrwt>
</event>
<event>
 9    1  0.2051157E-002  0.2752643E+03  0.7818608E-02  0.1098304E+00
         -4   -1    0    0    0  501 -0.00000000000E+00  0.00000000000E+00  0.20557725671E+03  0.20557725671E+03  0.00000000000E+00 0. -1.
          4   -1    0    0  501    0  0.00000000000E+00 -0.00000000000E+00 -0.92143519293E+02  0.92143519293E+02  0.00000000000E+00 0. -1.
         36    2    1    2    0    0  0.35527136788E-14  0.00000000000E+00  0.11343373742E+03  0.29772077601E+03  0.27526432330E+03 0.  0.
         25    2    3    3    0    0 -0.16293333136E+01  0.15691987212E+02  0.56338680534E+02  0.15801781350E+03  0.14678790573E+03 0.  0.
         25    2    3    3    0    0  0.16293333136E+01 -0.15691987212E+02  0.57095056888E+02  0.13970296251E+03  0.12652343270E+03 0.  0.
          5    1    4    4  502    0  0.25997594908E+02 -0.60583428356E+02  0.30114355976E+02  0.72630511276E+02  0.47000000000E+01 0.  1.
         -5    1    4    4    0  502 -0.27626928221E+02  0.76275415568E+02  0.26224324558E+02  0.85387302227E+02  0.47000000000E+01 0.  1.
          5    1    5    5  503    0 -0.19934696977E+02 -0.48514654000E+02  0.78654751592E+02  0.94655817277E+02  0.47000000000E+01 0.  1.
         -5    1    5    5    0  503  0.21564030291E+02  0.32822666788E+02 -0.21559694704E+02  0.45047145228E+02  0.47000000000E+01 0.  1.
<mgrwt>
<rscale>  0 0.27526432E+03</rscale>
<asrwt>0</asrwt>
<pdfrwt beam="1">  1        4 0.14175926E-01 0.27526432E+03</pdfrwt>
<pdfrwt beam="2">  1       -4 0.31627270E-01 0.27526432E+03</pdfrwt>
<totfact> 0.75025969E+02</totfact>
</mgrwt>
</event>
<event>
 9    1  0.2051157E-002  0.2746796E+03  0.7818608E-02  0.1098631E+00
          2   -1    0    0  501    0  0.00000000000E+00  0.00000000000E+00  0.97762675580E+03  0.97762675580E+03  0.00000000000E+00 0.  1.
         -2   -1    0    0    0  501 -0.00000000000E+00 -0.00000000000E+00 -0.19293883819E+02  0.19293883819E+02  0.00000000000E+00 0.  1.
         36    2    1    2    0    0 -0.14210854715E-13 -0.17763568394E-14  0.95833287198E+03  0.99692063962E+03  0.27467957365E+03 0.  0.
         25    2    3    3    0    0 -0.56869780747E+02 -0.10512210196E+02  0.41559036675E+03  0.43762881204E+03  0.12433400849E+03 0.  0.
         25    2    3    3    0    0  0.56869780747E+02  0.10512210196E+02  0.54274250522E+03  0.55929182757E+03  0.12203787480E+03 0.  0.
          5    1    4    4  502    0  0.37362805110E+01 -0.10462370898E+02  0.34185094158E+03  0.34206370350E+03  0.47000000000E+01 0. -1.
         -5    1    4    4    0  502 -0.60606061258E+02 -0.49839298123E-01  0.73739425174E+02  0.95565108539E+02  0.47000000000E+01 0. -1.
          5    1    5    5  503    0  0.95249915487E+02  0.74131317093E+01  0.40907617814E+03  0.42011059311E+03  0.47000000000E+01 0.  1.
         -5    1    5    5    0  503 -0.38380134740E+02  0.30990784868E+01  0.13366632709E+03  0.13918123446E+03  0.47000000000E+01 0.  1.
<mgrwt>
<rscale>  0 0.27467957E+03</rscale>
<asrwt>0</asrwt>
<pdfrwt beam="1">  1        2 0.15040408E+00 0.27467957E+03</pdfrwt>
<pdfrwt beam="2">  1       -2 0.29682906E-02 0.27467957E+03</pdfrwt>
<totfact> 0.11635459E+04</totfact>
</mgrwt>
</event>
<event>
 9    1  0.2051157E-002  0.2737969E+03  0.7818608E-02  0.1099126E+00
          1   -1    0    0  501    0  0.00000000000E+00  0.00000000000E+00  0.43624256189E+03  0.43624256189E+03  0.00000000000E+00 0.  1.
         -1   -1    0    0    0  501 -0.00000000000E+00 -0.00000000000E+00 -0.42960467046E+02  0.42960467046E+02  0.00000000000E+00 0.  1.
         36    2    1    2    0    0  0.71054273576E-14  0.00000000000E+00  0.39328209484E+03  0.47920302893E+03  0.27379688971E+03 0.  0.
         25    2    3    3    0    0  0.24926117181E+02 -0.30133016046E+02  0.27094794116E+03  0.30066791343E+03  0.12433461857E+03 0.  0.
         25    2    3    3    0    0 -0.24926117181E+02  0.30133016046E+02  0.12233415368E+03  0.17853511550E+03  0.12401545201E+03 0.  0.
          5    1    4    4  502    0  0.71466111334E+02 -0.22378402186E+02  0.11210592942E+03  0.13490006437E+03  0.47000000000E+01 0.  1.
         -5    1    4    4    0  502 -0.46539994153E+02 -0.77546138606E+01  0.15884201174E+03  0.16576784907E+03  0.47000000000E+01 0.  1.
          5    1    5    5  503    0 -0.41211513349E+02  0.23271038638E+02  0.14314046592E+03  0.15083505248E+03  0.47000000000E+01 0. -1.
         -5    1    5    5    0  503  0.16285396168E+02  0.68619774087E+01 -0.20806312242E+02  0.27700063022E+02  0.47000000000E+01 0. -1.
<mgrwt>
<rscale>  0 0.27379689E+03</rscale>
<asrwt>0</asrwt>
<pdfrwt beam="1">  1        1 0.67114237E-01 0.27379689E+03</pdfrwt>
<pdfrwt beam="2">  1       -1 0.66093029E-02 0.27379689E+03</pdfrwt>
<totfact> 0.62058788E+03</totfact>
</mgrwt>
</event>
<event>
 9    1  0.2051157E-002  0.2748978E+03  0.7818608E-02  0.1098509E+00
         -2   -1    0    0    0  501 -0.00000000000E+00  0.00000000000E+00  0.67587449766E+03  0.67587449766E+03  0.00000000000E+00 0.  1.
          2   -1    0    0  501    0  0.00000000000E+00 -0.00000000000E+00 -0.27952238136E+02  0.27952238136E+02  0.00000000000E+00 0.  1.
         36    2    1    2    0    0  0.00000000000E+00  0.00000000000E+00  0.64792225952E+03  0.70382673579E+03  0.27489783490E+03 0.  0.
         25    2    3    3    0    0  0.92671098967E+01 -0.29917423257E+02  0.53307374833E+03  0.54249732151E+03  0.95680672788E+02 0.  0.
         25    2    3    3    0    0 -0.92671098967E+01  0.29917423257E+02  0.11484851119E+03  0.16132941429E+03  0.10888557228E+03 0.  0.
          5    1    4    4  502    0 -0.19425576689E+02  0.28137271144E+02  0.22737469425E+03  0.22997913088E+03  0.47000000000E+01 0. -1.
         -5    1    4    4    0  502  0.28692686586E+02 -0.58054694401E+02  0.30569905408E+03  0.31251819063E+03  0.47000000000E+01 0. -1.
          5    1    5    5  503    0 -0.49365460930E+01 -0.22885055363E+02  0.10443713181E+03  0.10713216019E+03  0.47000000000E+01 0.  1.
         -5    1    5    5    0  503 -0.43305638036E+01  0.52802478620E+02  0.10411379386E+02  0.54197254100E+02  0.47000000000E+01 0.  1.
<mgrwt>
<rscale>  0 0.27489783E+03</rscale>
<asrwt>0</asrwt>
<pdfrwt beam="1">  1        2 0.43003448E-02 0.27489783E+03</pdfrwt>
<pdfrwt beam="2">  1       -2 0.10398068E+00 0.27489783E+03</pdfrwt>
<totfact> 0.15035534E+03</totfact>
</mgrwt>
</event>
<event>
 9    1  0.2051157E-002  0.2756103E+03  0.7818608E-02  0.1098111E+00
         -1   -1    0    0    0  501 -0.00000000000E+00  0.00000000000E+00  0.28829921485E+02  0.28829921485E+02  0.00000000000E+00 0. -1.
          1   -1    0    0  501    0  0.00000000000E+00 -0.00000000000E+00 -0.65869949649E+03  0.65869949649E+03  0.00000000000E+00 0. -1.
         36    2    1    2    0    0  0.00000000000E+00  0.00000000000E+00 -0.62986957500E+03  0.68752941797E+03  0.27561026661E+03 0.  0.
         25    2    3    3    0    0 -0.17918125829E+02  0.36321162465E+02 -0.25510930598E+03  0.28944959853E+03  0.13061403452E+03 0.  0.
         25    2    3    3    0    0  0.17918125829E+02 -0.36321162465E+02 -0.37476026902E+03  0.39807981944E+03  0.12799217685E+03 0.  0.
          5    1    4    4  502    0  0.51297227729E+02  0.25476657537E+02 -0.16803787878E+03  0.17759303015E+03  0.47000000000E+01 0.  1.
         -5    1    4    4    0  502 -0.69215353558E+02  0.10844504927E+02 -0.87071427203E+02  0.11185656838E+03  0.47000000000E+01 0.  1.
          5    1    5    5  503    0  0.99406544110E+01 -0.76397561116E+02 -0.14114125516E+03  0.16086748541E+03  0.47000000000E+01 0.  1.
         -5    1    5    5    0  503  0.79774714179E+01  0.40076398651E+02 -0.23361901386E+03  0.23721233403E+03  0.47000000000E+01 0.  1.
<mgrwt>
<rscale>  0 0.27561027E+03</rscale>
<asrwt>0</asrwt>
<pdfrwt beam="1">  1        1 0.10133837E+00 0.27561027E+03</pdfrwt>
<pdfrwt beam="2">  1       -1 0.44353731E-02 0.27561027E+03</pdfrwt>
<totfact> 0.64703986E+03</totfact>
</mgrwt>
</event>
<event>
 9    1  0.2051157E-002  0.2747938E+03  0.7818608E-02  0.1098567E+00
          2   -1    0    0  501    0  0.00000000000E+00  0.00000000000E+00  0.21799286037E+04  0.21799286037E+04  0.00000000000E+00 0.  1.
         -2   -1    0    0    0  501 -0.00000000000E+00 -0.00000000000E+00 -0.86598758128E+01  0.86598758128E+01  0.00000000000E+00 0.  1.
         36    2    1    2    0    0  0.26645352591E-14 -0.35527136788E-14  0.21712687279E+04  0.21885884795E+04  0.27479382081E+03 0.  0.
         25    2    3    3    0    0 -0.73367000982E+01  0.89800804734E+01  0.74479669902E+03  0.75624429225E+03  0.13057119773E+03 0.  0.
         25    2    3    3    0    0  0.73367000982E+01 -0.89800804734E+01  0.14264720289E+04  0.14323441873E+04  0.12904631971E+03 0.  0.
          5    1    4    4  502    0  0.43251372113E+01 -0.48723843015E+02  0.56199628640E+03  0.56414061688E+03  0.47000000000E+01 0.  1.
         -5    1    4    4    0  502 -0.11661837309E+02  0.57703923489E+02  0.18280041262E+03  0.19210367537E+03  0.47000000000E+01 0.  1.
          5    1    5    5  503    0 -0.99289132931E+01  0.19556456006E+02  0.13294952331E+04  0.13296844374E+04  0.47000000000E+01 0. -1.
         -5    1    5    5    0  503  0.17265613391E+02 -0.28536536479E+02  0.96976795788E+02  0.10265974986E+03  0.47000000000E+01 0. -1.
<mgrwt>
<rscale>  0 0.27479382E+03</rscale>
<asrwt>0</asrwt>
<pdfrwt beam="1">  1        2 0.33537319E+00 0.27479382E+03</pdfrwt>
<pdfrwt beam="2">  1       -2 0.13322903E-02 0.27479382E+03</pdfrwt>
<totfact> 0.83745244E+03</totfact>
</mgrwt>
</event>
<event>
 9    1  0.2051157E-002  0.2749558E+03  0.7818608E-02  0.1098476E+00
         -2   -1    0    0    0  501 -0.00000000000E+00  0.00000000000E+00  0.17770584544E+03  0.17770584544E+03  0.00000000000E+00 0.  1.
          2   -1    0    0  501    0  0.00000000000E+00 -0.00000000000E+00 -0.10635651198E+03  0.10635651198E+03  0.00000000000E+00 0.  1.
         36    2    1    2    0    0  0.53290705182E-14  0.00000000000E+00  0.71349333456E+02  0.28406235741E+03  0.27495580648E+03 0.  0.
         25    2    3    3    0    0 -0.99697935565E+01  0.36666209583E+02 -0.15648281096E+02  0.12367197090E+03  0.11664510267E+03 0.  0.
         25    2    3    3    0    0  0.99697935565E+01 -0.36666209583E+02  0.86997614552E+02  0.16039038651E+03  0.12927754422E+03 0.  0.
          5    1    4    4  502    0 -0.34561454899E+02 -0.29254734233E+02 -0.25961706702E+02  0.52406429516E+02  0.47000000000E+01 0.  1.
         -5    1    4    4    0  502  0.24591661343E+02  0.65920943816E+02  0.10313425606E+02  0.71265541385E+02  0.47000000000E+01 0.  1.
          5    1    5    5  503    0  0.22398276582E+02 -0.53998467941E+01  0.11437015908E+03  0.11676242729E+03  0.47000000000E+01 0.  1.
         -5    1    5    5    0  503 -0.12428483026E+02 -0.31266362789E+02 -0.27372544524E+02  0.43627959224E+02  0.47000000000E+01 0.  1.
<mgrwt>
<rscale>  0 0.27495581E+03</rscale>
<asrwt>0</asrwt>
<pdfrwt beam="1">  1        2 0.16362540E-01 0.27495581E+03</pdfrwt>
<pdfrwt beam="2">  1       -2 0.27339361E-01 0.27495581E+03</pdfrwt>
<totfact> 0.42291074E+03</totfact>
</mgrwt>
</event>
<event>
 9    1  0.2051157E-002  0.2744147E+03  0.7818608E-02  0.1098779E+00
         -1   -1    0    0    0  501 -0.00000000000E+00  0.00000000000E+00  0.61427852315E+03  0.61427852315E+03  0.00000000000E+00 0. -1.
          1   -1    0    0  501    0  0.00000000000E+00 -0.00000000000E+00 -0.30647106511E+02  0.30647106511E+02  0.00000000000E+00 0. -1.
         36    2    1    2    0    0  0.00000000000E+00  0.71054273576E-14  0.58363141664E+03  0.64492562966E+03  0.27441471773E+03 0.  0.
         25    2    3    3    0    0  0.36172202869E+02  0.45411352471E+02  0.27650091579E+03  0.30857305099E+03  0.12407236667E+03 0.  0.
         25    2    3    3    0    0 -0.36172202869E+02 -0.45411352471E+02  0.30713050085E+03  0.33635257867E+03  0.12423080710E+03 0.  0.
          5    1    4    4  502    0  0.24819642603E+02  0.74152094834E+02  0.26318819891E+03  0.27459910028E+03  0.47000000000E+01 0. -1.
         -5    1    4    4    0  502  0.11352560267E+02 -0.28740742363E+02  0.13312716875E+02  0.33973950709E+02  0.47000000000E+01 0. -1.
          5    1    5    5  503    0 -0.82323352736E+02 -0.23055800504E+02  0.19391155362E+03  0.21197284017E+03  0.47000000000E+01 0. -1.
         -5    1    5    5    0  503  0.46151149867E+02 -0.22355551967E+02  0.11321894723E+03  0.12437973850E+03  0.47000000000E+01 0. -1.
<mgrwt>
<rscale>  0 0.27441472E+03</rscale>
<asrwt>0</asrwt>
<pdfrwt beam="1">  1        1 0.47149399E-02 0.27441472E+03</pdfrwt>
<pdfrwt beam="2">  1       -1 0.94504379E-01 0.27441472E+03</pdfrwt>
<totfact> 0.20610688E+03</totfact>
</mgrwt>
</event>
<event>
 9    1  0.2051157E-002  0.2749487E+03  0.7818608E-02  0.1098480E+00
         -2   -1    0    0    0  501 -0.00000000000E+00  0.00000000000E+00  0.49495351346E+02  0.49495351346E+02  0.00000000000E+00 0.  1.
          2   -1    0    0  501    0  0.00000000000E+00 -0.00000000000E+00 -0.38183786053E+03  0.38183786053E+03  0.00000000000E+00 0.  1.
         36    2    1    2    0    0 -0.71054273576E-14 -0.35527136788E-14 -0.33234250918E+03  0.43133321187E+03  0.27494871568E+03 0.  0.
         25    2    3    3    0    0  0.52822744227E+02 -0.67179752874E+01 -0.22551865415E+03  0.25693862423E+03  0.11101089926E+03 0.  0.
         25    2    3    3    0    0 -0.52822744227E+02  0.67179752874E+01 -0.10682385503E+03  0.17439458764E+03  0.12714858510E+03 0.  0.
          5    1    4    4  502    0 -0.31373521036E+02 -0.70434365803E+00 -0.10524837697E+03  0.10992772525E+03  0.47000000000E+01 0.  1.
         -5    1    4    4    0  502  0.84196265263E+02 -0.60136316294E+01 -0.12027027717E+03  0.14701089899E+03  0.47000000000E+01 0.  1.
          5    1    5    5  503    0  0.58684257473E+00  0.41532741108E+02  0.83880673066E+01  0.42635227703E+02  0.47000000000E+01 0. -1.
         -5    1    5    5    0  503 -0.53409586801E+02 -0.34814765821E+02 -0.11521192234E+03  0.13175935994E+03  0.47000000000E+01 0. -1.
<mgrwt>
<rscale>  0 0.27494872E+03</rscale>
<asrwt>0</asrwt>
<pdfrwt beam="1">  1        2 0.58744287E-01 0.27494872E+03</pdfrwt>
<pdfrwt beam="2">  1       -2 0.76146693E-02 0.27494872E+03</pdfrwt>
<totfact> 0.85249889E+03</totfact>
</mgrwt>
</event>
<event>
 9    1  0.2051157E-002  0.2751170E+03  0.7818608E-02  0.1098386E+00
         -2   -1    0    0    0  501 -0.00000000000E+00  0.00000000000E+00  0.45351833087E+02  0.45351833087E+02  0.00000000000E+00 0. -1.
          2   -1    0    0  501    0  0.00000000000E+00 -0.00000000000E+00 -0.41723420760E+03  0.41723420760E+03  0.00000000000E+00 0. -1.
         36    2    1    2    0    0 -0.71054273576E-14  0.00000000000E+00 -0.37188237451E+03  0.46258604068E+03  0.27511696524E+03 0.  0.
         25    2    3    3    0    0  0.38588482451E+02  0.24263238421E+02 -0.23698832848E+03  0.27169814982E+03  0.12481442650E+03 0.  0.
         25    2    3    3    0    0 -0.38588482451E+02 -0.24263238421E+02 -0.13489404603E+03  0.19088789086E+03  0.12713775013E+03 0.  0.
          5    1    4    4  502    0 -0.18655173672E+02 -0.16352503731E+02 -0.80554452288E+00  0.25261804864E+02  0.47000000000E+01 0. -1.
         -5    1    4    4    0  502  0.57243656123E+02  0.40615742152E+02 -0.23618278396E+03  0.24643634496E+03  0.47000000000E+01 0. -1.
          5    1    5    5  503    0 -0.72763319055E+02 -0.52325864992E+02 -0.79870652451E+02  0.12014119972E+03  0.47000000000E+01 0.  1.
         -5    1    5    5    0  503  0.34174836604E+02  0.28062626571E+02 -0.55023393576E+02  0.70746691143E+02  0.47000000000E+01 0.  1.
<mgrwt>
<rscale>  0 0.27511697E+03</rscale>
<asrwt>0</asrwt>
<pdfrwt beam="1">  1        2 0.64189880E-01 0.27511697E+03</pdfrwt>
<pdfrwt beam="2">  1       -2 0.69772049E-02 0.27511697E+03</pdfrwt>
<totfact> 0.88676585E+03</totfact>
</mgrwt>
</event>
<event>
 9    1  0.2051157E-002  0.2754374E+03  0.7818608E-02  0.1098207E+00
         -1   -1    0    0    0  501 -0.00000000000E+00  0.00000000000E+00  0.29308215142E+02  0.29308215142E+02  0.00000000000E+00 0.  1.
          1   -1    0    0  501    0  0.00000000000E+00 -0.00000000000E+00 -0.64713715675E+03  0.64713715675E+03  0.00000000000E+00 0.  1.
         36    2    1    2    0    0  0.71054273576E-14  0.71054273576E-14 -0.61782894161E+03  0.67644537189E+03  0.27543736142E+03 0.  0.
         25    2    3    3    0    0 -0.51229437555E+02 -0.26415214754E+02 -0.35061999523E+03  0.37800119359E+03  0.12895077534E+03 0.  0.
         25    2    3    3    0    0  0.51229437555E+02  0.26415214754E+02 -0.26720894638E+03  0.29844417830E+03  0.11977515474E+03 0.  0.
          5    1    4    4  502    0 -0.21820227780E+02 -0.72115035768E+02 -0.27220953987E+03  0.28248331689E+03  0.47000000000E+01 0.  1.
         -5    1    4    4    0  502 -0.29409209775E+02  0.45699821014E+02 -0.78410455354E+02  0.95517876699E+02  0.47000000000E+01 0.  1.
          5    1    5    5  503    0  0.41261334840E+02  0.60069582728E+02 -0.24721803729E+03  0.25777839413E+03  0.47000000000E+01 0.  1.
         -5    1    5    5    0  503  0.99681027152E+01 -0.33654367974E+02 -0.19990909091E+02  0.40665784165E+02  0.47000000000E+01 0.  1.
<mgrwt>
<rscale>  0 0.27543736E+03</rscale>
<asrwt>0</asrwt>
<pdfrwt beam="1">  1        1 0.99559556E-01 0.27543736E+03</pdfrwt>
<pdfrwt beam="2">  1       -1 0.45089565E-02 0.27543736E+03</pdfrwt>
<totfact> 0.64747137E+03</totfact>
</mgrwt>
</event>
<event>
 8    1  0.2051157E-002  0.3244771E+03  0.7818608E-02  0.1073607E+00
         -2   -1    0    0    0  501 -0.00000000000E+00  0.00000000000E+00  0.11950370932E+02  0.11950370932E+02  0.00000000000E+00 0. -1.
          2   -1    0    0  501    0  0.00000000000E+00 -0.00000000000E+00 -0.22025546934E+04  0.22025546934E+04  0.00000000000E+00 0. -1.
         25    2    1    2    0    0 -0.63130113661E+02  0.65062806432E-01 -0.43543589192E+03  0.45372803973E+03  0.11081201461E+03 0.  0.
         25    2    1    2    0    0  0.63130113661E+02 -0.65062806432E-01 -0.17551684305E+04  0.17607770246E+04  0.12543562207E+03 0.  0.
          5    1    3    3  502    0 -0.56852602164E+02  0.46296281774E+02 -0.18717365966E+03  0.20107618693E+03  0.47000000000E+01 0.  1.
         -5    1    3    3    0  502 -0.62775114968E+01 -0.46231218968E+02 -0.24826223226E+03  0.25265185280E+03  0.47000000000E+01 0.  1.
          5    1    4    4  503    0  0.87846947341E+02 -0.29114523229E+02 -0.14850795238E+04  0.14879677496E+04  0.47000000000E+01 0. -1.
         -5    1    4    4    0  503 -0.24716833680E+02  0.29049460423E+02 -0.27008890667E+03  0.27280927500E+03  0.47000000000E+01 0. -1.
<mgrwt>
<rscale>  0 0.32447709E+03</rscale>
<asrwt>0</asrwt>
<pdfrwt beam="1">  1        2 0.33885431E+00 0.32447709E+03</pdfrwt>
<pdfrwt beam="2">  1       -2 0.18385200E-02 0.32447709E+03</pdfrwt>
<totfact> 0.50759310E+03</totfact>
</mgrwt>
</event>
<event>
 9    1  0.2051157E-002  0.2760725E+03  0.7818608E-02  0.1097854E+00
          2   -1    0    0  501    0  0.00000000000E+00  0.00000000000E+00  0.34513973438E+03  0.34513973438E+03  0.00000000000E+00 0.  1.
         -2   -1    0    0    0  501 -0.00000000000E+00 -0.00000000000E+00 -0.55206624732E+02  0.55206624732E+02  0.00000000000E+00 0.  1.
         36    2    1    2    0    0  0.00000000000E+00 -0.53290705182E-14  0.28993310965E+03  0.40034635911E+03  0.27607245278E+03 0.  0.
         25    2    3    3    0    0  0.55410800962E+02  0.27404631058E+01  0.11023724306E+03  0.17881163406E+03  0.12939661400E+03 0.  0.
         25    2    3    3    0    0 -0.55410800962E+02 -0.27404631058E+01  0.17969586658E+03  0.22153472505E+03  0.11708613469E+03 0.  0.
          5    1    4    4  502    0  0.92570478524E+02  0.15209782279E+02  0.48971713866E+02  0.10592898437E+03  0.47000000000E+01 0. -1.
         -5    1    4    4    0  502 -0.37159677562E+02 -0.12469319173E+02  0.61265529198E+02  0.72882649685E+02  0.47000000000E+01 0. -1.
          5    1    5    5  503    0 -0.33945788428E+02 -0.57982526880E+02  0.72510167704E+02  0.98965167589E+02  0.47000000000E+01 0.  1.
         -5    1    5    5    0  503 -0.21465012534E+02  0.55242063774E+02  0.10718569888E+03  0.12256955747E+03  0.47000000000E+01 0.  1.
<mgrwt>
<rscale>  0 0.27607245E+03</rscale>
<asrwt>0</asrwt>
<pdfrwt beam="1">  1        2 0.53098419E-01 0.27607245E+03</pdfrwt>
<pdfrwt beam="2">  1       -2 0.84933272E-02 0.27607245E+03</pdfrwt>
<totfact> 0.80182424E+03</totfact>
</mgrwt>
</event>
<event>
 9    1  0.2051157E-002  0.2750261E+03  0.7818608E-02  0.1098437E+00
          2   -1    0    0  501    0  0.00000000000E+00  0.00000000000E+00  0.19499289584E+04  0.19499289584E+04  0.00000000000E+00 0. -1.
         -2   -1    0    0    0  501 -0.00000000000E+00 -0.00000000000E+00 -0.96977057711E+01  0.96977057711E+01  0.00000000000E+00 0. -1.
         36    2    1    2    0    0  0.71054273576E-14  0.00000000000E+00  0.19402312527E+04  0.19596266642E+04  0.27502608831E+03 0.  0.
         25    2    3    3    0    0  0.57389621852E+02 -0.22724870832E+02  0.75127761915E+03  0.76244488583E+03  0.11442969214E+03 0.  0.
         25    2    3    3    0    0 -0.57389621852E+02  0.22724870832E+02  0.11889536335E+04  0.11971817784E+04  0.12579141217E+03 0.  0.
          5    1    4    4  502    0  0.19516619642E+01 -0.61623581161E+02  0.33250246087E+03  0.33820297341E+03  0.47000000000E+01 0. -1.
         -5    1    4    4    0  502  0.55437959888E+02  0.38898710329E+02  0.41877515829E+03  0.42424191243E+03  0.47000000000E+01 0. -1.
          5    1    5    5  503    0 -0.45678500829E+02  0.68276241703E+02  0.51097241653E+03  0.51755489668E+03  0.47000000000E+01 0.  1.
         -5    1    5    5    0  503 -0.11711121023E+02 -0.45551370871E+02  0.67798121698E+03  0.67962688169E+03  0.47000000000E+01 0.  1.
<mgrwt>
<rscale>  0 0.27502609E+03</rscale>
<asrwt>0</asrwt>
<pdfrwt beam="1">  1        2 0.29998876E+00 0.27502609E+03</pdfrwt>
<pdfrwt beam="2">  1       -2 0.14919563E-02 0.27502609E+03</pdfrwt>
<totfact> 0.93870002E+03</totfact>
</mgrwt>
</event>
<event>
 9    1  0.2051157E-002  0.2747900E+03  0.7818608E-02  0.1098569E+00
          1   -1    0    0  501    0  0.00000000000E+00  0.00000000000E+00  0.28696714881E+02  0.28696714881E+02  0.00000000000E+00 0. -1.
         -1   -1    0    0    0  501 -0.00000000000E+00 -0.00000000000E+00 -0.65782411451E+03  0.65782411451E+03  0.00000000000E+00 0. -1.
         36    2    1    2    0    0  0.00000000000E+00  0.00000000000E+00 -0.62912739963E+03  0.68652082939E+03  0.27479003662E+03 0.  0.
         25    2    3    3    0    0 -0.48145308655E+02 -0.19378215648E+02 -0.23309194040E+03  0.26742617908E+03  0.12038032477E+03 0.  0.
         25    2    3    3    0    0  0.48145308655E+02  0.19378215648E+02 -0.39603545922E+03  0.41909465031E+03  0.12689663103E+03 0.  0.
          5    1    4    4  502    0  0.36200618499E+02  0.15535422958E+02 -0.72164943002E+02  0.82351096803E+02  0.47000000000E+01 0. -1.
         -5    1    4    4    0  502 -0.84345927154E+02 -0.34913638606E+02 -0.16092699740E+03  0.18507508228E+03  0.47000000000E+01 0. -1.
          5    1    5    5  503    0  0.16084075855E+02  0.37886080444E+02 -0.37288687997E+03  0.37518098012E+03  0.47000000000E+01 0.  1.
         -5    1    5    5    0  503  0.32061232799E+02 -0.18507864797E+02 -0.23148579249E+02  0.43913670186E+02  0.47000000000E+01 0.  1.
<mgrwt>
<rscale>  0 0.27479004E+03</rscale>
<asrwt>0</asrwt>
<pdfrwt beam="1">  1        1 0.44148793E-02 0.27479004E+03</pdfrwt>
<pdfrwt beam="2">  1       -1 0.10120371E+00 0.27479004E+03</pdfrwt>
<totfact> 0.19411699E+03</totfact>
</mgrwt>
</event>
<event>
 9    1  0.2051157E-002  0.2754204E+03  0.7818608E-02  0.1098217E+00
          2   -1    0    0  501    0  0.00000000000E+00  0.00000000000E+00  0.13918831071E+04  0.13918831071E+04  0.00000000000E+00 0. -1.
         -2   -1    0    0    0  501 -0.00000000000E+00 -0.00000000000E+00 -0.13624780782E+02  0.13624780782E+02  0.00000000000E+00 0. -1.
         36    2    1    2    0    0  0.00000000000E+00  0.00000000000E+00  0.13782583263E+04  0.14055078879E+04  0.27542042196E+03 0.  0.
         25    2    3    3    0    0 -0.39302409917E+02 -0.30726339808E+02  0.60654729145E+03  0.62209281515E+03  0.12888392649E+03 0.  0.
         25    2    3    3    0    0  0.39302409917E+02  0.30726339808E+02  0.77171103485E+03  0.78341507272E+03  0.12534938161E+03 0.  0.
          5    1    4    4  502    0 -0.67263050133E+02  0.91700179364E+01  0.17476791648E+03  0.18754818520E+03  0.47000000000E+01 0. -1.
         -5    1    4    4    0  502  0.27960640216E+02 -0.39896357744E+02  0.43177937497E+03  0.43454462995E+03  0.47000000000E+01 0. -1.
          5    1    5    5  503    0 -0.38709929968E+02  0.35240063477E+02  0.40822743263E+03  0.41159694788E+03  0.47000000000E+01 0. -1.
         -5    1    5    5    0  503  0.78012339885E+02 -0.45137236687E+01  0.36348360222E+03  0.37181812484E+03  0.47000000000E+01 0. -1.
<mgrwt>
<rscale>  0 0.27542042E+03</rscale>
<asrwt>0</asrwt>
<pdfrwt beam="1">  1        2 0.21413575E+00 0.27542042E+03</pdfrwt>
<pdfrwt beam="2">  1       -2 0.20961212E-02 0.27542042E+03</pdfrwt>
<totfact> 0.11258876E+04</totfact>
</mgrwt>
</event>
<event>
 9    1  0.2051157E-002  0.2739296E+03  0.7818608E-02  0.1099051E+00
         -1   -1    0    0    0  501 -0.00000000000E+00  0.00000000000E+00  0.42640700116E+02  0.42640700116E+02  0.00000000000E+00 0.  1.
          1   -1    0    0  501    0  0.00000000000E+00 -0.00000000000E+00 -0.43994006159E+03  0.43994006159E+03  0.00000000000E+00 0.  1.
         36    2    1    2    0    0  0.00000000000E+00 -0.35527136788E-14 -0.39729936148E+03  0.48258076171E+03  0.27392956931E+03 0.  0.
         25    2    3    3    0    0 -0.39777799546E+02  0.11265778613E+02 -0.14155103269E+03  0.19565748883E+03  0.12859225083E+03 0.  0.
         25    2    3    3    0    0  0.39777799546E+02 -0.11265778613E+02 -0.25574832879E+03  0.28692327288E+03  0.12332301383E+03 0.  0.
          5    1    4    4  502    0 -0.16111590635E+02 -0.33283201524E+02 -0.14009917421E+03  0.14497318190E+03  0.47000000000E+01 0.  1.
         -5    1    4    4    0  502 -0.23666208910E+02  0.44548980137E+02 -0.14518584811E+01  0.50684306925E+02  0.47000000000E+01 0.  1.
          5    1    5    5  503    0  0.64469116605E+02 -0.29914071692E+02 -0.74795889825E+02  0.10328423798E+03  0.47000000000E+01 0. -1.
         -5    1    5    5    0  503 -0.24691317060E+02  0.18648293079E+02 -0.18095243896E+03  0.18363903490E+03  0.47000000000E+01 0. -1.
<mgrwt>
<rscale>  0 0.27392957E+03</rscale>
<asrwt>0</asrwt>
<pdfrwt beam="1">  1        1 0.67683087E-01 0.27392957E+03</pdfrwt>
<pdfrwt beam="2">  1       -1 0.65601076E-02 0.27392957E+03</pdfrwt>
<totfact> 0.62081807E+03</totfact>
</mgrwt>
</event>
<event>
 9    1  0.2051157E-002  0.2757365E+03  0.7818608E-02  0.1098041E+00
         -2   -1    0    0    0  501 -0.00000000000E+00  0.00000000000E+00  0.51795916063E+02  0.51795916063E+02  0.00000000000E+00 0. -1.
          2   -1    0    0  501    0  0.00000000000E+00 -0.00000000000E+00 -0.36697205248E+03  0.36697205248E+03  0.00000000000E+00 0. -1.
         36    2    1    2    0    0 -0.44408920985E-14  0.14210854715E-13 -0.31517613642E+03  0.41876796854E+03  0.27573649470E+03 0.  0.
         25    2    3    3    0    0 -0.63423068303E+01 -0.57129842876E+02 -0.15834366664E+03  0.21025339890E+03  0.12581625961E+03 0.  0.
         25    2    3    3    0    0  0.63423068303E+01  0.57129842876E+02 -0.15683246978E+03  0.20851456964E+03  0.12481129105E+03 0.  0.
          5    1    4    4  502    0 -0.11968940449E+02 -0.74910604929E+02 -0.32022655850E+02  0.82476631563E+02  0.47000000000E+01 0.  1.
         -5    1    4    4    0  502  0.56266336188E+01  0.17780762053E+02 -0.12632101079E+03  0.12777676734E+03  0.47000000000E+01 0.  1.
          5    1    5    5  503    0  0.35700622704E+02  0.87553450783E+02 -0.11336273572E+03  0.14769340221E+03  0.47000000000E+01 0. -1.
         -5    1    5    5    0  503 -0.29358315874E+02 -0.30423607906E+02 -0.43469734059E+02  0.60821167434E+02  0.47000000000E+01 0. -1.
<mgrwt>
<rscale>  0 0.27573649E+03</rscale>
<asrwt>0</asrwt>
<pdfrwt beam="1">  1        2 0.56457239E-01 0.27573649E+03</pdfrwt>
<pdfrwt beam="2">  1       -2 0.79686024E-02 0.27573649E+03</pdfrwt>
<totfact> 0.82915405E+03</totfact>
</mgrwt>
</event>
<event>
 9    1  0.2051157E-002  0.2750610E+03  0.7818608E-02  0.1098418E+00
         -2   -1    0    0    0  501 -0.00000000000E+00  0.00000000000E+00  0.90177491823E+01  0.90177491823E+01  0.00000000000E+00 0. -1.
          2   -1    0    0  501    0  0.00000000000E+00 -0.00000000000E+00 -0.20974896939E+04  0.20974896939E+04  0.00000000000E+00 0. -1.
         36    2    1    2    0    0  0.35527136788E-14  0.00000000000E+00 -0.20884719447E+04  0.21065074431E+04  0.27506098212E+03 0.  0.
         25    2    3    3    0    0  0.10708827076E+02 -0.47061201772E+02 -0.13310272794E+04  0.13371760290E+04  0.11864517832E+03 0.  0.
         25    2    3    3    0    0 -0.10708827076E+02  0.47061201772E+02 -0.75744466531E+03  0.76933141408E+03  0.12577347886E+03 0.  0.
          5    1    4    4  502    0 -0.19306470572E+02 -0.78240820894E+02 -0.10082224100E+04  0.10114489033E+04  0.47000000000E+01 0. -1.
         -5    1    4    4    0  502  0.30015297648E+02  0.31179619122E+02 -0.32280486936E+03  0.32572712571E+03  0.47000000000E+01 0. -1.
          5    1    5    5  503    0  0.47404043796E+02  0.44066339995E+02 -0.24051038254E+03  0.24911105917E+03  0.47000000000E+01 0. -1.
         -5    1    5    5    0  503 -0.58112870872E+02  0.29948617768E+01 -0.51693428277E+03  0.52022035491E+03  0.47000000000E+01 0. -1.
<mgrwt>
<rscale>  0 0.27506098E+03</rscale>
<asrwt>0</asrwt>
<pdfrwt beam="1">  1        2 0.32269099E+00 0.27506098E+03</pdfrwt>
<pdfrwt beam="2">  1       -2 0.13873449E-02 0.27506098E+03</pdfrwt>
<totfact> 0.87288056E+03</totfact>
</mgrwt>
</event>
<event>
 9    1  0.2051157E-002  0.2752111E+03  0.7818608E-02  0.1098334E+00
         -1   -1    0    0    0  501 -0.00000000000E+00  0.00000000000E+00  0.90813100611E+02  0.90813100611E+02  0.00000000000E+00 0. -1.
          1   -1    0    0  501    0  0.00000000000E+00 -0.00000000000E+00 -0.20850825572E+03  0.20850825572E+03  0.00000000000E+00 0. -1.
         36    2    1    2    0    0  0.17763568394E-14  0.53290705182E-14 -0.11769515511E+03  0.29932135633E+03  0.27521105504E+03 0.  0.
         25    2    3    3    0    0  0.15804938820E+02 -0.93299733377E+01 -0.16413367730E+02  0.12737344157E+03  0.12497099857E+03 0.  0.
         25    2    3    3    0    0 -0.15804938820E+02  0.93299733377E+01 -0.10128178738E+03  0.17194791476E+03  0.13773612613E+03 0.  0.
          5    1    4    4  502    0  0.62001580089E+01 -0.12163194148E+02  0.54102062086E+02  0.55995610302E+02  0.47000000000E+01 0.  1.
         -5    1    4    4    0  502  0.96047808111E+01  0.28332208105E+01 -0.70515429815E+02  0.71377831269E+02  0.47000000000E+01 0.  1.
          5    1    5    5  503    0  0.28211832744E+02 -0.34822737983E+02  0.82658129444E+01  0.45814236336E+02  0.47000000000E+01 0.  1.
         -5    1    5    5    0  503 -0.44016771564E+02  0.44152711321E+02 -0.10954760032E+03  0.12613367842E+03  0.47000000000E+01 0.  1.
<mgrwt>
<rscale>  0 0.27521106E+03</rscale>
<asrwt>0</asrwt>
<pdfrwt beam="1">  1        1 0.32078193E-01 0.27521106E+03</pdfrwt>
<pdfrwt beam="2">  1       -1 0.13971246E-01 0.27521106E+03</pdfrwt>
<totfact> 0.49731703E+03</totfact>
</mgrwt>
</event>
<event>
 9    1  0.2051157E-002  0.2747309E+03  0.7818608E-02  0.1098602E+00
          2   -1    0    0  501    0  0.00000000000E+00  0.00000000000E+00  0.68821855807E+03  0.68821855807E+03  0.00000000000E+00 0. -1.
         -2   -1    0    0    0  501 -0.00000000000E+00 -0.00000000000E+00 -0.27417557112E+02  0.27417557112E+02  0.00000000000E+00 0. -1.
         36    2    1    2    0    0  0.17763568394E-14  0.00000000000E+00  0.66080100096E+03  0.71563611518E+03  0.27473093471E+03 0.  0.
         25    2    3    3    0    0  0.15143517557E+02 -0.48627372742E+02  0.37956589625E+03  0.40371783659E+03  0.12776491883E+03 0.  0.
         25    2    3    3    0    0 -0.15143517557E+02  0.48627372742E+02  0.28123510471E+03  0.31191827859E+03  0.12492350017E+03 0.  0.
          5    1    4    4  502    0  0.19675862916E+01  0.40456074589E+02  0.18250717397E+03  0.18700674832E+03  0.47000000000E+01 0. -1.
         -5    1    4    4    0  502  0.13175931265E+02 -0.89083447331E+02  0.19705872228E+03  0.21671108827E+03  0.47000000000E+01 0. -1.
          5    1    5    5  503    0  0.12335436903E+02  0.86676165942E+02  0.17829681245E+03  0.19868760424E+03  0.47000000000E+01 0. -1.
         -5    1    5    5    0  503 -0.27478954460E+02 -0.38048793200E+02  0.10293829225E+03  0.11323067435E+03  0.47000000000E+01 0. -1.
<mgrwt>
<rscale>  0 0.27473093E+03</rscale>
<asrwt>0</asrwt>
<pdfrwt beam="1">  1        2 0.10587977E+00 0.27473093E+03</pdfrwt>
<pdfrwt beam="2">  1       -2 0.42180862E-02 0.27473093E+03</pdfrwt>
<totfact> 0.10815482E+04</totfact>
</mgrwt>
</event>
<event>
 9    1  0.2051157E-002  0.2751137E+03  0.7818608E-02  0.1098388E+00
          2   -1    0    0  501    0  0.00000000000E+00  0.00000000000E+00  0.45250303359E+03  0.45250303359E+03  0.00000000000E+00 0. -1.
         -2   -1    0    0    0  501 -0.00000000000E+00 -0.00000000000E+00 -0.41816056503E+02  0.41816056503E+02  0.00000000000E+00 0. -1.
         36    2    1    2    0    0  0.00000000000E+00  0.35527136788E-14  0.41068697708E+03  0.49431909009E+03  0.27511373954E+03 0.  0.
         25    2    3    3    0    0  0.49290023276E+00  0.29587367453E+02  0.11531195268E+03  0.17441847605E+03  0.12747275431E+03 0.  0.
         25    2    3    3    0    0 -0.49290023276E+00 -0.29587367453E+02  0.29537502441E+03  0.31990061404E+03  0.11922391773E+03 0.  0.
          5    1    4    4  502    0  0.26737234378E+02  0.20796796366E+02  0.13555854505E+03  0.13980556347E+03  0.47000000000E+01 0. -1.
         -5    1    4    4    0  502 -0.26244334145E+02  0.87905710869E+01 -0.20246592367E+02  0.34612912580E+02  0.47000000000E+01 0. -1.
          5    1    5    5  503    0 -0.31552449786E+02  0.23823960772E+02  0.37531263962E+02  0.54715847512E+02  0.47000000000E+01 0.  1.
         -5    1    5    5    0  503  0.31059549553E+02 -0.53411328225E+02  0.25784376044E+03  0.26518476653E+03  0.47000000000E+01 0.  1.
<mgrwt>
<rscale>  0 0.27511374E+03</rscale>
<asrwt>0</asrwt>
<pdfrwt beam="1">  1        2 0.69615848E-01 0.27511374E+03</pdfrwt>
<pdfrwt beam="2">  1       -2 0.64332398E-02 0.27511374E+03</pdfrwt>
<totfact> 0.91962867E+03</totfact>
</mgrwt>
</event>
<event>
 9    1  0.2051157E-002  0.2749256E+03  0.7818608E-02  0.1098493E+00
         -1   -1    0    0    0  501 -0.00000000000E+00  0.00000000000E+00  0.27682793032E+02  0.27682793032E+02  0.00000000000E+00 0.  1.
          1   -1    0    0  501    0  0.00000000000E+00 -0.00000000000E+00 -0.68259082396E+03  0.68259082396E+03  0.00000000000E+00 0.  1.
         36    2    1    2    0    0  0.00000000000E+00  0.71054273576E-14 -0.65490803093E+03  0.71027361699E+03  0.27492559361E+03 0.  0.
         25    2    3    3    0    0 -0.58753485886E+02 -0.22677597510E+02 -0.30148369677E+03  0.33217977161E+03  0.12443767805E+03 0.  0.
         25    2    3    3    0    0  0.58753485886E+02  0.22677597510E+02 -0.35342433416E+03  0.37809384538E+03  0.11865896681E+03 0.  0.
          5    1    4    4  502    0 -0.25812906628E+02 -0.39243192038E+02 -0.25401226760E+02  0.53606404383E+02  0.47000000000E+01 0.  1.
         -5    1    4    4    0  502 -0.32940579257E+02  0.16565594528E+02 -0.27608247001E+03  0.27857336723E+03  0.47000000000E+01 0.  1.
          5    1    5    5  503    0  0.19826378660E+02  0.53158999034E+02 -0.29917887504E+03  0.30454729311E+03  0.47000000000E+01 0. -1.
         -5    1    5    5    0  503  0.38927107226E+02 -0.30481401524E+02 -0.54245459119E+02  0.73546552271E+02  0.47000000000E+01 0. -1.
<mgrwt>
<rscale>  0 0.27492559E+03</rscale>
<asrwt>0</asrwt>
<pdfrwt beam="1">  1        1 0.10501397E+00 0.27492559E+03</pdfrwt>
<pdfrwt beam="2">  1       -1 0.42588915E-02 0.27492559E+03</pdfrwt>
<totfact> 0.65304597E+03</totfact>
</mgrwt>
</event>
<event>
 9    1  0.2051157E-002  0.2800639E+03  0.7818608E-02  0.1095654E+00
         -1   -1    0    0    0  501 -0.00000000000E+00  0.00000000000E+00  0.20633748004E+03  0.20633748004E+03  0.00000000000E+00 0. -1.
          1   -1    0    0  501    0  0.00000000000E+00 -0.00000000000E+00 -0.95033378054E+02  0.95033378054E+02  0.00000000000E+00 0. -1.
         36    2    1    2    0    0  0.35527136788E-14  0.00000000000E+00  0.11130410198E+03  0.30137085809E+03  0.28006390519E+03 0.  0.
         25    2    3    3    0    0 -0.12960551193E+02 -0.21394265674E+02  0.10591904780E+03  0.17958221241E+03  0.14284689649E+03 0.  0.
         25    2    3    3    0    0  0.12960551193E+02  0.21394265674E+02  0.53850541863E+01  0.12178864568E+03  0.11907050398E+03 0.  0.
          5    1    4    4  502    0  0.19959659996E+01  0.58248678670E+02  0.21052228916E+02  0.62146430223E+02  0.47000000000E+01 0. -1.
         -5    1    4    4    0  502 -0.14956517192E+02 -0.79642944344E+02  0.84866818882E+02  0.11743578219E+03  0.47000000000E+01 0. -1.
          5    1    5    5  503    0  0.32291327600E+02  0.65414344666E+02  0.71440554430E+01  0.73449941147E+02  0.47000000000E+01 0. -1.
         -5    1    5    5    0  503 -0.19330776407E+02 -0.44020078993E+02 -0.17590012567E+01  0.48338704538E+02  0.47000000000E+01 0. -1.
<mgrwt>
<rscale>  0 0.28006391E+03</rscale>
<asrwt>0</asrwt>
<pdfrwt beam="1">  1        1 0.14620520E-01 0.28006391E+03</pdfrwt>
<pdfrwt beam="2">  1       -1 0.31744228E-01 0.28006391E+03</pdfrwt>
<totfact> 0.35581063E+03</totfact>
</mgrwt>
</event>
<event>
 9    1  0.2051157E-002  0.2751504E+03  0.7818608E-02  0.1098368E+00
          2   -1    0    0  501    0  0.00000000000E+00  0.00000000000E+00  0.18612779619E+04  0.18612779619E+04  0.00000000000E+00 0. -1.
         -2   -1    0    0    0  501 -0.00000000000E+00 -0.00000000000E+00 -0.10168788539E+02  0.10168788539E+02  0.00000000000E+00 0. -1.
         36    2    1    2    0    0  0.00000000000E+00 -0.71054273576E-14  0.18511091734E+04  0.18714467504E+04  0.27515044618E+03 0.  0.
         25    2    3    3    0    0  0.16788895983E+02  0.26708144514E+02  0.62511074438E+03  0.63891640972E+03  0.12827916380E+03 0.  0.
         25    2    3    3    0    0 -0.16788895983E+02 -0.26708144514E+02  0.12259984290E+04  0.12325303407E+04  0.12273426949E+03 0.  0.
          5    1    4    4  502    0 -0.34495018254E+02  0.43558730401E+02  0.13858534340E+03  0.14938291965E+03  0.47000000000E+01 0.  1.
         -5    1    4    4    0  502  0.51283914237E+02 -0.16850585887E+02  0.48652540098E+03  0.48953349007E+03  0.47000000000E+01 0.  1.
          5    1    5    5  503    0  0.53000236682E+02 -0.15587242561E+02  0.59057008796E+03  0.59316701359E+03  0.47000000000E+01 0.  1.
         -5    1    5    5    0  503 -0.69789132665E+02 -0.11120901953E+02  0.63542834102E+03  0.63936332713E+03  0.47000000000E+01 0.  1.
<mgrwt>
<rscale>  0 0.27515045E+03</rscale>
<asrwt>0</asrwt>
<pdfrwt beam="1">  1        2 0.28635019E+00 0.27515045E+03</pdfrwt>
<pdfrwt beam="2">  1       -2 0.15644305E-02 0.27515045E+03</pdfrwt>
<totfact> 0.97482799E+03</totfact>
</mgrwt>
</event>
<event>
 9    1  0.2051157E-002  0.2749818E+03  0.7818608E-02  0.1098462E+00
         -2   -1    0    0    0  501 -0.00000000000E+00  0.00000000000E+00  0.80145994086E+02  0.80145994086E+02  0.00000000000E+00 0.  1.
          2   -1    0    0  501    0  0.00000000000E+00 -0.00000000000E+00 -0.23586637113E+03  0.23586637113E+03  0.00000000000E+00 0.  1.
         36    2    1    2    0    0  0.00000000000E+00  0.10658141036E-13 -0.15572037704E+03  0.31601236521E+03  0.27498177965E+03 0.  0.
         25    2    3    3    0    0  0.35892897354E+02  0.20060938315E+02 -0.56442035767E+02  0.14967873471E+03  0.13239062994E+03 0.  0.
         25    2    3    3    0    0 -0.35892897354E+02 -0.20060938315E+02 -0.99278341272E+02  0.16633363050E+03  0.12696435037E+03 0.  0.
          5    1    4    4  502    0 -0.11461354739E+02 -0.48111604158E+02 -0.89038157156E+00  0.49688750100E+02  0.47000000000E+01 0.  1.
         -5    1    4    4    0  502  0.47354252093E+02  0.68172542473E+02 -0.55551654196E+02  0.99989984610E+02  0.47000000000E+01 0.  1.
          5    1    5    5  503    0  0.31235384848E+02 -0.35165450043E+02 -0.22898211469E+01  0.47324321698E+02  0.47000000000E+01 0. -1.
         -5    1    5    5    0  503 -0.67128282202E+02  0.15104511728E+02 -0.96988520125E+02  0.11900930880E+03  0.47000000000E+01 0. -1.
<mgrwt>
<rscale>  0 0.27498178E+03</rscale>
<asrwt>0</asrwt>
<pdfrwt beam="1">  1        2 0.36287134E-01 0.27498178E+03</pdfrwt>
<pdfrwt beam="2">  1       -2 0.12330153E-01 0.27498178E+03</pdfrwt>
<totfact> 0.66724201E+03</totfact>
</mgrwt>
</event>
<event>
 9    1  0.2051157E-002  0.2687034E+03  0.7818608E-02  0.1102024E+00
         -2   -1    0    0    0  501 -0.00000000000E+00  0.00000000000E+00  0.95634587371E+01  0.95634587371E+01  0.00000000000E+00 0.  1.
          2   -1    0    0  501    0  0.00000000000E+00 -0.00000000000E+00 -0.18874326406E+04  0.18874326406E+04  0.00000000000E+00 0.  1.
         36    2    1    2    0    0 -0.14210854715E-13  0.71054273576E-14 -0.18778691818E+04  0.18969960993E+04  0.26870343636E+03 0.  0.
         25    2    3    3    0    0  0.38072647083E+02 -0.34616702534E+02 -0.97118968250E+03  0.98048711092E+03  0.12448989011E+03 0.  0.
         25    2    3    3    0    0 -0.38072647083E+02  0.34616702534E+02 -0.90667949934E+03  0.91650898839E+03  0.12358466220E+03 0.  0.
          5    1    4    4  502    0  0.43646819574E+02 -0.58820953051E+02 -0.30094610663E+03  0.30976700676E+03  0.47000000000E+01 0.  1.
         -5    1    4    4    0  502 -0.55741724913E+01  0.24204250517E+02 -0.67024357587E+03  0.67072010417E+03  0.47000000000E+01 0.  1.
          5    1    5    5  503    0 -0.55439959368E+02  0.51970958954E+02 -0.30669371839E+03  0.31600268443E+03  0.47000000000E+01 0. -1.
         -5    1    5    5    0  503  0.17367312285E+02 -0.17354256420E+02 -0.59998578095E+03  0.60050630396E+03  0.47000000000E+01 0. -1.
<mgrwt>
<rscale>  0 0.26870344E+03</rscale>
<asrwt>0</asrwt>
<pdfrwt beam="1">  1        2 0.29037397E+00 0.26870344E+03</pdfrwt>
<pdfrwt beam="2">  1       -2 0.14713028E-02 0.26870344E+03</pdfrwt>
<totfact> 0.10328928E+04</totfact>
</mgrwt>
</event>
<event>
 9    1  0.2051157E-002  0.2739795E+03  0.7818608E-02  0.1099023E+00
          1   -1    0    0  501    0  0.00000000000E+00  0.00000000000E+00  0.62221380055E+03  0.62221380055E+03  0.00000000000E+00 0. -1.
         -1   -1    0    0    0  501 -0.00000000000E+00 -0.00000000000E+00 -0.30160359769E+02  0.30160359769E+02  0.00000000000E+00 0. -1.
         36    2    1    2    0    0  0.00000000000E+00 -0.71054273576E-14  0.59205344078E+03  0.65237416032E+03  0.27397950345E+03 0.  0.
         25    2    3    3    0    0  0.89108536630E+01 -0.53790452445E+02  0.35246826235E+03  0.37773712976E+03  0.12441321130E+03 0.  0.
         25    2    3    3    0    0 -0.89108536630E+01  0.53790452445E+02  0.23958517842E+03  0.27463703056E+03  0.12268506325E+03 0.  0.
          5    1    4    4  502    0 -0.43023658064E+02 -0.14201461812E+02  0.26275470371E+03  0.26667366011E+03  0.47000000000E+01 0.  1.
         -5    1    4    4    0  502  0.51934511727E+02 -0.39588990633E+02  0.89713558638E+02  0.11106346965E+03  0.47000000000E+01 0.  1.
          5    1    5    5  503    0  0.31404964358E+02  0.78261929500E+02  0.12742257368E+03  0.15287185378E+03  0.47000000000E+01 0.  1.
         -5    1    5    5    0  503 -0.40315818021E+02 -0.24471477054E+02  0.11216260475E+03  0.12176517678E+03  0.47000000000E+01 0.  1.
<mgrwt>
<rscale>  0 0.27397950E+03</rscale>
<asrwt>0</asrwt>
<pdfrwt beam="1">  1        1 0.95725190E-01 0.27397950E+03</pdfrwt>
<pdfrwt beam="2">  1       -1 0.46400558E-02 0.27397950E+03</pdfrwt>
<totfact> 0.65561271E+03</totfact>
</mgrwt>
</event>
<event>
 9    1  0.2051157E-002  0.2725590E+03  0.7818608E-02  0.1099824E+00
          1   -1    0    0  501    0  0.00000000000E+00  0.00000000000E+00  0.35971839821E+03  0.35971839821E+03  0.00000000000E+00 0. -1.
         -1   -1    0    0    0  501 -0.00000000000E+00 -0.00000000000E+00 -0.51629574612E+02  0.51629574612E+02  0.00000000000E+00 0. -1.
         36    2    1    2    0    0  0.71054273576E-14  0.00000000000E+00  0.30808882359E+03  0.41134797282E+03  0.27255904226E+03 0.  0.
         25    2    3    3    0    0  0.22453730224E+02 -0.41818283699E+02  0.13110016234E+03  0.18516309136E+03  0.12184079359E+03 0.  0.
         25    2    3    3    0    0 -0.22453730224E+02  0.41818283699E+02  0.17698866125E+03  0.22618488146E+03  0.13259591071E+03 0.  0.
          5    1    4    4  502    0 -0.40590623305E+02 -0.21681097884E+02  0.10374669987E+02  0.47406671293E+02  0.47000000000E+01 0.  1.
         -5    1    4    4    0  502  0.63044353529E+02 -0.20137185815E+02  0.12072549235E+03  0.13775642006E+03  0.47000000000E+01 0.  1.
          5    1    5    5  503    0 -0.37097839843E+02  0.77504709922E+02  0.16401051001E+03  0.18521546149E+03  0.47000000000E+01 0. -1.
         -5    1    5    5    0  503  0.14644109619E+02 -0.35686426223E+02  0.12978151241E+02  0.40969419970E+02  0.47000000000E+01 0. -1.
<mgrwt>
<rscale>  0 0.27255904E+03</rscale>
<asrwt>0</asrwt>
<pdfrwt beam="1">  1        1 0.55341290E-01 0.27255904E+03</pdfrwt>
<pdfrwt beam="2">  1       -1 0.79430117E-02 0.27255904E+03</pdfrwt>
<totfact> 0.60085354E+03</totfact>
</mgrwt>
</event>
<event>
 9    1  0.2051157E-002  0.2761767E+03  0.7818608E-02  0.1097796E+00
         -2   -1    0    0    0  501 -0.00000000000E+00  0.00000000000E+00  0.32969509512E+02  0.32969509512E+02  0.00000000000E+00 0. -1.
          2   -1    0    0  501    0  0.00000000000E+00 -0.00000000000E+00 -0.57836458702E+03  0.57836458702E+03  0.00000000000E+00 0. -1.
         36    2    1    2    0    0  0.71054273576E-14 -0.21316282073E-13 -0.54539507751E+03  0.61133409653E+03  0.27617673148E+03 0.  0.
         25    2    3    3    0    0  0.10242987965E+02 -0.46860887767E+02 -0.36020843482E+03  0.38431209481E+03  0.12507920728E+03 0.  0.
         25    2    3    3    0    0 -0.10242987965E+02  0.46860887767E+02 -0.18518664268E+03  0.22702200172E+03  0.12224579760E+03 0.  0.
          5    1    4    4  502    0 -0.37902998684E+02 -0.19850425240E+02 -0.29765016014E+03  0.30074637906E+03  0.47000000000E+01 0. -1.
         -5    1    4    4    0  502  0.48145986649E+02 -0.27010462527E+02 -0.62558274687E+02  0.83565715746E+02  0.47000000000E+01 0. -1.
          5    1    5    5  503    0  0.14819517863E+02 -0.27972434478E+02 -0.79842728126E+01  0.32983538510E+02  0.47000000000E+01 0.  1.
         -5    1    5    5    0  503 -0.25062505828E+02  0.74833322245E+02 -0.17720236987E+03  0.19403846321E+03  0.47000000000E+01 0.  1.
<mgrwt>
<rscale>  0 0.27617673E+03</rscale>
<asrwt>0</asrwt>
<pdfrwt beam="1">  1        2 0.88979160E-01 0.27617673E+03</pdfrwt>
<pdfrwt beam="2">  1       -2 0.50722326E-02 0.27617673E+03</pdfrwt>
<totfact> 0.10041838E+04</totfact>
</mgrwt>
</event>
<event>
 9    1  0.2051157E-002  0.2757118E+03  0.7818608E-02  0.1098054E+00
         -2   -1    0    0    0  501 -0.00000000000E+00  0.00000000000E+00  0.25629148076E+02  0.25629148076E+02  0.00000000000E+00 0.  1.
          2   -1    0    0  501    0  0.00000000000E+00 -0.00000000000E+00 -0.74150927938E+03  0.74150927938E+03  0.00000000000E+00 0.  1.
         36    2    1    2    0    0  0.00000000000E+00 -0.71054273576E-14 -0.71588013130E+03  0.76713842745E+03  0.27571181419E+03 0.  0.
         25    2    3    3    0    0  0.28470762167E+02 -0.53065833956E+02 -0.20044610024E+03  0.23327989263E+03  0.10302573549E+03 0.  0.
         25    2    3    3    0    0 -0.28470762167E+02  0.53065833956E+02 -0.51543403106E+03  0.53385853482E+03  0.12532409103E+03 0.  0.
          5    1    4    4  502    0  0.31444395784E+02 -0.76745619711E+02 -0.10035757979E+03  0.13027806413E+03  0.47000000000E+01 0.  1.
         -5    1    4    4    0  502 -0.29736336166E+01  0.23679785755E+02 -0.10008852045E+03  0.10300182851E+03  0.47000000000E+01 0.  1.
          5    1    5    5  503    0 -0.32443239310E+02 -0.25784788777E+02 -0.32483180270E+03  0.32749841092E+03  0.47000000000E+01 0.  1.
         -5    1    5    5    0  503  0.39724771424E+01  0.78850622733E+02 -0.19060222836E+03  0.20636012390E+03  0.47000000000E+01 0.  1.
<mgrwt>
<rscale>  0 0.27571181E+03</rscale>
<asrwt>0</asrwt>
<pdfrwt beam="1">  1        2 0.11407837E+00 0.27571181E+03</pdfrwt>
<pdfrwt beam="2">  1       -2 0.39429452E-02 0.27571181E+03</pdfrwt>
<totfact> 0.10930211E+04</totfact>
</mgrwt>
</event>
<event>
 9    1  0.2051157E-002  0.2756100E+03  0.7818608E-02  0.1098111E+00
         -1   -1    0    0    0  501 -0.00000000000E+00  0.00000000000E+00  0.12014803447E+03  0.12014803447E+03  0.00000000000E+00 0. -1.
          1   -1    0    0  501    0  0.00000000000E+00 -0.00000000000E+00 -0.15805678950E+03  0.15805678950E+03  0.00000000000E+00 0. -1.
         36    2    1    2    0    0  0.00000000000E+00  0.00000000000E+00 -0.37908755034E+02  0.27820482397E+03  0.27560996058E+03 0.  0.
         25    2    3    3    0    0 -0.46819797884E+02  0.28667501190E+02 -0.16027941034E+00  0.13508331738E+03  0.12342430007E+03 0.  0.
         25    2    3    3    0    0  0.46819797884E+02 -0.28667501190E+02 -0.37748475623E+02  0.14312150659E+03  0.12666846149E+03 0.  0.
          5    1    4    4  502    0  0.14769461993E+01  0.58302090828E+02  0.35050612603E+02  0.68205209543E+02  0.47000000000E+01 0. -1.
         -5    1    4    4    0  502 -0.48296744083E+02 -0.29634589638E+02 -0.35210892013E+02  0.66878107841E+02  0.47000000000E+01 0. -1.
          5    1    5    5  503    0 -0.38414738678E+01 -0.10806005621E+02  0.43709497017E+02  0.45432772405E+02  0.47000000000E+01 0.  1.
         -5    1    5    5    0  503  0.50661271751E+02 -0.17861495569E+02 -0.81457972640E+02  0.97688734182E+02  0.47000000000E+01 0.  1.
<mgrwt>
<rscale>  0 0.27560996E+03</rscale>
<asrwt>0</asrwt>
<pdfrwt beam="1">  1        1 0.24316429E-01 0.27560996E+03</pdfrwt>
<pdfrwt beam="2">  1       -1 0.18484313E-01 0.27560996E+03</pdfrwt>
<totfact> 0.45187541E+03</totfact>
</mgrwt>
</event>
<event>
 9    1  0.2051157E-002  0.2754229E+03  0.7818608E-02  0.1098215E+00
          2   -1    0    0  501    0  0.00000000000E+00  0.00000000000E+00  0.10102962754E+03  0.10102962754E+03  0.00000000000E+00 0.  1.
         -2   -1    0    0    0  501 -0.00000000000E+00 -0.00000000000E+00 -0.18771175271E+03  0.18771175271E+03  0.00000000000E+00 0.  1.
         36    2    1    2    0    0 -0.71054273576E-14  0.00000000000E+00 -0.86682125169E+02  0.28874138024E+03  0.27542293630E+03 0.  0.
         25    2    3    3    0    0 -0.58425337596E+02 -0.13791147039E+02 -0.12256314736E+02  0.14030365653E+03  0.12621879010E+03 0.  0.
         25    2    3    3    0    0  0.58425337596E+02  0.13791147039E+02 -0.74425810433E+02  0.14843772371E+03  0.11353783842E+03 0.  0.
          5    1    4    4  502    0  0.22407681410E+02  0.29011340259E+02  0.21426715754E+02  0.42719506057E+02  0.47000000000E+01 0.  1.
         -5    1    4    4    0  502 -0.80833019006E+02 -0.42802487298E+02 -0.33683030489E+02  0.97584150473E+02  0.47000000000E+01 0.  1.
          5    1    5    5  503    0  0.71956900044E+02 -0.32255696412E+02 -0.36169106426E+02  0.86882217252E+02  0.47000000000E+01 0. -1.
         -5    1    5    5    0  503 -0.13531562447E+02  0.46046843451E+02 -0.38256704007E+02  0.61555506460E+02  0.47000000000E+01 0. -1.
<mgrwt>
<rscale>  0 0.27542294E+03</rscale>
<asrwt>0</asrwt>
<pdfrwt beam="1">  1        2 0.15543020E-01 0.27542294E+03</pdfrwt>
<pdfrwt beam="2">  1       -2 0.28878731E-01 0.27542294E+03</pdfrwt>
<totfact> 0.40717375E+03</totfact>
</mgrwt>
</event>
<event>
 9    1  0.2051157E-002  0.2751002E+03  0.7818608E-02  0.1098396E+00
         -3   -1    0    0    0  501 -0.00000000000E+00  0.00000000000E+00  0.78633223627E+02  0.78633223627E+02  0.00000000000E+00 0. -1.
          3   -1    0    0  501    0  0.00000000000E+00 -0.00000000000E+00 -0.24061117063E+03  0.24061117063E+03  0.00000000000E+00 0. -1.
         36    2    1    2    0    0  0.00000000000E+00  0.35527136788E-14 -0.16197794700E+03  0.31924439425E+03  0.27510021437E+03 0.  0.
         25    2    3    3    0    0  0.13726313027E+02  0.29270446085E+02 -0.14399080584E+03  0.19289329148E+03  0.12421472959E+03 0.  0.
         25    2    3    3    0    0 -0.13726313027E+02 -0.29270446085E+02 -0.17987141161E+02  0.12635110278E+03  0.12081346466E+03 0.  0.
          5    1    4    4  502    0 -0.48189950139E+02 -0.14144739248E+02 -0.40819009386E+02  0.64889340188E+02  0.47000000000E+01 0. -1.
         -5    1    4    4    0  502  0.61916263166E+02  0.43415185333E+02 -0.10317179645E+03  0.12800395129E+03  0.47000000000E+01 0. -1.
          5    1    5    5  503    0  0.87755988636E+01 -0.70048169068E+02 -0.31763940641E+02  0.77555109763E+02  0.47000000000E+01 0. -1.
         -5    1    5    5    0  503 -0.22501911890E+02  0.40777722984E+02  0.13776799480E+02  0.48795993015E+02  0.47000000000E+01 0. -1.
<mgrwt>
<rscale>  0 0.27510021E+03</rscale>
<asrwt>0</asrwt>
<pdfrwt beam="1">  1        3 0.37017103E-01 0.27510021E+03</pdfrwt>
<pdfrwt beam="2">  1       -3 0.12097419E-01 0.27510021E+03</pdfrwt>
<totfact> 0.98330570E+02</totfact>
</mgrwt>
</event>
<event>
 9    1  0.2051157E-002  0.2748138E+03  0.7818608E-02  0.1098556E+00
         -2   -1    0    0    0  501 -0.00000000000E+00  0.00000000000E+00  0.16909985153E+02  0.16909985153E+02  0.00000000000E+00 0.  1.
          2   -1    0    0  501    0  0.00000000000E+00 -0.00000000000E+00 -0.11165389886E+04  0.11165389886E+04  0.00000000000E+00 0.  1.
         36    2    1    2    0    0  0.00000000000E+00 -0.44408920985E-15 -0.10996290034E+04  0.11334489737E+04  0.27481381129E+03 0.  0.
         25    2    3    3    0    0 -0.44539987660E+02 -0.11718424938E+01 -0.36697455204E+03  0.38975416513E+03  0.12350224157E+03 0.  0.
         25    2    3    3    0    0  0.44539987660E+02  0.11718424938E+01 -0.73265445136E+03  0.74369480858E+03  0.11964213094E+03 0.  0.
          5    1    4    4  502    0  0.31145874775E+02 -0.15834321215E+01 -0.23844186562E+03  0.24051857736E+03  0.47000000000E+01 0. -1.
         -5    1    4    4    0  502 -0.75685862436E+02  0.41158962775E+00 -0.12853268642E+03  0.14923558777E+03  0.47000000000E+01 0. -1.
          5    1    5    5  503    0 -0.40492421349E+02  0.64650541111E+01 -0.19591504663E+03  0.20021545547E+03  0.47000000000E+01 0. -1.
         -5    1    5    5    0  503  0.85032409009E+02 -0.52932116173E+01 -0.53673940473E+03  0.54347935312E+03  0.47000000000E+01 0. -1.
<mgrwt>
<rscale>  0 0.27481381E+03</rscale>
<asrwt>0</asrwt>
<pdfrwt beam="1">  1        2 0.17177524E+00 0.27481381E+03</pdfrwt>
<pdfrwt beam="2">  1       -2 0.26015360E-02 0.27481381E+03</pdfrwt>
<totfact> 0.11679325E+04</totfact>
</mgrwt>
</event>
<event>
 9    1  0.2051157E-002  0.2729681E+03  0.7818608E-02  0.1099593E+00
          2   -1    0    0  501    0  0.00000000000E+00  0.00000000000E+00  0.17192947577E+03  0.17192947577E+03  0.00000000000E+00 0. -1.
         -2   -1    0    0    0  501 -0.00000000000E+00 -0.00000000000E+00 -0.10834617904E+03  0.10834617904E+03  0.00000000000E+00 0. -1.
         36    2    1    2    0    0 -0.35527136788E-14  0.71054273576E-14  0.63583296732E+02  0.28027565480E+03  0.27296814293E+03 0.  0.
         25    2    3    3    0    0 -0.55801728974E+01  0.31996110266E+02  0.73826104118E+02  0.14928527225E+03  0.12562208985E+03 0.  0.
         25    2    3    3    0    0  0.55801728974E+01 -0.31996110266E+02 -0.10242807386E+02  0.13099038256E+03  0.12648587201E+03 0.  0.
          5    1    4    4  502    0  0.24681925737E+02 -0.76518193541E+01 -0.26397461049E+02  0.37237934252E+02  0.47000000000E+01 0. -1.
         -5    1    4    4    0  502 -0.30262098635E+02  0.39647929620E+02  0.10022356517E+03  0.11204733799E+03  0.47000000000E+01 0. -1.
          5    1    5    5  503    0 -0.37535249735E+02  0.34001335215E+02  0.28344795548E+01  0.50942222600E+02  0.47000000000E+01 0. -1.
         -5    1    5    5    0  503  0.43115422632E+02 -0.65997445481E+02 -0.13077286941E+02  0.80048159957E+02  0.47000000000E+01 0. -1.
<mgrwt>
<rscale>  0 0.27296814E+03</rscale>
<asrwt>0</asrwt>
<pdfrwt beam="1">  1        2 0.26450688E-01 0.27296814E+03</pdfrwt>
<pdfrwt beam="2">  1       -2 0.16668643E-01 0.27296814E+03</pdfrwt>
<totfact> 0.57449180E+03</totfact>
</mgrwt>
</event>
<event>
 9    1  0.2051157E-002  0.2745522E+03  0.7818608E-02  0.1098702E+00
          2   -1    0    0  501    0  0.00000000000E+00  0.00000000000E+00  0.17792748221E+04  0.17792748221E+04  0.00000000000E+00 0.  1.
         -2   -1    0    0    0  501 -0.00000000000E+00 -0.00000000000E+00 -0.10591244028E+02  0.10591244028E+02  0.00000000000E+00 0.  1.
         36    2    1    2    0    0  0.00000000000E+00  0.00000000000E+00  0.17686835781E+04  0.17898660662E+04  0.27455224519E+03 0.  0.
         25    2    3    3    0    0 -0.48182623534E+02 -0.23084269111E+02  0.90380227601E+03  0.91453934626E+03  0.12910930659E+03 0.  0.
         25    2    3    3    0    0  0.48182623534E+02  0.23084269111E+02  0.86488130211E+03  0.87532671991E+03  0.12378510075E+03 0.  0.
          5    1    4    4  502    0 -0.41373596322E+01 -0.71242497561E+02  0.38054284319E+03  0.38720479943E+03  0.47000000000E+01 0.  1.
         -5    1    4    4    0  502 -0.44045263901E+02  0.48158228450E+02  0.52325943283E+03  0.52733454683E+03  0.47000000000E+01 0.  1.
          5    1    5    5  503    0  0.32287084187E+02  0.54686498742E+01  0.83991009698E+03  0.84056137370E+03  0.47000000000E+01 0. -1.
         -5    1    5    5    0  503  0.15895539346E+02  0.17615619236E+02  0.24971205126E+02  0.34765346217E+02  0.47000000000E+01 0. -1.
<mgrwt>
<rscale>  0 0.27455225E+03</rscale>
<asrwt>0</asrwt>
<pdfrwt beam="1">  1        2 0.27373435E+00 0.27455225E+03</pdfrwt>
<pdfrwt beam="2">  1       -2 0.16294236E-02 0.27455225E+03</pdfrwt>
<totfact> 0.10140844E+04</totfact>
</mgrwt>
</event>
<event>
 9    1  0.2051157E-002  0.2779784E+03  0.7818608E-02  0.1096798E+00
         -2   -1    0    0    0  501 -0.00000000000E+00  0.00000000000E+00  0.32087217713E+03  0.32087217713E+03  0.00000000000E+00 0. -1.
          2   -1    0    0  501    0  0.00000000000E+00 -0.00000000000E+00 -0.60204667409E+02  0.60204667409E+02  0.00000000000E+00 0. -1.
         36    2    1    2    0    0  0.71054273576E-14  0.00000000000E+00  0.26066750972E+03  0.38107684454E+03  0.27797843589E+03 0.  0.
         25    2    3    3    0    0 -0.23090895240E+02 -0.17715451656E+01  0.18673502847E+03  0.23200646925E+03  0.13572289086E+03 0.  0.
         25    2    3    3    0    0  0.23090895240E+02  0.17715451656E+01  0.73932481250E+02  0.14907037528E+03  0.12735633941E+03 0.  0.
          5    1    4    4  502    0  0.53066488043E+02 -0.22519166691E+02  0.66915871994E+02  0.88447662187E+02  0.47000000000E+01 0. -1.
         -5    1    4    4    0  502 -0.76157383283E+02  0.20747621526E+02  0.11981915648E+03  0.14355880707E+03  0.47000000000E+01 0. -1.
          5    1    5    5  503    0 -0.19424867086E+01 -0.61178947185E+02  0.38649550969E+02  0.72543191434E+02  0.47000000000E+01 0. -1.
         -5    1    5    5    0  503  0.25033381948E+02  0.62950492351E+02  0.35282930281E+02  0.76527183851E+02  0.47000000000E+01 0. -1.
<mgrwt>
<rscale>  0 0.27797844E+03</rscale>
<asrwt>0</asrwt>
<pdfrwt beam="1">  1        2 0.92622567E-02 0.27797844E+03</pdfrwt>
<pdfrwt beam="2">  1       -2 0.49364949E-01 0.27797844E+03</pdfrwt>
<totfact> 0.27725457E+03</totfact>
</mgrwt>
</event>
<event>
 9    1  0.2051157E-002  0.2668180E+03  0.7818608E-02  0.1103115E+00
          1   -1    0    0  501    0  0.00000000000E+00  0.00000000000E+00  0.37723814998E+03  0.37723814998E+03  0.00000000000E+00 0.  1.
         -1   -1    0    0    0  501 -0.00000000000E+00 -0.00000000000E+00 -0.47179648677E+02  0.47179648677E+02  0.00000000000E+00 0.  1.
         36    2    1    2    0    0  0.35527136788E-14  0.00000000000E+00  0.33005850130E+03  0.42441779866E+03  0.26681801576E+03 0.  0.
         25    2    3    3    0    0 -0.47852273872E+01  0.33366710678E+02  0.22981211318E+03  0.26179618759E+03  0.12077831215E+03 0.  0.
         25    2    3    3    0    0  0.47852273872E+01 -0.33366710678E+02  0.10024638812E+03  0.16262161107E+03  0.12353223981E+03 0.  0.
          5    1    4    4  502    0  0.17272854063E+02 -0.35127789002E+02  0.14600755279E+03  0.15123692843E+03  0.47000000000E+01 0. -1.
         -5    1    4    4    0  502 -0.22058081451E+02  0.68494499680E+02  0.83804560392E+02  0.11055925916E+03  0.47000000000E+01 0. -1.
          5    1    5    5  503    0 -0.57873885123E+02 -0.29164441791E+02  0.47760408650E+02  0.80641787423E+02  0.47000000000E+01 0.  1.
         -5    1    5    5    0  503  0.62659112511E+02 -0.42022688868E+01  0.52485979467E+02  0.81979823646E+02  0.47000000000E+01 0.  1.
<mgrwt>
<rscale>  0 0.26681802E+03</rscale>
<asrwt>0</asrwt>
<pdfrwt beam="1">  1        1 0.58036636E-01 0.26681802E+03</pdfrwt>
<pdfrwt beam="2">  1       -1 0.72584078E-02 0.26681802E+03</pdfrwt>
<totfact> 0.64833254E+03</totfact>
</mgrwt>
</event>
<event>
 9    1  0.2051157E-002  0.2750393E+03  0.7818608E-02  0.1098430E+00
         -1   -1    0    0    0  501 -0.00000000000E+00  0.00000000000E+00  0.54100769088E+02  0.54100769088E+02  0.00000000000E+00 0. -1.
          1   -1    0    0  501    0  0.00000000000E+00 -0.00000000000E+00 -0.34956359501E+03  0.34956359501E+03  0.00000000000E+00 0. -1.
         36    2    1    2    0    0  0.71054273576E-14 -0.14210854715E-13 -0.29546282592E+03  0.40366436410E+03  0.27503933780E+03 0.  0.
         25    2    3    3    0    0 -0.32816575438E+02  0.54088225678E+02 -0.14331790850E+03  0.20135689819E+03  0.12649946154E+03 0.  0.
         25    2    3    3    0    0  0.32816575438E+02 -0.54088225678E+02 -0.15214491742E+03  0.20230746591E+03  0.11737875057E+03 0.  0.
          5    1    4    4  502    0 -0.22787983381E+01 -0.62247583523E+01 -0.13248025700E+03  0.13272923202E+03  0.47000000000E+01 0. -1.
         -5    1    4    4    0  502 -0.30537777100E+02  0.60312984030E+02 -0.10837651497E+02  0.68627666162E+02  0.47000000000E+01 0. -1.
          5    1    5    5  503    0  0.43156481675E+01  0.79432736525E+01  0.17014699105E+02  0.19832054887E+02  0.47000000000E+01 0.  1.
         -5    1    5    5    0  503  0.28500927271E+02 -0.62031499330E+02 -0.16915961653E+03  0.18247541102E+03  0.47000000000E+01 0.  1.
<mgrwt>
<rscale>  0 0.27503934E+03</rscale>
<asrwt>0</asrwt>
<pdfrwt beam="1">  1        1 0.53779013E-01 0.27503934E+03</pdfrwt>
<pdfrwt beam="2">  1       -1 0.83231955E-02 0.27503934E+03</pdfrwt>
<totfact> 0.58029211E+03</totfact>
</mgrwt>
</event>
<event>
 9    1  0.2051157E-002  0.2746568E+03  0.7818608E-02  0.1098644E+00
          2   -1    0    0  501    0  0.00000000000E+00  0.00000000000E+00  0.92798214456E+02  0.92798214456E+02  0.00000000000E+00 0.  1.
         -2   -1    0    0    0  501 -0.00000000000E+00 -0.00000000000E+00 -0.20322678501E+03  0.20322678501E+03  0.00000000000E+00 0.  1.
         36    2    1    2    0    0  0.71054273576E-14  0.00000000000E+00 -0.11042857055E+03  0.29602499946E+03  0.27465675144E+03 0.  0.
         25    2    3    3    0    0  0.37338340340E+02  0.11058667952E+02 -0.99242808574E+02  0.16518360963E+03  0.12617465689E+03 0.  0.
         25    2    3    3    0    0 -0.37338340340E+02 -0.11058667952E+02 -0.11185761976E+02  0.13084138983E+03  0.12441021753E+03 0.  0.
          5    1    4    4  502    0  0.44902002525E+02  0.21264502684E+02 -0.12581913985E+03  0.13535477405E+03  0.47000000000E+01 0. -1.
         -5    1    4    4    0  502 -0.75636621853E+01 -0.10205834733E+02  0.26576331275E+02  0.29828835584E+02  0.47000000000E+01 0. -1.
          5    1    5    5  503    0  0.25492080265E+02 -0.15267128119E+02 -0.48809849286E+02  0.57336051002E+02  0.47000000000E+01 0.  1.
         -5    1    5    5    0  503 -0.62830420605E+02  0.42084601676E+01  0.37624087310E+02  0.73505338828E+02  0.47000000000E+01 0.  1.
<mgrwt>
<rscale>  0 0.27465675E+03</rscale>
<asrwt>0</asrwt>
<pdfrwt beam="1">  1        2 0.14276648E-01 0.27465675E+03</pdfrwt>
<pdfrwt beam="2">  1       -2 0.31265659E-01 0.27465675E+03</pdfrwt>
<totfact> 0.38982804E+03</totfact>
</mgrwt>
</event>
<event>
 9    1  0.2051157E-002  0.2759704E+03  0.7818608E-02  0.1097910E+00
         -3   -1    0    0    0  501 -0.00000000000E+00  0.00000000000E+00  0.33790583322E+02  0.33790583322E+02  0.00000000000E+00 0.  1.
          3   -1    0    0  501    0  0.00000000000E+00 -0.00000000000E+00 -0.56346813813E+03  0.56346813813E+03  0.00000000000E+00 0.  1.
         36    2    1    2    0    0  0.00000000000E+00  0.00000000000E+00 -0.52967755481E+03  0.59725872145E+03  0.27597041197E+03 0.  0.
         25    2    3    3    0    0  0.36338217090E+02 -0.14775319020E+02 -0.16343602850E+03  0.20845470244E+03  0.12330146587E+03 0.  0.
         25    2    3    3    0    0 -0.36338217090E+02  0.14775319020E+02 -0.36624152631E+03  0.38880401901E+03  0.12448668014E+03 0.  0.
          5    1    4    4  502    0  0.51011658671E+02  0.28223417945E+02 -0.26704891821E+02  0.64296126540E+02  0.47000000000E+01 0.  1.
         -5    1    4    4    0  502 -0.14673441582E+02 -0.42998736965E+02 -0.13673113668E+03  0.14415857590E+03  0.47000000000E+01 0.  1.
          5    1    5    5  503    0 -0.46803633085E+02  0.60547379291E+02 -0.28210030496E+03  0.29233411923E+03  0.47000000000E+01 0.  1.
         -5    1    5    5    0  503  0.10465415996E+02 -0.45772060270E+02 -0.84141221352E+02  0.96469899782E+02  0.47000000000E+01 0.  1.
<mgrwt>
<rscale>  0 0.27597041E+03</rscale>
<asrwt>0</asrwt>
<pdfrwt beam="1">  1        3 0.86687402E-01 0.27597041E+03</pdfrwt>
<pdfrwt beam="2">  1       -3 0.51985515E-02 0.27597041E+03</pdfrwt>
<totfact> 0.68068698E+02</totfact>
</mgrwt>
</event>
<event>
 9    1  0.2051157E-002  0.2750763E+03  0.7818608E-02  0.1098409E+00
          2   -1    0    0  501    0  0.00000000000E+00  0.00000000000E+00  0.76698174438E+03  0.76698174438E+03  0.00000000000E+00 0. -1.
         -2   -1    0    0    0  501 -0.00000000000E+00 -0.00000000000E+00 -0.24663873221E+02  0.24663873221E+02  0.00000000000E+00 0. -1.
         36    2    1    2    0    0 -0.71054273576E-14 -0.35527136788E-14  0.74231787116E+03  0.79164561760E+03  0.27507628401E+03 0.  0.
         25    2    3    3    0    0 -0.47779203603E+02 -0.27358233659E+02  0.36679847266E+03  0.39141095725E+03  0.12502036900E+03 0.  0.
         25    2    3    3    0    0  0.47779203603E+02  0.27358233659E+02  0.37551939850E+03  0.40023466035E+03  0.12704975187E+03 0.  0.
          5    1    4    4  502    0 -0.80355220046E+02  0.95412042052E+01  0.16765798811E+03  0.18622375505E+03  0.47000000000E+01 0.  1.
         -5    1    4    4    0  502  0.32576016443E+02 -0.36899437864E+02  0.19914048454E+03  0.20518720220E+03  0.47000000000E+01 0.  1.
          5    1    5    5  503    0  0.82918268664E+02  0.17995751159E+02  0.33490001395E+03  0.34551323518E+03  0.47000000000E+01 0. -1.
         -5    1    5    5    0  503 -0.35139065060E+02  0.93624824999E+01  0.40619384549E+02  0.54721425173E+02  0.47000000000E+01 0. -1.
<mgrwt>
<rscale>  0 0.27507628E+03</rscale>
<asrwt>0</asrwt>
<pdfrwt beam="1">  1        2 0.11799717E+00 0.27507628E+03</pdfrwt>
<pdfrwt beam="2">  1       -2 0.37944426E-02 0.27507628E+03</pdfrwt>
<totfact> 0.11101457E+04</totfact>
</mgrwt>
</event>
<event>
 9    1  0.2051157E-002  0.2748211E+03  0.7818608E-02  0.1098552E+00
          2   -1    0    0  501    0  0.00000000000E+00  0.00000000000E+00  0.19902444853E+03  0.19902444853E+03  0.00000000000E+00 0. -1.
         -2   -1    0    0    0  501 -0.00000000000E+00 -0.00000000000E+00 -0.94871079511E+02  0.94871079511E+02  0.00000000000E+00 0. -1.
         36    2    1    2    0    0  0.00000000000E+00  0.00000000000E+00  0.10415336902E+03  0.29389552804E+03  0.27482113661E+03 0.  0.
         25    2    3    3    0    0 -0.69278777364E+01  0.50410871272E+02  0.78408659055E+02  0.15711001666E+03  0.12627900889E+03 0.  0.
         25    2    3    3    0    0  0.69278777364E+01 -0.50410871272E+02  0.25744709965E+02  0.13678551139E+03  0.12433114896E+03 0.  0.
          5    1    4    4  502    0 -0.41187206963E+01  0.10363470576E+02  0.10694768063E+03  0.10763020847E+03  0.47000000000E+01 0. -1.
         -5    1    4    4    0  502 -0.28091570401E+01  0.40047400696E+02 -0.28539021577E+02  0.49479808188E+02  0.47000000000E+01 0. -1.
          5    1    5    5  503    0  0.25020570981E+02 -0.20600144562E+02 -0.46239296309E+02  0.56661781223E+02  0.47000000000E+01 0.  1.
         -5    1    5    5    0  503 -0.18092693245E+02 -0.29810726710E+02  0.71984006274E+02  0.80123730162E+02  0.47000000000E+01 0.  1.
<mgrwt>
<rscale>  0 0.27482114E+03</rscale>
<asrwt>0</asrwt>
<pdfrwt beam="1">  1        2 0.30619146E-01 0.27482114E+03</pdfrwt>
<pdfrwt beam="2">  1       -2 0.14595551E-01 0.27482114E+03</pdfrwt>
<totfact> 0.60954671E+03</totfact>
</mgrwt>
</event>
<event>
 9    1  0.2051157E-002  0.2751619E+03  0.7818608E-02  0.1098361E+00
         -1   -1    0    0    0  501 -0.00000000000E+00  0.00000000000E+00  0.15303900677E+02  0.15303900677E+02  0.00000000000E+00 0.  1.
          1   -1    0    0  501    0  0.00000000000E+00 -0.00000000000E+00 -0.12368426258E+04  0.12368426258E+04  0.00000000000E+00 0.  1.
         36    2    1    2    0    0  0.00000000000E+00  0.35527136788E-14 -0.12215387251E+04  0.12521465264E+04  0.27516189196E+03 0.  0.
         25    2    3    3    0    0  0.30645026162E+02 -0.29355360852E+02 -0.82490488442E+03  0.83372948272E+03  0.11329575096E+03 0.  0.
         25    2    3    3    0    0 -0.30645026162E+02  0.29355360852E+02 -0.39663384067E+03  0.41841704371E+03  0.12630741890E+03 0.  0.
          5    1    4    4  502    0  0.69280051430E+02 -0.40610945190E+02 -0.55653253729E+03  0.56231621838E+03  0.47000000000E+01 0.  1.
         -5    1    4    4    0  502 -0.38635025267E+02  0.11255584338E+02 -0.26837234713E+03  0.27141326434E+03  0.47000000000E+01 0.  1.
          5    1    5    5  503    0  0.35461043581E+02 -0.21216663826E+01 -0.26755489820E+03  0.26994388422E+03  0.47000000000E+01 0.  1.
         -5    1    5    5    0  503 -0.66106069743E+02  0.31477027234E+02 -0.12907894247E+03  0.14847315949E+03  0.47000000000E+01 0.  1.
<mgrwt>
<rscale>  0 0.27516189E+03</rscale>
<asrwt>0</asrwt>
<pdfrwt beam="1">  1        1 0.19028349E+00 0.27516189E+03</pdfrwt>
<pdfrwt beam="2">  1       -1 0.23544461E-02 0.27516189E+03</pdfrwt>
<totfact> 0.58210267E+03</totfact>
</mgrwt>
</event>
<event>
 9    1  0.2051157E-002  0.2756089E+03  0.7818608E-02  0.1098112E+00
          1   -1    0    0  501    0  0.00000000000E+00  0.00000000000E+00  0.27832813469E+04  0.27832813469E+04  0.00000000000E+00 0.  1.
         -1   -1    0    0    0  501 -0.00000000000E+00 -0.00000000000E+00 -0.68229081638E+01  0.68229081638E+01  0.00000000000E+00 0.  1.
         36    2    1    2    0    0 -0.35527136788E-14  0.71054273576E-14  0.27764584387E+04  0.27901042550E+04  0.27560894778E+03 0.  0.
         25    2    3    3    0    0 -0.10346096033E+02  0.45801609759E+02  0.17571444108E+04  0.17622762717E+04  0.12592199221E+03 0.  0.
         25    2    3    3    0    0  0.10346096033E+02 -0.45801609759E+02  0.10193140279E+04  0.10278279833E+04  0.12338738486E+03 0.  0.
          5    1    4    4  502    0 -0.44145247914E+01  0.84934244950E+02  0.14583148484E+04  0.14608003290E+04  0.47000000000E+01 0.  1.
         -5    1    4    4    0  502 -0.59315712413E+01 -0.39132635191E+02  0.29882956241E+03  0.30147594273E+03  0.47000000000E+01 0.  1.
          5    1    5    5  503    0  0.30887451892E+02 -0.81494034893E+02  0.57518123884E+03  0.58176529626E+03  0.47000000000E+01 0.  1.
         -5    1    5    5    0  503 -0.20541355860E+02  0.35692425133E+02  0.44413278902E+03  0.44606268707E+03  0.47000000000E+01 0.  1.
<mgrwt>
<rscale>  0 0.27560895E+03</rscale>
<asrwt>0</asrwt>
<pdfrwt beam="1">  1        1 0.42819622E+00 0.27560895E+03</pdfrwt>
<pdfrwt beam="2">  1       -1 0.10496804E-02 0.27560895E+03</pdfrwt>
<totfact> 0.17917238E+03</totfact>
</mgrwt>
</event>
<event>
 9    1  0.2051157E-002  0.2748500E+03  0.7818608E-02  0.1098535E+00
         -2   -1    0    0    0  501 -0.00000000000E+00  0.00000000000E+00  0.32903074455E+02  0.32903074455E+02  0.00000000000E+00 0. -1.
          2   -1    0    0  501    0  0.00000000000E+00 -0.00000000000E+00 -0.57397781875E+03  0.57397781875E+03  0.00000000000E+00 0. -1.
         36    2    1    2    0    0  0.14210854715E-13 -0.71054273576E-14 -0.54107474430E+03  0.60688089321E+03  0.27485003115E+03 0.  0.
         25    2    3    3    0    0  0.33656799784E+02  0.39934378389E+01 -0.15084441089E+03  0.19520388849E+03  0.11917128037E+03 0.  0.
         25    2    3    3    0    0 -0.33656799784E+02 -0.39934378389E+01 -0.39023033341E+03  0.41167700472E+03  0.12668668197E+03 0.  0.
          5    1    4    4  502    0 -0.28677192496E+02  0.35554490060E+02 -0.95432946048E+02  0.10590580874E+03  0.47000000000E+01 0.  1.
         -5    1    4    4    0  502  0.62333992280E+02 -0.31561052221E+02 -0.55411464843E+02  0.89298079749E+02  0.47000000000E+01 0.  1.
          5    1    5    5  503    0 -0.24802106807E+02 -0.56744333783E+02 -0.30257391653E+03  0.30888206307E+03  0.47000000000E+01 0.  1.
         -5    1    5    5    0  503 -0.88546929766E+01  0.52750895945E+02 -0.87656416875E+02  0.10279494166E+03  0.47000000000E+01 0.  1.
<mgrwt>
<rscale>  0 0.27485003E+03</rscale>
<asrwt>0</asrwt>
<pdfrwt beam="1">  1        2 0.88304272E-01 0.27485003E+03</pdfrwt>
<pdfrwt beam="2">  1       -2 0.50620119E-02 0.27485003E+03</pdfrwt>
<totfact> 0.10159443E+04</totfact>
</mgrwt>
</event>
<event>
 9    1  0.2051157E-002  0.2747399E+03  0.7818608E-02  0.1098597E+00
         -2   -1    0    0    0  501 -0.00000000000E+00  0.00000000000E+00  0.41724640965E+02  0.41724640965E+02  0.00000000000E+00 0. -1.
          2   -1    0    0  501    0  0.00000000000E+00 -0.00000000000E+00 -0.45226285584E+03  0.45226285584E+03  0.00000000000E+00 0. -1.
         36    2    1    2    0    0 -0.71054273576E-14  0.00000000000E+00 -0.41053821487E+03  0.49398749680E+03  0.27473991542E+03 0.  0.
         25    2    3    3    0    0  0.43926490484E+02  0.75631455901E+01 -0.28767968917E+03  0.31454980386E+03  0.11914376949E+03 0.  0.
         25    2    3    3    0    0 -0.43926490484E+02 -0.75631455901E+01 -0.12285852570E+03  0.17943769294E+03  0.12295092750E+03 0.  0.
          5    1    4    4  502    0  0.60018694308E+01  0.55474894504E+02 -0.19918166479E+03  0.20690314629E+03  0.47000000000E+01 0.  1.
         -5    1    4    4    0  502  0.37924621053E+02 -0.47911748914E+02 -0.88498024387E+02  0.10764665757E+03  0.47000000000E+01 0.  1.
          5    1    5    5  503    0 -0.39737725266E+02  0.38986104436E+02 -0.94160533089E+01  0.56654701555E+02  0.47000000000E+01 0. -1.
         -5    1    5    5    0  503 -0.41887652179E+01 -0.46549250026E+02 -0.11344247239E+03  0.12278299139E+03  0.47000000000E+01 0. -1.
<mgrwt>
<rscale>  0 0.27473992E+03</rscale>
<asrwt>0</asrwt>
<pdfrwt beam="1">  1        2 0.69578902E-01 0.27473992E+03</pdfrwt>
<pdfrwt beam="2">  1       -2 0.64191754E-02 0.27473992E+03</pdfrwt>
<totfact> 0.92322592E+03</totfact>
</mgrwt>
</event>
<event>
 9    1  0.2051157E-002  0.2730405E+03  0.7818608E-02  0.1099552E+00
          1   -1    0    0  501    0  0.00000000000E+00  0.00000000000E+00  0.28205905079E+03  0.28205905079E+03  0.00000000000E+00 0. -1.
         -1   -1    0    0    0  501 -0.00000000000E+00 -0.00000000000E+00 -0.66077577324E+02  0.66077577324E+02  0.00000000000E+00 0. -1.
         36    2    1    2    0    0  0.00000000000E+00  0.00000000000E+00  0.21598147347E+03  0.34813662812E+03  0.27304050058E+03 0.  0.
         25    2    3    3    0    0  0.46800763901E+01  0.38977980536E+02  0.61057099192E+02  0.14540896559E+03  0.12599449127E+03 0.  0.
         25    2    3    3    0    0 -0.46800763901E+01 -0.38977980536E+02  0.15492437428E+03  0.20272766253E+03  0.12472272178E+03 0.  0.
          5    1    4    4  502    0  0.23064814165E+02  0.28230686614E+02  0.96797040894E+02  0.10354088296E+03  0.47000000000E+01 0.  1.
         -5    1    4    4    0  502 -0.18384737774E+02  0.10747293922E+02 -0.35739941702E+02  0.41868082623E+02  0.47000000000E+01 0.  1.
          5    1    5    5  503    0 -0.10144525631E+02 -0.84054347994E+02  0.10727102446E+03  0.13673773256E+03  0.47000000000E+01 0.  1.
         -5    1    5    5    0  503  0.54644492410E+01  0.45076367458E+02  0.47653349820E+02  0.65989929972E+02  0.47000000000E+01 0.  1.
<mgrwt>
<rscale>  0 0.27304050E+03</rscale>
<asrwt>0</asrwt>
<pdfrwt beam="1">  1        1 0.43393699E-01 0.27304050E+03</pdfrwt>
<pdfrwt beam="2">  1       -1 0.10165781E-01 0.27304050E+03</pdfrwt>
<totfact> 0.55897570E+03</totfact>
</mgrwt>
</event>
<event>
 9    1  0.2051157E-002  0.2746963E+03  0.7818608E-02  0.1098621E+00
         -1   -1    0    0    0  501 -0.00000000000E+00  0.00000000000E+00  0.44794410751E+02  0.44794410751E+02  0.00000000000E+00 0. -1.
          1   -1    0    0  501    0  0.00000000000E+00 -0.00000000000E+00 -0.42113553624E+03  0.42113553624E+03  0.00000000000E+00 0. -1.
         36    2    1    2    0    0  0.00000000000E+00  0.00000000000E+00 -0.37634112549E+03  0.46592994699E+03  0.27469632828E+03 0.  0.
         25    2    3    3    0    0  0.82062955400E+02 -0.74085550153E+01 -0.23216425415E+03  0.25751305215E+03  0.74990104577E+02 0.  0.
         25    2    3    3    0    0 -0.82062955400E+02  0.74085550153E+01 -0.14417687133E+03  0.20841689484E+03  0.12594211563E+03 0.  0.
          5    1    4    4  502    0  0.97074522745E+01 -0.31807301293E+02 -0.53638663633E+02  0.63286138147E+02  0.47000000000E+01 0.  1.
         -5    1    4    4    0  502  0.72355503126E+02  0.24398746277E+02 -0.17852559052E+03  0.19422691400E+03  0.47000000000E+01 0.  1.
          5    1    5    5  503    0 -0.59909219823E+01  0.46355505463E+02 -0.10347764965E+03  0.11364170893E+03  0.47000000000E+01 0. -1.
         -5    1    5    5    0  503 -0.76072033418E+02 -0.38946950447E+02 -0.40699221686E+02  0.94775185905E+02  0.47000000000E+01 0. -1.
<mgrwt>
<rscale>  0 0.27469633E+03</rscale>
<asrwt>0</asrwt>
<pdfrwt beam="1">  1        1 0.64790082E-01 0.27469633E+03</pdfrwt>
<pdfrwt beam="2">  1       -1 0.68914479E-02 0.27469633E+03</pdfrwt>
<totfact> 0.60973245E+03</totfact>
</mgrwt>
</event>
<event>
 9    1  0.2051157E-002  0.2748745E+03  0.7818608E-02  0.1098522E+00
         -1   -1    0    0    0  501 -0.00000000000E+00  0.00000000000E+00  0.56515942677E+02  0.56515942677E+02  0.00000000000E+00 0. -1.
          1   -1    0    0  501    0  0.00000000000E+00 -0.00000000000E+00 -0.33422434287E+03  0.33422434287E+03  0.00000000000E+00 0. -1.
         36    2    1    2    0    0  0.00000000000E+00  0.00000000000E+00 -0.27770840019E+03  0.39074028554E+03  0.27487454449E+03 0.  0.
         25    2    3    3    0    0  0.33060971761E+02  0.33846192418E+02 -0.13459412308E+03  0.18879399380E+03  0.12364870210E+03 0.  0.
         25    2    3    3    0    0 -0.33060971761E+02 -0.33846192418E+02 -0.14311427711E+03  0.20194629174E+03  0.13439499932E+03 0.  0.
          5    1    4    4  502    0  0.52220216970E+02 -0.20641379947E+01 -0.13804068295E+03  0.14767712035E+03  0.47000000000E+01 0.  1.
         -5    1    4    4    0  502 -0.19159245209E+02  0.35910330413E+02  0.34465598662E+01  0.41116873449E+02  0.47000000000E+01 0.  1.
          5    1    5    5  503    0 -0.78399111038E+02  0.96895209120E+01 -0.72978571583E+02  0.10764882413E+03  0.47000000000E+01 0.  1.
         -5    1    5    5    0  503  0.45338139276E+02 -0.43535713330E+02 -0.70135705526E+02  0.94297467611E+02  0.47000000000E+01 0.  1.
<mgrwt>
<rscale>  0 0.27487454E+03</rscale>
<asrwt>0</asrwt>
<pdfrwt beam="1">  1        1 0.51419131E-01 0.27487454E+03</pdfrwt>
<pdfrwt beam="2">  1       -1 0.86947602E-02 0.27487454E+03</pdfrwt>
<totfact> 0.57445081E+03</totfact>
</mgrwt>
</event>
<event>
 9    1  0.2051157E-002  0.2746280E+03  0.7818608E-02  0.1098660E+00
          2   -1    0    0  501    0  0.00000000000E+00  0.00000000000E+00  0.81358536736E+03  0.81358536736E+03  0.00000000000E+00 0. -1.
         -2   -1    0    0    0  501 -0.00000000000E+00 -0.00000000000E+00 -0.23175361479E+02  0.23175361479E+02  0.00000000000E+00 0. -1.
         36    2    1    2    0    0  0.00000000000E+00  0.00000000000E+00  0.79041000588E+03  0.83676072884E+03  0.27462800281E+03 0.  0.
         25    2    3    3    0    0  0.51763529357E+02 -0.60236252095E+01  0.32362042757E+03  0.35111105385E+03  0.12582942407E+03 0.  0.
         25    2    3    3    0    0 -0.51763529357E+02  0.60236252095E+01  0.46678957831E+03  0.48564967499E+03  0.12348015778E+03 0.  0.
          5    1    4    4  502    0  0.76981979290E+02  0.32925147061E+02  0.25251425250E+03  0.26607485443E+03  0.47000000000E+01 0.  1.
         -5    1    4    4    0  502 -0.25218449933E+02 -0.38948772270E+02  0.71106175068E+02  0.85036199417E+02  0.47000000000E+01 0.  1.
          5    1    5    5  503    0 -0.79750779598E+02 -0.20911611825E+02  0.20591158362E+03  0.22185389928E+03  0.47000000000E+01 0. -1.
         -5    1    5    5    0  503  0.27987250242E+02  0.26935237034E+02  0.26087799469E+03  0.26379577571E+03  0.47000000000E+01 0. -1.
<mgrwt>
<rscale>  0 0.27462800E+03</rscale>
<asrwt>0</asrwt>
<pdfrwt beam="1">  1        2 0.12516696E+00 0.27462800E+03</pdfrwt>
<pdfrwt beam="2">  1       -2 0.35654408E-02 0.27462800E+03</pdfrwt>
<totfact> 0.11309207E+04</totfact>
</mgrwt>
</event>
<event>
 9    1  0.2051157E-002  0.2758406E+03  0.7818608E-02  0.1097983E+00
         -2   -1    0    0    0  501 -0.00000000000E+00  0.00000000000E+00  0.12006629806E+02  0.12006629806E+02  0.00000000000E+00 0. -1.
          2   -1    0    0  501    0  0.00000000000E+00 -0.00000000000E+00 -0.15842918381E+04  0.15842918381E+04  0.00000000000E+00 0. -1.
         36    2    1    2    0    0 -0.53290705182E-14  0.00000000000E+00 -0.15722852083E+04  0.15962984679E+04  0.27584057428E+03 0.  0.
         25    2    3    3    0    0 -0.57095280599E+01  0.54479839756E+02 -0.62527005579E+03  0.63946658023E+03  0.12228741927E+03 0.  0.
         25    2    3    3    0    0  0.57095280599E+01 -0.54479839756E+02 -0.94701515253E+03  0.95683188770E+03  0.12525538133E+03 0.  0.
          5    1    4    4  502    0 -0.50992747577E+01  0.93941414629E+02 -0.44788890373E+03  0.45768717709E+03  0.47000000000E+01 0. -1.
         -5    1    4    4    0  502 -0.61025330219E+00 -0.39461574873E+02 -0.17738115205E+03  0.18177940314E+03  0.47000000000E+01 0. -1.
          5    1    5    5  503    0  0.59667133579E+02 -0.36049865486E+02 -0.33866108899E+03  0.34579355522E+03  0.47000000000E+01 0. -1.
         -5    1    5    5    0  503 -0.53957605519E+02 -0.18429974269E+02 -0.60835406353E+03  0.61103833248E+03  0.47000000000E+01 0. -1.
<mgrwt>
<rscale>  0 0.27584057E+03</rscale>
<asrwt>0</asrwt>
<pdfrwt beam="1">  1        2 0.24373709E+00 0.27584057E+03</pdfrwt>
<pdfrwt beam="2">  1       -2 0.18471747E-02 0.27584057E+03</pdfrwt>
<totfact> 0.10691533E+04</totfact>
</mgrwt>
</event>
<event>
 9    1  0.2051157E-002  0.2749392E+03  0.7818608E-02  0.1098486E+00
          1   -1    0    0  501    0  0.00000000000E+00  0.00000000000E+00  0.69825829663E+03  0.69825829663E+03  0.00000000000E+00 0.  1.
         -1   -1    0    0    0  501 -0.00000000000E+00 -0.00000000000E+00 -0.27064318428E+02  0.27064318428E+02  0.00000000000E+00 0.  1.
         36    2    1    2    0    0 -0.14210854715E-13 -0.13322676296E-14  0.67119397821E+03  0.72532261506E+03  0.27493915607E+03 0.  0.
         25    2    3    3    0    0 -0.43340877669E+02  0.25871151015E+01  0.44380500989E+03  0.46219893354E+03  0.12157237564E+03 0.  0.
         25    2    3    3    0    0  0.43340877669E+02 -0.25871151015E+01  0.22738896831E+03  0.26312368152E+03  0.12507279491E+03 0.  0.
          5    1    4    4  502    0 -0.68703587588E+02 -0.70720874383E+00  0.12821928047E+03  0.14554366003E+03  0.47000000000E+01 0. -1.
         -5    1    4    4    0  502  0.25362709919E+02  0.32943238454E+01  0.31558572942E+03  0.31665527351E+03  0.47000000000E+01 0. -1.
          5    1    5    5  503    0  0.32494274001E+02  0.19078588295E+02  0.37845368980E+01  0.38161277412E+02  0.47000000000E+01 0.  1.
         -5    1    5    5    0  503  0.10846603669E+02 -0.21665703397E+02  0.22360443141E+03  0.22496240411E+03  0.47000000000E+01 0.  1.
<mgrwt>
<rscale>  0 0.27493916E+03</rscale>
<asrwt>0</asrwt>
<pdfrwt beam="1">  1        1 0.10742434E+00 0.27493916E+03</pdfrwt>
<pdfrwt beam="2">  1       -1 0.41637418E-02 0.27493916E+03</pdfrwt>
<totfact> 0.65349999E+03</totfact>
</mgrwt>
</event>
<event>
 9    1  0.2051157E-002  0.2744161E+03  0.7818608E-02  0.1098778E+00
         -2   -1    0    0    0  501 -0.00000000000E+00  0.00000000000E+00  0.85361447106E+01  0.85361447106E+01  0.00000000000E+00 0.  1.
          2   -1    0    0  501    0  0.00000000000E+00 -0.00000000000E+00 -0.22054514782E+04  0.22054514782E+04  0.00000000000E+00 0.  1.
         36    2    1    2    0    0 -0.10658141036E-13  0.71054273576E-14 -0.21969153334E+04  0.22139876229E+04  0.27441612904E+03 0.  0.
         25    2    3    3    0    0  0.18253690345E+02 -0.50529389147E+02 -0.11376055499E+04  0.11459093191E+04  0.12678865856E+03 0.  0.
         25    2    3    3    0    0 -0.18253690345E+02  0.50529389147E+02 -0.10593097835E+04  0.10680783038E+04  0.12556922073E+03 0.  0.
          5    1    4    4  502    0  0.35100833421E+02 -0.94431844902E+01 -0.87648180543E+02  0.95002819920E+02  0.47000000000E+01 0. -1.
         -5    1    4    4    0  502 -0.16847143075E+02 -0.41086204656E+02 -0.10499573694E+04  0.10509064991E+04  0.47000000000E+01 0. -1.
          5    1    5    5  503    0 -0.66401925229E+02  0.70218976857E-01 -0.53800070253E+03  0.54210337254E+03  0.47000000000E+01 0.  1.
         -5    1    5    5    0  503  0.48148234883E+02  0.50459170170E+02 -0.52130908101E+03  0.52597493127E+03  0.47000000000E+01 0.  1.
<mgrwt>
<rscale>  0 0.27441613E+03</rscale>
<asrwt>0</asrwt>
<pdfrwt beam="1">  1        2 0.33930064E+00 0.27441613E+03</pdfrwt>
<pdfrwt beam="2">  1       -2 0.13132515E-02 0.27441613E+03</pdfrwt>
<totfact> 0.82891056E+03</totfact>
</mgrwt>
</event>
<event>
 9    1  0.2051157E-002  0.2750267E+03  0.7818608E-02  0.1098437E+00
         -2   -1    0    0    0  501 -0.00000000000E+00  0.00000000000E+00  0.21178809036E+02  0.21178809036E+02  0.00000000000E+00 0. -1.
          2   -1    0    0  501    0  0.00000000000E+00 -0.00000000000E+00 -0.89287022909E+03  0.89287022909E+03  0.00000000000E+00 0. -1.
         36    2    1    2    0    0  0.14210854715E-13  0.00000000000E+00 -0.87169142005E+03  0.91404903812E+03  0.27502674834E+03 0.  0.
         25    2    3    3    0    0  0.63584354986E+02  0.14623968311E+02 -0.43877497112E+03  0.45886302079E+03  0.11736680073E+03 0.  0.
         25    2    3    3    0    0 -0.63584354986E+02 -0.14623968311E+02 -0.43291644893E+03  0.45518601734E+03  0.12458261507E+03 0.  0.
          5    1    4    4  502    0  0.21222997556E+02 -0.11316398280E+02 -0.88546071469E+01  0.26057063592E+02  0.47000000000E+01 0.  1.
         -5    1    4    4    0  502  0.42361357430E+02  0.25940366591E+02 -0.42992036398E+03  0.43280595719E+03  0.47000000000E+01 0.  1.
          5    1    5    5  503    0 -0.70192576876E+02  0.41937306525E+02 -0.28775534172E+03  0.29918382679E+03  0.47000000000E+01 0. -1.
         -5    1    5    5    0  503  0.66082218904E+01 -0.56561274837E+02 -0.14516110721E+03  0.15600219054E+03  0.47000000000E+01 0. -1.
<mgrwt>
<rscale>  0 0.27502675E+03</rscale>
<asrwt>0</asrwt>
<pdfrwt beam="1">  1        2 0.13736465E+00 0.27502675E+03</pdfrwt>
<pdfrwt beam="2">  1       -2 0.32582784E-02 0.27502675E+03</pdfrwt>
<totfact> 0.11459416E+04</totfact>
</mgrwt>
</event>
<event>
 9    1  0.2051157E-002  0.2754532E+03  0.7818608E-02  0.1098199E+00
          2   -1    0    0  501    0  0.00000000000E+00  0.00000000000E+00  0.12968069106E+03  0.12968069106E+03  0.00000000000E+00 0.  1.
         -2   -1    0    0    0  501 -0.00000000000E+00 -0.00000000000E+00 -0.14627169462E+03  0.14627169462E+03  0.00000000000E+00 0.  1.
         36    2    1    2    0    0  0.00000000000E+00 -0.35527136788E-14 -0.16591003563E+02  0.27595238568E+03  0.27545318616E+03 0.  0.
         25    2    3    3    0    0 -0.26044369623E+02  0.58511878066E+01  0.35475891657E+02  0.13251345210E+03  0.12485483776E+03 0.  0.
         25    2    3    3    0    0  0.26044369623E+02 -0.58511878066E+01 -0.52066895220E+02  0.14343893358E+03  0.13096266835E+03 0.  0.
          5    1    4    4  502    0  0.26496322278E+01  0.68088441157E+01 -0.45577067277E+02  0.46397628934E+02  0.47000000000E+01 0.  1.
         -5    1    4    4    0  502 -0.28694001851E+02 -0.95765630906E+00  0.81052958934E+02  0.86115823167E+02  0.47000000000E+01 0.  1.
          5    1    5    5  503    0 -0.40145387348E+02  0.36817445955E+02 -0.18728276434E+02  0.57792861065E+02  0.47000000000E+01 0. -1.
         -5    1    5    5    0  503  0.66189756971E+02 -0.42668633761E+02 -0.33338618786E+02  0.85646072516E+02  0.47000000000E+01 0. -1.
<mgrwt>
<rscale>  0 0.27545319E+03</rscale>
<asrwt>0</asrwt>
<pdfrwt beam="1">  1        2 0.19950876E-01 0.27545319E+03</pdfrwt>
<pdfrwt beam="2">  1       -2 0.22503337E-01 0.27545319E+03</pdfrwt>
<totfact> 0.47365830E+03</totfact>
</mgrwt>
</event>
<event>
 9    1  0.2051157E-002  0.2761427E+03  0.7818608E-02  0.1097815E+00
         -1   -1    0    0    0  501 -0.00000000000E+00  0.00000000000E+00  0.26095584324E+02  0.26095584324E+02  0.00000000000E+00 0. -1.
          1   -1    0    0  501    0  0.00000000000E+00 -0.00000000000E+00 -0.73053349911E+03  0.73053349911E+03  0.00000000000E+00 0. -1.
         36    2    1    2    0    0  0.71054273576E-14 -0.71054273576E-14 -0.70443791479E+03  0.75662908343E+03  0.27614270606E+03 0.  0.
         25    2    3    3    0    0 -0.56123639384E+02 -0.17964034662E+02 -0.32073661360E+03  0.34905007425E+03  0.12446449130E+03 0.  0.
         25    2    3    3    0    0  0.56123639384E+02  0.17964034662E+02 -0.38370130119E+03  0.40757900918E+03  0.12418289235E+03 0.  0.
          5    1    4    4  502    0 -0.42683134952E+02 -0.67392191620E+02 -0.24329215813E+03  0.25607952223E+03  0.47000000000E+01 0. -1.
         -5    1    4    4    0  502 -0.13440504432E+02  0.49428156959E+02 -0.77444455474E+02  0.92970552022E+02  0.47000000000E+01 0. -1.
          5    1    5    5  503    0  0.25116575181E+02 -0.53542082378E+02 -0.16038888611E+03  0.17100959541E+03  0.47000000000E+01 0.  1.
         -5    1    5    5    0  503  0.31007064203E+02  0.71506117040E+02 -0.22331241508E+03  0.23656941377E+03  0.47000000000E+01 0.  1.
<mgrwt>
<rscale>  0 0.27614271E+03</rscale>
<asrwt>0</asrwt>
<pdfrwt beam="1">  1        1 0.11238977E+00 0.27614271E+03</pdfrwt>
<pdfrwt beam="2">  1       -1 0.40147052E-02 0.27614271E+03</pdfrwt>
<totfact> 0.64565425E+03</totfact>
</mgrwt>
</event>
<event>
 9    1  0.2051157E-002  0.2750240E+03  0.7818608E-02  0.1098438E+00
          2   -1    0    0  501    0  0.00000000000E+00  0.00000000000E+00  0.23654405346E+04  0.23654405346E+04  0.00000000000E+00 0. -1.
         -2   -1    0    0    0  501 -0.00000000000E+00 -0.00000000000E+00 -0.79940907044E+01  0.79940907044E+01  0.00000000000E+00 0. -1.
         36    2    1    2    0    0  0.00000000000E+00 -0.71054273576E-14  0.23574464439E+04  0.23734346253E+04  0.27502397124E+03 0.  0.
         25    2    3    3    0    0  0.22964709721E+02  0.19255547842E+02  0.76424467684E+03  0.77494728317E+03  0.12480068748E+03 0.  0.
         25    2    3    3    0    0 -0.22964709721E+02 -0.19255547842E+02  0.15932017670E+04  0.15984873421E+04  0.12637942241E+03 0.  0.
          5    1    4    4  502    0  0.20987487659E+02  0.69962215801E+02  0.34940309707E+03  0.35698711535E+03  0.47000000000E+01 0.  1.
         -5    1    4    4    0  502  0.19772220616E+01 -0.50706667959E+02  0.41484157977E+03  0.41796016782E+03  0.47000000000E+01 0.  1.
          5    1    5    5  503    0  0.37120360804E+02  0.41986099597E+01  0.18454107635E+03  0.18834290104E+03  0.47000000000E+01 0. -1.
         -5    1    5    5    0  503 -0.60085070525E+02 -0.23454157802E+02  0.14086606907E+04  0.14101444411E+04  0.47000000000E+01 0. -1.
<mgrwt>
<rscale>  0 0.27502397E+03</rscale>
<asrwt>0</asrwt>
<pdfrwt beam="1">  1        2 0.36391337E+00 0.27502397E+03</pdfrwt>
<pdfrwt beam="2">  1       -2 0.12298620E-02 0.27502397E+03</pdfrwt>
<totfact> 0.74876697E+03</totfact>
</mgrwt>
</event>
<event>
 9    1  0.2051157E-002  0.2733958E+03  0.7818608E-02  0.1099352E+00
         -2   -1    0    0    0  501 -0.00000000000E+00  0.00000000000E+00  0.11475780097E+02  0.11475780097E+02  0.00000000000E+00 0. -1.
          2   -1    0    0  501    0  0.00000000000E+00 -0.00000000000E+00 -0.16283266392E+04  0.16283266392E+04  0.00000000000E+00 0. -1.
         36    2    1    2    0    0  0.00000000000E+00  0.00000000000E+00 -0.16168508591E+04  0.16398024193E+04  0.27339581882E+03 0.  0.
         25    2    3    3    0    0 -0.29118144332E+02 -0.45547012410E+02 -0.82825076725E+03  0.83943111103E+03  0.12539082922E+03 0.  0.
         25    2    3    3    0    0  0.29118144332E+02  0.45547012410E+02 -0.78860009189E+03  0.80037130830E+03  0.12562535393E+03 0.  0.
          5    1    4    4  502    0 -0.66246089718E+02 -0.43041213317E+02 -0.31419458938E+03  0.32400836478E+03  0.47000000000E+01 0.  1.
         -5    1    4    4    0  502  0.37127945386E+02 -0.25057990936E+01 -0.51405617786E+03  0.51542274625E+03  0.47000000000E+01 0.  1.
          5    1    5    5  503    0 -0.45369886400E+02  0.32007916958E+02 -0.23049141729E+03  0.23713143357E+03  0.47000000000E+01 0. -1.
         -5    1    5    5    0  503  0.74488030731E+02  0.13539095453E+02 -0.55810867460E+03  0.56323987473E+03  0.47000000000E+01 0. -1.
<mgrwt>
<rscale>  0 0.27339582E+03</rscale>
<asrwt>0</asrwt>
<pdfrwt beam="1">  1        2 0.25051161E+00 0.27339582E+03</pdfrwt>
<pdfrwt beam="2">  1       -2 0.17655059E-02 0.27339582E+03</pdfrwt>
<totfact> 0.10826071E+04</totfact>
</mgrwt>
</event>
<event>
 9    1  0.2051157E-002  0.2750094E+03  0.7818608E-02  0.1098446E+00
          1   -1    0    0  501    0  0.00000000000E+00  0.00000000000E+00  0.25157990991E+04  0.25157990991E+04  0.00000000000E+00 0. -1.
         -1   -1    0    0    0  501 -0.00000000000E+00 -0.00000000000E+00 -0.75155202179E+01  0.75155202179E+01  0.00000000000E+00 0. -1.
         36    2    1    2    0    0  0.00000000000E+00  0.71054273576E-14  0.25082835789E+04  0.25233146193E+04  0.27500937434E+03 0.  0.
         25    2    3    3    0    0 -0.81421351144E+01 -0.34748889303E+02  0.17949705988E+04  0.17995707707E+04  0.12353836904E+03 0.  0.
         25    2    3    3    0    0  0.81421351144E+01  0.34748889303E+02  0.71331298008E+03  0.72374384859E+03  0.11711520460E+03 0.  0.
          5    1    4    4  502    0 -0.61308121153E+02 -0.41616792664E+02  0.11200375850E+04  0.11224958463E+04  0.47000000000E+01 0.  1.
         -5    1    4    4    0  502  0.53165986038E+02  0.68679033615E+01  0.67493301376E+03  0.67707492439E+03  0.47000000000E+01 0.  1.
          5    1    5    5  503    0  0.57099240330E+02  0.10252388767E+02  0.50361230011E+03  0.50696437108E+03  0.47000000000E+01 0.  1.
         -5    1    5    5    0  503 -0.48957105216E+02  0.24496500536E+02  0.20970067996E+03  0.21677947750E+03  0.47000000000E+01 0.  1.
<mgrwt>
<rscale>  0 0.27500937E+03</rscale>
<asrwt>0</asrwt>
<pdfrwt beam="1">  1        1 0.38704534E+00 0.27500937E+03</pdfrwt>
<pdfrwt beam="2">  1       -1 0.11562359E-02 0.27500937E+03</pdfrwt>
<totfact> 0.23588496E+03</totfact>
</mgrwt>
</event>
<event>
 9    1  0.2051157E-002  0.2723666E+03  0.7818608E-02  0.1099933E+00
         -1   -1    0    0    0  501 -0.00000000000E+00  0.00000000000E+00  0.52233122334E+01  0.52233122334E+01  0.00000000000E+00 0.  1.
          1   -1    0    0  501    0  0.00000000000E+00 -0.00000000000E+00 -0.35505995105E+04  0.35505995105E+04  0.00000000000E+00 0.  1.
         36    2    1    2    0    0  0.71054273576E-14 -0.35527136788E-14 -0.35453761983E+04  0.35558228228E+04  0.27236659016E+03 0.  0.
         25    2    3    3    0    0  0.11842123730E+02  0.31400718289E+02 -0.18271730486E+04  0.18324560985E+04  0.13493614297E+03 0.  0.
         25    2    3    3    0    0 -0.11842123730E+02 -0.31400718289E+02 -0.17182031497E+04  0.17233667242E+04  0.12901380314E+03 0.  0.
          5    1    4    4  502    0  0.72482989009E+02  0.27468140021E+02 -0.95056821036E+03  0.95373491860E+03  0.47000000000E+01 0.  1.
         -5    1    4    4    0  502 -0.60640865280E+02  0.39325782680E+01 -0.87660483821E+03  0.87872117995E+03  0.47000000000E+01 0.  1.
          5    1    5    5  503    0 -0.56698419312E+02 -0.48680469718E+02 -0.69448448289E+03  0.69850933126E+03  0.47000000000E+01 0.  1.
         -5    1    5    5    0  503  0.44856295583E+02  0.17279751429E+02 -0.10237186668E+04  0.10248573930E+04  0.47000000000E+01 0.  1.
<mgrwt>
<rscale>  0 0.27236659E+03</rscale>
<asrwt>0</asrwt>
<pdfrwt beam="1">  1        1 0.54624691E+00 0.27236659E+03</pdfrwt>
<pdfrwt beam="2">  1       -1 0.80358528E-03 0.27236659E+03</pdfrwt>
<totfact> 0.74129541E+02</totfact>
</mgrwt>
</event>
<event>
 9    1  0.2051157E-002  0.2752112E+03  0.7818608E-02  0.1098334E+00
         -1   -1    0    0    0  501 -0.00000000000E+00  0.00000000000E+00  0.20035863584E+02  0.20035863584E+02  0.00000000000E+00 0.  1.
          1   -1    0    0  501    0  0.00000000000E+00 -0.00000000000E+00 -0.94507036259E+03  0.94507036259E+03  0.00000000000E+00 0.  1.
         36    2    1    2    0    0 -0.71054273576E-14  0.71054273576E-14 -0.92503449901E+03  0.96510622618E+03  0.27521119790E+03 0.  0.
         25    2    3    3    0    0 -0.42832271549E+02  0.31873310130E+02 -0.40710731137E+03  0.42991059146E+03  0.12742151425E+03 0.  0.
         25    2    3    3    0    0  0.42832271549E+02 -0.31873310130E+02 -0.51792718764E+03  0.53519563472E+03  0.12383571512E+03 0.  0.
          5    1    4    4  502    0  0.41012650115E+01 -0.43645434201E+02 -0.85404150311E+02  0.96112970985E+02  0.47000000000E+01 0. -1.
         -5    1    4    4    0  502 -0.46933536561E+02  0.75518744331E+02 -0.32170316106E+03  0.33379762048E+03  0.47000000000E+01 0. -1.
          5    1    5    5  503    0  0.12851818941E+02 -0.37856702873E+02 -0.49514897474E+03  0.49678254437E+03  0.47000000000E+01 0.  1.
         -5    1    5    5    0  503  0.29980452609E+02  0.59833927427E+01 -0.22778212900E+02  0.38413090350E+02  0.47000000000E+01 0.  1.
<mgrwt>
<rscale>  0 0.27521120E+03</rscale>
<asrwt>0</asrwt>
<pdfrwt beam="1">  1        1 0.14539541E+00 0.27521120E+03</pdfrwt>
<pdfrwt beam="2">  1       -1 0.30824412E-02 0.27521120E+03</pdfrwt>
<totfact> 0.63749958E+03</totfact>
</mgrwt>
</event>
<event>
 9    1  0.2051157E-002  0.2747937E+03  0.7818608E-02  0.1098567E+00
          2   -1    0    0  501    0  0.00000000000E+00  0.00000000000E+00  0.78542584407E+03  0.78542584407E+03  0.00000000000E+00 0.  1.
         -2   -1    0    0    0  501 -0.00000000000E+00 -0.00000000000E+00 -0.24035228597E+02  0.24035228597E+02  0.00000000000E+00 0.  1.
         36    2    1    2    0    0  0.14210854715E-13  0.00000000000E+00  0.76139061547E+03  0.80946107267E+03  0.27479366592E+03 0.  0.
         25    2    3    3    0    0  0.43109975775E+02  0.27857527249E+01  0.47924403162E+03  0.49993726784E+03  0.13563259010E+03 0.  0.
         25    2    3    3    0    0 -0.43109975775E+02 -0.27857527249E+01  0.28214658385E+03  0.30952380483E+03  0.11971658427E+03 0.  0.
          5    1    4    4  502    0  0.83226575421E+02 -0.14481206078E+02  0.19852695747E+03  0.21580410337E+03  0.47000000000E+01 0. -1.
         -5    1    4    4    0  502 -0.40116599645E+02  0.17266958803E+02  0.28071707415E+03  0.28413316447E+03  0.47000000000E+01 0. -1.
          5    1    5    5  503    0  0.11647742316E+02 -0.16178886075E+02  0.23498341609E+03  0.23587437778E+03  0.47000000000E+01 0. -1.
         -5    1    5    5    0  503 -0.54757718092E+02  0.13393133350E+02  0.47163167759E+02  0.73649427049E+02  0.47000000000E+01 0. -1.
<mgrwt>
<rscale>  0 0.27479367E+03</rscale>
<asrwt>0</asrwt>
<pdfrwt beam="1">  1        2 0.12083473E+00 0.27479367E+03</pdfrwt>
<pdfrwt beam="2">  1       -2 0.36977281E-02 0.27479367E+03</pdfrwt>
<totfact> 0.11199578E+04</totfact>
</mgrwt>
</event>
<event>
 9    1  0.2051157E-002  0.2766419E+03  0.7818608E-02  0.1097537E+00
          4   -1    0    0  501    0  0.00000000000E+00  0.00000000000E+00  0.65808687759E+02  0.65808687759E+02  0.00000000000E+00 0.  1.
         -4   -1    0    0    0  501 -0.00000000000E+00 -0.00000000000E+00 -0.29073195061E+03  0.29073195061E+03  0.00000000000E+00 0.  1.
         36    2    1    2    0    0  0.00000000000E+00 -0.35527136788E-14 -0.22492326285E+03  0.35654063837E+03  0.27664192133E+03 0.  0.
         25    2    3    3    0    0  0.48055552652E+02 -0.89368286338E+01 -0.13411628638E+03  0.19298827370E+03  0.12987722074E+03 0.  0.
         25    2    3    3    0    0 -0.48055552652E+02  0.89368286338E+01 -0.90806976464E+02  0.16355236466E+03  0.12694197874E+03 0.  0.
          5    1    4    4  502    0 -0.72409931257E+01 -0.48228444186E+02 -0.79094014649E+01  0.49629259934E+02  0.47000000000E+01 0.  1.
         -5    1    4    4    0  502  0.55296545778E+02  0.39291615552E+02 -0.12620688492E+03  0.14335901377E+03  0.47000000000E+01 0.  1.
          5    1    5    5  503    0 -0.78715877403E+02  0.27144585501E+02 -0.96051353126E+02  0.12720444298E+03  0.47000000000E+01 0.  1.
         -5    1    5    5    0  503  0.30660324751E+02 -0.18207756867E+02  0.52443766616E+01  0.36347921681E+02  0.47000000000E+01 0.  1.
<mgrwt>
<rscale>  0 0.27664192E+03</rscale>
<asrwt>0</asrwt>
<pdfrwt beam="1">  1        4 0.10124414E-01 0.27664192E+03</pdfrwt>
<pdfrwt beam="2">  1       -4 0.44727992E-01 0.27664192E+03</pdfrwt>
<totfact> 0.67824856E+02</totfact>
</mgrwt>
</event>
<event>
 9    1  0.2051157E-002  0.2746528E+03  0.7818608E-02  0.1098646E+00
          1   -1    0    0  501    0  0.00000000000E+00  0.00000000000E+00  0.50692395649E+03  0.50692395649E+03  0.00000000000E+00 0. -1.
         -1   -1    0    0    0  501 -0.00000000000E+00 -0.00000000000E+00 -0.37201916080E+02  0.37201916080E+02  0.00000000000E+00 0. -1.
         36    2    1    2    0    0  0.00000000000E+00 -0.71054273576E-14  0.46972204041E+03  0.54412587257E+03  0.27465281712E+03 0.  0.
         25    2    3    3    0    0 -0.21853998125E+01 -0.32783908816E+02  0.31987433738E+03  0.34645156140E+03  0.12895554284E+03 0.  0.
         25    2    3    3    0    0  0.21853998125E+01  0.32783908816E+02  0.14984770302E+03  0.19767431117E+03  0.12466450395E+03 0.  0.
          5    1    4    4  502    0  0.55618665180E+02 -0.45953600361E+02  0.15112225750E+03  0.16752670239E+03  0.47000000000E+01 0. -1.
         -5    1    4    4    0  502 -0.57804064993E+02  0.13169691545E+02  0.16875207989E+03  0.17892485901E+03  0.47000000000E+01 0. -1.
          5    1    5    5  503    0  0.41527464629E+02  0.57579088035E+02  0.12717733279E+03  0.14572592656E+03  0.47000000000E+01 0. -1.
         -5    1    5    5    0  503 -0.39342064816E+02 -0.24795179219E+02  0.22670370233E+02  0.51948384604E+02  0.47000000000E+01 0. -1.
<mgrwt>
<rscale>  0 0.27465282E+03</rscale>
<asrwt>0</asrwt>
<pdfrwt beam="1">  1        1 0.77988296E-01 0.27465282E+03</pdfrwt>
<pdfrwt beam="2">  1       -1 0.57233721E-02 0.27465282E+03</pdfrwt>
<totfact> 0.63319619E+03</totfact>
</mgrwt>
</event>
<event>
 9    1  0.2051157E-002  0.2755525E+03  0.7818608E-02  0.1098143E+00
         -2   -1    0    0    0  501 -0.00000000000E+00  0.00000000000E+00  0.86152505279E+02  0.86152505279E+02  0.00000000000E+00 0. -1.
          2   -1    0    0  501    0  0.00000000000E+00 -0.00000000000E+00 -0.22033358451E+03  0.22033358451E+03  0.00000000000E+00 0. -1.
         36    2    1    2    0    0 -0.35527136788E-14 -0.71054273576E-14 -0.13418107923E+03  0.30648608979E+03  0.27555246544E+03 0.  0.
         25    2    3    3    0    0  0.25539982792E+02  0.27739790151E+02 -0.35772297473E+02  0.14186063953E+03  0.13199620110E+03 0.  0.
         25    2    3    3    0    0 -0.25539982792E+02 -0.27739790151E+02 -0.98408781755E+02  0.16462545025E+03  0.12647317449E+03 0.  0.
          5    1    4    4  502    0  0.11237676729E+02 -0.13370925532E+02 -0.78576902910E+02  0.80631797070E+02  0.47000000000E+01 0. -1.
         -5    1    4    4    0  502  0.14302306064E+02  0.41110715683E+02  0.42804605437E+02  0.61228842463E+02  0.47000000000E+01 0. -1.
          5    1    5    5  503    0 -0.40554279718E+02  0.43117081971E+02 -0.43118383013E+02  0.73382677212E+02  0.47000000000E+01 0. -1.
         -5    1    5    5    0  503  0.15014296926E+02 -0.70856872122E+02 -0.55290398742E+02  0.91242773041E+02  0.47000000000E+01 0. -1.
<mgrwt>
<rscale>  0 0.27555247E+03</rscale>
<asrwt>0</asrwt>
<pdfrwt beam="1">  1        2 0.33897474E-01 0.27555247E+03</pdfrwt>
<pdfrwt beam="2">  1       -2 0.13254232E-01 0.27555247E+03</pdfrwt>
<totfact> 0.63891780E+03</totfact>
</mgrwt>
</event>
<event>
 9    1  0.2051157E-002  0.2750886E+03  0.7818608E-02  0.1098402E+00
         -1   -1    0    0    0  501 -0.00000000000E+00  0.00000000000E+00  0.18657093080E+03  0.18657093080E+03  0.00000000000E+00 0. -1.
          1   -1    0    0  501    0  0.00000000000E+00 -0.00000000000E+00 -0.10140078403E+03  0.10140078403E+03  0.00000000000E+00 0. -1.
         36    2    1    2    0    0  0.00000000000E+00  0.00000000000E+00  0.85170146765E+02  0.28797171483E+03  0.27508863052E+03 0.  0.
         25    2    3    3    0    0  0.51189374668E+01  0.51690143634E+02  0.76658839891E+01  0.13423870509E+03  0.12354428233E+03 0.  0.
         25    2    3    3    0    0 -0.51189374668E+01 -0.51690143634E+02  0.77504262776E+02  0.15373300974E+03  0.12218368576E+03 0.  0.
          5    1    4    4  502    0  0.25969497838E+02 -0.86689635328E+01 -0.43950498076E+02  0.51993288296E+02  0.47000000000E+01 0. -1.
         -5    1    4    4    0  502 -0.20850560371E+02  0.60359107167E+02  0.51616382065E+02  0.82245416792E+02  0.47000000000E+01 0. -1.
          5    1    5    5  503    0  0.35584650306E+01  0.37897635569E+02  0.41961006197E+02  0.56848126584E+02  0.47000000000E+01 0.  1.
         -5    1    5    5    0  503 -0.86774024974E+01 -0.89587779203E+02  0.35543256579E+02  0.96884883160E+02  0.47000000000E+01 0.  1.
<mgrwt>
<rscale>  0 0.27508863E+03</rscale>
<asrwt>0</asrwt>
<pdfrwt beam="1">  1        1 0.15600121E-01 0.27508863E+03</pdfrwt>
<pdfrwt beam="2">  1       -1 0.28703220E-01 0.27508863E+03</pdfrwt>
<totfact> 0.38772574E+03</totfact>
</mgrwt>
</event>
<event>
 9    1  0.2051157E-002  0.2748519E+03  0.7818608E-02  0.1098534E+00
         -2   -1    0    0    0  501 -0.00000000000E+00  0.00000000000E+00  0.10552917841E+03  0.10552917841E+03  0.00000000000E+00 0. -1.
          2   -1    0    0  501    0  0.00000000000E+00 -0.00000000000E+00 -0.17896364771E+03  0.17896364771E+03  0.00000000000E+00 0. -1.
         36    2    1    2    0    0 -0.35527136788E-14  0.00000000000E+00 -0.73434469306E+02  0.28449282612E+03  0.27485186343E+03 0.  0.
         25    2    3    3    0    0 -0.25800533641E+02  0.42439585857E+02 -0.60615554644E+02  0.14488847550E+03  0.12186730030E+03 0.  0.
         25    2    3    3    0    0  0.25800533641E+02 -0.42439585857E+02 -0.12818914662E+02  0.13960435062E+03  0.12983937829E+03 0.  0.
          5    1    4    4  502    0 -0.30236862561E+02 -0.37312453635E+02 -0.38895620669E+02  0.61979402716E+02  0.47000000000E+01 0.  1.
         -5    1    4    4    0  502  0.44363289198E+01  0.79752039492E+02 -0.21719933975E+02  0.82909072781E+02  0.47000000000E+01 0.  1.
          5    1    5    5  503    0  0.74877257447E+02 -0.44609727328E+02 -0.20502189309E+02  0.89660812072E+02  0.47000000000E+01 0. -1.
         -5    1    5    5    0  503 -0.49076723805E+02  0.21701414709E+01  0.76832746471E+01  0.49943538549E+02  0.47000000000E+01 0. -1.
<mgrwt>
<rscale>  0 0.27485186E+03</rscale>
<asrwt>0</asrwt>
<pdfrwt beam="1">  1        2 0.27532868E-01 0.27485186E+03</pdfrwt>
<pdfrwt beam="2">  1       -2 0.16235258E-01 0.27485186E+03</pdfrwt>
<totfact> 0.57435685E+03</totfact>
</mgrwt>
</event>
<event>
 9    1  0.2051157E-002  0.2747363E+03  0.7818608E-02  0.1098599E+00
         -2   -1    0    0    0  501 -0.00000000000E+00  0.00000000000E+00  0.15280168607E+02  0.15280168607E+02  0.00000000000E+00 0. -1.
          2   -1    0    0  501    0  0.00000000000E+00 -0.00000000000E+00 -0.12349344085E+04  0.12349344085E+04  0.00000000000E+00 0. -1.
         36    2    1    2    0    0  0.00000000000E+00  0.00000000000E+00 -0.12196542399E+04  0.12502145771E+04  0.27473628068E+03 0.  0.
         25    2    3    3    0    0 -0.83658245542E+01  0.45589228989E+02 -0.83960290744E+03  0.85002243336E+03  0.12432509885E+03 0.  0.
         25    2    3    3    0    0  0.83658245542E+01 -0.45589228989E+02 -0.38005133248E+03  0.40019214378E+03  0.11647476895E+03 0.  0.
          5    1    4    4  502    0  0.33933910659E+02  0.44013193863E+02 -0.73455532026E+03  0.73666972250E+03  0.47000000000E+01 0. -1.
         -5    1    4    4    0  502 -0.42299735213E+02  0.15760351264E+01 -0.10504758719E+03  0.11335271086E+03  0.47000000000E+01 0. -1.
          5    1    5    5  503    0  0.68324794241E+01 -0.79883647107E+02 -0.17920116467E+03  0.19637522061E+03  0.47000000000E+01 0.  1.
         -5    1    5    5    0  503  0.15333451301E+01  0.34294418118E+02 -0.20085016781E+03  0.20381692317E+03  0.47000000000E+01 0.  1.
<mgrwt>
<rscale>  0 0.27473628E+03</rscale>
<asrwt>0</asrwt>
<pdfrwt beam="1">  1        2 0.18998998E+00 0.27473628E+03</pdfrwt>
<pdfrwt beam="2">  1       -2 0.23507943E-02 0.27473628E+03</pdfrwt>
<totfact> 0.11607188E+04</totfact>
</mgrwt>
</event>
<event>
 9    1  0.2051157E-002  0.2749979E+03  0.7818608E-02  0.1098453E+00
          3   -1    0    0  501    0  0.00000000000E+00  0.00000000000E+00  0.16480102049E+03  0.16480102049E+03  0.00000000000E+00 0. -1.
         -3   -1    0    0    0  501 -0.00000000000E+00 -0.00000000000E+00 -0.11471988888E+03  0.11471988888E+03  0.00000000000E+00 0. -1.
         36    2    1    2    0    0 -0.17763568394E-14  0.71054273576E-14  0.50081131618E+02  0.27952090937E+03  0.27499785277E+03 0.  0.
         25    2    3    3    0    0  0.91005303488E+01 -0.42925475578E+02  0.66115999269E+01  0.14044517074E+03  0.13325057833E+03 0.  0.
         25    2    3    3    0    0 -0.91005303488E+01  0.42925475578E+02  0.43469531691E+02  0.13907573862E+03  0.12460756310E+03 0.  0.
          5    1    4    4  502    0  0.67590253305E+02 -0.22439397285E+02 -0.17984502224E+02  0.73603676624E+02  0.47000000000E+01 0. -1.
         -5    1    4    4    0  502 -0.58489722956E+02 -0.20486078294E+02  0.24596102151E+02  0.66841494121E+02  0.47000000000E+01 0. -1.
          5    1    5    5  503    0 -0.10943787197E+00  0.84356886956E+02  0.10446414479E+02  0.85131157217E+02  0.47000000000E+01 0.  1.
         -5    1    5    5    0  503 -0.89910924768E+01 -0.41431411378E+02  0.33023117212E+02  0.53944581406E+02  0.47000000000E+01 0.  1.
<mgrwt>
<rscale>  0 0.27499785E+03</rscale>
<asrwt>0</asrwt>
<pdfrwt beam="1">  1        3 0.25354003E-01 0.27499785E+03</pdfrwt>
<pdfrwt beam="2">  1       -3 0.17649214E-01 0.27499785E+03</pdfrwt>
<totfact> 0.10420777E+03</totfact>
</mgrwt>
</event>
<event>
 9    1  0.2051157E-002  0.2784992E+03  0.7818608E-02  0.1096511E+00
          1   -1    0    0  501    0  0.00000000000E+00  0.00000000000E+00  0.49564305955E+02  0.49564305955E+02  0.00000000000E+00 0.  1.
         -1   -1    0    0    0  501 -0.00000000000E+00 -0.00000000000E+00 -0.39121816899E+03  0.39121816899E+03  0.00000000000E+00 0.  1.
         36    2    1    2    0    0  0.00000000000E+00  0.00000000000E+00 -0.34165386303E+03  0.44078247494E+03  0.27849924253E+03 0.  0.
         25    2    3    3    0    0 -0.19718653226E+02 -0.32639964165E+02 -0.10058836703E+03  0.16417717812E+03  0.12402392385E+03 0.  0.
         25    2    3    3    0    0  0.19718653226E+02  0.32639964165E+02 -0.24106549600E+03  0.27660529683E+03  0.13016806185E+03 0.  0.
          5    1    4    4  502    0  0.44285591712E+02 -0.42350225658E+02 -0.67629226574E+02  0.91381385049E+02  0.47000000000E+01 0. -1.
         -5    1    4    4    0  502 -0.64004244938E+02  0.97102614937E+01 -0.32959140458E+02  0.72795793066E+02  0.47000000000E+01 0. -1.
          5    1    5    5  503    0  0.10645670353E+02  0.96149745751E+01 -0.24956383067E+03  0.25001994643E+03  0.47000000000E+01 0.  1.
         -5    1    5    5    0  503  0.90729828730E+01  0.23024989590E+02  0.84983346670E+01  0.26585350401E+02  0.47000000000E+01 0.  1.
<mgrwt>
<rscale>  0 0.27849924E+03</rscale>
<asrwt>0</asrwt>
<pdfrwt beam="1">  1        1 0.76252778E-02 0.27849924E+03</pdfrwt>
<pdfrwt beam="2">  1       -1 0.60187411E-01 0.27849924E+03</pdfrwt>
<totfact> 0.26757662E+03</totfact>
</mgrwt>
</event>
<event>
 9    1  0.2051157E-002  0.2752254E+03  0.7818608E-02  0.1098326E+00
          2   -1    0    0  501    0  0.00000000000E+00  0.00000000000E+00  0.25887353259E+03  0.25887353259E+03  0.00000000000E+00 0.  1.
         -2   -1    0    0    0  501 -0.00000000000E+00 -0.00000000000E+00 -0.73152534745E+02  0.73152534745E+02  0.00000000000E+00 0.  1.
         36    2    1    2    0    0  0.00000000000E+00  0.00000000000E+00  0.18572099785E+03  0.33202606734E+03  0.27522539917E+03 0.  0.
         25    2    3    3    0    0  0.32486155718E+02  0.19419297834E+02  0.64488876747E+02  0.14952235540E+03  0.12948227716E+03 0.  0.
         25    2    3    3    0    0 -0.32486155718E+02 -0.19419297834E+02  0.12123212110E+03  0.18250371193E+03  0.13106455753E+03 0.  0.
          5    1    4    4  502    0  0.56626560747E+02  0.20118787823E+02 -0.18428279710E+02  0.63031932372E+02  0.47000000000E+01 0.  1.
         -5    1    4    4    0  502 -0.24140405029E+02 -0.69948998923E+00  0.82917156457E+02  0.86490423031E+02  0.47000000000E+01 0.  1.
          5    1    5    5  503    0  0.13502017296E+02  0.32557062371E+02  0.10530174052E+03  0.11114321093E+03  0.47000000000E+01 0.  1.
         -5    1    5    5    0  503 -0.45988173013E+02 -0.51976360205E+02  0.15930380585E+02  0.71360500999E+02  0.47000000000E+01 0.  1.
<mgrwt>
<rscale>  0 0.27522540E+03</rscale>
<asrwt>0</asrwt>
<pdfrwt beam="1">  1        2 0.39826697E-01 0.27522540E+03</pdfrwt>
<pdfrwt beam="2">  1       -2 0.11254236E-01 0.27522540E+03</pdfrwt>
<totfact> 0.69905422E+03</totfact>
</mgrwt>
</event>
<event>
 9    1  0.2051157E-002  0.2747519E+03  0.7818608E-02  0.1098590E+00
          2   -1    0    0  501    0  0.00000000000E+00  0.00000000000E+00  0.49042344654E+02  0.49042344654E+02  0.00000000000E+00 0. -1.
         -2   -1    0    0    0  501 -0.00000000000E+00 -0.00000000000E+00 -0.38481347918E+03  0.38481347918E+03  0.00000000000E+00 0. -1.
         36    2    1    2    0    0  0.00000000000E+00  0.35527136788E-14 -0.33577113452E+03  0.43385582383E+03  0.27475192646E+03 0.  0.
         25    2    3    3    0    0  0.71160602143E+01 -0.31982630216E+02 -0.86296563780E+02  0.15548298751E+03  0.12511728712E+03 0.  0.
         25    2    3    3    0    0 -0.71160602143E+01  0.31982630216E+02 -0.24947457075E+03  0.27837283632E+03  0.11908126471E+03 0.  0.
          5    1    4    4  502    0  0.47670090860E+02 -0.25703268407E+02 -0.98419814703E+02  0.11243507236E+03  0.47000000000E+01 0. -1.
         -5    1    4    4    0  502 -0.40554030646E+02 -0.62793618090E+01  0.12123250924E+02  0.43047915156E+02  0.47000000000E+01 0. -1.
          5    1    5    5  503    0  0.41108720041E+02 -0.22277914669E+02 -0.66152550270E+02  0.81144822710E+02  0.47000000000E+01 0.  1.
         -5    1    5    5    0  503 -0.48224780255E+02  0.54260544886E+02 -0.18332202047E+03  0.19722801361E+03  0.47000000000E+01 0.  1.
<mgrwt>
<rscale>  0 0.27475193E+03</rscale>
<asrwt>0</asrwt>
<pdfrwt beam="1">  1        2 0.75449763E-02 0.27475193E+03</pdfrwt>
<pdfrwt beam="2">  1       -2 0.59202072E-01 0.27475193E+03</pdfrwt>
<totfact> 0.24857350E+03</totfact>
</mgrwt>
</event>
<event>
 9    1  0.2051157E-002  0.2747417E+03  0.7818608E-02  0.1098596E+00
          2   -1    0    0  501    0  0.00000000000E+00  0.00000000000E+00  0.55948282334E+02  0.55948282334E+02  0.00000000000E+00 0.  1.
         -2   -1    0    0    0  501 -0.00000000000E+00 -0.00000000000E+00 -0.33728927101E+03  0.33728927101E+03  0.00000000000E+00 0.  1.
         36    2    1    2    0    0 -0.14210854715E-13 -0.35527136788E-14 -0.28134098867E+03  0.39323755334E+03  0.27474173591E+03 0.  0.
         25    2    3    3    0    0 -0.37729692998E+02  0.40755253343E+01 -0.19651458517E+03  0.23744669091E+03  0.12776074983E+03 0.  0.
         25    2    3    3    0    0  0.37729692998E+02 -0.40755253343E+01 -0.84826403500E+02  0.15579086243E+03  0.12504053122E+03 0.  0.
          5    1    4    4  502    0 -0.11627171210E+02 -0.59343620357E+02 -0.12086071423E+03  0.13522669349E+03  0.47000000000E+01 0. -1.
         -5    1    4    4    0  502 -0.26102521789E+02  0.63419145691E+02 -0.75653870944E+02  0.10221999742E+03  0.47000000000E+01 0. -1.
          5    1    5    5  503    0  0.68453935735E+02 -0.24674885694E+02 -0.11896119092E+02  0.73880978277E+02  0.47000000000E+01 0.  1.
         -5    1    5    5    0  503 -0.30724242737E+02  0.20599360359E+02 -0.72930284408E+02  0.81909884158E+02  0.47000000000E+01 0.  1.
<mgrwt>
<rscale>  0 0.27474174E+03</rscale>
<asrwt>0</asrwt>
<pdfrwt beam="1">  1        2 0.86074281E-02 0.27474174E+03</pdfrwt>
<pdfrwt beam="2">  1       -2 0.51890657E-01 0.27474174E+03</pdfrwt>
<totfact> 0.27505917E+03</totfact>
</mgrwt>
</event>
<event>
 9    1  0.2051157E-002  0.2739119E+03  0.7818608E-02  0.1099061E+00
         -2   -1    0    0    0  501 -0.00000000000E+00  0.00000000000E+00  0.84944051073E+03  0.84944051073E+03  0.00000000000E+00 0. -1.
          2   -1    0    0  501    0  0.00000000000E+00 -0.00000000000E+00 -0.22081512928E+02  0.22081512928E+02  0.00000000000E+00 0. -1.
         36    2    1    2    0    0  0.00000000000E+00  0.35527136788E-14  0.82735899780E+03  0.87152202366E+03  0.27391189547E+03 0.  0.
         25    2    3    3    0    0 -0.16009289886E+02 -0.31359932774E+02  0.35775591376E+03  0.38481902614E+03  0.13731950444E+03 0.  0.
         25    2    3    3    0    0  0.16009289886E+02  0.31359932774E+02  0.46960308404E+03  0.48670299752E+03  0.12293497675E+03 0.  0.
          5    1    4    4  502    0 -0.44244282062E+02 -0.46586213028E+02  0.34335035630E+03  0.34934136444E+03  0.47000000000E+01 0. -1.
         -5    1    4    4    0  502  0.28234992175E+02  0.15226280254E+02  0.14405557462E+02  0.35477661695E+02  0.47000000000E+01 0. -1.
          5    1    5    5  503    0  0.16690612160E+02 -0.44098181579E+02  0.24994118734E+03  0.25439322570E+03  0.47000000000E+01 0. -1.
         -5    1    5    5    0  503 -0.68132227423E+00  0.75458114353E+02  0.21966189671E+03  0.23230977183E+03  0.47000000000E+01 0. -1.
<mgrwt>
<rscale>  0 0.27391190E+03</rscale>
<asrwt>0</asrwt>
<pdfrwt beam="1">  1        2 0.33971565E-02 0.27391190E+03</pdfrwt>
<pdfrwt beam="2">  1       -2 0.13068313E+00 0.27391190E+03</pdfrwt>
<totfact> 0.11899101E+03</totfact>
</mgrwt>
</event>
<event>
 9    1  0.2051157E-002  0.2744706E+03  0.7818608E-02  0.1098748E+00
         -2   -1    0    0    0  501 -0.00000000000E+00  0.00000000000E+00  0.14480211861E+03  0.14480211861E+03  0.00000000000E+00 0.  1.
          2   -1    0    0  501    0  0.00000000000E+00 -0.00000000000E+00 -0.13006393230E+03  0.13006393230E+03  0.00000000000E+00 0.  1.
         36    2    1    2    0    0  0.35527136788E-14  0.71054273576E-14  0.14738186316E+02  0.27486605091E+03  0.27447063925E+03 0.  0.
         25    2    3    3    0    0  0.14733813025E+02 -0.39664087036E+02 -0.18673995569E+02  0.13827825414E+03  0.13031435996E+03 0.  0.
         25    2    3    3    0    0 -0.14733813025E+02  0.39664087036E+02  0.33412181885E+02  0.13658779677E+03  0.12549712061E+03 0.  0.
          5    1    4    4  502    0  0.48306490571E+02 -0.69689128871E+02  0.86898082978E+01  0.85367994484E+02  0.47000000000E+01 0.  1.
         -5    1    4    4    0  502 -0.33572677546E+02  0.30025041834E+02 -0.27363803866E+02  0.52910259656E+02  0.47000000000E+01 0.  1.
          5    1    5    5  503    0 -0.33155545943E+02  0.74050484708E+02 -0.52817077612E+01  0.81441702764E+02  0.47000000000E+01 0. -1.
         -5    1    5    5    0  503  0.18421732918E+02 -0.34386397671E+02  0.38693889646E+02  0.55146094009E+02  0.47000000000E+01 0. -1.
<mgrwt>
<rscale>  0 0.27447064E+03</rscale>
<asrwt>0</asrwt>
<pdfrwt beam="1">  1        2 0.20009836E-01 0.27447064E+03</pdfrwt>
<pdfrwt beam="2">  1       -2 0.22277249E-01 0.27447064E+03</pdfrwt>
<totfact> 0.48035326E+03</totfact>
</mgrwt>
</event>
<event>
 9    1  0.2051157E-002  0.2741391E+03  0.7818608E-02  0.1098934E+00
         -2   -1    0    0    0  501 -0.00000000000E+00  0.00000000000E+00  0.37837735230E+02  0.37837735230E+02  0.00000000000E+00 0. -1.
          2   -1    0    0  501    0  0.00000000000E+00 -0.00000000000E+00 -0.49654285002E+03  0.49654285002E+03  0.00000000000E+00 0. -1.
         36    2    1    2    0    0  0.00000000000E+00  0.35527136788E-14 -0.45870511479E+03  0.53438058525E+03  0.27413906609E+03 0.  0.
         25    2    3    3    0    0 -0.13106848628E+02  0.26135758820E+02 -0.23117821165E+03  0.27489676501E+03  0.14584237554E+03 0.  0.
         25    2    3    3    0    0  0.13106848628E+02 -0.26135758820E+02 -0.22752690314E+03  0.25948382024E+03  0.12127857989E+03 0.  0.
          5    1    4    4  502    0 -0.47979572022E+02  0.54508381220E+02 -0.50312745100E+02  0.88468442250E+02  0.47000000000E+01 0.  1.
         -5    1    4    4    0  502  0.34872723394E+02 -0.28372622400E+02 -0.18086546655E+03  0.18642832276E+03  0.47000000000E+01 0.  1.
          5    1    5    5  503    0  0.18544647842E+02 -0.87557096556E+01 -0.23733956918E+03  0.23827028248E+03  0.47000000000E+01 0. -1.
         -5    1    5    5    0  503 -0.54377992141E+01 -0.17380049164E+02  0.98126660394E+01  0.21213537754E+02  0.47000000000E+01 0. -1.
<mgrwt>
<rscale>  0 0.27413907E+03</rscale>
<asrwt>0</asrwt>
<pdfrwt beam="1">  1        2 0.76391205E-01 0.27413907E+03</pdfrwt>
<pdfrwt beam="2">  1       -2 0.58211902E-02 0.27413907E+03</pdfrwt>
<totfact> 0.96715532E+03</totfact>
</mgrwt>
</event>
<event>
 9    1  0.2051157E-002  0.2761269E+03  0.7818608E-02  0.1097823E+00
          1   -1    0    0  501    0  0.00000000000E+00  0.00000000000E+00  0.18897283849E+04  0.18897283849E+04  0.00000000000E+00 0.  1.
         -1   -1    0    0    0  501 -0.00000000000E+00 -0.00000000000E+00 -0.10086905461E+02  0.10086905461E+02  0.00000000000E+00 0.  1.
         36    2    1    2    0    0  0.00000000000E+00 -0.71054273576E-14  0.18796414794E+04  0.18998152903E+04  0.27612686624E+03 0.  0.
         25    2    3    3    0    0 -0.40101373129E+02  0.76150166602E+01  0.69814839564E+03  0.71104329983E+03  0.12847288930E+03 0.  0.
         25    2    3    3    0    0  0.40101373129E+02 -0.76150166602E+01  0.11814930838E+04  0.11887719905E+04  0.12484722589E+03 0.  0.
          5    1    4    4  502    0 -0.48481624630E+02 -0.38381302892E+02  0.58839704241E+03  0.59165594888E+03  0.47000000000E+01 0.  1.
         -5    1    4    4    0  502  0.83802515012E+01  0.45996319553E+02  0.10975135324E+03  0.11938735094E+03  0.47000000000E+01 0.  1.
          5    1    5    5  503    0  0.23407675994E+02 -0.64657692652E+02  0.50982625925E+03  0.51446422726E+03  0.47000000000E+01 0.  1.
         -5    1    5    5    0  503  0.16693697135E+02  0.57042675992E+02  0.67166682450E+03  0.67430776323E+03  0.47000000000E+01 0.  1.
<mgrwt>
<rscale>  0 0.27612687E+03</rscale>
<asrwt>0</asrwt>
<pdfrwt beam="1">  1        1 0.29072716E+00 0.27612687E+03</pdfrwt>
<pdfrwt beam="2">  1       -1 0.15518331E-02 0.27612687E+03</pdfrwt>
<totfact> 0.39519965E+03</totfact>
</mgrwt>
</event>
<event>
 9    1  0.2051157E-002  0.2769942E+03  0.7818608E-02  0.1097342E+00
          1   -1    0    0  501    0  0.00000000000E+00  0.00000000000E+00  0.69363859599E+03  0.69363859599E+03  0.00000000000E+00 0.  1.
         -1   -1    0    0    0  501 -0.00000000000E+00 -0.00000000000E+00 -0.27653376214E+02  0.27653376214E+02  0.00000000000E+00 0.  1.
         36    2    1    2    0    0  0.00000000000E+00  0.00000000000E+00  0.66598521978E+03  0.72129197221E+03  0.27699421692E+03 0.  0.
         25    2    3    3    0    0  0.89976140143E+01  0.55507740216E+02  0.33483312103E+03  0.36207721459E+03  0.12579596220E+03 0.  0.
         25    2    3    3    0    0 -0.89976140143E+01 -0.55507740216E+02  0.33115209875E+03  0.35921475762E+03  0.12732424475E+03 0.  0.
          5    1    4    4  502    0  0.30078093839E+02 -0.33879204203E+02  0.10017851130E+03  0.11004688243E+03  0.47000000000E+01 0. -1.
         -5    1    4    4    0  502 -0.21080479825E+02  0.89386944420E+02  0.23465460973E+03  0.25203033216E+03  0.47000000000E+01 0. -1.
          5    1    5    5  503    0 -0.54618729901E+02 -0.79178946554E+01  0.67055528556E+02  0.86973746738E+02  0.47000000000E+01 0. -1.
         -5    1    5    5    0  503  0.45621115886E+02 -0.47589845561E+02  0.26409657020E+03  0.27224101088E+03  0.47000000000E+01 0. -1.
<mgrwt>
<rscale>  0 0.27699422E+03</rscale>
<asrwt>0</asrwt>
<pdfrwt beam="1">  1        1 0.10671362E+00 0.27699422E+03</pdfrwt>
<pdfrwt beam="2">  1       -1 0.42543661E-02 0.27699422E+03</pdfrwt>
<totfact> 0.63915023E+03</totfact>
</mgrwt>
</event>
<event>
 9    1  0.2051157E-002  0.2749100E+03  0.7818608E-02  0.1098502E+00
         -2   -1    0    0    0  501 -0.00000000000E+00  0.00000000000E+00  0.79847684558E+02  0.79847684558E+02  0.00000000000E+00 0. -1.
          2   -1    0    0  501    0  0.00000000000E+00 -0.00000000000E+00 -0.23662398165E+03  0.23662398165E+03  0.00000000000E+00 0. -1.
         36    2    1    2    0    0 -0.35527136788E-14  0.00000000000E+00 -0.15677629710E+03  0.31647166621E+03  0.27491000015E+03 0.  0.
         25    2    3    3    0    0  0.64774226909E+01  0.53601693319E+02 -0.10456888260E+03  0.17019106524E+03  0.12294408871E+03 0.  0.
         25    2    3    3    0    0 -0.64774226909E+01 -0.53601693319E+02 -0.52207414493E+02  0.14628060097E+03  0.12552809072E+03 0.  0.
          5    1    4    4  502    0  0.28495535829E+02  0.83081297428E+01 -0.11472951542E+03  0.11860005181E+03  0.47000000000E+01 0. -1.
         -5    1    4    4    0  502 -0.22018113138E+02  0.45293563576E+02  0.10160632813E+02  0.51591013431E+02  0.47000000000E+01 0. -1.
          5    1    5    5  503    0  0.33842753051E+02  0.95223558844E+01 -0.61157732842E+02  0.70699119387E+02  0.47000000000E+01 0. -1.
         -5    1    5    5    0  503 -0.40320175742E+02 -0.63124049204E+02  0.89503183496E+01  0.75581481583E+02  0.47000000000E+01 0. -1.
<mgrwt>
<rscale>  0 0.27491000E+03</rscale>
<asrwt>0</asrwt>
<pdfrwt beam="1">  1        2 0.36403689E-01 0.27491000E+03</pdfrwt>
<pdfrwt beam="2">  1       -2 0.12284259E-01 0.27491000E+03</pdfrwt>
<totfact> 0.66894611E+03</totfact>
</mgrwt>
</event>
<event>
 9    1  0.2051157E-002  0.2758385E+03  0.7818608E-02  0.1097984E+00
         -2   -1    0    0    0  501 -0.00000000000E+00  0.00000000000E+00  0.59596201915E+01  0.59596201915E+01  0.00000000000E+00 0.  1.
          2   -1    0    0  501    0  0.00000000000E+00 -0.00000000000E+00 -0.31917669554E+04  0.31917669554E+04  0.00000000000E+00 0.  1.
         36    2    1    2    0    0  0.71054273576E-14  0.00000000000E+00 -0.31858073353E+04  0.31977265756E+04  0.27583849473E+03 0.  0.
         25    2    3    3    0    0  0.32618830032E+02  0.14687081164E+01 -0.21319374905E+04  0.21359705286E+04  0.12706884101E+03 0.  0.
         25    2    3    3    0    0 -0.32618830032E+02 -0.14687081164E+01 -0.10538698448E+04  0.10617560471E+04  0.12497243144E+03 0.  0.
          5    1    4    4  502    0  0.81342050058E+02  0.77523342332E+01 -0.13282284210E+04  0.13307477057E+04  0.47000000000E+01 0.  1.
         -5    1    4    4    0  502 -0.48723220026E+02 -0.62836261168E+01 -0.80370906945E+03  0.80522282285E+03  0.47000000000E+01 0.  1.
          5    1    5    5  503    0 -0.37182851170E+02  0.21799769059E+01 -0.10535830334E+04  0.10542516849E+04  0.47000000000E+01 0.  1.
         -5    1    5    5    0  503  0.45640211381E+01 -0.36486850223E+01 -0.28681133367E+00  0.75043622035E+01  0.47000000000E+01 0.  1.
<mgrwt>
<rscale>  0 0.27583849E+03</rscale>
<asrwt>0</asrwt>
<pdfrwt beam="1">  1        2 0.49104180E+00 0.27583849E+03</pdfrwt>
<pdfrwt beam="2">  1       -2 0.91686329E-03 0.27583849E+03</pdfrwt>
<totfact> 0.38586959E+03</totfact>
</mgrwt>
</event>
<event>
 9    1  0.2051157E-002  0.2759750E+03  0.7818608E-02  0.1097908E+00
          2   -1    0    0  501    0  0.00000000000E+00  0.00000000000E+00  0.14220376439E+03  0.14220376439E+03  0.00000000000E+00 0. -1.
         -2   -1    0    0    0  501 -0.00000000000E+00 -0.00000000000E+00 -0.13389624151E+03  0.13389624151E+03  0.00000000000E+00 0. -1.
         36    2    1    2    0    0 -0.17763568394E-14  0.00000000000E+00  0.83075228797E+01  0.27610000590E+03  0.27597499582E+03 0.  0.
         25    2    3    3    0    0  0.93053843048E+01  0.44363839330E+02 -0.24120316293E+02  0.13772429666E+03  0.12779456880E+03 0.  0.
         25    2    3    3    0    0 -0.93053843048E+01 -0.44363839330E+02  0.32427839173E+02  0.13837570924E+03  0.12665516862E+03 0.  0.
          5    1    4    4  502    0 -0.28760685066E+01  0.36978036211E+02 -0.75473053399E+02  0.84225404252E+02  0.47000000000E+01 0. -1.
         -5    1    4    4    0  502  0.12181452811E+02  0.73858031196E+01  0.51352737105E+02  0.53498892405E+02  0.47000000000E+01 0. -1.
          5    1    5    5  503    0  0.51159643579E+02  0.64818367155E+01 -0.25589477482E+01  0.51845554794E+02  0.47000000000E+01 0.  1.
         -5    1    5    5    0  503 -0.60465027884E+02 -0.50845676046E+02  0.34986786921E+02  0.86530154447E+02  0.47000000000E+01 0.  1.
<mgrwt>
<rscale>  0 0.27597500E+03</rscale>
<asrwt>0</asrwt>
<pdfrwt beam="1">  1        2 0.21877502E-01 0.27597500E+03</pdfrwt>
<pdfrwt beam="2">  1       -2 0.20599422E-01 0.27597500E+03</pdfrwt>
<totfact> 0.49682336E+03</totfact>
</mgrwt>
</event>
<event>
 9    1  0.2051157E-002  0.2778495E+03  0.7818608E-02  0.1096869E+00
          1   -1    0    0  501    0  0.00000000000E+00  0.00000000000E+00  0.25109391290E+02  0.25109391290E+02  0.00000000000E+00 0. -1.
         -1   -1    0    0    0  501 -0.00000000000E+00 -0.00000000000E+00 -0.76863998135E+03  0.76863998135E+03  0.00000000000E+00 0. -1.
         36    2    1    2    0    0  0.00000000000E+00 -0.35527136788E-14 -0.74353059006E+03  0.79374937264E+03  0.27784947042E+03 0.  0.
         25    2    3    3    0    0  0.36835005150E+02 -0.91785765064E+01 -0.18351565415E+03  0.21902611854E+03  0.11337275429E+03 0.  0.
         25    2    3    3    0    0 -0.36835005150E+02  0.91785765064E+01 -0.56001493592E+03  0.57472325410E+03  0.12348694864E+03 0.  0.
          5    1    4    4  502    0  0.11809856235E+01  0.35247196305E+02 -0.10926743655E+02  0.37218856798E+02  0.47000000000E+01 0. -1.
         -5    1    4    4    0  502  0.35654019527E+02 -0.44425772812E+02 -0.17258891049E+03  0.18180726175E+03  0.47000000000E+01 0. -1.
          5    1    5    5  503    0 -0.64422590740E+02 -0.26242568952E+02 -0.19824704285E+03  0.21014976237E+03  0.47000000000E+01 0. -1.
         -5    1    5    5    0  503  0.27587585589E+02  0.35421145458E+02 -0.36176789306E+03  0.36457349173E+03  0.47000000000E+01 0. -1.
<mgrwt>
<rscale>  0 0.27784947E+03</rscale>
<asrwt>0</asrwt>
<pdfrwt beam="1">  1        1 0.38629842E-02 0.27784947E+03</pdfrwt>
<pdfrwt beam="2">  1       -1 0.11825228E+00 0.27784947E+03</pdfrwt>
<totfact> 0.16349190E+03</totfact>
</mgrwt>
</event>
<event>
 9    1  0.2051157E-002  0.2757462E+03  0.7818608E-02  0.1098035E+00
          2   -1    0    0  501    0  0.00000000000E+00  0.00000000000E+00  0.68721814423E+03  0.68721814423E+03  0.00000000000E+00 0.  1.
         -2   -1    0    0    0  501 -0.00000000000E+00 -0.00000000000E+00 -0.27660791136E+02  0.27660791136E+02  0.00000000000E+00 0.  1.
         36    2    1    2    0    0  0.00000000000E+00 -0.35527136788E-14  0.65955735309E+03  0.71487893536E+03  0.27574624242E+03 0.  0.
         25    2    3    3    0    0  0.24442254835E+02 -0.16463607498E+02  0.45308008582E+03  0.47204510876E+03  0.12913770303E+03 0.  0.
         25    2    3    3    0    0 -0.24442254835E+02  0.16463607498E+02  0.20647726727E+03  0.24283382660E+03  0.12436611777E+03 0.  0.
          5    1    4    4  502    0  0.41646490696E+02 -0.10165043171E+02  0.45095438431E+03  0.45301181554E+03  0.47000000000E+01 0.  1.
         -5    1    4    4    0  502 -0.17204235861E+02 -0.62985643269E+01  0.21257015179E+01  0.19033293228E+02  0.47000000000E+01 0.  1.
          5    1    5    5  503    0 -0.46317737440E+02  0.30490130917E+02  0.20902208352E+03  0.21630372693E+03  0.47000000000E+01 0. -1.
         -5    1    5    5    0  503  0.21875482605E+02 -0.14026523420E+02 -0.25448162561E+01  0.26530099665E+02  0.47000000000E+01 0. -1.
<mgrwt>
<rscale>  0 0.27574624E+03</rscale>
<asrwt>0</asrwt>
<pdfrwt beam="1">  1        2 0.10572586E+00 0.27574624E+03</pdfrwt>
<pdfrwt beam="2">  1       -2 0.42555068E-02 0.27574624E+03</pdfrwt>
<totfact> 0.10692574E+04</totfact>
</mgrwt>
</event>
<event>
 9    1  0.2051157E-002  0.2745528E+03  0.7818608E-02  0.1098702E+00
         -2   -1    0    0    0  501 -0.00000000000E+00  0.00000000000E+00  0.13133453763E+02  0.13133453763E+02  0.00000000000E+00 0.  1.
          2   -1    0    0  501    0  0.00000000000E+00 -0.00000000000E+00 -0.14348710982E+04  0.14348710982E+04  0.00000000000E+00 0.  1.
         36    2    1    2    0    0  0.00000000000E+00  0.00000000000E+00 -0.14217376444E+04  0.14480045520E+04  0.27455282351E+03 0.  0.
         25    2    3    3    0    0 -0.18184576968E+02 -0.47784830244E+02 -0.68616484470E+03  0.70006679828E+03  0.12906300443E+03 0.  0.
         25    2    3    3    0    0  0.18184576968E+02  0.47784830244E+02 -0.73557279973E+03  0.74793775368E+03  0.12541718713E+03 0.  0.
          5    1    4    4  502    0  0.48336346368E+02 -0.52591183841E+02 -0.38049443392E+03  0.38716965176E+03  0.47000000000E+01 0. -1.
         -5    1    4    4    0  502 -0.66520923337E+02  0.48063535978E+01 -0.30567041078E+03  0.31289714652E+03  0.47000000000E+01 0. -1.
          5    1    5    5  503    0 -0.69153410193E+01 -0.19940009703E+02 -0.22515409804E+02  0.31216335579E+02  0.47000000000E+01 0.  1.
         -5    1    5    5    0  503  0.25099917988E+02  0.67724839946E+02 -0.71305738993E+03  0.71672141810E+03  0.47000000000E+01 0.  1.
<mgrwt>
<rscale>  0 0.27455282E+03</rscale>
<asrwt>0</asrwt>
<pdfrwt beam="1">  1        2 0.22074919E+00 0.27455282E+03</pdfrwt>
<pdfrwt beam="2">  1       -2 0.20205332E-02 0.27455282E+03</pdfrwt>
<totfact> 0.11263029E+04</totfact>
</mgrwt>
</event>
<event>
 9    1  0.2051157E-002  0.2759575E+03  0.7818608E-02  0.1097918E+00
          2   -1    0    0  501    0  0.00000000000E+00  0.00000000000E+00  0.20939192446E+04  0.20939192446E+04  0.00000000000E+00 0. -1.
         -2   -1    0    0    0  501 -0.00000000000E+00 -0.00000000000E+00 -0.90921028006E+01  0.90921028006E+01  0.00000000000E+00 0. -1.
         36    2    1    2    0    0  0.00000000000E+00  0.00000000000E+00  0.20848271418E+04  0.21030113474E+04  0.27595745344E+03 0.  0.
         25    2    3    3    0    0  0.16079291007E+02 -0.43422075262E+02  0.11734548425E+04  0.11824117474E+04  0.13768533967E+03 0.  0.
         25    2    3    3    0    0 -0.16079291007E+02  0.43422075262E+02  0.91137229924E+03  0.92059959995E+03  0.12149129758E+03 0.  0.
          5    1    4    4  502    0 -0.46284443813E+02  0.18838972523E+02  0.61303486079E+03  0.61508616239E+03  0.47000000000E+01 0. -1.
         -5    1    4    4    0  502  0.62363734819E+02 -0.62261047785E+02  0.56041998175E+03  0.56732558504E+03  0.47000000000E+01 0. -1.
          5    1    5    5  503    0 -0.49453952221E+02 -0.12082367972E+02  0.61876560590E+03  0.62087409517E+03  0.47000000000E+01 0. -1.
         -5    1    5    5    0  503  0.33374661215E+02  0.55504443234E+02  0.29260669334E+03  0.29972550478E+03  0.47000000000E+01 0. -1.
<mgrwt>
<rscale>  0 0.27595745E+03</rscale>
<asrwt>0</asrwt>
<pdfrwt beam="1">  1        2 0.32214104E+00 0.27595745E+03</pdfrwt>
<pdfrwt beam="2">  1       -2 0.13987867E-02 0.27595745E+03</pdfrwt>
<totfact> 0.86624638E+03</totfact>
</mgrwt>
</event>
<event>
 9    1  0.2051157E-002  0.2752716E+03  0.7818608E-02  0.1098300E+00
          3   -1    0    0  501    0  0.00000000000E+00  0.00000000000E+00  0.14458117612E+03  0.14458117612E+03  0.00000000000E+00 0.  1.
         -3   -1    0    0    0  501 -0.00000000000E+00 -0.00000000000E+00 -0.13102409752E+03  0.13102409752E+03  0.00000000000E+00 0.  1.
         36    2    1    2    0    0 -0.35527136788E-14 -0.71054273576E-14  0.13557078593E+02  0.27560527364E+03  0.27527163399E+03 0.  0.
         25    2    3    3    0    0  0.62367247359E+01  0.43229315373E+02 -0.31023250708E+02  0.13665407913E+03  0.12571485519E+03 0.  0.
         25    2    3    3    0    0 -0.62367247359E+01 -0.43229315373E+02  0.44580329301E+02  0.13895119451E+03  0.12414651929E+03 0.  0.
          5    1    4    4  502    0  0.47661833151E+01 -0.42329790626E+02 -0.27421201502E+02  0.50877696190E+02  0.47000000000E+01 0.  1.
         -5    1    4    4    0  502  0.14705414208E+01  0.85559105999E+02 -0.36020492061E+01  0.85776382938E+02  0.47000000000E+01 0.  1.
          5    1    5    5  503    0 -0.56762330455E+02 -0.53871939833E+02  0.36497358412E+02  0.86477137043E+02  0.47000000000E+01 0. -1.
         -5    1    5    5    0  503  0.50525605719E+02  0.10642624460E+02  0.80829708883E+01  0.52474057467E+02  0.47000000000E+01 0. -1.
<mgrwt>
<rscale>  0 0.27527163E+03</rscale>
<asrwt>0</asrwt>
<pdfrwt beam="1">  1        3 0.22243258E-01 0.27527163E+03</pdfrwt>
<pdfrwt beam="2">  1       -3 0.20157553E-01 0.27527163E+03</pdfrwt>
<totfact> 0.10448111E+03</totfact>
</mgrwt>
</event>
<event>
 9    1  0.2051157E-002  0.2747350E+03  0.7818608E-02  0.1098600E+00
          1   -1    0    0  501    0  0.00000000000E+00  0.00000000000E+00  0.29506848330E+03  0.29506848330E+03  0.00000000000E+00 0.  1.
         -1   -1    0    0    0  501 -0.00000000000E+00 -0.00000000000E+00 -0.63950665438E+02  0.63950665438E+02  0.00000000000E+00 0.  1.
         36    2    1    2    0    0  0.17763568394E-14  0.00000000000E+00  0.23111781787E+03  0.35901914874E+03  0.27473496943E+03 0.  0.
         25    2    3    3    0    0  0.53016690683E+00 -0.80408988230E+01  0.19001628592E+03  0.22778597346E+03  0.12536077401E+03 0.  0.
         25    2    3    3    0    0 -0.53016690683E+00  0.80408988230E+01  0.41101531949E+02  0.13123317528E+03  0.12436990486E+03 0.  0.
          5    1    4    4  502    0 -0.21179811344E+02  0.16945315920E+01 -0.11638551123E+02  0.24677960169E+02  0.47000000000E+01 0.  1.
         -5    1    4    4    0  502  0.21709978251E+02 -0.97354304150E+01  0.20165483704E+03  0.20310801329E+03  0.47000000000E+01 0.  1.
          5    1    5    5  503    0  0.65849674689E+01 -0.16375490903E+02 -0.41144634441E+02  0.45016546316E+02  0.47000000000E+01 0. -1.
         -5    1    5    5    0  503 -0.71151343757E+01  0.24416389726E+02  0.82246166390E+02  0.86216628966E+02  0.47000000000E+01 0. -1.
<mgrwt>
<rscale>  0 0.27473497E+03</rscale>
<asrwt>0</asrwt>
<pdfrwt beam="1">  1        1 0.45395150E-01 0.27473497E+03</pdfrwt>
<pdfrwt beam="2">  1       -1 0.98385641E-02 0.27473497E+03</pdfrwt>
<totfact> 0.55570214E+03</totfact>
</mgrwt>
</event>
<event>
 9    1  0.2051157E-002  0.2748608E+03  0.7818608E-02  0.1098529E+00
         -2   -1    0    0    0  501 -0.00000000000E+00  0.00000000000E+00  0.21108447373E+02  0.21108447373E+02  0.00000000000E+00 0.  1.
          2   -1    0    0  501    0  0.00000000000E+00 -0.00000000000E+00 -0.89476570132E+03  0.89476570132E+03  0.00000000000E+00 0.  1.
         36    2    1    2    0    0 -0.10658141036E-13  0.71054273576E-14 -0.87365725395E+03  0.91587414870E+03  0.27486079908E+03 0.  0.
         25    2    3    3    0    0 -0.19619650297E+02 -0.19018395692E+02 -0.61185330692E+03  0.62454539534E+03  0.12225322734E+03 0.  0.
         25    2    3    3    0    0  0.19619650297E+02  0.19018395692E+02 -0.26180394703E+03  0.29132875336E+03  0.12483791812E+03 0.  0.
          5    1    4    4  502    0  0.27297225433E+02 -0.56427410670E+02 -0.37086589398E+03  0.37615527713E+03  0.47000000000E+01 0. -1.
         -5    1    4    4    0  502 -0.46916875729E+02  0.37409014978E+02 -0.24098741294E+03  0.24839011821E+03  0.47000000000E+01 0. -1.
          5    1    5    5  503    0 -0.24766478767E+02 -0.42057714534E+02 -0.73054387687E+02  0.87984449664E+02  0.47000000000E+01 0. -1.
         -5    1    5    5    0  503  0.44386129063E+02  0.61076110226E+02 -0.18874955934E+03  0.20334430369E+03  0.47000000000E+01 0. -1.
<mgrwt>
<rscale>  0 0.27486080E+03</rscale>
<asrwt>0</asrwt>
<pdfrwt beam="1">  1        2 0.13765625E+00 0.27486080E+03</pdfrwt>
<pdfrwt beam="2">  1       -2 0.32474537E-02 0.27486080E+03</pdfrwt>
<totfact> 0.11483694E+04</totfact>
</mgrwt>
</event>
<event>
 9    1  0.2051157E-002  0.2732717E+03  0.7818608E-02  0.1099422E+00
         -1   -1    0    0    0  501 -0.00000000000E+00  0.00000000000E+00  0.25240005766E+02  0.25240005766E+02  0.00000000000E+00 0.  1.
          1   -1    0    0  501    0  0.00000000000E+00 -0.00000000000E+00 -0.73967306330E+03  0.73967306330E+03  0.00000000000E+00 0.  1.
         36    2    1    2    0    0  0.00000000000E+00 -0.14210854715E-13 -0.71443305753E+03  0.76491306906E+03  0.27327167714E+03 0.  0.
         25    2    3    3    0    0 -0.63882688180E+01 -0.28808711049E+02 -0.48872172298E+03  0.50657364052E+03  0.12998914932E+03 0.  0.
         25    2    3    3    0    0  0.63882688180E+01  0.28808711049E+02 -0.22571133455E+03  0.25833942855E+03  0.12215933033E+03 0.  0.
          5    1    4    4  502    0  0.18759465849E+02  0.47515678351E+02 -0.15449144783E+03  0.16278622393E+03  0.47000000000E+01 0. -1.
         -5    1    4    4    0  502 -0.25147734667E+02 -0.76324389400E+02 -0.33423027515E+03  0.34378741659E+03  0.47000000000E+01 0. -1.
          5    1    5    5  503    0  0.11486393608E+01 -0.44568768507E+02 -0.13012424924E+03  0.13763031911E+03  0.47000000000E+01 0. -1.
         -5    1    5    5    0  503  0.52396294572E+01  0.73377479555E+02 -0.95587085314E+02  0.12070910944E+03  0.47000000000E+01 0. -1.
<mgrwt>
<rscale>  0 0.27327168E+03</rscale>
<asrwt>0</asrwt>
<pdfrwt beam="1">  1        1 0.11379586E+00 0.27327168E+03</pdfrwt>
<pdfrwt beam="2">  1       -1 0.38830776E-02 0.27327168E+03</pdfrwt>
<totfact> 0.66584939E+03</totfact>
</mgrwt>
</event>
<event>
 9    1  0.2051157E-002  0.2761960E+03  0.7818608E-02  0.1097785E+00
         -3   -1    0    0    0  501 -0.00000000000E+00  0.00000000000E+00  0.27162191270E+02  0.27162191270E+02  0.00000000000E+00 0. -1.
          3   -1    0    0  501    0  0.00000000000E+00 -0.00000000000E+00 -0.70211793230E+03  0.70211793230E+03  0.00000000000E+00 0. -1.
         36    2    1    2    0    0 -0.14210854715E-13  0.00000000000E+00 -0.67495574103E+03  0.72928012357E+03  0.27619602873E+03 0.  0.
         25    2    3    3    0    0  0.42088499992E+02  0.32951603947E+02 -0.29751180403E+03  0.32770251489E+03  0.12656387596E+03 0.  0.
         25    2    3    3    0    0 -0.42088499992E+02 -0.32951603947E+02 -0.37744393700E+03  0.40157760868E+03  0.12626717775E+03 0.  0.
          5    1    4    4  502    0  0.56712995829E+02  0.25775964596E+02 -0.30339199578E+03  0.30975725553E+03  0.47000000000E+01 0.  1.
         -5    1    4    4    0  502 -0.14624495837E+02  0.71756393510E+01  0.58801917566E+01  0.17945259365E+02  0.47000000000E+01 0.  1.
          5    1    5    5  503    0 -0.55491880103E+02 -0.42774775962E+02 -0.37783360208E+03  0.38430372244E+03  0.47000000000E+01 0. -1.
         -5    1    5    5    0  503  0.13403380111E+02  0.98231720157E+01  0.38966508319E+00  0.17273886237E+02  0.47000000000E+01 0. -1.
<mgrwt>
<rscale>  0 0.27619603E+03</rscale>
<asrwt>0</asrwt>
<pdfrwt beam="1">  1        3 0.10801813E+00 0.27619603E+03</pdfrwt>
<pdfrwt beam="2">  1       -3 0.41787990E-02 0.27619603E+03</pdfrwt>
<totfact> 0.58365680E+02</totfact>
</mgrwt>
</event>
<event>
 9    1  0.2051157E-002  0.2754986E+03  0.7818608E-02  0.1098173E+00
          1   -1    0    0  501    0  0.00000000000E+00  0.00000000000E+00  0.86688266103E+02  0.86688266103E+02  0.00000000000E+00 0.  1.
         -1   -1    0    0    0  501 -0.00000000000E+00 -0.00000000000E+00 -0.21888619919E+03  0.21888619919E+03  0.00000000000E+00 0.  1.
         36    2    1    2    0    0  0.00000000000E+00  0.00000000000E+00 -0.13219793309E+03  0.30557446530E+03  0.27549856683E+03 0.  0.
         25    2    3    3    0    0  0.36731433739E+02 -0.20487682629E+02 -0.78694194576E+02  0.16381343808E+03  0.13737948491E+03 0.  0.
         25    2    3    3    0    0 -0.36731433739E+02  0.20487682629E+02 -0.53503738513E+02  0.14176102721E+03  0.12435672655E+03 0.  0.
          5    1    4    4  502    0 -0.19660639744E+02 -0.50529717205E+02 -0.83385409286E+02  0.99574141010E+02  0.47000000000E+01 0.  1.
         -5    1    4    4    0  502  0.56392073483E+02  0.30042034576E+02  0.46912147106E+01  0.64239297075E+02  0.47000000000E+01 0.  1.
          5    1    5    5  503    0 -0.82836079726E+02  0.17326244262E+02 -0.32402003320E+02  0.90741361373E+02  0.47000000000E+01 0. -1.
         -5    1    5    5    0  503  0.46104645987E+02  0.31614383673E+01 -0.21101735193E+02  0.51019665839E+02  0.47000000000E+01 0. -1.
<mgrwt>
<rscale>  0 0.27549857E+03</rscale>
<asrwt>0</asrwt>
<pdfrwt beam="1">  1        1 0.13336656E-01 0.27549857E+03</pdfrwt>
<pdfrwt beam="2">  1       -1 0.33674800E-01 0.27549857E+03</pdfrwt>
<totfact> 0.36266115E+03</totfact>
</mgrwt>
</event>
<event>
 9    1  0.2051157E-002  0.2748120E+03  0.7818608E-02  0.1098557E+00
         -1   -1    0    0    0  501 -0.00000000000E+00  0.00000000000E+00  0.52957478327E+02  0.52957478327E+02  0.00000000000E+00 0.  1.
          1   -1    0    0  501    0  0.00000000000E+00 -0.00000000000E+00 -0.35652009668E+03  0.35652009668E+03  0.00000000000E+00 0.  1.
         36    2    1    2    0    0  0.14210854715E-13 -0.35527136788E-14 -0.30356261836E+03  0.40947757501E+03  0.27481197422E+03 0.  0.
         25    2    3    3    0    0  0.38361656180E+02 -0.11683565510E+02 -0.95010259669E+02  0.16353725028E+03  0.12692265526E+03 0.  0.
         25    2    3    3    0    0 -0.38361656180E+02  0.11683565510E+02 -0.20855235869E+03  0.24594032474E+03  0.12403400602E+03 0.  0.
          5    1    4    4  502    0  0.66243596339E+02 -0.12511784363E+02 -0.11180374535E+03  0.13064044656E+03  0.47000000000E+01 0.  1.
         -5    1    4    4    0  502 -0.27881940159E+02  0.82821885301E+00  0.16793485677E+02  0.32896803715E+02  0.47000000000E+01 0.  1.
          5    1    5    5  503    0  0.23552155254E+02  0.41281140785E+02 -0.14360361370E+03  0.15133712191E+03  0.47000000000E+01 0.  1.
         -5    1    5    5    0  503 -0.61913811434E+02 -0.29597575275E+02 -0.64948744987E+02  0.94603202820E+02  0.47000000000E+01 0.  1.
<mgrwt>
<rscale>  0 0.27481197E+03</rscale>
<asrwt>0</asrwt>
<pdfrwt beam="1">  1        1 0.54849247E-01 0.27481197E+03</pdfrwt>
<pdfrwt beam="2">  1       -1 0.81473041E-02 0.27481197E+03</pdfrwt>
<totfact> 0.58474126E+03</totfact>
</mgrwt>
</event>
<event>
 9    1  0.2051157E-002  0.2741755E+03  0.7818608E-02  0.1098913E+00
          2   -1    0    0  501    0  0.00000000000E+00  0.00000000000E+00  0.53505385331E+03  0.53505385331E+03  0.00000000000E+00 0.  1.
         -2   -1    0    0    0  501 -0.00000000000E+00 -0.00000000000E+00 -0.35123673597E+02  0.35123673597E+02  0.00000000000E+00 0.  1.
         36    2    1    2    0    0  0.00000000000E+00  0.00000000000E+00  0.49993017971E+03  0.57017752691E+03  0.27417554158E+03 0.  0.
         25    2    3    3    0    0  0.46469446489E+02 -0.24636876570E+02  0.29184522810E+03  0.32242607375E+03  0.12656441334E+03 0.  0.
         25    2    3    3    0    0 -0.46469446489E+02  0.24636876570E+02  0.20808495161E+03  0.24775145316E+03  0.12375399109E+03 0.  0.
          5    1    4    4  502    0  0.36686714678E+02  0.39223160149E+02  0.21627633408E+03  0.22289440103E+03  0.47000000000E+01 0.  1.
         -5    1    4    4    0  502  0.97827318105E+01 -0.63860036719E+02  0.75568894020E+02  0.99531672722E+02  0.47000000000E+01 0.  1.
          5    1    5    5  503    0 -0.81137759523E+00 -0.48005070809E+02  0.67036545853E+02  0.82590154600E+02  0.47000000000E+01 0.  1.
         -5    1    5    5    0  503 -0.45658068894E+02  0.72641947378E+02  0.14104840576E+03  0.16516129856E+03  0.47000000000E+01 0.  1.
<mgrwt>
<rscale>  0 0.27417554E+03</rscale>
<asrwt>0</asrwt>
<pdfrwt beam="1">  1        2 0.82315972E-01 0.27417554E+03</pdfrwt>
<pdfrwt beam="2">  1       -2 0.54036425E-02 0.27417554E+03</pdfrwt>
<totfact> 0.99635632E+03</totfact>
</mgrwt>
</event>
<event>
 9    1  0.2051157E-002  0.2751499E+03  0.7818608E-02  0.1098368E+00
          2   -1    0    0  501    0  0.00000000000E+00  0.00000000000E+00  0.38897397036E+04  0.38897397036E+04  0.00000000000E+00 0. -1.
         -2   -1    0    0    0  501 -0.00000000000E+00 -0.00000000000E+00 -0.48658437600E+01  0.48658437600E+01  0.00000000000E+00 0. -1.
         36    2    1    2    0    0  0.00000000000E+00  0.00000000000E+00  0.38848738598E+04  0.38946055474E+04  0.27514989126E+03 0.  0.
         25    2    3    3    0    0  0.45479821665E+02  0.23208869013E+02  0.22698075390E+04  0.22738653163E+04  0.12581791156E+03 0.  0.
         25    2    3    3    0    0 -0.45479821665E+02 -0.23208869013E+02  0.16150663208E+04  0.16207402310E+04  0.12550940215E+03 0.  0.
          5    1    4    4  502    0  0.24420995420E+02  0.48025114249E+02  0.21108076767E+04  0.21115003989E+04  0.47000000000E+01 0. -1.
         -5    1    4    4    0  502  0.21058826246E+02 -0.24816245236E+02  0.15899986229E+03  0.16236491738E+03  0.47000000000E+01 0. -1.
          5    1    5    5  503    0 -0.56811501031E+02  0.22994925909E+02  0.39648461635E+03  0.40122120367E+03  0.47000000000E+01 0.  1.
         -5    1    5    5    0  503  0.11331679366E+02 -0.46203794922E+02  0.12185817045E+04  0.12195190274E+04  0.47000000000E+01 0.  1.
<mgrwt>
<rscale>  0 0.27514989E+03</rscale>
<asrwt>0</asrwt>
<pdfrwt beam="1">  1        2 0.59841901E+00 0.27514989E+03</pdfrwt>
<pdfrwt beam="2">  1       -2 0.74859446E-03 0.27514989E+03</pdfrwt>
<totfact> 0.17570118E+03</totfact>
</mgrwt>
</event>
<event>
 9    1  0.2051157E-002  0.2766759E+03  0.7818608E-02  0.1097518E+00
         -1   -1    0    0    0  501 -0.00000000000E+00  0.00000000000E+00  0.21202344308E+02  0.21202344308E+02  0.00000000000E+00 0. -1.
          1   -1    0    0  501    0  0.00000000000E+00 -0.00000000000E+00 -0.90260738551E+03  0.90260738551E+03  0.00000000000E+00 0. -1.
         36    2    1    2    0    0  0.14210854715E-13 -0.35527136788E-14 -0.88140504121E+03  0.92380972982E+03  0.27667593001E+03 0.  0.
         25    2    3    3    0    0 -0.49456070304E+02  0.24260910577E+02 -0.36716621423E+03  0.39168891411E+03  0.12479856528E+03 0.  0.
         25    2    3    3    0    0  0.49456070304E+02 -0.24260910577E+02 -0.51423882697E+03  0.53212081571E+03  0.12520581723E+03 0.  0.
          5    1    4    4  502    0  0.20806081192E+02  0.34386999562E+02 -0.40079435899E+02  0.56954454921E+02  0.47000000000E+01 0. -1.
         -5    1    4    4    0  502 -0.70262151496E+02 -0.10126088984E+02 -0.32708677833E+03  0.33473445919E+03  0.47000000000E+01 0. -1.
          5    1    5    5  503    0  0.70719800447E+02 -0.57765531364E+02 -0.28152070902E+03  0.29599686890E+03  0.47000000000E+01 0.  1.
         -5    1    5    5    0  503 -0.21263730143E+02  0.33504620786E+02 -0.23271811795E+03  0.23612394681E+03  0.47000000000E+01 0.  1.
<mgrwt>
<rscale>  0 0.27667593E+03</rscale>
<asrwt>0</asrwt>
<pdfrwt beam="1">  1        1 0.13886267E+00 0.27667593E+03</pdfrwt>
<pdfrwt beam="2">  1       -1 0.32618993E-02 0.27667593E+03</pdfrwt>
<totfact> 0.63265627E+03</totfact>
</mgrwt>
</event>
<event>
 9    1  0.2051157E-002  0.2774420E+03  0.7818608E-02  0.1097094E+00
          2   -1    0    0  501    0  0.00000000000E+00  0.00000000000E+00  0.15638900735E+03  0.15638900735E+03  0.00000000000E+00 0.  1.
         -2   -1    0    0    0  501 -0.00000000000E+00 -0.00000000000E+00 -0.12304903630E+03  0.12304903630E+03  0.00000000000E+00 0.  1.
         36    2    1    2    0    0  0.00000000000E+00  0.00000000000E+00  0.33339971054E+02  0.27943804365E+03  0.27744200577E+03 0.  0.
         25    2    3    3    0    0 -0.22680888869E+02  0.12593276680E+02  0.69004557523E+02  0.14467776389E+03  0.12448699959E+03 0.  0.
         25    2    3    3    0    0  0.22680888869E+02 -0.12593276680E+02 -0.35664586469E+02  0.13476027976E+03  0.12733953406E+03 0.  0.
          5    1    4    4  502    0 -0.23171825860E+02  0.67013108392E+02  0.28016524429E+02  0.76385246292E+02  0.47000000000E+01 0.  1.
         -5    1    4    4    0  502  0.49093699103E+00 -0.54419831711E+02  0.40988033095E+02  0.68292517596E+02  0.47000000000E+01 0.  1.
          5    1    5    5  503    0 -0.47246356829E+02 -0.11361503119E+02  0.11649276171E+02  0.50190612887E+02  0.47000000000E+01 0. -1.
         -5    1    5    5    0  503  0.69927245697E+02 -0.12317735608E+01 -0.47313862640E+02  0.84569666872E+02  0.47000000000E+01 0. -1.
<mgrwt>
<rscale>  0 0.27744201E+03</rscale>
<asrwt>0</asrwt>
<pdfrwt beam="1">  1        2 0.24059847E-01 0.27744201E+03</pdfrwt>
<pdfrwt beam="2">  1       -2 0.18930621E-01 0.27744201E+03</pdfrwt>
<totfact> 0.51567589E+03</totfact>
</mgrwt>
</event>
<event>
 9    1  0.2051157E-002  0.2744520E+03  0.7818608E-02  0.1098758E+00
         -2   -1    0    0    0  501 -0.00000000000E+00  0.00000000000E+00  0.58991625378E+02  0.58991625378E+02  0.00000000000E+00 0.  1.
          2   -1    0    0  501    0  0.00000000000E+00 -0.00000000000E+00 -0.31921442221E+03  0.31921442221E+03  0.00000000000E+00 0.  1.
         36    2    1    2    0    0  0.71054273576E-14  0.35527136788E-14 -0.26022279684E+03  0.37820604759E+03  0.27445201847E+03 0.  0.
         25    2    3    3    0    0 -0.50574014594E+02 -0.14446194167E+01 -0.16020617755E+03  0.21060200098E+03  0.12699356525E+03 0.  0.
         25    2    3    3    0    0  0.50574014594E+02  0.14446194167E+01 -0.10001661929E+03  0.16760404661E+03  0.12461129334E+03 0.  0.
          5    1    4    4  502    0 -0.63777968422E+02  0.20306856347E+02 -0.22928667105E+02  0.70907062032E+02  0.47000000000E+01 0. -1.
         -5    1    4    4    0  502  0.13203953827E+02 -0.21751475764E+02 -0.13727751044E+03  0.13969493895E+03  0.47000000000E+01 0. -1.
          5    1    5    5  503    0  0.86536588623E+02  0.18439805881E+02 -0.90045873008E+02  0.12632876496E+03  0.47000000000E+01 0. -1.
         -5    1    5    5    0  503 -0.35962574028E+02 -0.16995186465E+02 -0.99707462799E+01  0.41275281648E+02  0.47000000000E+01 0. -1.
<mgrwt>
<rscale>  0 0.27445202E+03</rscale>
<asrwt>0</asrwt>
<pdfrwt beam="1">  1        2 0.49109910E-01 0.27445202E+03</pdfrwt>
<pdfrwt beam="2">  1       -2 0.90756348E-02 0.27445202E+03</pdfrwt>
<totfact> 0.78562622E+03</totfact>
</mgrwt>
</event>
<event>
 9    1  0.2051157E-002  0.2765412E+03  0.7818608E-02  0.1097593E+00
         -1   -1    0    0    0  501 -0.00000000000E+00  0.00000000000E+00  0.26054448147E+03  0.26054448147E+03  0.00000000000E+00 0. -1.
          1   -1    0    0  501    0  0.00000000000E+00 -0.00000000000E+00 -0.73380027802E+02  0.73380027802E+02  0.00000000000E+00 0. -1.
         36    2    1    2    0    0  0.71054273576E-14 -0.71054273576E-14  0.18716445367E+03  0.33392450928E+03  0.27654121786E+03 0.  0.
         25    2    3    3    0    0  0.36916102188E+02 -0.51583050682E+02  0.10731153577E+03  0.17750935646E+03  0.12637324164E+03 0.  0.
         25    2    3    3    0    0 -0.36916102188E+02  0.51583050682E+02  0.79852917904E+02  0.15641515282E+03  0.11859848994E+03 0.  0.
          5    1    4    4  502    0 -0.17568827419E+02 -0.97582967143E+01  0.10668058110E+03  0.10865875223E+03  0.47000000000E+01 0. -1.
         -5    1    4    4    0  502  0.54484929606E+02 -0.41824753968E+02  0.63095466630E+00  0.68850604227E+02  0.47000000000E+01 0. -1.
          5    1    5    5  503    0  0.14687155700E+01  0.16193930728E+02  0.99128651366E+02  0.10056331359E+03  0.47000000000E+01 0. -1.
         -5    1    5    5    0  503 -0.38384817757E+02  0.35389119954E+02 -0.19275733461E+02  0.55851839234E+02  0.47000000000E+01 0. -1.
<mgrwt>
<rscale>  0 0.27654122E+03</rscale>
<asrwt>0</asrwt>
<pdfrwt beam="1">  1        1 0.11289235E-01 0.27654122E+03</pdfrwt>
<pdfrwt beam="2">  1       -1 0.40083766E-01 0.27654122E+03</pdfrwt>
<totfact> 0.33358731E+03</totfact>
</mgrwt>
</event>
<event>
 9    1  0.2051157E-002  0.2711167E+03  0.7818608E-02  0.1100642E+00
          2   -1    0    0  501    0  0.00000000000E+00  0.00000000000E+00  0.27310313453E+04  0.27310313453E+04  0.00000000000E+00 0.  1.
         -2   -1    0    0    0  501 -0.00000000000E+00 -0.00000000000E+00 -0.67286184837E+01  0.67286184837E+01  0.00000000000E+00 0.  1.
         36    2    1    2    0    0  0.35527136788E-14  0.00000000000E+00  0.27243027269E+04  0.27377599638E+04  0.27111671280E+03 0.  0.
         25    2    3    3    0    0  0.86436022652E+01  0.32866541543E+02  0.16943109574E+04  0.16993275834E+04  0.12597497258E+03 0.  0.
         25    2    3    3    0    0 -0.86436022652E+01 -0.32866541543E+02  0.10299917694E+04  0.10384323805E+04  0.12768649998E+03 0.  0.
          5    1    4    4  502    0 -0.41461267182E+02  0.51369826540E+02  0.58696624744E+03  0.59068550125E+03  0.47000000000E+01 0. -1.
         -5    1    4    4    0  502  0.50104869447E+02 -0.18503284997E+02  0.11073447100E+04  0.11086420821E+04  0.47000000000E+01 0. -1.
          5    1    5    5  503    0 -0.25667338952E+02 -0.63951955647E+02  0.31213190817E+03  0.31968278499E+03  0.47000000000E+01 0.  1.
         -5    1    5    5    0  503  0.17023736687E+02  0.31085414104E+02  0.71785986125E+03  0.71874959546E+03  0.47000000000E+01 0.  1.
<mgrwt>
<rscale>  0 0.27111671E+03</rscale>
<asrwt>0</asrwt>
<pdfrwt beam="1">  1        2 0.42015778E+00 0.27111671E+03</pdfrwt>
<pdfrwt beam="2">  1       -2 0.10351743E-02 0.27111671E+03</pdfrwt>
<totfact> 0.60475872E+03</totfact>
</mgrwt>
</event>
<event>
 9    1  0.2051157E-002  0.2743277E+03  0.7818608E-02  0.1098828E+00
         -2   -1    0    0    0  501 -0.00000000000E+00  0.00000000000E+00  0.20141999559E+02  0.20141999559E+02  0.00000000000E+00 0.  1.
          2   -1    0    0  501    0  0.00000000000E+00 -0.00000000000E+00 -0.93406394481E+03  0.93406394481E+03  0.00000000000E+00 0.  1.
         36    2    1    2    0    0 -0.17763568394E-14 -0.17763568394E-14 -0.91392194525E+03  0.95420594437E+03  0.27432765492E+03 0.  0.
         25    2    3    3    0    0  0.33231943175E+01 -0.12741708350E+02 -0.26071056758E+03  0.28771048188E+03  0.12097076749E+03 0.  0.
         25    2    3    3    0    0 -0.33231943175E+01  0.12741708350E+02 -0.65321137767E+03  0.66649546249E+03  0.13174863505E+03 0.  0.
          5    1    4    4  502    0 -0.12122374520E+02 -0.20991304537E+02 -0.26728634613E+03  0.26842441703E+03  0.47000000000E+01 0.  1.
         -5    1    4    4    0  502  0.15445568838E+02  0.82495961869E+01  0.65757785528E+01  0.19286064854E+02  0.47000000000E+01 0.  1.
          5    1    5    5  503    0 -0.42273872570E+02 -0.28267375981E+02 -0.50841832800E+03  0.51097691836E+03  0.47000000000E+01 0. -1.
         -5    1    5    5    0  503  0.38950678252E+02  0.41009084331E+02 -0.14479304968E+03  0.15551854413E+03  0.47000000000E+01 0. -1.
<mgrwt>
<rscale>  0 0.27432765E+03</rscale>
<asrwt>0</asrwt>
<pdfrwt beam="1">  1        2 0.14370214E+00 0.27432765E+03</pdfrwt>
<pdfrwt beam="2">  1       -2 0.30987692E-02 0.27432765E+03</pdfrwt>
<totfact> 0.11620590E+04</totfact>
</mgrwt>
</event>
<event>
 9    1  0.2051157E-002  0.2747587E+03  0.7818608E-02  0.1098587E+00
         -2   -1    0    0    0  501 -0.00000000000E+00  0.00000000000E+00  0.85004111293E+01  0.85004111293E+01  0.00000000000E+00 0.  1.
          2   -1    0    0  501    0  0.00000000000E+00 -0.00000000000E+00 -0.22202549269E+04  0.22202549269E+04  0.00000000000E+00 0.  1.
         36    2    1    2    0    0  0.00000000000E+00 -0.71054273576E-14 -0.22117545158E+04  0.22287553381E+04  0.27475865548E+03 0.  0.
         25    2    3    3    0    0  0.11325086193E+02 -0.37470543362E+02 -0.10263719716E+04  0.10344461654E+04  0.12291113039E+03 0.  0.
         25    2    3    3    0    0 -0.11325086193E+02  0.37470543362E+02 -0.11853825442E+04  0.11943091726E+04  0.14039346295E+03 0.  0.
          5    1    4    4  502    0 -0.14521258897E+02 -0.78663152012E+02 -0.64293859737E+03  0.64791271668E+03  0.47000000000E+01 0.  1.
         -5    1    4    4    0  502  0.25846345090E+02  0.41192608651E+02 -0.38343337419E+03  0.38653344876E+03  0.47000000000E+01 0.  1.
          5    1    5    5  503    0  0.22752668499E+02  0.28692895839E+02 -0.77363027828E+02  0.85721025835E+02  0.47000000000E+01 0. -1.
         -5    1    5    5    0  503 -0.34077754692E+02  0.87776475224E+01 -0.11080195164E+04  0.11085881468E+04  0.47000000000E+01 0. -1.
<mgrwt>
<rscale>  0 0.27475866E+03</rscale>
<asrwt>0</asrwt>
<pdfrwt beam="1">  1        2 0.34157750E+00 0.27475866E+03</pdfrwt>
<pdfrwt beam="2">  1       -2 0.13077563E-02 0.27475866E+03</pdfrwt>
<totfact> 0.81900615E+03</totfact>
</mgrwt>
</event>
<event>
 9    1  0.2051157E-002  0.2747930E+03  0.7818608E-02  0.1098567E+00
         -3   -1    0    0    0  501 -0.00000000000E+00  0.00000000000E+00  0.10728231680E+04  0.10728231680E+04  0.00000000000E+00 0.  1.
          3   -1    0    0  501    0  0.00000000000E+00 -0.00000000000E+00 -0.17596374622E+02  0.17596374622E+02  0.00000000000E+00 0.  1.
         36    2    1    2    0    0 -0.71054273576E-14  0.00000000000E+00  0.10552267934E+04  0.10904195426E+04  0.27479300113E+03 0.  0.
         25    2    3    3    0    0  0.25715559302E+02 -0.45897754649E+02  0.58954420258E+03  0.60469304241E+03  0.12378778160E+03 0.  0.
         25    2    3    3    0    0 -0.25715559302E+02  0.45897754649E+02  0.46568259082E+03  0.48572650023E+03  0.12767953541E+03 0.  0.
          5    1    4    4  502    0 -0.15624935709E+02 -0.29830887099E+02  0.52577976293E+03  0.52687804048E+03  0.47000000000E+01 0.  1.
         -5    1    4    4    0  502  0.41340495011E+02 -0.16066867551E+02  0.63764439650E+02  0.77815001925E+02  0.47000000000E+01 0.  1.
          5    1    5    5  503    0  0.35947994305E+02  0.63619089605E+02  0.26916344224E+03  0.27894568557E+03  0.47000000000E+01 0.  1.
         -5    1    5    5    0  503 -0.61663553607E+02 -0.17721334955E+02  0.19651914858E+03  0.20678081467E+03  0.47000000000E+01 0.  1.
<mgrwt>
<rscale>  0 0.27479300E+03</rscale>
<asrwt>0</asrwt>
<pdfrwt beam="1">  1        3 0.27071354E-02 0.27479300E+03</pdfrwt>
<pdfrwt beam="2">  1       -3 0.16504967E+00 0.27479300E+03</pdfrwt>
<totfact> 0.40533863E+02</totfact>
</mgrwt>
</event>
<event>
 9    1  0.2051157E-002  0.2745999E+03  0.7818608E-02  0.1098675E+00
          1   -1    0    0  501    0  0.00000000000E+00  0.00000000000E+00  0.18647999493E+03  0.18647999493E+03  0.00000000000E+00 0. -1.
         -1   -1    0    0    0  501 -0.00000000000E+00 -0.00000000000E+00 -0.10109005559E+03  0.10109005559E+03  0.00000000000E+00 0. -1.
         36    2    1    2    0    0 -0.71054273576E-14  0.00000000000E+00  0.85389939339E+02  0.28757005052E+03  0.27459987657E+03 0.  0.
         25    2    3    3    0    0 -0.48692705459E+02  0.35265303632E+01  0.76371489328E+01  0.13486149382E+03  0.12548259039E+03 0.  0.
         25    2    3    3    0    0  0.48692705459E+02 -0.35265303632E+01  0.77752790406E+02  0.15270855670E+03  0.12202864783E+03 0.  0.
          5    1    4    4  502    0 -0.44715635187E+02  0.45362252573E+02  0.45244618300E+02  0.78271242955E+02  0.47000000000E+01 0.  1.
         -5    1    4    4    0  502 -0.39770702719E+01 -0.41835722209E+02 -0.37607469368E+02  0.56590250865E+02  0.47000000000E+01 0.  1.
          5    1    5    5  503    0 -0.98242256666E+01 -0.51666175395E+02  0.47367740639E+02  0.70934490505E+02  0.47000000000E+01 0.  1.
         -5    1    5    5    0  503  0.58516931125E+02  0.48139645032E+02  0.30385049767E+02  0.81774066191E+02  0.47000000000E+01 0.  1.
<mgrwt>
<rscale>  0 0.27459988E+03</rscale>
<asrwt>0</asrwt>
<pdfrwt beam="1">  1        1 0.28689230E-01 0.27459988E+03</pdfrwt>
<pdfrwt beam="2">  1       -1 0.15552316E-01 0.27459988E+03</pdfrwt>
<totfact> 0.48304157E+03</totfact>
</mgrwt>
</event>
<event>
 9    1  0.2051157E-002  0.2756493E+03  0.7818608E-02  0.1098089E+00
         -1   -1    0    0    0  501 -0.00000000000E+00  0.00000000000E+00  0.11999823171E+04  0.11999823171E+04  0.00000000000E+00 0. -1.
          1   -1    0    0  501    0  0.00000000000E+00 -0.00000000000E+00 -0.15829924667E+02  0.15829924667E+02  0.00000000000E+00 0. -1.
         36    2    1    2    0    0 -0.35527136788E-14 -0.71054273576E-14  0.11841523924E+04  0.12158122417E+04  0.27564926759E+03 0.  0.
         25    2    3    3    0    0  0.16500284284E+02 -0.36737000249E+02  0.57376498052E+03  0.59042925867E+03  0.13333637934E+03 0.  0.
         25    2    3    3    0    0 -0.16500284284E+02  0.36737000249E+02  0.61038741189E+03  0.62538298307E+03  0.13003544269E+03 0.  0.
          5    1    4    4  502    0  0.92108218849E+01 -0.86760311665E+02  0.39805021042E+03  0.40752699412E+03  0.47000000000E+01 0. -1.
         -5    1    4    4    0  502  0.72894623991E+01  0.50023311416E+02  0.17571477010E+03  0.18290226455E+03  0.47000000000E+01 0. -1.
          5    1    5    5  503    0 -0.22297749277E+02 -0.12747333615E+02  0.53032193267E+03  0.53096433628E+03  0.47000000000E+01 0.  1.
         -5    1    5    5    0  503  0.57974649935E+01  0.49484333864E+02  0.80065479220E+02  0.94418646787E+02  0.47000000000E+01 0.  1.
<mgrwt>
<rscale>  0 0.27564927E+03</rscale>
<asrwt>0</asrwt>
<pdfrwt beam="1">  1        1 0.24353740E-02 0.27564927E+03</pdfrwt>
<pdfrwt beam="2">  1       -1 0.18461259E+00 0.27564927E+03</pdfrwt>
<totfact> 0.97211532E+02</totfact>
</mgrwt>
</event>
<event>
 9    1  0.2051157E-002  0.2748587E+03  0.7818608E-02  0.1098531E+00
         -1   -1    0    0    0  501 -0.00000000000E+00  0.00000000000E+00  0.24864625343E+02  0.24864625343E+02  0.00000000000E+00 0. -1.
          1   -1    0    0  501    0  0.00000000000E+00 -0.00000000000E+00 -0.75958623315E+03  0.75958623315E+03  0.00000000000E+00 0. -1.
         36    2    1    2    0    0  0.35527136788E-14  0.00000000000E+00 -0.73472160780E+03  0.78445085849E+03  0.27485870627E+03 0.  0.
         25    2    3    3    0    0  0.86897028046E+01  0.20713936464E+02 -0.51216911088E+03  0.52826618761E+03  0.12744955368E+03 0.  0.
         25    2    3    3    0    0 -0.86897028046E+01 -0.20713936464E+02 -0.22255249692E+03  0.25618467088E+03  0.12488552201E+03 0.  0.
          5    1    4    4  502    0  0.16119776410E+02  0.42138809003E+02 -0.58594868591E+02  0.74101113628E+02  0.47000000000E+01 0. -1.
         -5    1    4    4    0  502 -0.74300736053E+01 -0.21424872538E+02 -0.45357424229E+03  0.45416507398E+03  0.47000000000E+01 0. -1.
          5    1    5    5  503    0  0.39509941616E+02 -0.21647633052E+02 -0.19555352036E+03  0.20073097626E+03  0.47000000000E+01 0.  1.
         -5    1    5    5    0  503 -0.48199644421E+02  0.93369658731E+00 -0.26998976556E+02  0.55453694617E+02  0.47000000000E+01 0.  1.
<mgrwt>
<rscale>  0 0.27485871E+03</rscale>
<asrwt>0</asrwt>
<pdfrwt beam="1">  1        1 0.11685941E+00 0.27485871E+03</pdfrwt>
<pdfrwt beam="2">  1       -1 0.38253274E-02 0.27485871E+03</pdfrwt>
<totfact> 0.65438647E+03</totfact>
</mgrwt>
</event>
<event>
 9    1  0.2051157E-002  0.2748474E+03  0.7818608E-02  0.1098537E+00
         -2   -1    0    0    0  501 -0.00000000000E+00  0.00000000000E+00  0.20911493167E+03  0.20911493167E+03  0.00000000000E+00 0.  1.
          2   -1    0    0  501    0  0.00000000000E+00 -0.00000000000E+00 -0.90310469599E+02  0.90310469599E+02  0.00000000000E+00 0.  1.
         36    2    1    2    0    0 -0.71054273576E-14  0.00000000000E+00  0.11880446207E+03  0.29942540127E+03  0.27484735894E+03 0.  0.
         25    2    3    3    0    0 -0.57024746511E+02 -0.49692016319E+01  0.85793496340E+02  0.16120262568E+03  0.12389208140E+03 0.  0.
         25    2    3    3    0    0  0.57024746511E+02  0.49692016319E+01  0.33010965727E+02  0.13822277559E+03  0.12140550709E+03 0.  0.
          5    1    4    4  502    0 -0.70469236626E+02 -0.49711666453E+02  0.38502577759E+02  0.94560570992E+02  0.47000000000E+01 0.  1.
         -5    1    4    4    0  502  0.13444490116E+02  0.44742464821E+02  0.47290918582E+02  0.66642054688E+02  0.47000000000E+01 0.  1.
          5    1    5    5  503    0  0.13162469925E+02  0.48008685773E+02 -0.22912345592E+02  0.55001364571E+02  0.47000000000E+01 0.  1.
         -5    1    5    5    0  503  0.43862276586E+02 -0.43039484141E+02  0.55923311319E+02  0.83221411015E+02  0.47000000000E+01 0.  1.
<mgrwt>
<rscale>  0 0.27484736E+03</rscale>
<asrwt>0</asrwt>
<pdfrwt beam="1">  1        2 0.13893919E-01 0.27484736E+03</pdfrwt>
<pdfrwt beam="2">  1       -2 0.32171528E-01 0.27484736E+03</pdfrwt>
<totfact> 0.38215679E+03</totfact>
</mgrwt>
</event>
<event>
 9    1  0.2051157E-002  0.2749352E+03  0.7818608E-02  0.1098488E+00
         -2   -1    0    0    0  501 -0.00000000000E+00  0.00000000000E+00  0.73175063372E+01  0.73175063372E+01  0.00000000000E+00 0. -1.
          2   -1    0    0  501    0  0.00000000000E+00 -0.00000000000E+00 -0.25824841358E+04  0.25824841358E+04  0.00000000000E+00 0. -1.
         36    2    1    2    0    0 -0.71054273576E-14  0.00000000000E+00 -0.25751666295E+04  0.25898016421E+04  0.27493522168E+03 0.  0.
         25    2    3    3    0    0  0.37154133908E+02 -0.39218603534E+02 -0.10372838261E+04  0.10458218099E+04  0.12193028127E+03 0.  0.
         25    2    3    3    0    0 -0.37154133908E+02  0.39218603534E+02 -0.15378828033E+04  0.15439798323E+04  0.12598284477E+03 0.  0.
          5    1    4    4  502    0  0.12069620720E+02 -0.34191042968E+02 -0.77562890530E+02  0.85748441099E+02  0.47000000000E+01 0. -1.
         -5    1    4    4    0  502  0.25084513189E+02 -0.50275605656E+01 -0.95972093560E+03  0.96007336875E+03  0.47000000000E+01 0. -1.
          5    1    5    5  503    0  0.50005025141E+01 -0.41233088421E+02 -0.32227178210E+03  0.32497132818E+03  0.47000000000E+01 0. -1.
         -5    1    5    5    0  503 -0.42154636422E+02  0.80451691954E+02 -0.12156110212E+04  0.12190085041E+04  0.47000000000E+01 0. -1.
<mgrwt>
<rscale>  0 0.27493522E+03</rscale>
<asrwt>0</asrwt>
<pdfrwt beam="1">  1        2 0.39730572E+00 0.27493522E+03</pdfrwt>
<pdfrwt beam="2">  1       -2 0.11257689E-02 0.27493522E+03</pdfrwt>
<totfact> 0.64813644E+03</totfact>
</mgrwt>
</event>
<event>
 9    1  0.2051157E-002  0.2747111E+03  0.7818608E-02  0.1098613E+00
         -1   -1    0    0    0  501 -0.00000000000E+00  0.00000000000E+00  0.50379612453E+02  0.50379612453E+02  0.00000000000E+00 0. -1.
          1   -1    0    0  501    0  0.00000000000E+00 -0.00000000000E+00 -0.37448765791E+03  0.37448765791E+03  0.00000000000E+00 0. -1.
         36    2    1    2    0    0 -0.71054273576E-14 -0.35527136788E-14 -0.32410804546E+03  0.42486727037E+03  0.27471107057E+03 0.  0.
         25    2    3    3    0    0 -0.26568411914E+02 -0.14503178691E+02 -0.23125144828E+03  0.26409386585E+03  0.12390365186E+03 0.  0.
         25    2    3    3    0    0  0.26568411914E+02  0.14503178691E+02 -0.92856597184E+02  0.16077340452E+03  0.12770872036E+03 0.  0.
          5    1    4    4  502    0  0.39714698296E+02  0.27056009229E+02 -0.73424471410E+02  0.87877914733E+02  0.47000000000E+01 0.  1.
         -5    1    4    4    0  502 -0.66283110210E+02 -0.41559187920E+02 -0.15782697687E+03  0.17621595111E+03  0.47000000000E+01 0.  1.
          5    1    5    5  503    0 -0.48516213748E+02 -0.68786814442E+01 -0.17720279433E+02  0.52318615789E+02  0.47000000000E+01 0.  1.
         -5    1    5    5    0  503  0.75084625662E+02  0.21381860135E+02 -0.75136317750E+02  0.10845478873E+03  0.47000000000E+01 0.  1.
<mgrwt>
<rscale>  0 0.27471107E+03</rscale>
<asrwt>0</asrwt>
<pdfrwt beam="1">  1        1 0.57613483E-01 0.27471107E+03</pdfrwt>
<pdfrwt beam="2">  1       -1 0.77507100E-02 0.27471107E+03</pdfrwt>
<totfact> 0.59276341E+03</totfact>
</mgrwt>
</event>
<event>
 9    1  0.2051157E-002  0.2755724E+03  0.7818608E-02  0.1098132E+00
          1   -1    0    0  501    0  0.00000000000E+00  0.00000000000E+00  0.11343626087E+04  0.11343626087E+04  0.00000000000E+00 0.  1.
         -1   -1    0    0    0  501 -0.00000000000E+00 -0.00000000000E+00 -0.16736299826E+02  0.16736299826E+02  0.00000000000E+00 0.  1.
         36    2    1    2    0    0  0.35527136788E-14  0.00000000000E+00  0.11176263089E+04  0.11510989085E+04  0.27557236966E+03 0.  0.
         25    2    3    3    0    0 -0.51169467957E+01 -0.50143449584E+02  0.48587547486E+03  0.50473041561E+03  0.12703254188E+03 0.  0.
         25    2    3    3    0    0  0.51169467957E+01  0.50143449584E+02  0.63175083403E+03  0.64636849292E+03  0.12705338904E+03 0.  0.
          5    1    4    4  502    0 -0.43191445029E+02 -0.76984608754E+02  0.35096104848E+03  0.36192247576E+03  0.47000000000E+01 0. -1.
         -5    1    4    4    0  502  0.38074498233E+02  0.26841159169E+02  0.13491442638E+03  0.14280793986E+03  0.47000000000E+01 0. -1.
          5    1    5    5  503    0  0.20215932605E+02 -0.27249409382E+02  0.59209682034E+02  0.68403879198E+02  0.47000000000E+01 0. -1.
         -5    1    5    5    0  503 -0.15098985809E+02  0.77392858966E+02  0.57254115200E+03  0.57796461373E+03  0.47000000000E+01 0. -1.
<mgrwt>
<rscale>  0 0.27557237E+03</rscale>
<asrwt>0</asrwt>
<pdfrwt beam="1">  1        1 0.17451726E+00 0.27557237E+03</pdfrwt>
<pdfrwt beam="2">  1       -1 0.25748163E-02 0.27557237E+03</pdfrwt>
<totfact> 0.60249388E+03</totfact>
</mgrwt>
</event>
<event>
 9    1  0.2051157E-002  0.2742147E+03  0.7818608E-02  0.1098891E+00
         -2   -1    0    0    0  501 -0.00000000000E+00  0.00000000000E+00  0.10056231899E+02  0.10056231899E+02  0.00000000000E+00 0.  1.
          2   -1    0    0  501    0  0.00000000000E+00 -0.00000000000E+00 -0.18693304589E+04  0.18693304589E+04  0.00000000000E+00 0.  1.
         36    2    1    2    0    0  0.00000000000E+00  0.14210854715E-13 -0.18592742270E+04  0.18793866908E+04  0.27421466474E+03 0.  0.
         25    2    3    3    0    0  0.66333150186E+01 -0.47647446294E+02 -0.91026030435E+03  0.92077508334E+03  0.13014857827E+03 0.  0.
         25    2    3    3    0    0 -0.66333150186E+01  0.47647446294E+02 -0.94901392265E+03  0.95861160745E+03  0.12646939770E+03 0.  0.
          5    1    4    4  502    0  0.43818021910E+02  0.67665384644E+00 -0.71043871976E+03  0.71180456688E+03  0.47000000000E+01 0. -1.
         -5    1    4    4    0  502 -0.37184706891E+02 -0.48324100140E+02 -0.19982158459E+03  0.20897051646E+03  0.47000000000E+01 0. -1.
          5    1    5    5  503    0 -0.35745162329E+02  0.54046488687E+02 -0.23095185836E+03  0.23991579866E+03  0.47000000000E+01 0. -1.
         -5    1    5    5    0  503  0.29111847310E+02 -0.63990423930E+01 -0.71806206429E+03  0.71869580879E+03  0.47000000000E+01 0. -1.
<mgrwt>
<rscale>  0 0.27421466E+03</rscale>
<asrwt>0</asrwt>
<pdfrwt beam="1">  1        2 0.28758926E+00 0.27421466E+03</pdfrwt>
<pdfrwt beam="2">  1       -2 0.15471128E-02 0.27421466E+03</pdfrwt>
<totfact> 0.98120270E+03</totfact>
</mgrwt>
</event>
<event>
 9    1  0.2051157E-002  0.2745403E+03  0.7818608E-02  0.1098709E+00
          2   -1    0    0  501    0  0.00000000000E+00  0.00000000000E+00  0.47196715173E+03  0.47196715173E+03  0.00000000000E+00 0. -1.
         -2   -1    0    0    0  501 -0.00000000000E+00 -0.00000000000E+00 -0.39924584880E+02  0.39924584880E+02  0.00000000000E+00 0. -1.
         36    2    1    2    0    0  0.00000000000E+00  0.00000000000E+00  0.43204256685E+03  0.51189173661E+03  0.27454028928E+03 0.  0.
         25    2    3    3    0    0 -0.45865010900E+02 -0.46099930867E+01  0.20163381010E+03  0.24360014812E+03  0.12868561506E+03 0.  0.
         25    2    3    3    0    0  0.45865010900E+02  0.46099930867E+01  0.23040875675E+03  0.26829158850E+03  0.12948872542E+03 0.  0.
          5    1    4    4  502    0 -0.14102093798E+02  0.39570544236E+02  0.87941140982E+01  0.43175496099E+02  0.47000000000E+01 0.  1.
         -5    1    4    4    0  502 -0.31762917102E+02 -0.44180537323E+02  0.19283969600E+03  0.20042465202E+03  0.47000000000E+01 0.  1.
          5    1    5    5  503    0 -0.15512300405E+02  0.79864534553E+01  0.19765897452E+03  0.19848318597E+03  0.47000000000E+01 0. -1.
         -5    1    5    5    0  503  0.61377311305E+02 -0.33764603685E+01  0.32749782227E+02  0.69808402528E+02  0.47000000000E+01 0. -1.
<mgrwt>
<rscale>  0 0.27454029E+03</rscale>
<asrwt>0</asrwt>
<pdfrwt beam="1">  1        2 0.72610327E-01 0.27454029E+03</pdfrwt>
<pdfrwt beam="2">  1       -2 0.61422441E-02 0.27454029E+03</pdfrwt>
<totfact> 0.94252583E+03</totfact>
</mgrwt>
</event>
<event>
 9    1  0.2051157E-002  0.2757580E+03  0.7818608E-02  0.1098029E+00
          1   -1    0    0  501    0  0.00000000000E+00  0.00000000000E+00  0.13617799526E+03  0.13617799526E+03  0.00000000000E+00 0.  1.
         -1   -1    0    0    0  501 -0.00000000000E+00 -0.00000000000E+00 -0.13960120905E+03  0.13960120905E+03  0.00000000000E+00 0.  1.
         36    2    1    2    0    0  0.00000000000E+00  0.14210854715E-13 -0.34232137929E+01  0.27577920431E+03  0.27575795752E+03 0.  0.
         25    2    3    3    0    0  0.34547393740E+02  0.45590766297E+02 -0.69699881593E-01  0.13886903057E+03  0.12654075394E+03 0.  0.
         25    2    3    3    0    0 -0.34547393740E+02 -0.45590766297E+02 -0.33535139113E+01  0.13691017374E+03  0.12434270880E+03 0.  0.
          5    1    4    4  502    0  0.66397162691E+02  0.66283378999E+02 -0.19512715176E+02  0.95942199258E+02  0.47000000000E+01 0.  1.
         -5    1    4    4    0  502 -0.31849768951E+02 -0.20692612702E+02  0.19443015294E+02  0.42926831311E+02  0.47000000000E+01 0.  1.
          5    1    5    5  503    0 -0.18210716291E+02 -0.72392222943E+02 -0.42882697745E+02  0.86216471143E+02  0.47000000000E+01 0.  1.
         -5    1    5    5    0  503 -0.16336677449E+02  0.26801456646E+02  0.39529183833E+02  0.50693702597E+02  0.47000000000E+01 0.  1.
<mgrwt>
<rscale>  0 0.27575796E+03</rscale>
<asrwt>0</asrwt>
<pdfrwt beam="1">  1        1 0.20950461E-01 0.27575796E+03</pdfrwt>
<pdfrwt beam="2">  1       -1 0.21477109E-01 0.27575796E+03</pdfrwt>
<totfact> 0.42845547E+03</totfact>
</mgrwt>
</event>
<event>
 9    1  0.2051157E-002  0.2800333E+03  0.7818608E-02  0.1095671E+00
          2   -1    0    0  501    0  0.00000000000E+00  0.00000000000E+00  0.10724872852E+04  0.10724872852E+04  0.00000000000E+00 0. -1.
         -2   -1    0    0    0  501 -0.00000000000E+00 -0.00000000000E+00 -0.18279625688E+02  0.18279625688E+02  0.00000000000E+00 0. -1.
         36    2    1    2    0    0  0.71054273576E-14  0.48849813084E-14  0.10542076595E+04  0.10907669109E+04  0.28003332751E+03 0.  0.
         25    2    3    3    0    0 -0.62036962657E+02  0.93159338715E+00  0.50619821608E+03  0.52541481640E+03  0.12639083322E+03 0.  0.
         25    2    3    3    0    0  0.62036962657E+02 -0.93159338715E+00  0.54800944347E+03  0.56535209453E+03  0.12433498323E+03 0.  0.
          5    1    4    4  502    0  0.35390314338E+02 -0.20146542027E+01  0.72059604317E+02  0.80443829812E+02  0.47000000000E+01 0. -1.
         -5    1    4    4    0  502 -0.97427276994E+02  0.29462475898E+01  0.43413861176E+03  0.44497098658E+03  0.47000000000E+01 0. -1.
          5    1    5    5  503    0  0.27351401670E+02  0.58159830960E+02  0.34700440843E+03  0.35293740887E+03  0.47000000000E+01 0. -1.
         -5    1    5    5    0  503  0.34685560986E+02 -0.59091424347E+02  0.20100503504E+03  0.21241468566E+03  0.47000000000E+01 0. -1.
<mgrwt>
<rscale>  0 0.28003333E+03</rscale>
<asrwt>0</asrwt>
<pdfrwt beam="1">  1        2 0.16499799E+00 0.28003333E+03</pdfrwt>
<pdfrwt beam="2">  1       -2 0.28122509E-02 0.28003333E+03</pdfrwt>
<totfact> 0.11051298E+04</totfact>
</mgrwt>
</event>
<event>
 9    1  0.2051157E-002  0.2748430E+03  0.7818608E-02  0.1098539E+00
         -2   -1    0    0    0  501 -0.00000000000E+00  0.00000000000E+00  0.20502745158E+02  0.20502745158E+02  0.00000000000E+00 0.  1.
          2   -1    0    0  501    0  0.00000000000E+00 -0.00000000000E+00 -0.92108004407E+03  0.92108004407E+03  0.00000000000E+00 0.  1.
         36    2    1    2    0    0  0.00000000000E+00  0.00000000000E+00 -0.90057729891E+03  0.94158278923E+03  0.27484300547E+03 0.  0.
         25    2    3    3    0    0 -0.76294656361E+01  0.48355125243E+02 -0.41588922805E+03  0.43837443482E+03  0.12966058852E+03 0.  0.
         25    2    3    3    0    0  0.76294656361E+01 -0.48355125243E+02 -0.48468807086E+03  0.50320835441E+03  0.12609399282E+03 0.  0.
          5    1    4    4  502    0 -0.28443444241E+02  0.21537223847E+02 -0.39817136057E+03  0.39979420194E+03  0.47000000000E+01 0.  1.
         -5    1    4    4    0  502  0.20813978605E+02  0.26817901396E+02 -0.17717867479E+02  0.38580232875E+02  0.47000000000E+01 0.  1.
          5    1    5    5  503    0 -0.19360721637E+02 -0.76290801740E+02 -0.42206121053E+03  0.42936334194E+03  0.47000000000E+01 0.  1.
         -5    1    5    5    0  503  0.26990187273E+02  0.27935676497E+02 -0.62626860334E+02  0.73845012463E+02  0.47000000000E+01 0.  1.
<mgrwt>
<rscale>  0 0.27484301E+03</rscale>
<asrwt>0</asrwt>
<pdfrwt beam="1">  1        2 0.14170459E+00 0.27484301E+03</pdfrwt>
<pdfrwt beam="2">  1       -2 0.31542693E-02 0.27484301E+03</pdfrwt>
<totfact> 0.11535067E+04</totfact>
</mgrwt>
</event>
<event>
 9    1  0.2051157E-002  0.2746576E+03  0.7818608E-02  0.1098643E+00
          2   -1    0    0  501    0  0.00000000000E+00  0.00000000000E+00  0.11525172054E+04  0.11525172054E+04  0.00000000000E+00 0.  1.
         -2   -1    0    0    0  501 -0.00000000000E+00 -0.00000000000E+00 -0.16363482721E+02  0.16363482721E+02  0.00000000000E+00 0.  1.
         36    2    1    2    0    0 -0.35527136788E-14  0.00000000000E+00  0.11361537227E+04  0.11688806881E+04  0.27465757136E+03 0.  0.
         25    2    3    3    0    0  0.45426934510E+01 -0.80476932949E+01  0.80808073103E+03  0.81740944491E+03  0.12279385710E+03 0.  0.
         25    2    3    3    0    0 -0.45426934510E+01  0.80476932949E+01  0.32807299165E+03  0.35147124321E+03  0.12575669175E+03 0.  0.
          5    1    4    4  502    0  0.21860247128E+02  0.10032421466E+02  0.77626890757E+03  0.77665566807E+03  0.47000000000E+01 0.  1.
         -5    1    4    4    0  502 -0.17317553677E+02 -0.18080114761E+02  0.31811823453E+02  0.40753776837E+02  0.47000000000E+01 0.  1.
          5    1    5    5  503    0 -0.35889177973E+02 -0.31388422264E+02  0.27099201659E+03  0.27519452975E+03  0.47000000000E+01 0. -1.
         -5    1    5    5    0  503  0.31346484522E+02  0.39436115559E+02  0.57080975060E+02  0.76276713458E+02  0.47000000000E+01 0. -1.
<mgrwt>
<rscale>  0 0.27465757E+03</rscale>
<asrwt>0</asrwt>
<pdfrwt beam="1">  1        2 0.17731028E+00 0.27465757E+03</pdfrwt>
<pdfrwt beam="2">  1       -2 0.25174598E-02 0.27465757E+03</pdfrwt>
<totfact> 0.11685977E+04</totfact>
</mgrwt>
</event>
<event>
 9    1  0.2051157E-002  0.2753215E+03  0.7818608E-02  0.1098272E+00
          2   -1    0    0  501    0  0.00000000000E+00  0.00000000000E+00  0.92754623707E+03  0.92754623707E+03  0.00000000000E+00 0. -1.
         -2   -1    0    0    0  501 -0.00000000000E+00 -0.00000000000E+00 -0.20430773221E+02  0.20430773221E+02  0.00000000000E+00 0. -1.
         36    2    1    2    0    0 -0.71054273576E-14 -0.71054273576E-14  0.90711546385E+03  0.94797701029E+03  0.27532153436E+03 0.  0.
         25    2    3    3    0    0 -0.35048136725E+02  0.45713296977E+02  0.53073109468E+03  0.54667256759E+03  0.11771713505E+03 0.  0.
         25    2    3    3    0    0  0.35048136725E+02 -0.45713296977E+02  0.37638436917E+03  0.40130444270E+03  0.12673588667E+03 0.  0.
          5    1    4    4  502    0  0.29561249721E+02  0.99677791543E+01  0.34949099716E+03  0.35091205622E+03  0.47000000000E+01 0. -1.
         -5    1    4    4    0  502 -0.64609386447E+02  0.35745517822E+02  0.18124009752E+03  0.19576051137E+03  0.47000000000E+01 0. -1.
          5    1    5    5  503    0  0.50880619031E+02 -0.83544775829E+02  0.26404109559E+03  0.28161739492E+03  0.47000000000E+01 0. -1.
         -5    1    5    5    0  503 -0.15832482305E+02  0.37831478853E+02  0.11234327358E+03  0.11968704778E+03  0.47000000000E+01 0. -1.
<mgrwt>
<rscale>  0 0.27532153E+03</rscale>
<asrwt>0</asrwt>
<pdfrwt beam="1">  1        2 0.14269939E+00 0.27532153E+03</pdfrwt>
<pdfrwt beam="2">  1       -2 0.31431966E-02 0.27532153E+03</pdfrwt>
<totfact> 0.11486901E+04</totfact>
</mgrwt>
</event>
<event>
 9    1  0.2051157E-002  0.2732390E+03  0.7818608E-02  0.1099440E+00
          1   -1    0    0  501    0  0.00000000000E+00  0.00000000000E+00  0.32386697313E+04  0.32386697313E+04  0.00000000000E+00 0.  1.
         -1   -1    0    0    0  501 -0.00000000000E+00 -0.00000000000E+00 -0.57631338377E+01  0.57631338377E+01  0.00000000000E+00 0.  1.
         36    2    1    2    0    0  0.00000000000E+00 -0.35527136788E-14  0.32329065974E+04  0.32444328651E+04  0.27323899515E+03 0.  0.
         25    2    3    3    0    0  0.38259679443E+02 -0.18956604529E+02  0.22653393240E+04  0.22683556229E+04  0.10886607826E+03 0.  0.
         25    2    3    3    0    0 -0.38259679443E+02  0.18956604529E+02  0.96756727342E+03  0.97607724223E+03  0.12131446031E+03 0.  0.
          5    1    4    4  502    0  0.50916620197E+02 -0.23049346290E+02  0.53010555357E+03  0.53306450125E+03  0.47000000000E+01 0. -1.
         -5    1    4    4    0  502 -0.12656940754E+02  0.40927417603E+01  0.17352337704E+04  0.17352911216E+04  0.47000000000E+01 0. -1.
          5    1    5    5  503    0 -0.52405764647E+02  0.10362255963E+02  0.16856603200E+03  0.17689075064E+03  0.47000000000E+01 0. -1.
         -5    1    5    5    0  503  0.14146085203E+02  0.85943485661E+01  0.79900124142E+03  0.79918649159E+03  0.47000000000E+01 0. -1.
<mgrwt>
<rscale>  0 0.27323900E+03</rscale>
<asrwt>0</asrwt>
<pdfrwt beam="1">  1        1 0.49825543E+00 0.27323900E+03</pdfrwt>
<pdfrwt beam="2">  1       -1 0.88663856E-03 0.27323900E+03</pdfrwt>
<totfact> 0.10961249E+03</totfact>
</mgrwt>
</event>
<event>
 9    1  0.2051157E-002  0.2748361E+03  0.7818608E-02  0.1098543E+00
         -2   -1    0    0    0  501 -0.00000000000E+00  0.00000000000E+00  0.18318136612E+02  0.18318136612E+02  0.00000000000E+00 0.  1.
          2   -1    0    0  501    0  0.00000000000E+00 -0.00000000000E+00 -0.10308757621E+04  0.10308757621E+04  0.00000000000E+00 0.  1.
         36    2    1    2    0    0 -0.35527136788E-14 -0.71054273576E-14 -0.10125576255E+04  0.10491938987E+04  0.27483611873E+03 0.  0.
         25    2    3    3    0    0  0.10401479621E+02  0.47330616033E+02 -0.51237263685E+03  0.53141730771E+03  0.13240188043E+03 0.  0.
         25    2    3    3    0    0 -0.10401479621E+02 -0.47330616033E+02 -0.50018498860E+03  0.51777659097E+03  0.12473651168E+03 0.  0.
          5    1    4    4  502    0 -0.52757415764E+02 -0.11337252641E+02 -0.21959291225E+03  0.22617474511E+03  0.47000000000E+01 0. -1.
         -5    1    4    4    0  502  0.63158895385E+02  0.58667868674E+02 -0.29277972461E+03  0.30524256260E+03  0.47000000000E+01 0. -1.
          5    1    5    5  503    0  0.18214104942E+01 -0.86384481571E+02 -0.40365177782E+03  0.41282253321E+03  0.47000000000E+01 0.  1.
         -5    1    5    5    0  503 -0.12222890115E+02  0.39053865537E+02 -0.96533210783E+02  0.10495405776E+03  0.47000000000E+01 0.  1.
<mgrwt>
<rscale>  0 0.27483612E+03</rscale>
<asrwt>0</asrwt>
<pdfrwt beam="1">  1        2 0.15859628E+00 0.27483612E+03</pdfrwt>
<pdfrwt beam="2">  1       -2 0.28181747E-02 0.27483612E+03</pdfrwt>
<totfact> 0.11660974E+04</totfact>
</mgrwt>
</event>
<event>
 9    1  0.2051157E-002  0.2744270E+03  0.7818608E-02  0.1098772E+00
         -2   -1    0    0    0  501 -0.00000000000E+00  0.00000000000E+00  0.78884165072E+03  0.78884165072E+03  0.00000000000E+00 0.  1.
          2   -1    0    0  501    0  0.00000000000E+00 -0.00000000000E+00 -0.23867333460E+02  0.23867333460E+02  0.00000000000E+00 0.  1.
         36    2    1    2    0    0  0.14210854715E-13 -0.35527136788E-14  0.76497431726E+03  0.81270898418E+03  0.27442701561E+03 0.  0.
         25    2    3    3    0    0  0.52142662226E+02 -0.10648591210E+02  0.37995255587E+03  0.40348389170E+03  0.12491219489E+03 0.  0.
         25    2    3    3    0    0 -0.52142662226E+02  0.10648591210E+02  0.38502176139E+03  0.40922509248E+03  0.12802800417E+03 0.  0.
          5    1    4    4  502    0  0.54892844542E+02  0.21494211593E+02  0.36092233553E+03  0.36573521542E+03  0.47000000000E+01 0. -1.
         -5    1    4    4    0  502 -0.27501823165E+01 -0.32142802803E+02  0.19030220339E+02  0.37748676281E+02  0.47000000000E+01 0. -1.
          5    1    5    5  503    0 -0.71480148354E+02  0.14874277672E+02  0.10228620736E+03  0.12575855423E+03  0.47000000000E+01 0. -1.
         -5    1    5    5    0  503  0.19337486128E+02 -0.42256864612E+01  0.28273555403E+03  0.28346653825E+03  0.47000000000E+01 0. -1.
<mgrwt>
<rscale>  0 0.27442702E+03</rscale>
<asrwt>0</asrwt>
<pdfrwt beam="1">  1        2 0.36718981E-02 0.27442702E+03</pdfrwt>
<pdfrwt beam="2">  1       -2 0.12136023E+00 0.27442702E+03</pdfrwt>
<totfact> 0.12851955E+03</totfact>
</mgrwt>
</event>
<event>
 9    1  0.2051157E-002  0.2751031E+03  0.7818608E-02  0.1098394E+00
          1   -1    0    0  501    0  0.00000000000E+00  0.00000000000E+00  0.57786698208E+03  0.57786698208E+03  0.00000000000E+00 0. -1.
         -1   -1    0    0    0  501 -0.00000000000E+00 -0.00000000000E+00 -0.32741835641E+02  0.32741835641E+02  0.00000000000E+00 0. -1.
         36    2    1    2    0    0  0.00000000000E+00  0.35527136788E-14  0.54512514644E+03  0.61060881772E+03  0.27510307704E+03 0.  0.
         25    2    3    3    0    0 -0.10535797588E+02 -0.29530298093E+02  0.38140837387E+03  0.40175572697E+03  0.12227949524E+03 0.  0.
         25    2    3    3    0    0  0.10535797588E+02  0.29530298093E+02  0.16371677257E+03  0.20885309075E+03  0.12583080052E+03 0.  0.
          5    1    4    4  502    0  0.37852171410E+02 -0.61038708615E+00  0.38448578054E+02  0.54162187984E+02  0.47000000000E+01 0.  1.
         -5    1    4    4    0  502 -0.48387968998E+02 -0.28919911007E+02  0.34295979582E+03  0.34759353898E+03  0.47000000000E+01 0.  1.
          5    1    5    5  503    0  0.36028365915E+00 -0.11699519358E+02  0.16560549693E+03  0.16608515638E+03  0.47000000000E+01 0. -1.
         -5    1    5    5    0  503  0.10175513928E+02  0.41229817450E+02 -0.18887243593E+01  0.42767934371E+02  0.47000000000E+01 0. -1.
<mgrwt>
<rscale>  0 0.27510308E+03</rscale>
<asrwt>0</asrwt>
<pdfrwt beam="1">  1        1 0.88902605E-01 0.27510308E+03</pdfrwt>
<pdfrwt beam="2">  1       -1 0.50372059E-02 0.27510308E+03</pdfrwt>
<totfact> 0.64257062E+03</totfact>
</mgrwt>
</event>
<event>
 9    1  0.2051157E-002  0.2749063E+03  0.7818608E-02  0.1098504E+00
          1   -1    0    0  501    0  0.00000000000E+00  0.00000000000E+00  0.79460831524E+02  0.79460831524E+02  0.00000000000E+00 0.  1.
         -1   -1    0    0    0  501 -0.00000000000E+00 -0.00000000000E+00 -0.23776949594E+03  0.23776949594E+03  0.00000000000E+00 0.  1.
         36    2    1    2    0    0  0.00000000000E+00  0.00000000000E+00 -0.15830866441E+03  0.31723032746E+03  0.27490625208E+03 0.  0.
         25    2    3    3    0    0  0.28030581755E+02  0.48558842199E+02 -0.62144303870E+02  0.15030415509E+03  0.12484290074E+03 0.  0.
         25    2    3    3    0    0 -0.28030581755E+02 -0.48558842199E+02 -0.96164360542E+02  0.16692617236E+03  0.12439086828E+03 0.  0.
          5    1    4    4  502    0  0.60382643013E+02 -0.82379778966E+01 -0.16919843563E+01  0.61146387204E+02  0.47000000000E+01 0. -1.
         -5    1    4    4    0  502 -0.32352061258E+02  0.56796820095E+02 -0.60452319514E+02  0.89157767890E+02  0.47000000000E+01 0. -1.
          5    1    5    5  503    0 -0.33031863200E+02 -0.68192843564E+02 -0.79955255671E+01  0.76337319372E+02  0.47000000000E+01 0. -1.
         -5    1    5    5    0  503  0.50012814452E+01  0.19634001365E+02 -0.88168834975E+02  0.90588852993E+02  0.47000000000E+01 0. -1.
<mgrwt>
<rscale>  0 0.27490625E+03</rscale>
<asrwt>0</asrwt>
<pdfrwt beam="1">  1        1 0.12224744E-01 0.27490625E+03</pdfrwt>
<pdfrwt beam="2">  1       -1 0.36579922E-01 0.27490625E+03</pdfrwt>
<totfact> 0.35244838E+03</totfact>
</mgrwt>
</event>
<event>
 9    1  0.2051157E-002  0.2756368E+03  0.7818608E-02  0.1098096E+00
         -1   -1    0    0    0  501 -0.00000000000E+00  0.00000000000E+00  0.70750898220E+02  0.70750898220E+02  0.00000000000E+00 0. -1.
          1   -1    0    0  501    0  0.00000000000E+00 -0.00000000000E+00 -0.26846173904E+03  0.26846173904E+03  0.00000000000E+00 0. -1.
         36    2    1    2    0    0  0.71054273576E-14 -0.71054273576E-14 -0.19771084082E+03  0.33921263726E+03  0.27563678401E+03 0.  0.
         25    2    3    3    0    0  0.47735454690E+02 -0.38283270439E+02 -0.99323287738E+02  0.16798156113E+03  0.12086524299E+03 0.  0.
         25    2    3    3    0    0 -0.47735454690E+02  0.38283270439E+02 -0.98387553078E+02  0.17123107612E+03  0.12607810436E+03 0.  0.
          5    1    4    4  502    0  0.46666419319E+02  0.34090375240E+01 -0.11415984807E+03  0.12346634011E+03  0.47000000000E+01 0. -1.
         -5    1    4    4    0  502  0.10690353707E+01 -0.41692307963E+02  0.14836560334E+02  0.44515221020E+02  0.47000000000E+01 0. -1.
          5    1    5    5  503    0 -0.45158270981E+02  0.50897822100E+02 -0.12437606916E+03  0.14184975965E+03  0.47000000000E+01 0. -1.
         -5    1    5    5    0  503 -0.25771837094E+01 -0.12614551661E+02  0.25988516084E+02  0.29381316474E+02  0.47000000000E+01 0. -1.
<mgrwt>
<rscale>  0 0.27563678E+03</rscale>
<asrwt>0</asrwt>
<pdfrwt beam="1">  1        1 0.41301805E-01 0.27563678E+03</pdfrwt>
<pdfrwt beam="2">  1       -1 0.10884754E-01 0.27563678E+03</pdfrwt>
<totfact> 0.53513150E+03</totfact>
</mgrwt>
</event>
<event>
 9    1  0.2051157E-002  0.2756181E+03  0.7818608E-02  0.1098107E+00
         -2   -1    0    0    0  501 -0.00000000000E+00  0.00000000000E+00  0.83153891312E+02  0.83153891312E+02  0.00000000000E+00 0. -1.
          2   -1    0    0  501    0  0.00000000000E+00 -0.00000000000E+00 -0.22838774814E+03  0.22838774814E+03  0.00000000000E+00 0. -1.
         36    2    1    2    0    0 -0.35527136788E-14  0.71054273576E-14 -0.14523385682E+03  0.31154163945E+03  0.27561806897E+03 0.  0.
         25    2    3    3    0    0  0.20937022638E+02 -0.29280660940E+02 -0.89489926926E+02  0.15287049517E+03  0.11859690236E+03 0.  0.
         25    2    3    3    0    0 -0.20937022638E+02  0.29280660940E+02 -0.55743929898E+02  0.15867114428E+03  0.14412990767E+03 0.  0.
          5    1    4    4  502    0 -0.18991642124E+02 -0.63989469745E+02 -0.68503085529E+02  0.95760625707E+02  0.47000000000E+01 0.  1.
         -5    1    4    4    0  502  0.39928664762E+02  0.34708808804E+02 -0.20986841397E+02  0.57109869463E+02  0.47000000000E+01 0.  1.
          5    1    5    5  503    0 -0.11081675768E+02 -0.58285599509E+02 -0.14459146271E+02  0.61246808560E+02  0.47000000000E+01 0. -1.
         -5    1    5    5    0  503 -0.98553468702E+01  0.87566260449E+02 -0.41284783628E+02  0.97424335719E+02  0.47000000000E+01 0. -1.
<mgrwt>
<rscale>  0 0.27561807E+03</rscale>
<asrwt>0</asrwt>
<pdfrwt beam="1">  1        2 0.35136576E-01 0.27561807E+03</pdfrwt>
<pdfrwt beam="2">  1       -2 0.12792907E-01 0.27561807E+03</pdfrwt>
<totfact> 0.65095388E+03</totfact>
</mgrwt>
</event>
<event>
 9    1  0.2051157E-002  0.2752640E+03  0.7818608E-02  0.1098304E+00
          2   -1    0    0  501    0  0.00000000000E+00  0.00000000000E+00  0.87588872667E+02  0.87588872667E+02  0.00000000000E+00 0. -1.
         -2   -1    0    0    0  501 -0.00000000000E+00 -0.00000000000E+00 -0.21626677212E+03  0.21626677212E+03  0.00000000000E+00 0. -1.
         36    2    1    2    0    0  0.14210854715E-13 -0.17763568394E-14 -0.12867789945E+03  0.30385564478E+03  0.27526396615E+03 0.  0.
         25    2    3    3    0    0 -0.29600916899E+02  0.94215373553E+01 -0.19451288432E+02  0.13171784889E+03  0.12651584662E+03 0.  0.
         25    2    3    3    0    0  0.29600916899E+02 -0.94215373553E+01 -0.10922661102E+03  0.17213779590E+03  0.12936764887E+03 0.  0.
          5    1    4    4  502    0  0.49925731989E+02  0.19994287268E+01 -0.97040742383E+01  0.51115902483E+02  0.47000000000E+01 0.  1.
         -5    1    4    4    0  502 -0.79526648888E+02  0.74221086285E+01 -0.97472141939E+01  0.80601946405E+02  0.47000000000E+01 0.  1.
          5    1    5    5  503    0 -0.39912631089E+02 -0.23621894920E+02 -0.63022234198E+01  0.47040621383E+02  0.47000000000E+01 0.  1.
         -5    1    5    5    0  503  0.69513547988E+02  0.14200357565E+02 -0.10292438760E+03  0.12509717451E+03  0.47000000000E+01 0.  1.
<mgrwt>
<rscale>  0 0.27526397E+03</rscale>
<asrwt>0</asrwt>
<pdfrwt beam="1">  1        2 0.13475211E-01 0.27526397E+03</pdfrwt>
<pdfrwt beam="2">  1       -2 0.33271811E-01 0.27526397E+03</pdfrwt>
<totfact> 0.37262986E+03</totfact>
</mgrwt>
</event>
<event>
 9    1  0.2051157E-002  0.2736209E+03  0.7818608E-02  0.1099225E+00
         -2   -1    0    0    0  501 -0.00000000000E+00  0.00000000000E+00  0.88413187005E+02  0.88413187005E+02  0.00000000000E+00 0. -1.
          2   -1    0    0  501    0  0.00000000000E+00 -0.00000000000E+00 -0.21170031402E+03  0.21170031402E+03  0.00000000000E+00 0. -1.
         36    2    1    2    0    0 -0.35527136788E-14  0.00000000000E+00 -0.12328712701E+03  0.30011350103E+03  0.27362090163E+03 0.  0.
         25    2    3    3    0    0 -0.12324854386E+02  0.27864214178E+02 -0.90204123162E+01  0.12801436756E+03  0.12400804005E+03 0.  0.
         25    2    3    3    0    0  0.12324854386E+02 -0.27864214178E+02 -0.11426671470E+03  0.17209913346E+03  0.12503164872E+03 0.  0.
          5    1    4    4  502    0 -0.22007393752E+02 -0.20241487810E+02 -0.53597201485E+02  0.61553173887E+02  0.47000000000E+01 0. -1.
         -5    1    4    4    0  502  0.96825393663E+01  0.48105701988E+02  0.44576789169E+02  0.66461193677E+02  0.47000000000E+01 0. -1.
          5    1    5    5  503    0 -0.40803692857E+02  0.43511338648E+01  0.72596564440E+00  0.41309693085E+02  0.47000000000E+01 0. -1.
         -5    1    5    5    0  503  0.53128547242E+02 -0.32215348043E+02 -0.11499268034E+03  0.13078944038E+03  0.47000000000E+01 0. -1.
<mgrwt>
<rscale>  0 0.27362090E+03</rscale>
<asrwt>0</asrwt>
<pdfrwt beam="1">  1        2 0.32569279E-01 0.27362090E+03</pdfrwt>
<pdfrwt beam="2">  1       -2 0.13602029E-01 0.27362090E+03</pdfrwt>
<totfact> 0.63954435E+03</totfact>
</mgrwt>
</event>
<event>
 9    1  0.2051157E-002  0.2749485E+03  0.7818608E-02  0.1098480E+00
          1   -1    0    0  501    0  0.00000000000E+00  0.00000000000E+00  0.13129838638E+02  0.13129838638E+02  0.00000000000E+00 0. -1.
         -1   -1    0    0    0  501 -0.00000000000E+00 -0.00000000000E+00 -0.14394058015E+04  0.14394058015E+04  0.00000000000E+00 0. -1.
         36    2    1    2    0    0  0.00000000000E+00  0.71054273576E-14 -0.14262759629E+04  0.14525356401E+04  0.27494847450E+03 0.  0.
         25    2    3    3    0    0  0.22095210730E+02 -0.31931841224E+02 -0.93326545628E+03  0.94231192764E+03  0.12433630307E+03 0.  0.
         25    2    3    3    0    0 -0.22095210730E+02  0.31931841224E+02 -0.49301050658E+03  0.51022371250E+03  0.12554296625E+03 0.  0.
          5    1    4    4  502    0 -0.37320927200E+02 -0.54583164276E+02 -0.44902135219E+03  0.45388813396E+03  0.47000000000E+01 0.  1.
         -5    1    4    4    0  502  0.59416137929E+02  0.22651323052E+02 -0.48424410409E+03  0.48842379368E+03  0.47000000000E+01 0.  1.
          5    1    5    5  503    0 -0.12402785667E+02  0.21411320570E+02 -0.49445635282E+03  0.49509741323E+03  0.47000000000E+01 0.  1.
         -5    1    5    5    0  503 -0.96924250626E+01  0.10520520654E+02  0.14458462345E+01  0.15126299275E+02  0.47000000000E+01 0.  1.
<mgrwt>
<rscale>  0 0.27494847E+03</rscale>
<asrwt>0</asrwt>
<pdfrwt beam="1">  1        1 0.20199751E-02 0.27494847E+03</pdfrwt>
<pdfrwt beam="2">  1       -1 0.22144706E+00 0.27494847E+03</pdfrwt>
<totfact> 0.71981098E+02</totfact>
</mgrwt>
</event>
<event>
 9    1  0.2051157E-002  0.2750750E+03  0.7818608E-02  0.1098410E+00
          1   -1    0    0  501    0  0.00000000000E+00  0.00000000000E+00  0.44731505424E+03  0.44731505424E+03  0.00000000000E+00 0.  1.
         -1   -1    0    0    0  501 -0.00000000000E+00 -0.00000000000E+00 -0.42289138549E+02  0.42289138549E+02  0.00000000000E+00 0.  1.
         36    2    1    2    0    0  0.00000000000E+00  0.00000000000E+00  0.40502591569E+03  0.48960419279E+03  0.27507503197E+03 0.  0.
         25    2    3    3    0    0  0.45898658536E+02  0.48413235453E+02  0.24028896912E+03  0.27459844054E+03  0.11495645544E+03 0.  0.
         25    2    3    3    0    0 -0.45898658536E+02 -0.48413235453E+02  0.16473694657E+03  0.21500575224E+03  0.12099042817E+03 0.  0.
          5    1    4    4  502    0  0.12883862773E+02 -0.37901724592E+02  0.68801346494E+02  0.79738635092E+02  0.47000000000E+01 0.  1.
         -5    1    4    4    0  502  0.33014795763E+02  0.86314960046E+02  0.17148762263E+03  0.19485980545E+03  0.47000000000E+01 0.  1.
          5    1    5    5  503    0 -0.15671121457E+02 -0.41868616425E+02  0.17608186601E+03  0.18172913533E+03  0.47000000000E+01 0.  1.
         -5    1    5    5    0  503 -0.30227537079E+02 -0.65446190283E+01 -0.11344919442E+02  0.33276616914E+02  0.47000000000E+01 0.  1.
<mgrwt>
<rscale>  0 0.27507503E+03</rscale>
<asrwt>0</asrwt>
<pdfrwt beam="1">  1        1 0.68817697E-01 0.27507503E+03</pdfrwt>
<pdfrwt beam="2">  1       -1 0.65060216E-02 0.27507503E+03</pdfrwt>
<totfact> 0.61527990E+03</totfact>
</mgrwt>
</event>
<event>
 9    1  0.2051157E-002  0.2751458E+03  0.7818608E-02  0.1098370E+00
          2   -1    0    0  501    0  0.00000000000E+00  0.00000000000E+00  0.78297273429E+03  0.78297273429E+03  0.00000000000E+00 0.  1.
         -2   -1    0    0    0  501 -0.00000000000E+00 -0.00000000000E+00 -0.24172368965E+02  0.24172368965E+02  0.00000000000E+00 0.  1.
         36    2    1    2    0    0  0.00000000000E+00 -0.35527136788E-14  0.75880036533E+03  0.80714510326E+03  0.27514582187E+03 0.  0.
         25    2    3    3    0    0 -0.46511547526E+01  0.20325487244E+02  0.56186232734E+03  0.57573190756E+03  0.12386765448E+03 0.  0.
         25    2    3    3    0    0  0.46511547526E+01 -0.20325487244E+02  0.19693803799E+03  0.23141319570E+03  0.11971932870E+03 0.  0.
          5    1    4    4  502    0  0.32636208657E+02  0.41549140898E+02  0.11334268173E+03  0.12514034811E+03  0.47000000000E+01 0.  1.
         -5    1    4    4    0  502 -0.37287363409E+02 -0.21223653654E+02  0.44851964561E+03  0.45059155944E+03  0.47000000000E+01 0.  1.
          5    1    5    5  503    0  0.38349994754E+02  0.26827688779E+02  0.14837926521E+03  0.15565649143E+03  0.47000000000E+01 0.  1.
         -5    1    5    5    0  503 -0.33698840001E+02 -0.47153176024E+02  0.48558772783E+02  0.75756704263E+02  0.47000000000E+01 0.  1.
<mgrwt>
<rscale>  0 0.27514582E+03</rscale>
<asrwt>0</asrwt>
<pdfrwt beam="1">  1        2 0.12045732E+00 0.27514582E+03</pdfrwt>
<pdfrwt beam="2">  1       -2 0.37188266E-02 0.27514582E+03</pdfrwt>
<totfact> 0.11148894E+04</totfact>
</mgrwt>
</event>
<event>
 9    1  0.2051157E-002  0.2753505E+03  0.7818608E-02  0.1098256E+00
          3   -1    0    0  501    0  0.00000000000E+00  0.00000000000E+00  0.27359409496E+03  0.27359409496E+03  0.00000000000E+00 0. -1.
         -3   -1    0    0    0  501 -0.00000000000E+00 -0.00000000000E+00 -0.69279527190E+02  0.69279527190E+02  0.00000000000E+00 0. -1.
         36    2    1    2    0    0 -0.71054273576E-14  0.10658141036E-13  0.20431456777E+03  0.34287362215E+03  0.27535046425E+03 0.  0.
         25    2    3    3    0    0 -0.32099510771E+02  0.29455494461E+02  0.13915556736E+03  0.19492084442E+03  0.12935168695E+03 0.  0.
         25    2    3    3    0    0  0.32099510771E+02 -0.29455494461E+02  0.65159000410E+02  0.14795277773E+03  0.12548435902E+03 0.  0.
          5    1    4    4  502    0 -0.18623255951E+02 -0.47309355524E+02  0.87474268575E+02  0.10128592422E+03  0.47000000000E+01 0. -1.
         -5    1    4    4    0  502 -0.13476254819E+02  0.76764849985E+02  0.51681298785E+02  0.93634920202E+02  0.47000000000E+01 0. -1.
          5    1    5    5  503    0 -0.11272907004E+02  0.49614598667E+01  0.87187057981E+02  0.88178044862E+02  0.47000000000E+01 0.  1.
         -5    1    5    5    0  503  0.43372417774E+02 -0.34416954328E+02 -0.22028057572E+02  0.59774732866E+02  0.47000000000E+01 0.  1.
<mgrwt>
<rscale>  0 0.27535046E+03</rscale>
<asrwt>0</asrwt>
<pdfrwt beam="1">  1        3 0.42091399E-01 0.27535046E+03</pdfrwt>
<pdfrwt beam="2">  1       -3 0.10658389E-01 0.27535046E+03</pdfrwt>
<totfact> 0.94867323E+02</totfact>
</mgrwt>
</event>
<event>
 9    1  0.2051157E-002  0.2751484E+03  0.7818608E-02  0.1098369E+00
         -2   -1    0    0    0  501 -0.00000000000E+00  0.00000000000E+00  0.20652459814E+03  0.20652459814E+03  0.00000000000E+00 0. -1.
          2   -1    0    0  501    0  0.00000000000E+00 -0.00000000000E+00 -0.91643634058E+02  0.91643634058E+02  0.00000000000E+00 0. -1.
         36    2    1    2    0    0 -0.71054273576E-14 -0.88817841970E-15  0.11488096408E+03  0.29816823220E+03  0.27514843046E+03 0.  0.
         25    2    3    3    0    0 -0.23920398148E+02  0.76920579931E+01  0.45114616761E+02  0.13342548589E+03  0.12302714511E+03 0.  0.
         25    2    3    3    0    0  0.23920398148E+02 -0.76920579931E+01  0.69766347318E+02  0.16474274631E+03  0.14711042125E+03 0.  0.
          5    1    4    4  502    0  0.17284843115E+02 -0.31617301029E+02  0.63700827449E+02  0.73336927557E+02  0.47000000000E+01 0.  1.
         -5    1    4    4    0  502 -0.41205241263E+02  0.39309359022E+02 -0.18586210687E+02  0.60088558329E+02  0.47000000000E+01 0.  1.
          5    1    5    5  503    0 -0.55838021095E+02 -0.11476345848E+02 -0.20661143410E+01  0.57235914794E+02  0.47000000000E+01 0. -1.
         -5    1    5    5    0  503  0.79758419243E+02  0.37842878554E+01  0.71832461659E+02  0.10750683152E+03  0.47000000000E+01 0. -1.
<mgrwt>
<rscale>  0 0.27514843E+03</rscale>
<asrwt>0</asrwt>
<pdfrwt beam="1">  1        2 0.14099021E-01 0.27514843E+03</pdfrwt>
<pdfrwt beam="2">  1       -2 0.31773015E-01 0.27514843E+03</pdfrwt>
<totfact> 0.38422520E+03</totfact>
</mgrwt>
</event>
<event>
 9    1  0.2051157E-002  0.2758869E+03  0.7818608E-02  0.1097957E+00
         -2   -1    0    0    0  501 -0.00000000000E+00  0.00000000000E+00  0.19069045037E+03  0.19069045037E+03  0.00000000000E+00 0. -1.
          2   -1    0    0  501    0  0.00000000000E+00 -0.00000000000E+00 -0.99786832827E+02  0.99786832827E+02  0.00000000000E+00 0. -1.
         36    2    1    2    0    0  0.00000000000E+00  0.00000000000E+00  0.90903617545E+02  0.29047728320E+03  0.27588690504E+03 0.  0.
         25    2    3    3    0    0  0.20337542175E+02 -0.25290624905E+02  0.96619991888E+02  0.16250034803E+03  0.12656108781E+03 0.  0.
         25    2    3    3    0    0 -0.20337542175E+02  0.25290624905E+02 -0.57163743431E+01  0.12797693517E+03  0.12366158526E+03 0.  0.
          5    1    4    4  502    0 -0.16543893363E+02  0.37680820246E+02  0.11805678582E+00  0.41420388209E+02  0.47000000000E+01 0.  1.
         -5    1    4    4    0  502  0.36881435538E+02 -0.62971445151E+02  0.96501935102E+02  0.12107995982E+03  0.47000000000E+01 0.  1.
          5    1    5    5  503    0  0.18785358812E+02 -0.28510893071E+01  0.50275775301E+02  0.53951478182E+02  0.47000000000E+01 0. -1.
         -5    1    5    5    0  503 -0.39122900987E+02  0.28141714212E+02 -0.55992149644E+02  0.74025456987E+02  0.47000000000E+01 0. -1.
<mgrwt>
<rscale>  0 0.27588691E+03</rscale>
<asrwt>0</asrwt>
<pdfrwt beam="1">  1        2 0.15351820E-01 0.27588691E+03</pdfrwt>
<pdfrwt beam="2">  1       -2 0.29336992E-01 0.27588691E+03</pdfrwt>
<totfact> 0.40160214E+03</totfact>
</mgrwt>
</event>
<event>
 9    1  0.2051157E-002  0.2744883E+03  0.7818608E-02  0.1098738E+00
          2   -1    0    0  501    0  0.00000000000E+00  0.00000000000E+00  0.92029036801E+03  0.92029036801E+03  0.00000000000E+00 0.  1.
         -2   -1    0    0    0  501 -0.00000000000E+00 -0.00000000000E+00 -0.20467412330E+02  0.20467412330E+02  0.00000000000E+00 0.  1.
         36    2    1    2    0    0  0.00000000000E+00  0.00000000000E+00  0.89982295568E+03  0.94075778034E+03  0.27448834165E+03 0.  0.
         25    2    3    3    0    0  0.49374329040E+01  0.51245867339E+02  0.49506555070E+03  0.51406437066E+03  0.12853700061E+03 0.  0.
         25    2    3    3    0    0 -0.49374329040E+01 -0.51245867339E+02  0.40475740498E+03  0.42669340968E+03  0.12485268046E+03 0.  0.
          5    1    4    4  502    0 -0.49364956014E+02  0.33060495823E+01  0.33029817965E+03  0.33401617674E+03  0.47000000000E+01 0.  1.
         -5    1    4    4    0  502  0.54302388918E+02  0.47939817757E+02  0.16476737106E+03  0.18004819392E+03  0.47000000000E+01 0.  1.
          5    1    5    5  503    0  0.40073443739E+02 -0.26225902305E+02  0.34203079557E+03  0.34539952803E+03  0.47000000000E+01 0.  1.
         -5    1    5    5    0  503 -0.45010876643E+02 -0.25019965034E+02  0.62726609413E+02  0.81293881658E+02  0.47000000000E+01 0.  1.
<mgrwt>
<rscale>  0 0.27448834E+03</rscale>
<asrwt>0</asrwt>
<pdfrwt beam="1">  1        2 0.14158310E+00 0.27448834E+03</pdfrwt>
<pdfrwt beam="2">  1       -2 0.31488334E-02 0.27448834E+03</pdfrwt>
<totfact> 0.11577699E+04</totfact>
</mgrwt>
</event>
<event>
 9    1  0.2051157E-002  0.2746559E+03  0.7818608E-02  0.1098644E+00
         -2   -1    0    0    0  501 -0.00000000000E+00  0.00000000000E+00  0.48102195084E+02  0.48102195084E+02  0.00000000000E+00 0. -1.
          2   -1    0    0  501    0  0.00000000000E+00 -0.00000000000E+00 -0.39206026140E+03  0.39206026140E+03  0.00000000000E+00 0. -1.
         36    2    1    2    0    0  0.00000000000E+00  0.00000000000E+00 -0.34395806632E+03  0.44016245649E+03  0.27465585141E+03 0.  0.
         25    2    3    3    0    0 -0.51369273908E+02  0.43310409982E+02 -0.14725025754E+03  0.19269241788E+03  0.10456163564E+03 0.  0.
         25    2    3    3    0    0  0.51369273908E+02 -0.43310409982E+02 -0.19670780878E+03  0.24747003861E+03  0.13428649992E+03 0.  0.
          5    1    4    4  502    0 -0.25482658256E+02  0.55287976325E+02 -0.23199507842E+02  0.65317940583E+02  0.47000000000E+01 0. -1.
         -5    1    4    4    0  502 -0.25886615651E+02 -0.11977566342E+02 -0.12405074970E+03  0.12737447729E+03  0.47000000000E+01 0. -1.
          5    1    5    5  503    0  0.64803735164E+02 -0.37861634446E+02 -0.21256589159E+03  0.22547588723E+03  0.47000000000E+01 0. -1.
         -5    1    5    5    0  503 -0.13434461257E+02 -0.54487755361E+01  0.15858082817E+02  0.21994151375E+02  0.47000000000E+01 0. -1.
<mgrwt>
<rscale>  0 0.27465585E+03</rscale>
<asrwt>0</asrwt>
<pdfrwt beam="1">  1        2 0.60316965E-01 0.27465585E+03</pdfrwt>
<pdfrwt beam="2">  1       -2 0.74003375E-02 0.27465585E+03</pdfrwt>
<totfact> 0.86601677E+03</totfact>
</mgrwt>
</event>
<event>
 9    1  0.2051157E-002  0.2739804E+03  0.7818608E-02  0.1099023E+00
         -2   -1    0    0    0  501 -0.00000000000E+00  0.00000000000E+00  0.15579775673E+02  0.15579775673E+02  0.00000000000E+00 0.  1.
          2   -1    0    0  501    0  0.00000000000E+00 -0.00000000000E+00 -0.12045308137E+04  0.12045308137E+04  0.00000000000E+00 0.  1.
         36    2    1    2    0    0 -0.71054273576E-14  0.00000000000E+00 -0.11889510380E+04  0.12201105893E+04  0.27398043629E+03 0.  0.
         25    2    3    3    0    0 -0.30035330919E+02  0.35503164016E+02 -0.73934998891E+03  0.75061865446E+03  0.12094363382E+03 0.  0.
         25    2    3    3    0    0  0.30035330919E+02 -0.35503164016E+02 -0.44960104907E+03  0.46949193486E+03  0.12696053647E+03 0.  0.
          5    1    4    4  502    0  0.60746699297E+01  0.60280910428E+02 -0.18944826805E+03  0.19895583943E+03  0.47000000000E+01 0. -1.
         -5    1    4    4    0  502 -0.36110000849E+02 -0.24777746411E+02 -0.54990172087E+03  0.55166281503E+03  0.47000000000E+01 0. -1.
          5    1    5    5  503    0  0.56350517598E+02 -0.60870138728E+02 -0.19112492541E+03  0.20840197152E+03  0.47000000000E+01 0.  1.
         -5    1    5    5    0  503 -0.26315186679E+02  0.25366974712E+02 -0.25847612366E+03  0.26108996334E+03  0.47000000000E+01 0.  1.
<mgrwt>
<rscale>  0 0.27398044E+03</rscale>
<asrwt>0</asrwt>
<pdfrwt beam="1">  1        2 0.18531240E+00 0.27398044E+03</pdfrwt>
<pdfrwt beam="2">  1       -2 0.23968889E-02 0.27398044E+03</pdfrwt>
<totfact> 0.11733098E+04</totfact>
</mgrwt>
</event>
<event>
 9    1  0.2051157E-002  0.2749171E+03  0.7818608E-02  0.1098498E+00
         -1   -1    0    0    0  501 -0.00000000000E+00  0.00000000000E+00  0.26638131611E+02  0.26638131611E+02  0.00000000000E+00 0. -1.
          1   -1    0    0  501    0  0.00000000000E+00 -0.00000000000E+00 -0.70931612074E+03  0.70931612074E+03  0.00000000000E+00 0. -1.
         36    2    1    2    0    0 -0.14210854715E-13 -0.35527136788E-14 -0.68267798912E+03  0.73595425235E+03  0.27491712335E+03 0.  0.
         25    2    3    3    0    0  0.56297109195E+02  0.17961401234E+02 -0.34196591302E+03  0.36878217194E+03  0.12477030190E+03 0.  0.
         25    2    3    3    0    0 -0.56297109195E+02 -0.17961401234E+02 -0.34071207611E+03  0.36717208041E+03  0.12344489211E+03 0.  0.
          5    1    4    4  502    0  0.59384256508E+02 -0.26825313524E+02 -0.30039633118E+03  0.30741849839E+03  0.47000000000E+01 0.  1.
         -5    1    4    4    0  502 -0.30871473129E+01  0.44786714758E+02 -0.41569581839E+02  0.61363673550E+02  0.47000000000E+01 0.  1.
          5    1    5    5  503    0 -0.61563037431E+02 -0.41230737183E+02 -0.96513682783E+02  0.12176601427E+03  0.47000000000E+01 0. -1.
         -5    1    5    5    0  503  0.52659282364E+01  0.23269335949E+02 -0.24419839333E+03  0.24540606614E+03  0.47000000000E+01 0. -1.
<mgrwt>
<rscale>  0 0.27491712E+03</rscale>
<asrwt>0</asrwt>
<pdfrwt beam="1">  1        1 0.10912557E+00 0.27491712E+03</pdfrwt>
<pdfrwt beam="2">  1       -1 0.40981736E-02 0.27491712E+03</pdfrwt>
<totfact> 0.65392370E+03</totfact>
</mgrwt>
</event>
<event>
 9    1  0.2051157E-002  0.2760487E+03  0.7818608E-02  0.1097867E+00
         -2   -1    0    0    0  501 -0.00000000000E+00  0.00000000000E+00  0.16462063636E+02  0.16462063636E+02  0.00000000000E+00 0. -1.
          2   -1    0    0  501    0  0.00000000000E+00 -0.00000000000E+00 -0.11572501770E+04  0.11572501770E+04  0.00000000000E+00 0. -1.
         36    2    1    2    0    0  0.71054273576E-14  0.00000000000E+00 -0.11407881134E+04  0.11737122407E+04  0.27604873524E+03 0.  0.
         25    2    3    3    0    0  0.37544974188E+02  0.17690374989E+02 -0.49710004171E+03  0.51736506732E+03  0.13724280295E+03 0.  0.
         25    2    3    3    0    0 -0.37544974188E+02 -0.17690374989E+02 -0.64368807171E+03  0.65634717337E+03  0.12138658854E+03 0.  0.
          5    1    4    4  502    0 -0.36499883788E+02 -0.71572648334E+01 -0.45123537164E+02  0.58665931874E+02  0.47000000000E+01 0. -1.
         -5    1    4    4    0  502  0.74044857976E+02  0.24847639822E+02 -0.45197650454E+03  0.45869913544E+03  0.47000000000E+01 0. -1.
          5    1    5    5  503    0 -0.77161754389E+02  0.51367696955E+01 -0.31129472229E+03  0.32079092392E+03  0.47000000000E+01 0.  1.
         -5    1    5    5    0  503  0.39616780202E+02 -0.22827144685E+02 -0.33239334942E+03  0.33555624945E+03  0.47000000000E+01 0.  1.
<mgrwt>
<rscale>  0 0.27604874E+03</rscale>
<asrwt>0</asrwt>
<pdfrwt beam="1">  1        2 0.17803857E+00 0.27604874E+03</pdfrwt>
<pdfrwt beam="2">  1       -2 0.25326240E-02 0.27604874E+03</pdfrwt>
<totfact> 0.11511674E+04</totfact>
</mgrwt>
</event>
<event>
 9    1  0.2051157E-002  0.2747374E+03  0.7818608E-02  0.1098598E+00
         -2   -1    0    0    0  501 -0.00000000000E+00  0.00000000000E+00  0.21842376426E+03  0.21842376426E+03  0.00000000000E+00 0. -1.
          2   -1    0    0  501    0  0.00000000000E+00 -0.00000000000E+00 -0.86392405637E+02  0.86392405637E+02  0.00000000000E+00 0. -1.
         36    2    1    2    0    0 -0.71054273576E-14  0.17763568394E-14  0.13203135863E+03  0.30481616990E+03  0.27473736144E+03 0.  0.
         25    2    3    3    0    0 -0.53262905998E+02  0.13879623587E+02  0.40837485355E+02  0.14238425226E+03  0.12480382196E+03 0.  0.
         25    2    3    3    0    0  0.53262905998E+02 -0.13879623587E+02  0.91193873272E+02  0.16243191764E+03  0.12263043766E+03 0.  0.
          5    1    4    4  502    0 -0.66338951451E+02 -0.45693810080E+01  0.75508834599E+02  0.10072442517E+03  0.47000000000E+01 0.  1.
         -5    1    4    4    0  502  0.13076045453E+02  0.18449004595E+02 -0.34671349244E+02  0.41659827095E+02  0.47000000000E+01 0.  1.
          5    1    5    5  503    0  0.86172927684E+02 -0.82734104617E+01  0.28522319732E+02  0.91267932535E+02  0.47000000000E+01 0. -1.
         -5    1    5    5    0  503 -0.32910021686E+02 -0.56062131250E+01  0.62671553539E+02  0.71163985105E+02  0.47000000000E+01 0. -1.
<mgrwt>
<rscale>  0 0.27473736E+03</rscale>
<asrwt>0</asrwt>
<pdfrwt beam="1">  1        2 0.13291139E-01 0.27473736E+03</pdfrwt>
<pdfrwt beam="2">  1       -2 0.33603656E-01 0.27473736E+03</pdfrwt>
<totfact> 0.37192663E+03</totfact>
</mgrwt>
</event>
<event>
 9    1  0.2051157E-002  0.2735020E+03  0.7818608E-02  0.1099292E+00
         -2   -1    0    0    0  501 -0.00000000000E+00  0.00000000000E+00  0.20147522796E+03  0.20147522796E+03  0.00000000000E+00 0.  1.
          2   -1    0    0  501    0  0.00000000000E+00 -0.00000000000E+00 -0.92819539767E+02  0.92819539767E+02  0.00000000000E+00 0.  1.
         36    2    1    2    0    0  0.00000000000E+00  0.17763568394E-14  0.10865568819E+03  0.29429476772E+03  0.27350201413E+03 0.  0.
         25    2    3    3    0    0  0.58226414264E+02  0.12947024174E+02  0.58938021643E+02  0.14792027375E+03  0.12185555480E+03 0.  0.
         25    2    3    3    0    0 -0.58226414264E+02 -0.12947024174E+02  0.49717666545E+02  0.14637449398E+03  0.12407943169E+03 0.  0.
          5    1    4    4  502    0 -0.34996441285E+02 -0.53587685790E+01  0.34622724022E+02  0.49742238811E+02  0.47000000000E+01 0.  1.
         -5    1    4    4    0  502  0.93222855549E+02  0.18305792753E+02  0.24315297621E+02  0.98178034934E+02  0.47000000000E+01 0.  1.
          5    1    5    5  503    0 -0.59897265062E+02  0.47554424882E+02  0.22606451762E+02  0.79888968882E+02  0.47000000000E+01 0.  1.
         -5    1    5    5    0  503  0.16708507973E+01 -0.60501449056E+02  0.27111214783E+02  0.66485525096E+02  0.47000000000E+01 0.  1.
<mgrwt>
<rscale>  0 0.27350201E+03</rscale>
<asrwt>0</asrwt>
<pdfrwt beam="1">  1        2 0.14279929E-01 0.27350201E+03</pdfrwt>
<pdfrwt beam="2">  1       -2 0.30996189E-01 0.27350201E+03</pdfrwt>
<totfact> 0.39588012E+03</totfact>
</mgrwt>
</event>
<event>
 9    1  0.2051157E-002  0.2705745E+03  0.7818608E-02  0.1100951E+00
          1   -1    0    0  501    0  0.00000000000E+00  0.00000000000E+00  0.86262753180E+03  0.86262753180E+03  0.00000000000E+00 0. -1.
         -1   -1    0    0    0  501 -0.00000000000E+00 -0.00000000000E+00 -0.21217321542E+02  0.21217321542E+02  0.00000000000E+00 0. -1.
         36    2    1    2    0    0 -0.35527136788E-14  0.00000000000E+00  0.84141021025E+03  0.88384485334E+03  0.27057454214E+03 0.  0.
         25    2    3    3    0    0 -0.19028692283E+01 -0.21913585707E+02  0.51647124151E+03  0.53132831373E+03  0.12281452488E+03 0.  0.
         25    2    3    3    0    0  0.19028692283E+01  0.21913585707E+02  0.32493896875E+03  0.35251653960E+03  0.13490274695E+03 0.  0.
          5    1    4    4  502    0 -0.58591051455E+02 -0.57526387954E+00  0.17820174699E+03  0.18764646245E+03  0.47000000000E+01 0.  1.
         -5    1    4    4    0  502  0.56688182227E+02 -0.21338321827E+02  0.33826949452E+03  0.34368185129E+03  0.47000000000E+01 0.  1.
          5    1    5    5  503    0 -0.21164207230E+02  0.21433368926E+02  0.32742367260E+03  0.32883987646E+03  0.47000000000E+01 0.  1.
         -5    1    5    5    0  503  0.23067076458E+02  0.48021678031E+00 -0.24847038509E+01  0.23676663146E+02  0.47000000000E+01 0.  1.
<mgrwt>
<rscale>  0 0.27057454E+03</rscale>
<asrwt>0</asrwt>
<pdfrwt beam="1">  1        1 0.13271190E+00 0.27057454E+03</pdfrwt>
<pdfrwt beam="2">  1       -1 0.32642040E-02 0.27057454E+03</pdfrwt>
<totfact> 0.67950969E+03</totfact>
</mgrwt>
</event>
<event>
 9    1  0.2051157E-002  0.2762876E+03  0.7818608E-02  0.1097734E+00
         -4   -1    0    0    0  501 -0.00000000000E+00  0.00000000000E+00  0.16715684191E+03  0.16715684191E+03  0.00000000000E+00 0.  1.
          4   -1    0    0  501    0  0.00000000000E+00 -0.00000000000E+00 -0.11416651427E+03  0.11416651427E+03  0.00000000000E+00 0.  1.
         36    2    1    2    0    0  0.71054273576E-14  0.71054273576E-14  0.52990327644E+02  0.28132335618E+03  0.27628763257E+03 0.  0.
         25    2    3    3    0    0 -0.42243343479E+02 -0.29357154440E+02  0.34641631697E+01  0.13640262902E+03  0.12628275492E+03 0.  0.
         25    2    3    3    0    0  0.42243343479E+02  0.29357154440E+02  0.49526164474E+02  0.14492072717E+03  0.12610643762E+03 0.  0.
          5    1    4    4  502    0 -0.41802114344E+01 -0.75813998218E+02  0.25418106960E+00  0.76074904545E+02  0.47000000000E+01 0.  1.
         -5    1    4    4    0  502 -0.38063132044E+02  0.46456843778E+02  0.32099821001E+01  0.60327724472E+02  0.47000000000E+01 0.  1.
          5    1    5    5  503    0  0.50996811104E+02 -0.23739005414E+02 -0.17256666927E+02  0.59026245639E+02  0.47000000000E+01 0. -1.
         -5    1    5    5    0  503 -0.87534676254E+01  0.53096159854E+02  0.66782831402E+02  0.85894481527E+02  0.47000000000E+01 0. -1.
<mgrwt>
<rscale>  0 0.27628763E+03</rscale>
<asrwt>0</asrwt>
<pdfrwt beam="1">  1        4 0.17564079E-01 0.27628763E+03</pdfrwt>
<pdfrwt beam="2">  1       -4 0.25716437E-01 0.27628763E+03</pdfrwt>
<totfact> 0.76016187E+02</totfact>
</mgrwt>
</event>
<event>
 9    1  0.2051157E-002  0.2750251E+03  0.7818608E-02  0.1098438E+00
          2   -1    0    0  501    0  0.00000000000E+00  0.00000000000E+00  0.32922554904E+03  0.32922554904E+03  0.00000000000E+00 0.  1.
         -2   -1    0    0    0  501 -0.00000000000E+00 -0.00000000000E+00 -0.57436906370E+02  0.57436906370E+02  0.00000000000E+00 0.  1.
         36    2    1    2    0    0  0.00000000000E+00  0.35527136788E-14  0.27178864267E+03  0.38666245541E+03  0.27502506820E+03 0.  0.
         25    2    3    3    0    0  0.22376259094E+02 -0.26191490624E+02  0.77622016816E+02  0.15306693801E+03  0.12734841524E+03 0.  0.
         25    2    3    3    0    0 -0.22376259094E+02  0.26191490624E+02  0.19416662585E+03  0.23359551740E+03  0.12521779427E+03 0.  0.
          5    1    4    4  502    0  0.61793430807E+02 -0.43362452901E+01 -0.12139438119E+01  0.62135294106E+02  0.47000000000E+01 0. -1.
         -5    1    4    4    0  502 -0.39417171712E+02 -0.21855245333E+02  0.78835960628E+02  0.90931643901E+02  0.47000000000E+01 0. -1.
          5    1    5    5  503    0 -0.67285677581E+02 -0.76947983671E+01  0.13884589017E+03  0.15455369147E+03  0.47000000000E+01 0. -1.
         -5    1    5    5    0  503  0.44909418486E+02  0.33886288991E+02  0.55320735680E+02  0.79041825931E+02  0.47000000000E+01 0. -1.
<mgrwt>
<rscale>  0 0.27502507E+03</rscale>
<asrwt>0</asrwt>
<pdfrwt beam="1">  1        2 0.50650083E-01 0.27502507E+03</pdfrwt>
<pdfrwt beam="2">  1       -2 0.88364473E-02 0.27502507E+03</pdfrwt>
<totfact> 0.79266198E+03</totfact>
</mgrwt>
</event>
<event>
 9    1  0.2051157E-002  0.2754136E+03  0.7818608E-02  0.1098221E+00
         -2   -1    0    0    0  501 -0.00000000000E+00  0.00000000000E+00  0.52674171047E+03  0.52674171047E+03  0.00000000000E+00 0. -1.
          2   -1    0    0  501    0  0.00000000000E+00 -0.00000000000E+00 -0.36000871140E+02  0.36000871140E+02  0.00000000000E+00 0. -1.
         36    2    1    2    0    0 -0.35527136788E-14  0.14210854715E-13  0.49074083933E+03  0.56274258161E+03  0.27541358313E+03 0.  0.
         25    2    3    3    0    0 -0.97112963495E+00 -0.50696781100E+02  0.32872153905E+03  0.35313402419E+03  0.11863676537E+03 0.  0.
         25    2    3    3    0    0  0.97112963495E+00  0.50696781100E+02  0.16201930027E+03  0.20960855741E+03  0.12294058311E+03 0.  0.
          5    1    4    4  502    0  0.30269890318E+02 -0.59253562958E+02  0.30625382095E+03  0.31343379497E+03  0.47000000000E+01 0. -1.
         -5    1    4    4    0  502 -0.31241019953E+02  0.85567818574E+01  0.22467718104E+02  0.39700229222E+02  0.47000000000E+01 0. -1.
          5    1    5    5  503    0  0.35550567294E+02  0.79485599493E+02  0.11547502095E+03  0.14470098073E+03  0.47000000000E+01 0.  1.
         -5    1    5    5    0  503 -0.34579437659E+02 -0.28788818392E+02  0.46544279324E+02  0.64907576684E+02  0.47000000000E+01 0.  1.
<mgrwt>
<rscale>  0 0.27541358E+03</rscale>
<asrwt>0</asrwt>
<pdfrwt beam="1">  1        2 0.55385960E-02 0.27541358E+03</pdfrwt>
<pdfrwt beam="2">  1       -2 0.81037180E-01 0.27541358E+03</pdfrwt>
<totfact> 0.18968828E+03</totfact>
</mgrwt>
</event>
<event>
 9    1  0.2051157E-002  0.2749445E+03  0.7818608E-02  0.1098483E+00
         -2   -1    0    0    0  501 -0.00000000000E+00  0.00000000000E+00  0.32886984759E+02  0.32886984759E+02  0.00000000000E+00 0.  1.
          2   -1    0    0  501    0  0.00000000000E+00 -0.00000000000E+00 -0.57465325399E+03  0.57465325399E+03  0.00000000000E+00 0.  1.
         36    2    1    2    0    0  0.35527136788E-14  0.35527136788E-14 -0.54176626923E+03  0.60754023875E+03  0.27494445116E+03 0.  0.
         25    2    3    3    0    0  0.14677669633E+01  0.31428715089E+02 -0.16253054237E+03  0.20596657181E+03  0.12254033226E+03 0.  0.
         25    2    3    3    0    0 -0.14677669633E+01 -0.31428715089E+02 -0.37923572686E+03  0.40157366693E+03  0.12826439480E+03 0.  0.
          5    1    4    4  502    0  0.11419484735E+02  0.73415375947E+02 -0.13614703546E+03  0.15517192826E+03  0.47000000000E+01 0. -1.
         -5    1    4    4    0  502 -0.99517177721E+01 -0.41986660857E+02 -0.26383506908E+02  0.50794643549E+02  0.47000000000E+01 0. -1.
          5    1    5    5  503    0 -0.55824652436E+02  0.68255528812E+01 -0.10335326776E+03  0.11775809080E+03  0.47000000000E+01 0.  1.
         -5    1    5    5    0  503  0.54356885472E+02 -0.38254267970E+02 -0.27588245910E+03  0.28381557614E+03  0.47000000000E+01 0.  1.
<mgrwt>
<rscale>  0 0.27494445E+03</rscale>
<asrwt>0</asrwt>
<pdfrwt beam="1">  1        2 0.88408195E-01 0.27494445E+03</pdfrwt>
<pdfrwt beam="2">  1       -2 0.50595360E-02 0.27494445E+03</pdfrwt>
<totfact> 0.10153401E+04</totfact>
</mgrwt>
</event>
<event>
 9    1  0.2051157E-002  0.2748653E+03  0.7818608E-02  0.1098527E+00
         -2   -1    0    0    0  501 -0.00000000000E+00  0.00000000000E+00  0.19389033792E+02  0.19389033792E+02  0.00000000000E+00 0. -1.
          2   -1    0    0  501    0  0.00000000000E+00 -0.00000000000E+00 -0.97414524402E+03  0.97414524402E+03  0.00000000000E+00 0. -1.
         36    2    1    2    0    0  0.71054273576E-14 -0.35527136788E-14 -0.95475621023E+03  0.99353427782E+03  0.27486531287E+03 0.  0.
         25    2    3    3    0    0  0.24670497143E+02  0.35591170544E+01 -0.29295733426E+03  0.31903164907E+03  0.12383817129E+03 0.  0.
         25    2    3    3    0    0 -0.24670497143E+02 -0.35591170544E+01 -0.66179887597E+03  0.67450262874E+03  0.12788566457E+03 0.  0.
          5    1    4    4  502    0  0.74445748591E+02  0.92773020011E+01 -0.15719492128E+03  0.17424285091E+03  0.47000000000E+01 0. -1.
         -5    1    4    4    0  502 -0.49775251448E+02 -0.57181849467E+01 -0.13576241298E+03  0.14478879817E+03  0.47000000000E+01 0. -1.
          5    1    5    5  503    0 -0.45141935493E+02  0.39698091290E+02 -0.54304276596E+03  0.54638015013E+03  0.47000000000E+01 0. -1.
         -5    1    5    5    0  503  0.20471438350E+02 -0.43257208345E+02 -0.11875611001E+03  0.12812247862E+03  0.47000000000E+01 0. -1.
<mgrwt>
<rscale>  0 0.27486531E+03</rscale>
<asrwt>0</asrwt>
<pdfrwt beam="1">  1        2 0.14986846E+00 0.27486531E+03</pdfrwt>
<pdfrwt beam="2">  1       -2 0.29829291E-02 0.27486531E+03</pdfrwt>
<totfact> 0.11608381E+04</totfact>
</mgrwt>
</event>
<event>
 9    1  0.2051157E-002  0.2749278E+03  0.7818608E-02  0.1098492E+00
         -1   -1    0    0    0  501 -0.00000000000E+00  0.00000000000E+00  0.16678388962E+02  0.16678388962E+02  0.00000000000E+00 0. -1.
          1   -1    0    0  501    0  0.00000000000E+00 -0.00000000000E+00 -0.11329823017E+04  0.11329823017E+04  0.00000000000E+00 0. -1.
         36    2    1    2    0    0  0.14210854715E-13  0.00000000000E+00 -0.11163039127E+04  0.11496606906E+04  0.27492776880E+03 0.  0.
         25    2    3    3    0    0 -0.51211961467E+02  0.44723297236E+02 -0.63579382706E+03  0.65115514684E+03  0.12307069682E+03 0.  0.
         25    2    3    3    0    0  0.51211961467E+02 -0.44723297236E+02 -0.48051008564E+03  0.49850554379E+03  0.11399559846E+03 0.  0.
          5    1    4    4  502    0 -0.73681478490E+02  0.71446136402E+02 -0.52269566761E+03  0.53269725137E+03  0.47000000000E+01 0.  1.
         -5    1    4    4    0  502  0.22469517023E+02 -0.26722839166E+02 -0.11309815945E+03  0.11845789547E+03  0.47000000000E+01 0.  1.
          5    1    5    5  503    0  0.29512257089E+02  0.34749546657E+02 -0.11499192597E+03  0.12378908413E+03  0.47000000000E+01 0. -1.
         -5    1    5    5    0  503  0.21699704379E+02 -0.79472843892E+02 -0.36551815967E+03  0.37471645966E+03  0.47000000000E+01 0. -1.
<mgrwt>
<rscale>  0 0.27492777E+03</rscale>
<asrwt>0</asrwt>
<pdfrwt beam="1">  1        1 0.17430503E+00 0.27492777E+03</pdfrwt>
<pdfrwt beam="2">  1       -1 0.25659051E-02 0.27492777E+03</pdfrwt>
<totfact> 0.60692047E+03</totfact>
</mgrwt>
</event>
<event>
 9    1  0.2051157E-002  0.2750455E+03  0.7818608E-02  0.1098426E+00
         -1   -1    0    0    0  501 -0.00000000000E+00  0.00000000000E+00  0.32066621130E+03  0.32066621130E+03  0.00000000000E+00 0. -1.
          1   -1    0    0  501    0  0.00000000000E+00 -0.00000000000E+00 -0.58978792604E+02  0.58978792604E+02  0.00000000000E+00 0. -1.
         36    2    1    2    0    0  0.71054273576E-14  0.00000000000E+00  0.26168741869E+03  0.37964500390E+03  0.27504549421E+03 0.  0.
         25    2    3    3    0    0 -0.21551546836E+02  0.82743787919E+01  0.18638976254E+03  0.22456979045E+03  0.12311585067E+03 0.  0.
         25    2    3    3    0    0  0.21551546836E+02 -0.82743787919E+01  0.75297656150E+02  0.15507521345E+03  0.13358761279E+03 0.  0.
          5    1    4    4  502    0  0.36967811324E+02  0.39497179813E+02  0.54876032943E+02  0.77201782873E+02  0.47000000000E+01 0. -1.
         -5    1    4    4    0  502 -0.58519358160E+02 -0.31222801021E+02  0.13151372960E+03  0.14736800758E+03  0.47000000000E+01 0. -1.
          5    1    5    5  503    0  0.66951783265E+02  0.30895735650E+02  0.29845599496E+02  0.79686495550E+02  0.47000000000E+01 0. -1.
         -5    1    5    5    0  503 -0.45400236429E+02 -0.39170114442E+02  0.45452056654E+02  0.75388717904E+02  0.47000000000E+01 0. -1.
<mgrwt>
<rscale>  0 0.27504549E+03</rscale>
<asrwt>0</asrwt>
<pdfrwt beam="1">  1        1 0.90736606E-02 0.27504549E+03</pdfrwt>
<pdfrwt beam="2">  1       -1 0.49333262E-01 0.27504549E+03</pdfrwt>
<totfact> 0.30722739E+03</totfact>
</mgrwt>
</event>
<event>
 9    1  0.2051157E-002  0.2737787E+03  0.7818608E-02  0.1099136E+00
          2   -1    0    0  501    0  0.00000000000E+00  0.00000000000E+00  0.23822903079E+03  0.23822903079E+03  0.00000000000E+00 0. -1.
         -2   -1    0    0    0  501 -0.00000000000E+00 -0.00000000000E+00 -0.78658306761E+02  0.78658306761E+02  0.00000000000E+00 0. -1.
         36    2    1    2    0    0  0.88817841970E-15  0.00000000000E+00  0.15957072403E+03  0.31688733755E+03  0.27377868568E+03 0.  0.
         25    2    3    3    0    0  0.58211434645E+00  0.48497632499E+02  0.50152461705E+02  0.14344058241E+03  0.12532985299E+03 0.  0.
         25    2    3    3    0    0 -0.58211434645E+00 -0.48497632499E+02  0.10941826233E+03  0.17344675515E+03  0.12553510077E+03 0.  0.
          5    1    4    4  502    0 -0.52899242433E+02  0.11689132155E+01  0.48377076607E+02  0.71847948816E+02  0.47000000000E+01 0.  1.
         -5    1    4    4    0  502  0.53481356779E+02  0.47328719283E+02  0.17753850977E+01  0.71592633589E+02  0.47000000000E+01 0.  1.
          5    1    5    5  503    0  0.77434003065E+01 -0.81268358264E+02  0.30171697457E+02  0.87160355843E+02  0.47000000000E+01 0. -1.
         -5    1    5    5    0  503 -0.83255146529E+01  0.32770725765E+02  0.79246564868E+02  0.86286399304E+02  0.47000000000E+01 0. -1.
<mgrwt>
<rscale>  0 0.27377869E+03</rscale>
<asrwt>0</asrwt>
<pdfrwt beam="1">  1        2 0.36650620E-01 0.27377869E+03</pdfrwt>
<pdfrwt beam="2">  1       -2 0.12101278E-01 0.27377869E+03</pdfrwt>
<totfact> 0.68027255E+03</totfact>
</mgrwt>
</event>
<event>
 9    1  0.2051157E-002  0.2743453E+03  0.7818608E-02  0.1098818E+00
         -1   -1    0    0    0  501 -0.00000000000E+00  0.00000000000E+00  0.20209649197E+02  0.20209649197E+02  0.00000000000E+00 0.  1.
          1   -1    0    0  501    0  0.00000000000E+00 -0.00000000000E+00 -0.93105691080E+03  0.93105691080E+03  0.00000000000E+00 0.  1.
         36    2    1    2    0    0  0.71054273576E-14 -0.71054273576E-14 -0.91084726160E+03  0.95126655999E+03  0.27434528281E+03 0.  0.
         25    2    3    3    0    0  0.34245171447E+02 -0.25803835087E+02 -0.31582285417E+03  0.34295696229E+03  0.12663661829E+03 0.  0.
         25    2    3    3    0    0 -0.34245171447E+02  0.25803835087E+02 -0.59502440743E+03  0.60830959770E+03  0.11894516195E+03 0.  0.
          5    1    4    4  502    0 -0.46500265329E+02  0.48968116222E+01 -0.12010629867E+03  0.12897234750E+03  0.47000000000E+01 0.  1.
         -5    1    4    4    0  502  0.80745436777E+02 -0.30700646709E+02 -0.19571655551E+03  0.21398461479E+03  0.47000000000E+01 0.  1.
          5    1    5    5  503    0 -0.34738346689E+02  0.70073189449E+02 -0.44397160735E+03  0.45083243311E+03  0.47000000000E+01 0.  1.
         -5    1    5    5    0  503  0.49317524204E+00 -0.44269354362E+02 -0.15105280008E+03  0.15747716459E+03  0.47000000000E+01 0.  1.
<mgrwt>
<rscale>  0 0.27434528E+03</rscale>
<asrwt>0</asrwt>
<pdfrwt beam="1">  1        1 0.14323955E+00 0.27434528E+03</pdfrwt>
<pdfrwt beam="2">  1       -1 0.31091762E-02 0.27434528E+03</pdfrwt>
<totfact> 0.64521578E+03</totfact>
</mgrwt>
</event>
<event>
 9    1  0.2051157E-002  0.2813544E+03  0.7818608E-02  0.1094951E+00
          2   -1    0    0  501    0  0.00000000000E+00  0.00000000000E+00  0.12318230553E+03  0.12318230553E+03  0.00000000000E+00 0.  1.
         -2   -1    0    0    0  501 -0.00000000000E+00 -0.00000000000E+00 -0.16065678978E+03  0.16065678978E+03  0.00000000000E+00 0.  1.
         36    2    1    2    0    0  0.00000000000E+00  0.17763568394E-14 -0.37474484253E+02  0.28383909531E+03  0.28135439406E+03 0.  0.
         25    2    3    3    0    0  0.64410464213E+02 -0.12937409399E+02  0.36959986177E+00  0.13845281796E+03  0.12187272761E+03 0.  0.
         25    2    3    3    0    0 -0.64410464213E+02  0.12937409399E+02 -0.37844084115E+02  0.14538627735E+03  0.12405204745E+03 0.  0.
          5    1    4    4  502    0  0.57409997073E+02  0.29125498075E+02  0.43329035200E+02  0.77741222614E+02  0.47000000000E+01 0. -1.
         -5    1    4    4    0  502  0.70004671398E+01 -0.42062907474E+02 -0.42959435338E+02  0.60711595350E+02  0.47000000000E+01 0. -1.
          5    1    5    5  503    0  0.28265573941E+02  0.87732042899E+01 -0.42934785483E+02  0.52358357387E+02  0.47000000000E+01 0. -1.
         -5    1    5    5    0  503 -0.92676038154E+02  0.41642051088E+01  0.50907013684E+01  0.93027919962E+02  0.47000000000E+01 0. -1.
<mgrwt>
<rscale>  0 0.28135439E+03</rscale>
<asrwt>0</asrwt>
<pdfrwt beam="1">  1        2 0.18951124E-01 0.28135439E+03</pdfrwt>
<pdfrwt beam="2">  1       -2 0.24716429E-01 0.28135439E+03</pdfrwt>
<totfact> 0.42671038E+03</totfact>
</mgrwt>
</event>
<event>
 9    1  0.2051157E-002  0.2735403E+03  0.7818608E-02  0.1099270E+00
         -2   -1    0    0    0  501 -0.00000000000E+00  0.00000000000E+00  0.93286665230E+01  0.93286665230E+01  0.00000000000E+00 0.  1.
          2   -1    0    0  501    0  0.00000000000E+00 -0.00000000000E+00 -0.20052254919E+04  0.20052254919E+04  0.00000000000E+00 0.  1.
         36    2    1    2    0    0 -0.88817841970E-15  0.71054273576E-14 -0.19958968254E+04  0.20145541584E+04  0.27354034377E+03 0.  0.
         25    2    3    3    0    0 -0.67399654739E+01  0.29048022645E+02 -0.13165875226E+04  0.13232300399E+04  0.12901867716E+03 0.  0.
         25    2    3    3    0    0  0.67399654739E+01 -0.29048022645E+02 -0.67930930279E+03  0.69132411854E+03  0.12481463563E+03 0.  0.
          5    1    4    4  502    0 -0.61963299328E+02  0.41831706485E+02 -0.68353104123E+03  0.68762352814E+03  0.47000000000E+01 0.  1.
         -5    1    4    4    0  502  0.55223333854E+02 -0.12783683840E+02 -0.63305648137E+03  0.63560651175E+03  0.47000000000E+01 0.  1.
          5    1    5    5  503    0 -0.51128716670E+01  0.34072558603E+02 -0.49252380294E+03  0.49374980220E+03  0.47000000000E+01 0.  1.
         -5    1    5    5    0  503  0.11852837141E+02 -0.63120581248E+02 -0.18678549985E+03  0.19757431634E+03  0.47000000000E+01 0.  1.
<mgrwt>
<rscale>  0 0.27354034E+03</rscale>
<asrwt>0</asrwt>
<pdfrwt beam="1">  1        2 0.30849609E+00 0.27354034E+03</pdfrwt>
<pdfrwt beam="2">  1       -2 0.14351801E-02 0.27354034E+03</pdfrwt>
<totfact> 0.92911183E+03</totfact>
</mgrwt>
</event>
<event>
 9    1  0.2051157E-002  0.2744718E+03  0.7818608E-02  0.1098747E+00
         -1   -1    0    0    0  501 -0.00000000000E+00  0.00000000000E+00  0.38459205781E+02  0.38459205781E+02  0.00000000000E+00 0.  1.
          1   -1    0    0  501    0  0.00000000000E+00 -0.00000000000E+00 -0.48970557234E+03  0.48970557234E+03  0.00000000000E+00 0.  1.
         36    2    1    2    0    0  0.00000000000E+00 -0.71054273576E-14 -0.45124636656E+03  0.52816477813E+03  0.27447176452E+03 0.  0.
         25    2    3    3    0    0  0.47591316793E+02 -0.36034367160E+02 -0.21396246158E+03  0.25261498633E+03  0.12029541679E+03 0.  0.
         25    2    3    3    0    0 -0.47591316793E+02  0.36034367160E+02 -0.23728390498E+03  0.27554979180E+03  0.12673052965E+03 0.  0.
          5    1    4    4  502    0  0.21708745061E+02  0.41287245575E+02 -0.11572128691E+03  0.12485756886E+03  0.47000000000E+01 0.  1.
         -5    1    4    4    0  502  0.25882571732E+02 -0.77321612736E+02 -0.98241174675E+02  0.12775741746E+03  0.47000000000E+01 0.  1.
          5    1    5    5  503    0 -0.97107331423E+01  0.63165660837E-01  0.14661380246E+02  0.18202977745E+02  0.47000000000E+01 0. -1.
         -5    1    5    5    0  503 -0.37880583651E+02  0.35971201500E+02 -0.25194528523E+03  0.25734681405E+03  0.47000000000E+01 0. -1.
<mgrwt>
<rscale>  0 0.27447176E+03</rscale>
<asrwt>0</asrwt>
<pdfrwt beam="1">  1        1 0.75339322E-01 0.27447176E+03</pdfrwt>
<pdfrwt beam="2">  1       -1 0.59168007E-02 0.27447176E+03</pdfrwt>
<totfact> 0.63053585E+03</totfact>
</mgrwt>
</event>
<event>
 9    1  0.2051157E-002  0.2746432E+03  0.7818608E-02  0.1098651E+00
         -2   -1    0    0    0  501 -0.00000000000E+00  0.00000000000E+00  0.12230661590E+03  0.12230661590E+03  0.00000000000E+00 0.  1.
          2   -1    0    0  501    0  0.00000000000E+00 -0.00000000000E+00 -0.15417988474E+03  0.15417988474E+03  0.00000000000E+00 0.  1.
         36    2    1    2    0    0  0.00000000000E+00  0.00000000000E+00 -0.31873268836E+02  0.27648650063E+03  0.27464318627E+03 0.  0.
         25    2    3    3    0    0  0.34421780309E+02 -0.18184790285E+02  0.16216400504E+02  0.14610401176E+03  0.13988518524E+03 0.  0.
         25    2    3    3    0    0 -0.34421780309E+02  0.18184790285E+02 -0.48089669340E+02  0.13038248887E+03  0.11476685737E+03 0.  0.
          5    1    4    4  502    0  0.72950781913E+02 -0.52274782817E+02  0.25937685407E+02  0.93537816013E+02  0.47000000000E+01 0.  1.
         -5    1    4    4    0  502 -0.38529001604E+02  0.34089992532E+02 -0.97212849036E+01  0.52566195750E+02  0.47000000000E+01 0.  1.
          5    1    5    5  503    0 -0.47154581759E+02  0.40906301186E+02 -0.71510802636E+02  0.95040859378E+02  0.47000000000E+01 0. -1.
         -5    1    5    5    0  503  0.12732801450E+02 -0.22721510901E+02  0.23421133296E+02  0.35341629494E+02  0.47000000000E+01 0. -1.
<mgrwt>
<rscale>  0 0.27464319E+03</rscale>
<asrwt>0</asrwt>
<pdfrwt beam="1">  1        2 0.23719982E-01 0.27464319E+03</pdfrwt>
<pdfrwt beam="2">  1       -2 0.18816403E-01 0.27464319E+03</pdfrwt>
<totfact> 0.52920394E+03</totfact>
</mgrwt>
</event>
<event>
 9    1  0.2051157E-002  0.2748283E+03  0.7818608E-02  0.1098548E+00
          2   -1    0    0  501    0  0.00000000000E+00  0.00000000000E+00  0.93700549745E+03  0.93700549745E+03  0.00000000000E+00 0. -1.
         -2   -1    0    0    0  501 -0.00000000000E+00 -0.00000000000E+00 -0.20152121351E+02  0.20152121351E+02  0.00000000000E+00 0. -1.
         36    2    1    2    0    0 -0.71054273576E-14  0.00000000000E+00  0.91685337610E+03  0.95715761880E+03  0.27482829906E+03 0.  0.
         25    2    3    3    0    0  0.20186176880E+02  0.22006303250E+02  0.38184666162E+03  0.40253276582E+03  0.12383051099E+03 0.  0.
         25    2    3    3    0    0 -0.20186176880E+02 -0.22006303250E+02  0.53500671448E+03  0.55462485298E+03  0.14312506379E+03 0.  0.
          5    1    4    4  502    0 -0.49972250656E+02  0.18906440991E+02  0.21201146604E+03  0.21869072015E+03  0.47000000000E+01 0. -1.
         -5    1    4    4    0  502  0.70158427536E+02  0.30998622596E+01  0.16983519558E+03  0.18384204568E+03  0.47000000000E+01 0. -1.
          5    1    5    5  503    0 -0.34519767193E+02 -0.70017455004E+01  0.53194367427E+03  0.53312925390E+03  0.47000000000E+01 0. -1.
         -5    1    5    5    0  503  0.14333590313E+02 -0.15004557750E+02  0.30630402114E+01  0.21495599081E+02  0.47000000000E+01 0. -1.
<mgrwt>
<rscale>  0 0.27482830E+03</rscale>
<asrwt>0</asrwt>
<pdfrwt beam="1">  1        2 0.14415466E+00 0.27482830E+03</pdfrwt>
<pdfrwt beam="2">  1       -2 0.31003271E-02 0.27482830E+03</pdfrwt>
<totfact> 0.11562911E+04</totfact>
</mgrwt>
</event>
<event>
 9    1  0.2051157E-002  0.2758698E+03  0.7818608E-02  0.1097966E+00
         -1   -1    0    0    0  501 -0.00000000000E+00  0.00000000000E+00  0.28571606542E+02  0.28571606542E+02  0.00000000000E+00 0. -1.
          1   -1    0    0  501    0  0.00000000000E+00 -0.00000000000E+00 -0.66590691193E+03  0.66590691193E+03  0.00000000000E+00 0. -1.
         36    2    1    2    0    0 -0.17763568394E-14  0.71054273576E-14 -0.63733530538E+03  0.69447851847E+03  0.27586975391E+03 0.  0.
         25    2    3    3    0    0  0.41563410668E+01  0.62089328058E+02 -0.30616667470E+03  0.33589005603E+03  0.12333587158E+03 0.  0.
         25    2    3    3    0    0 -0.41563410668E+01 -0.62089328058E+02 -0.33116863069E+03  0.35858846243E+03  0.12264038327E+03 0.  0.
          5    1    4    4  502    0 -0.69403684519E+01 -0.19130758297E+02 -0.21690115795E+01  0.20998791358E+02  0.47000000000E+01 0. -1.
         -5    1    4    4    0  502  0.11096709519E+02  0.81220086354E+02 -0.30399766312E+03  0.31489126468E+03  0.47000000000E+01 0. -1.
          5    1    5    5  503    0  0.18967429598E+02 -0.93737103950E+02 -0.26198022468E+03  0.27893034285E+03  0.47000000000E+01 0.  1.
         -5    1    5    5    0  503 -0.23123770665E+02  0.31647775892E+02 -0.69188406010E+02  0.79658119579E+02  0.47000000000E+01 0.  1.
<mgrwt>
<rscale>  0 0.27586975E+03</rscale>
<asrwt>0</asrwt>
<pdfrwt beam="1">  1        1 0.10244721E+00 0.27586975E+03</pdfrwt>
<pdfrwt beam="2">  1       -1 0.43956319E-02 0.27586975E+03</pdfrwt>
<totfact> 0.64566149E+03</totfact>
</mgrwt>
</event>
<event>
 9    1  0.2051157E-002  0.2748143E+03  0.7818608E-02  0.1098555E+00
          1   -1    0    0  501    0  0.00000000000E+00  0.00000000000E+00  0.40815496706E+03  0.40815496706E+03  0.00000000000E+00 0.  1.
         -1   -1    0    0    0  501 -0.00000000000E+00 -0.00000000000E+00 -0.46258716447E+02  0.46258716447E+02  0.00000000000E+00 0.  1.
         36    2    1    2    0    0 -0.71054273576E-14  0.00000000000E+00  0.36189625061E+03  0.45441368350E+03  0.27481430012E+03 0.  0.
         25    2    3    3    0    0 -0.16180908346E+02  0.14396650468E+02  0.24845150890E+03  0.27907552136E+03  0.12524339906E+03 0.  0.
         25    2    3    3    0    0  0.16180908346E+02 -0.14396650468E+02  0.11344474171E+03  0.17533816214E+03  0.13192678402E+03 0.  0.
          5    1    4    4  502    0  0.45006138312E+02  0.12245108088E+02  0.39541160260E+02  0.61327714066E+02  0.47000000000E+01 0. -1.
         -5    1    4    4    0  502 -0.61187046658E+02  0.21515423799E+01  0.20891034864E+03  0.21774780729E+03  0.47000000000E+01 0. -1.
          5    1    5    5  503    0 -0.48161152370E+02 -0.23057757408E+02  0.12199018768E+02  0.54973291999E+02  0.47000000000E+01 0.  1.
         -5    1    5    5    0  503  0.64342060716E+02  0.86611069401E+01  0.10124572294E+03  0.12036487014E+03  0.47000000000E+01 0.  1.
<mgrwt>
<rscale>  0 0.27481430E+03</rscale>
<asrwt>0</asrwt>
<pdfrwt beam="1">  1        1 0.62793069E-01 0.27481430E+03</pdfrwt>
<pdfrwt beam="2">  1       -1 0.71167259E-02 0.27481430E+03</pdfrwt>
<totfact> 0.60458200E+03</totfact>
</mgrwt>
</event>
<event>
 9    1  0.2051157E-002  0.2751111E+03  0.7818608E-02  0.1098390E+00
         -1   -1    0    0    0  501 -0.00000000000E+00  0.00000000000E+00  0.64580691943E+02  0.64580691943E+02  0.00000000000E+00 0.  1.
          1   -1    0    0  501    0  0.00000000000E+00 -0.00000000000E+00 -0.29299050384E+03  0.29299050384E+03  0.00000000000E+00 0.  1.
         36    2    1    2    0    0  0.00000000000E+00 -0.35527136788E-14 -0.22840981190E+03  0.35757119579E+03  0.27511110098E+03 0.  0.
         25    2    3    3    0    0  0.41490870132E+02  0.15162858570E+02 -0.16342016155E+03  0.21096636130E+03  0.12589381167E+03 0.  0.
         25    2    3    3    0    0 -0.41490870132E+02 -0.15162858570E+02 -0.64989650351E+02  0.14660483448E+03  0.12376557783E+03 0.  0.
          5    1    4    4  502    0  0.20328258710E+02  0.24164313972E+02  0.11907882239E+02  0.34074034562E+02  0.47000000000E+01 0.  1.
         -5    1    4    4    0  502  0.21162611422E+02 -0.90014554025E+01 -0.17532804379E+03  0.17689232674E+03  0.47000000000E+01 0.  1.
          5    1    5    5  503    0 -0.52645355533E+02  0.35755552337E+02 -0.84619752284E+00  0.63818485037E+02  0.47000000000E+01 0. -1.
         -5    1    5    5    0  503  0.11154485402E+02 -0.50918410907E+02 -0.64143452828E+02  0.82786349446E+02  0.47000000000E+01 0. -1.
<mgrwt>
<rscale>  0 0.27511110E+03</rscale>
<asrwt>0</asrwt>
<pdfrwt beam="1">  1        1 0.45075463E-01 0.27511110E+03</pdfrwt>
<pdfrwt beam="2">  1       -1 0.99354909E-02 0.27511110E+03</pdfrwt>
<totfact> 0.55225968E+03</totfact>
</mgrwt>
</event>
<event>
 9    1  0.2051157E-002  0.2755786E+03  0.7818608E-02  0.1098129E+00
          1   -1    0    0  501    0  0.00000000000E+00  0.00000000000E+00  0.67227604658E+02  0.67227604658E+02  0.00000000000E+00 0.  1.
         -1   -1    0    0    0  501 -0.00000000000E+00 -0.00000000000E+00 -0.28241218818E+03  0.28241218818E+03  0.00000000000E+00 0.  1.
         36    2    1    2    0    0  0.00000000000E+00  0.00000000000E+00 -0.21518458353E+03  0.34963979284E+03  0.27557862717E+03 0.  0.
         25    2    3    3    0    0  0.10438163252E+02  0.59054747996E+02 -0.12634809911E+03  0.18500117691E+03  0.12109985466E+03 0.  0.
         25    2    3    3    0    0 -0.10438163252E+02 -0.59054747996E+02 -0.88836484416E+02  0.16463861593E+03  0.12497013395E+03 0.  0.
          5    1    4    4  502    0  0.65315351483E+02  0.38990732054E+02 -0.77523222959E+02  0.10871206200E+03  0.47000000000E+01 0. -1.
         -5    1    4    4    0  502 -0.54877188231E+02  0.20064015942E+02 -0.48824876152E+02  0.76289114919E+02  0.47000000000E+01 0. -1.
          5    1    5    5  503    0 -0.53449478894E+02 -0.13944000365E+02  0.69991381645E+00  0.55442418954E+02  0.47000000000E+01 0. -1.
         -5    1    5    5    0  503  0.43011315641E+02 -0.45110747631E+02 -0.89536398233E+02  0.10919619697E+03  0.47000000000E+01 0. -1.
<mgrwt>
<rscale>  0 0.27557863E+03</rscale>
<asrwt>0</asrwt>
<pdfrwt beam="1">  1        1 0.10342709E-01 0.27557863E+03</pdfrwt>
<pdfrwt beam="2">  1       -1 0.43448028E-01 0.27557863E+03</pdfrwt>
<totfact> 0.32468578E+03</totfact>
</mgrwt>
</event>
<event>
 9    1  0.2051157E-002  0.2742426E+03  0.7818608E-02  0.1098876E+00
         -2   -1    0    0    0  501 -0.00000000000E+00  0.00000000000E+00  0.98907145482E+02  0.98907145482E+02  0.00000000000E+00 0. -1.
          2   -1    0    0  501    0  0.00000000000E+00 -0.00000000000E+00 -0.19010002397E+03  0.19010002397E+03  0.00000000000E+00 0. -1.
         36    2    1    2    0    0  0.71054273576E-14  0.00000000000E+00 -0.91192878485E+02  0.28900716945E+03  0.27424259864E+03 0.  0.
         25    2    3    3    0    0 -0.56453058835E+01 -0.44467256146E+02 -0.18856672127E+02  0.13338333344E+03  0.12420279066E+03 0.  0.
         25    2    3    3    0    0  0.56453058835E+01  0.44467256146E+02 -0.72336206358E+02  0.15562383601E+03  0.13029599087E+03 0.  0.
          5    1    4    4  502    0  0.31979649382E+02 -0.35904332558E+02 -0.59833269806E+02  0.76902075698E+02  0.47000000000E+01 0. -1.
         -5    1    4    4    0  502 -0.37624955265E+02 -0.85629235878E+01  0.40976597679E+02  0.56481257745E+02  0.47000000000E+01 0. -1.
          5    1    5    5  503    0 -0.54293197136E+02 -0.11523680485E+01 -0.56503627841E+02  0.78510057742E+02  0.47000000000E+01 0. -1.
         -5    1    5    5    0  503  0.59938503019E+02  0.45619624194E+02 -0.15832578516E+02  0.77113778265E+02  0.47000000000E+01 0. -1.
<mgrwt>
<rscale>  0 0.27424260E+03</rscale>
<asrwt>0</asrwt>
<pdfrwt beam="1">  1        2 0.29246157E-01 0.27424260E+03</pdfrwt>
<pdfrwt beam="2">  1       -2 0.15216484E-01 0.27424260E+03</pdfrwt>
<totfact> 0.59837490E+03</totfact>
</mgrwt>
</event>
<event>
 9    1  0.2051157E-002  0.2786069E+03  0.7818608E-02  0.1096452E+00
         -1   -1    0    0    0  501 -0.00000000000E+00  0.00000000000E+00  0.20790289497E+03  0.20790289497E+03  0.00000000000E+00 0. -1.
          1   -1    0    0  501    0  0.00000000000E+00 -0.00000000000E+00 -0.93339032607E+02  0.93339032607E+02  0.00000000000E+00 0. -1.
         36    2    1    2    0    0  0.71054273576E-14  0.00000000000E+00  0.11456386237E+03  0.30124192758E+03  0.27860692808E+03 0.  0.
         25    2    3    3    0    0  0.25968139490E+02  0.16957929421E+02  0.47345399894E+01  0.13092313381E+03  0.12710836109E+03 0.  0.
         25    2    3    3    0    0 -0.25968139490E+02 -0.16957929421E+02  0.10982932238E+03  0.17031879377E+03  0.12642822398E+03 0.  0.
          5    1    4    4  502    0  0.24402936281E+02 -0.81317841514E+01 -0.57757464545E+02  0.63400661852E+02  0.47000000000E+01 0. -1.
         -5    1    4    4    0  502  0.15652032088E+01  0.25089713573E+02  0.62492004535E+02  0.67522471956E+02  0.47000000000E+01 0. -1.
          5    1    5    5  503    0 -0.35348185579E+02 -0.67875021872E+02  0.77938633574E+02  0.10932992921E+03  0.47000000000E+01 0. -1.
         -5    1    5    5    0  503  0.93800460889E+01  0.50917092450E+02  0.31890688802E+02  0.60988864562E+02  0.47000000000E+01 0. -1.
<mgrwt>
<rscale>  0 0.27860693E+03</rscale>
<asrwt>0</asrwt>
<pdfrwt beam="1">  1        1 0.14359851E-01 0.27860693E+03</pdfrwt>
<pdfrwt beam="2">  1       -1 0.31985061E-01 0.27860693E+03</pdfrwt>
<totfact> 0.35958568E+03</totfact>
</mgrwt>
</event>
<event>
 9    1  0.2051157E-002  0.2749783E+03  0.7818608E-02  0.1098464E+00
          3   -1    0    0  501    0  0.00000000000E+00  0.00000000000E+00  0.28592735790E+03  0.28592735790E+03  0.00000000000E+00 0. -1.
         -3   -1    0    0    0  501 -0.00000000000E+00 -0.00000000000E+00 -0.66112112712E+02  0.66112112712E+02  0.00000000000E+00 0. -1.
         36    2    1    2    0    0  0.00000000000E+00  0.00000000000E+00  0.21981524519E+03  0.35203947061E+03  0.27497826614E+03 0.  0.
         25    2    3    3    0    0 -0.24014295383E+02  0.21379657544E+02  0.16616927952E+03  0.21146969852E+03  0.12678102301E+03 0.  0.
         25    2    3    3    0    0  0.24014295383E+02 -0.21379657544E+02  0.53645965661E+02  0.14056977209E+03  0.12588961456E+03 0.  0.
          5    1    4    4  502    0 -0.52978944957E+02 -0.31654120035E+02  0.12089147890E+03  0.13581454854E+03  0.47000000000E+01 0. -1.
         -5    1    4    4    0  502  0.28964649574E+02  0.53033777579E+02  0.45277800625E+02  0.75655149981E+02  0.47000000000E+01 0. -1.
          5    1    5    5  503    0 -0.39117680851E+01 -0.71637706209E+02  0.34837507688E+02  0.79893709530E+02  0.47000000000E+01 0. -1.
         -5    1    5    5    0  503  0.27926063468E+02  0.50258048665E+02  0.18808457973E+02  0.60676062560E+02  0.47000000000E+01 0. -1.
<mgrwt>
<rscale>  0 0.27497827E+03</rscale>
<asrwt>0</asrwt>
<pdfrwt beam="1">  1        3 0.43988824E-01 0.27497827E+03</pdfrwt>
<pdfrwt beam="2">  1       -3 0.10171094E-01 0.27497827E+03</pdfrwt>
<totfact> 0.94059957E+02</totfact>
</mgrwt>
</event>
<event>
 9    1  0.2051157E-002  0.2755568E+03  0.7818608E-02  0.1098141E+00
         -2   -1    0    0    0  501 -0.00000000000E+00  0.00000000000E+00  0.87419744658E+01  0.87419744658E+01  0.00000000000E+00 0. -1.
          2   -1    0    0  501    0  0.00000000000E+00 -0.00000000000E+00 -0.21714637461E+04  0.21714637461E+04  0.00000000000E+00 0. -1.
         36    2    1    2    0    0  0.00000000000E+00  0.00000000000E+00 -0.21627217717E+04  0.21802057206E+04  0.27555675003E+03 0.  0.
         25    2    3    3    0    0 -0.72577537365E+02  0.34964662348E+02 -0.99098452914E+03  0.10007437051E+04  0.11378752043E+03 0.  0.
         25    2    3    3    0    0  0.72577537365E+02 -0.34964662348E+02 -0.11717372425E+04  0.11794620155E+04  0.10803913125E+03 0.  0.
          5    1    4    4  502    0 -0.96209535315E+02  0.13457595500E+01 -0.61636650348E+03  0.62384921444E+03  0.47000000000E+01 0.  1.
         -5    1    4    4    0  502  0.23631997950E+02  0.33618902798E+02 -0.37461802567E+03  0.37689449068E+03  0.47000000000E+01 0.  1.
          5    1    5    5  503    0 -0.12872516411E+02  0.25167922062E+02 -0.18655066933E+03  0.18873888896E+03  0.47000000000E+01 0. -1.
         -5    1    5    5    0  503  0.85450053776E+02 -0.60132584410E+02 -0.98518657319E+03  0.99072312651E+03  0.47000000000E+01 0. -1.
<mgrwt>
<rscale>  0 0.27555675E+03</rscale>
<asrwt>0</asrwt>
<pdfrwt beam="1">  1        2 0.33407142E+00 0.27555675E+03</pdfrwt>
<pdfrwt beam="2">  1       -2 0.13449188E-02 0.27555675E+03</pdfrwt>
<totfact> 0.83459967E+03</totfact>
</mgrwt>
</event>
<event>
 9    1  0.2051157E-002  0.2754139E+03  0.7818608E-02  0.1098220E+00
         -1   -1    0    0    0  501 -0.00000000000E+00  0.00000000000E+00  0.62731509524E+02  0.62731509524E+02  0.00000000000E+00 0.  1.
          1   -1    0    0  501    0  0.00000000000E+00 -0.00000000000E+00 -0.30229162842E+03  0.30229162842E+03  0.00000000000E+00 0.  1.
         36    2    1    2    0    0  0.00000000000E+00  0.71054273576E-14 -0.23956011889E+03  0.36502313794E+03  0.27541394422E+03 0.  0.
         25    2    3    3    0    0  0.52445416553E+02  0.37387931141E+02 -0.11229800570E+03  0.18003719991E+03  0.12511663420E+03 0.  0.
         25    2    3    3    0    0 -0.52445416553E+02 -0.37387931141E+02 -0.12726211319E+03  0.18498593804E+03  0.11779546980E+03 0.  0.
          5    1    4    4  502    0  0.28965020974E+02  0.19578062246E+02 -0.13689313506E+03  0.14136510668E+03  0.47000000000E+01 0.  1.
         -5    1    4    4    0  502  0.23480395580E+02  0.17809868895E+02  0.24595129353E+02  0.38672093227E+02  0.47000000000E+01 0.  1.
          5    1    5    5  503    0 -0.77228053160E+02 -0.34313576881E+02 -0.13418537010E+03  0.15864865994E+03  0.47000000000E+01 0.  1.
         -5    1    5    5    0  503  0.24782636606E+02 -0.30743542591E+01  0.69232569050E+01  0.26337278095E+02  0.47000000000E+01 0.  1.
<mgrwt>
<rscale>  0 0.27541394E+03</rscale>
<asrwt>0</asrwt>
<pdfrwt beam="1">  1        1 0.46506403E-01 0.27541394E+03</pdfrwt>
<pdfrwt beam="2">  1       -1 0.96510017E-02 0.27541394E+03</pdfrwt>
<totfact> 0.55535399E+03</totfact>
</mgrwt>
</event>
<event>
 9    1  0.2051157E-002  0.2832056E+03  0.7818608E-02  0.1093951E+00
         -1   -1    0    0    0  501 -0.00000000000E+00  0.00000000000E+00  0.14336877784E+03  0.14336877784E+03  0.00000000000E+00 0. -1.
          1   -1    0    0  501    0  0.00000000000E+00 -0.00000000000E+00 -0.13985860654E+03  0.13985860654E+03  0.00000000000E+00 0. -1.
         36    2    1    2    0    0  0.71054273576E-14  0.00000000000E+00  0.35101712955E+01  0.28322738438E+03  0.28320563194E+03 0.  0.
         25    2    3    3    0    0 -0.63456513048E+02 -0.42292765040E+02  0.31738163110E+02  0.14889625910E+03  0.12388453476E+03 0.  0.
         25    2    3    3    0    0  0.63456513048E+02  0.42292765040E+02 -0.28227991814E+02  0.13433112528E+03  0.10692345241E+03 0.  0.
          5    1    4    4  502    0 -0.40325276508E+02  0.15527165999E+02 -0.36235148607E+02  0.56588839924E+02  0.47000000000E+01 0. -1.
         -5    1    4    4    0  502 -0.23131236540E+02 -0.57819931039E+02  0.67973311717E+02  0.92307419177E+02  0.47000000000E+01 0. -1.
          5    1    5    5  503    0  0.52490521362E+02  0.93941183125E+01  0.33659780755E+02  0.63234287631E+02  0.47000000000E+01 0.  1.
         -5    1    5    5    0  503  0.10965991687E+02  0.32898646728E+02 -0.61887772569E+02  0.71096837650E+02  0.47000000000E+01 0.  1.
<mgrwt>
<rscale>  0 0.28320563E+03</rscale>
<asrwt>0</asrwt>
<pdfrwt beam="1">  1        1 0.21516709E-01 0.28320563E+03</pdfrwt>
<pdfrwt beam="2">  1       -1 0.22056735E-01 0.28320563E+03</pdfrwt>
<totfact> 0.39663868E+03</totfact>
</mgrwt>
</event>
<event>
 9    1  0.2051157E-002  0.2749433E+03  0.7818608E-02  0.1098483E+00
          1   -1    0    0  501    0  0.00000000000E+00  0.00000000000E+00  0.18631046685E+03  0.18631046685E+03  0.00000000000E+00 0. -1.
         -1   -1    0    0    0  501 -0.00000000000E+00 -0.00000000000E+00 -0.10143526661E+03  0.10143526661E+03  0.00000000000E+00 0. -1.
         36    2    1    2    0    0  0.00000000000E+00  0.00000000000E+00  0.84875200234E+02  0.28774573346E+03  0.27494328053E+03 0.  0.
         25    2    3    3    0    0 -0.32994639559E+02  0.50867556982E+02  0.47772691390E+02  0.14860170217E+03  0.12698063337E+03 0.  0.
         25    2    3    3    0    0  0.32994639559E+02 -0.50867556982E+02  0.37102508845E+02  0.13914403129E+03  0.11961735111E+03 0.  0.
          5    1    4    4  502    0 -0.19156867309E+02  0.73376985153E+02 -0.17548637719E+02  0.77982127446E+02  0.47000000000E+01 0. -1.
         -5    1    4    4    0  502 -0.13837772251E+02 -0.22509428171E+02  0.65321329109E+02  0.70619574722E+02  0.47000000000E+01 0. -1.
          5    1    5    5  503    0  0.64340127123E+02  0.10187331792E+02  0.18555361938E+02  0.67895693117E+02  0.47000000000E+01 0. -1.
         -5    1    5    5    0  503 -0.31345487564E+02 -0.61054888774E+02  0.18547146907E+02  0.71248338171E+02  0.47000000000E+01 0. -1.
<mgrwt>
<rscale>  0 0.27494328E+03</rscale>
<asrwt>0</asrwt>
<pdfrwt beam="1">  1        1 0.28663149E-01 0.27494328E+03</pdfrwt>
<pdfrwt beam="2">  1       -1 0.15605426E-01 0.27494328E+03</pdfrwt>
<totfact> 0.48100018E+03</totfact>
</mgrwt>
</event>
<event>
 9    1  0.2051157E-002  0.2796110E+03  0.7818608E-02  0.1095902E+00
          2   -1    0    0  501    0  0.00000000000E+00  0.00000000000E+00  0.75278222434E+03  0.75278222434E+03  0.00000000000E+00 0. -1.
         -2   -1    0    0    0  501 -0.00000000000E+00 -0.00000000000E+00 -0.25964446557E+02  0.25964446557E+02  0.00000000000E+00 0. -1.
         36    2    1    2    0    0  0.00000000000E+00 -0.71054273576E-14  0.72681777778E+03  0.77874667090E+03  0.27961097141E+03 0.  0.
         25    2    3    3    0    0 -0.41529648390E+02  0.30500336702E+02  0.26087838360E+03  0.29461987499E+03  0.12683988914E+03 0.  0.
         25    2    3    3    0    0  0.41529648390E+02 -0.30500336702E+02  0.46593939419E+03  0.48412679591E+03  0.12093077865E+03 0.  0.
          5    1    4    4  502    0  0.16281370727E+02  0.65247796218E+02  0.15458062867E+03  0.16864050138E+03  0.47000000000E+01 0.  1.
         -5    1    4    4    0  502 -0.57811019117E+02 -0.34747459516E+02  0.10629775493E+03  0.12597937361E+03  0.47000000000E+01 0.  1.
          5    1    5    5  503    0  0.21866532844E+02 -0.70076795064E+02  0.17528148417E+03  0.19009100757E+03  0.47000000000E+01 0.  1.
         -5    1    5    5    0  503  0.19663115546E+02  0.39576458362E+02  0.29065791001E+03  0.29403578834E+03  0.47000000000E+01 0.  1.
<mgrwt>
<rscale>  0 0.27961097E+03</rscale>
<asrwt>0</asrwt>
<pdfrwt beam="1">  1        2 0.11581263E+00 0.27961097E+03</pdfrwt>
<pdfrwt beam="2">  1       -2 0.39945308E-02 0.27961097E+03</pdfrwt>
<totfact> 0.10524978E+04</totfact>
</mgrwt>
</event>
<event>
 9    1  0.2051157E-002  0.2755897E+03  0.7818608E-02  0.1098122E+00
          2   -1    0    0  501    0  0.00000000000E+00  0.00000000000E+00  0.45625240175E+03  0.45625240175E+03  0.00000000000E+00 0.  1.
         -2   -1    0    0    0  501 -0.00000000000E+00 -0.00000000000E+00 -0.41616046467E+02  0.41616046467E+02  0.00000000000E+00 0.  1.
         36    2    1    2    0    0 -0.53290705182E-14  0.00000000000E+00  0.41463635528E+03  0.49786844822E+03  0.27558970338E+03 0.  0.
         25    2    3    3    0    0  0.67517710109E+01  0.77679761550E+02  0.28045849177E+03  0.29957904102E+03  0.70787742196E+02 0.  0.
         25    2    3    3    0    0 -0.67517710109E+01 -0.77679761550E+02  0.13417786351E+03  0.19828940720E+03  0.12343118805E+03 0.  0.
          5    1    4    4  502    0 -0.64061015831E+01  0.79621074250E+02  0.16626380779E+03  0.18451638784E+03  0.47000000000E+01 0.  1.
         -5    1    4    4    0  502  0.13157872594E+02 -0.19413126998E+01  0.11419468398E+03  0.11506265317E+03  0.47000000000E+01 0.  1.
          5    1    5    5  503    0  0.35697547373E+02 -0.10031073461E+02  0.10772833907E+03  0.11402816478E+03  0.47000000000E+01 0. -1.
         -5    1    5    5    0  503 -0.42449318384E+02 -0.67648688088E+02  0.26449524440E+02  0.84261242421E+02  0.47000000000E+01 0. -1.
<mgrwt>
<rscale>  0 0.27558970E+03</rscale>
<asrwt>0</asrwt>
<pdfrwt beam="1">  1        2 0.70192674E-01 0.27558970E+03</pdfrwt>
<pdfrwt beam="2">  1       -2 0.64024690E-02 0.27558970E+03</pdfrwt>
<totfact> 0.91811650E+03</totfact>
</mgrwt>
</event>
<event>
 9    1  0.2051157E-002  0.2749703E+03  0.7818608E-02  0.1098468E+00
          1   -1    0    0  501    0  0.00000000000E+00  0.00000000000E+00  0.79601178719E+03  0.79601178719E+03  0.00000000000E+00 0.  1.
         -1   -1    0    0    0  501 -0.00000000000E+00 -0.00000000000E+00 -0.23746090735E+02  0.23746090735E+02  0.00000000000E+00 0.  1.
         36    2    1    2    0    0  0.00000000000E+00  0.00000000000E+00  0.77226569645E+03  0.81975787792E+03  0.27497031203E+03 0.  0.
         25    2    3    3    0    0 -0.29154049187E+02  0.33495308972E+02  0.48580352022E+03  0.50364533182E+03  0.12522645767E+03 0.  0.
         25    2    3    3    0    0  0.29154049187E+02 -0.33495308972E+02  0.28646217623E+03  0.31611254610E+03  0.12607406190E+03 0.  0.
          5    1    4    4  502    0 -0.47572292445E+02  0.58560136967E+02  0.44860151780E+03  0.45492617470E+03  0.47000000000E+01 0. -1.
         -5    1    4    4    0  502  0.18418243259E+02 -0.25064827994E+02  0.37202002417E+02  0.48719157125E+02  0.47000000000E+01 0. -1.
          5    1    5    5  503    0  0.50510177869E+02 -0.62566719824E+02  0.11234948467E+03  0.13824025898E+03  0.47000000000E+01 0.  1.
         -5    1    5    5    0  503 -0.21356128682E+02  0.29071410852E+02  0.17411269156E+03  0.17787228712E+03  0.47000000000E+01 0.  1.
<mgrwt>
<rscale>  0 0.27497031E+03</rscale>
<asrwt>0</asrwt>
<pdfrwt beam="1">  1        1 0.12246333E+00 0.27497031E+03</pdfrwt>
<pdfrwt beam="2">  1       -1 0.36532453E-02 0.27497031E+03</pdfrwt>
<totfact> 0.65247482E+03</totfact>
</mgrwt>
</event>
<event>
 9    1  0.2051157E-002  0.2756909E+03  0.7818608E-02  0.1098066E+00
          2   -1    0    0  501    0  0.00000000000E+00  0.00000000000E+00  0.21124006834E+04  0.21124006834E+04  0.00000000000E+00 0. -1.
         -2   -1    0    0    0  501 -0.00000000000E+00 -0.00000000000E+00 -0.89951512597E+01  0.89951512597E+01  0.00000000000E+00 0. -1.
         36    2    1    2    0    0  0.71054273576E-14  0.00000000000E+00  0.21034055321E+04  0.21213958346E+04  0.27569086795E+03 0.  0.
         25    2    3    3    0    0 -0.22458593642E+01 -0.45666452589E+02  0.87227030585E+03  0.88370312460E+03  0.13410912420E+03 0.  0.
         25    2    3    3    0    0  0.22458593642E+01  0.45666452589E+02  0.12311352263E+04  0.12376927100E+04  0.11873849557E+03 0.  0.
          5    1    4    4  502    0  0.19850294416E+02  0.41629784846E+02  0.19383995233E+03  0.19930652346E+03  0.47000000000E+01 0. -1.
         -5    1    4    4    0  502 -0.22096153780E+02 -0.87296237435E+02  0.67843035352E+03  0.68439660115E+03  0.47000000000E+01 0. -1.
          5    1    5    5  503    0 -0.53268551909E+02  0.15889207929E+02  0.36294287389E+03  0.36720515418E+03  0.47000000000E+01 0.  1.
         -5    1    5    5    0  503  0.55514411273E+02  0.29777244660E+02  0.86819235237E+03  0.87048755584E+03  0.47000000000E+01 0.  1.
<mgrwt>
<rscale>  0 0.27569087E+03</rscale>
<asrwt>0</asrwt>
<pdfrwt beam="1">  1        2 0.32498433E+00 0.27569087E+03</pdfrwt>
<pdfrwt beam="2">  1       -2 0.13838711E-02 0.27569087E+03</pdfrwt>
<totfact> 0.86034169E+03</totfact>
</mgrwt>
</event>
<event>
 9    1  0.2051157E-002  0.2759612E+03  0.7818608E-02  0.1097916E+00
          1   -1    0    0  501    0  0.00000000000E+00  0.00000000000E+00  0.79482527939E+03  0.79482527939E+03  0.00000000000E+00 0.  1.
         -1   -1    0    0    0  501 -0.00000000000E+00 -0.00000000000E+00 -0.23953238838E+02  0.23953238838E+02  0.00000000000E+00 0.  1.
         36    2    1    2    0    0  0.00000000000E+00 -0.71054273576E-14  0.77087204055E+03  0.81877851823E+03  0.27596115489E+03 0.  0.
         25    2    3    3    0    0 -0.30567560769E+02  0.43392670561E+02  0.39864595459E+03  0.42138971095E+03  0.12583080607E+03 0.  0.
         25    2    3    3    0    0  0.30567560769E+02 -0.43392670561E+02  0.37222608596E+03  0.39738880728E+03  0.12864021707E+03 0.  0.
          5    1    4    4  502    0 -0.66313362038E+02  0.64999008477E+02  0.30229119369E+03  0.31626632585E+03  0.47000000000E+01 0.  1.
         -5    1    4    4    0  502  0.35745801269E+02 -0.21606337916E+02  0.96354760906E+02  0.10512338510E+03  0.47000000000E+01 0.  1.
          5    1    5    5  503    0  0.70436458120E+02 -0.48416699904E+01  0.28703283396E+03  0.29562590241E+03  0.47000000000E+01 0.  1.
         -5    1    5    5    0  503 -0.39868897351E+02 -0.38551000571E+02  0.85193251999E+02  0.10176290487E+03  0.47000000000E+01 0.  1.
<mgrwt>
<rscale>  0 0.27596115E+03</rscale>
<asrwt>0</asrwt>
<pdfrwt beam="1">  1        1 0.12228079E+00 0.27596115E+03</pdfrwt>
<pdfrwt beam="2">  1       -1 0.36851143E-02 0.27596115E+03</pdfrwt>
<totfact> 0.64565798E+03</totfact>
</mgrwt>
</event>
<event>
 9    1  0.2051157E-002  0.2747858E+03  0.7818608E-02  0.1098571E+00
          1   -1    0    0  501    0  0.00000000000E+00  0.00000000000E+00  0.16406837997E+02  0.16406837997E+02  0.00000000000E+00 0. -1.
         -1   -1    0    0    0  501 -0.00000000000E+00 -0.00000000000E+00 -0.11505456028E+04  0.11505456028E+04  0.00000000000E+00 0. -1.
         36    2    1    2    0    0 -0.35527136788E-14  0.71054273576E-14 -0.11341387648E+04  0.11669524408E+04  0.27478584617E+03 0.  0.
         25    2    3    3    0    0 -0.19989004028E+01  0.33898240112E+02 -0.75002671464E+03  0.76128733452E+03  0.12595732112E+03 0.  0.
         25    2    3    3    0    0  0.19989004028E+01 -0.33898240112E+02 -0.38411205014E+03  0.40566510626E+03  0.12597231872E+03 0.  0.
          5    1    4    4  502    0  0.21237199702E+02 -0.43440784396E+02 -0.32798715866E+03  0.33156565963E+03  0.47000000000E+01 0.  1.
         -5    1    4    4    0  502 -0.23236100105E+02  0.77339024508E+02 -0.42203955598E+03  0.42972167489E+03  0.47000000000E+01 0.  1.
          5    1    5    5  503    0 -0.38373915019E+02 -0.15287376808E+02 -0.36901043750E+02  0.55588112698E+02  0.47000000000E+01 0. -1.
         -5    1    5    5    0  503  0.40372815421E+02 -0.18610863304E+02 -0.34721100639E+03  0.35007699356E+03  0.47000000000E+01 0. -1.
<mgrwt>
<rscale>  0 0.27478585E+03</rscale>
<asrwt>0</asrwt>
<pdfrwt beam="1">  1        1 0.25241278E-02 0.27478585E+03</pdfrwt>
<pdfrwt beam="2">  1       -1 0.17700709E+00 0.27478585E+03</pdfrwt>
<totfact> 0.10439986E+03</totfact>
</mgrwt>
</event>
<event>
 9    1  0.2051157E-002  0.2759924E+03  0.7818608E-02  0.1097898E+00
          1   -1    0    0  501    0  0.00000000000E+00  0.00000000000E+00  0.18837313325E+04  0.18837313325E+04  0.00000000000E+00 0.  1.
         -1   -1    0    0    0  501 -0.00000000000E+00 -0.00000000000E+00 -0.10109167911E+02  0.10109167911E+02  0.00000000000E+00 0.  1.
         36    2    1    2    0    0  0.00000000000E+00 -0.71054273576E-14  0.18736221646E+04  0.18938405004E+04  0.27599243714E+03 0.  0.
         25    2    3    3    0    0  0.18549352853E+02 -0.26577212223E+02  0.78328666009E+03  0.79395732072E+03  0.12561770795E+03 0.  0.
         25    2    3    3    0    0 -0.18549352853E+02  0.26577212223E+02  0.10903355045E+04  0.10998831797E+04  0.14092930814E+03 0.  0.
          5    1    4    4  502    0 -0.96804328933E+01  0.38693091176E+02  0.50834144094E+03  0.50992546187E+03  0.47000000000E+01 0.  1.
         -5    1    4    4    0  502  0.28229785746E+02 -0.65270303399E+02  0.27494521915E+03  0.28403185885E+03  0.47000000000E+01 0.  1.
          5    1    5    5  503    0 -0.50928500584E+02  0.58024394275E+02  0.36378889849E+03  0.37192068397E+03  0.47000000000E+01 0. -1.
         -5    1    5    5    0  503  0.32379147731E+02 -0.31447182052E+02  0.72654660601E+03  0.72796249572E+03  0.47000000000E+01 0. -1.
<mgrwt>
<rscale>  0 0.27599244E+03</rscale>
<asrwt>0</asrwt>
<pdfrwt beam="1">  1        1 0.28980454E+00 0.27599244E+03</pdfrwt>
<pdfrwt beam="2">  1       -1 0.15552581E-02 0.27599244E+03</pdfrwt>
<totfact> 0.39748040E+03</totfact>
</mgrwt>
</event>
<event>
 9    1  0.2051157E-002  0.2752939E+03  0.7818608E-02  0.1098287E+00
         -1   -1    0    0    0  501 -0.00000000000E+00  0.00000000000E+00  0.12444466179E+03  0.12444466179E+03  0.00000000000E+00 0. -1.
          1   -1    0    0  501    0  0.00000000000E+00 -0.00000000000E+00 -0.15224984779E+03  0.15224984779E+03  0.00000000000E+00 0. -1.
         36    2    1    2    0    0  0.00000000000E+00  0.00000000000E+00 -0.27805186003E+02  0.27669450957E+03  0.27529388526E+03 0.  0.
         25    2    3    3    0    0  0.47044317783E+02  0.27546208972E+02 -0.23764295443E+02  0.13886661815E+03  0.12548798522E+03 0.  0.
         25    2    3    3    0    0 -0.47044317783E+02 -0.27546208972E+02 -0.40408905602E+01  0.13782789142E+03  0.12652366337E+03 0.  0.
          5    1    4    4  502    0  0.54595534766E+01 -0.48915297787E+02 -0.49134389403E+01  0.49686466608E+02  0.47000000000E+01 0.  1.
         -5    1    4    4    0  502  0.41584764307E+02  0.76461506759E+02 -0.18850856502E+02  0.89180151542E+02  0.47000000000E+01 0.  1.
          5    1    5    5  503    0 -0.73244744768E+02 -0.43135502679E+02 -0.36875472324E+02  0.92775830293E+02  0.47000000000E+01 0. -1.
         -5    1    5    5    0  503  0.26200426984E+02  0.15589293707E+02  0.32834581764E+02  0.45052061130E+02  0.47000000000E+01 0. -1.
<mgrwt>
<rscale>  0 0.27529389E+03</rscale>
<asrwt>0</asrwt>
<pdfrwt beam="1">  1        1 0.23423053E-01 0.27529389E+03</pdfrwt>
<pdfrwt beam="2">  1       -1 0.19145333E-01 0.27529389E+03</pdfrwt>
<totfact> 0.44779147E+03</totfact>
</mgrwt>
</event>
<event>
 9    1  0.2051157E-002  0.2753690E+03  0.7818608E-02  0.1098245E+00
          1   -1    0    0  501    0  0.00000000000E+00  0.00000000000E+00  0.18568264623E+04  0.18568264623E+04  0.00000000000E+00 0. -1.
         -1   -1    0    0    0  501 -0.00000000000E+00 -0.00000000000E+00 -0.10209368394E+02  0.10209368394E+02  0.00000000000E+00 0. -1.
         36    2    1    2    0    0 -0.21316282073E-13 -0.35527136788E-14  0.18466170939E+04  0.18670358307E+04  0.27536902801E+03 0.  0.
         25    2    3    3    0    0  0.61809962721E+02 -0.16772037176E+01  0.87741860132E+03  0.88750324725E+03  0.11821728907E+03 0.  0.
         25    2    3    3    0    0 -0.61809962721E+02  0.16772037176E+01  0.96919849259E+03  0.97953258345E+03  0.12773049554E+03 0.  0.
          5    1    4    4  502    0  0.64975954935E+02  0.25639579512E+02  0.25431534807E+03  0.26377575518E+03  0.47000000000E+01 0. -1.
         -5    1    4    4    0  502 -0.31659922143E+01 -0.27316783230E+02  0.62310325325E+03  0.62372749207E+03  0.47000000000E+01 0. -1.
          5    1    5    5  503    0 -0.77434858938E+02 -0.46640327509E+02  0.58418684287E+03  0.59115804563E+03  0.47000000000E+01 0. -1.
         -5    1    5    5    0  503  0.15624896218E+02  0.48317531226E+02  0.38501164972E+03  0.38837453782E+03  0.47000000000E+01 0. -1.
<mgrwt>
<rscale>  0 0.27536903E+03</rscale>
<asrwt>0</asrwt>
<pdfrwt beam="1">  1        1 0.28566534E+00 0.27536903E+03</pdfrwt>
<pdfrwt beam="2">  1       -1 0.15706735E-02 0.27536903E+03</pdfrwt>
<totfact> 0.40789321E+03</totfact>
</mgrwt>
</event>
<event>
 9    1  0.2051157E-002  0.2742861E+03  0.7818608E-02  0.1098851E+00
          2   -1    0    0  501    0  0.00000000000E+00  0.00000000000E+00  0.29288492399E+03  0.29288492399E+03  0.00000000000E+00 0. -1.
         -2   -1    0    0    0  501 -0.00000000000E+00 -0.00000000000E+00 -0.64217080866E+02  0.64217080866E+02  0.00000000000E+00 0. -1.
         36    2    1    2    0    0  0.00000000000E+00  0.00000000000E+00  0.22866784313E+03  0.35710200486E+03  0.27428609041E+03 0.  0.
         25    2    3    3    0    0 -0.62285470446E+02 -0.14348106535E+02  0.10760744877E+03  0.17248634549E+03  0.11868794529E+03 0.  0.
         25    2    3    3    0    0  0.62285470446E+02  0.14348106535E+02  0.12106039435E+03  0.18461565937E+03  0.12386272488E+03 0.  0.
          5    1    4    4  502    0 -0.57419745150E+02 -0.63173090002E+02  0.67034396284E+02  0.10864422082E+03  0.47000000000E+01 0.  1.
         -5    1    4    4    0  502 -0.48657252963E+01  0.48824983467E+02  0.40573052489E+02  0.63842124663E+02  0.47000000000E+01 0.  1.
          5    1    5    5  503    0  0.15341028887E+01 -0.38267324070E+02 -0.76499585828E+00  0.38592962854E+02  0.47000000000E+01 0.  1.
         -5    1    5    5    0  503  0.60751367557E+02  0.52615430605E+02  0.12182539021E+03  0.14602269652E+03  0.47000000000E+01 0.  1.
<mgrwt>
<rscale>  0 0.27428609E+03</rscale>
<asrwt>0</asrwt>
<pdfrwt beam="1">  1        2 0.45059219E-01 0.27428609E+03</pdfrwt>
<pdfrwt beam="2">  1       -2 0.98795510E-02 0.27428609E+03</pdfrwt>
<totfact> 0.75350513E+03</totfact>
</mgrwt>
</event>
<event>
 9    1  0.2051157E-002  0.2754416E+03  0.7818608E-02  0.1098205E+00
          2   -1    0    0  501    0  0.00000000000E+00  0.00000000000E+00  0.27133613310E+04  0.27133613310E+04  0.00000000000E+00 0. -1.
         -2   -1    0    0    0  501 -0.00000000000E+00 -0.00000000000E+00 -0.69902310689E+01  0.69902310689E+01  0.00000000000E+00 0. -1.
         36    2    1    2    0    0  0.35527136788E-14  0.00000000000E+00  0.27063710999E+04  0.27203515621E+04  0.27544162850E+03 0.  0.
         25    2    3    3    0    0  0.19290817135E+02  0.37836219967E+02  0.17846853663E+04  0.17896271467E+04  0.12593550779E+03 0.  0.
         25    2    3    3    0    0 -0.19290817135E+02 -0.37836219967E+02  0.92168573360E+03  0.93072441540E+03  0.12222778218E+03 0.  0.
          5    1    4    4  502    0 -0.51609580433E+02 -0.11819540972E+01  0.68992262585E+03  0.69186723110E+03  0.47000000000E+01 0. -1.
         -5    1    4    4    0  502  0.70900397568E+02  0.39018174064E+02  0.10947627405E+04  0.10977599156E+04  0.47000000000E+01 0. -1.
          5    1    5    5  503    0 -0.38215265510E+02  0.17029556671E+02  0.12471744419E+03  0.13163184723E+03  0.47000000000E+01 0.  1.
         -5    1    5    5    0  503  0.18924448374E+02 -0.54865776638E+02  0.79696828941E+03  0.79909256817E+03  0.47000000000E+01 0.  1.
<mgrwt>
<rscale>  0 0.27544163E+03</rscale>
<asrwt>0</asrwt>
<pdfrwt beam="1">  1        2 0.41743936E+00 0.27544163E+03</pdfrwt>
<pdfrwt beam="2">  1       -2 0.10754223E-02 0.27544163E+03</pdfrwt>
<totfact> 0.58533566E+03</totfact>
</mgrwt>
</event>
<event>
 9    1  0.2051157E-002  0.2754968E+03  0.7818608E-02  0.1098174E+00
          4   -1    0    0  501    0  0.00000000000E+00  0.00000000000E+00  0.11650965277E+03  0.11650965277E+03  0.00000000000E+00 0.  1.
         -4   -1    0    0    0  501 -0.00000000000E+00 -0.00000000000E+00 -0.16285884462E+03  0.16285884462E+03  0.00000000000E+00 0.  1.
         36    2    1    2    0    0  0.00000000000E+00  0.00000000000E+00 -0.46349191849E+02  0.27936849740E+03  0.27549684164E+03 0.  0.
         25    2    3    3    0    0  0.48783592898E+02 -0.34032554248E+02 -0.35893345353E+02  0.14204339404E+03  0.12389487425E+03 0.  0.
         25    2    3    3    0    0 -0.48783592898E+02  0.34032554248E+02 -0.10455846496E+02  0.13732510336E+03  0.12333209477E+03 0.  0.
          5    1    4    4  502    0  0.18107224674E+01 -0.72402130924E+02 -0.24403559943E+01  0.72618128698E+02  0.47000000000E+01 0. -1.
         -5    1    4    4    0  502  0.46972870430E+02  0.38369576676E+02 -0.33452989359E+02  0.69425265342E+02  0.47000000000E+01 0. -1.
          5    1    5    5  503    0 -0.55164698054E+02 -0.36107589396E+02 -0.98144837348E+00  0.66105636403E+02  0.47000000000E+01 0. -1.
         -5    1    5    5    0  503  0.63811051558E+01  0.70140143644E+02 -0.94743981225E+01  0.71219466954E+02  0.47000000000E+01 0. -1.
<mgrwt>
<rscale>  0 0.27549684E+03</rscale>
<asrwt>0</asrwt>
<pdfrwt beam="1">  1        4 0.17924562E-01 0.27549684E+03</pdfrwt>
<pdfrwt beam="2">  1       -4 0.25055207E-01 0.27549684E+03</pdfrwt>
<totfact> 0.76920252E+02</totfact>
</mgrwt>
</event>
<event>
 9    1  0.2051157E-002  0.2756951E+03  0.7818608E-02  0.1098064E+00
          2   -1    0    0  501    0  0.00000000000E+00  0.00000000000E+00  0.51623334107E+03  0.51623334107E+03  0.00000000000E+00 0. -1.
         -2   -1    0    0    0  501 -0.00000000000E+00 -0.00000000000E+00 -0.36808831819E+02  0.36808831819E+02  0.00000000000E+00 0. -1.
         36    2    1    2    0    0  0.00000000000E+00  0.14210854715E-13  0.47942450926E+03  0.55304217289E+03  0.27569509412E+03 0.  0.
         25    2    3    3    0    0  0.20875018674E+02 -0.35248997809E+02  0.31167466441E+03  0.33913249385E+03  0.12724580032E+03 0.  0.
         25    2    3    3    0    0 -0.20875018674E+02  0.35248997809E+02  0.16774984484E+03  0.21390967904E+03  0.12625007759E+03 0.  0.
          5    1    4    4  502    0 -0.17318299287E+02 -0.71571318629E+02  0.23229219752E+03  0.24372962924E+03  0.47000000000E+01 0. -1.
         -5    1    4    4    0  502  0.38193317961E+02  0.36322320819E+02  0.79382466893E+02  0.95402864614E+02  0.47000000000E+01 0. -1.
          5    1    5    5  503    0 -0.46329378679E+02  0.70646526158E+02  0.83210136675E+02  0.11867333244E+03  0.47000000000E+01 0.  1.
         -5    1    5    5    0  503  0.25454360005E+02 -0.35397528349E+02  0.84539708169E+02  0.95236346600E+02  0.47000000000E+01 0.  1.
<mgrwt>
<rscale>  0 0.27569509E+03</rscale>
<asrwt>0</asrwt>
<pdfrwt beam="1">  1        2 0.79420509E-01 0.27569509E+03</pdfrwt>
<pdfrwt beam="2">  1       -2 0.56628976E-02 0.27569509E+03</pdfrwt>
<totfact> 0.96600085E+03</totfact>
</mgrwt>
</event>
<event>
 9    1  0.2051157E-002  0.2638886E+03  0.7818608E-02  0.1104829E+00
          1   -1    0    0  501    0  0.00000000000E+00  0.00000000000E+00  0.66834152322E+02  0.66834152322E+02  0.00000000000E+00 0. -1.
         -1   -1    0    0    0  501 -0.00000000000E+00 -0.00000000000E+00 -0.26048509467E+03  0.26048509467E+03  0.00000000000E+00 0. -1.
         36    2    1    2    0    0 -0.35527136788E-14  0.00000000000E+00 -0.19365094235E+03  0.32731924699E+03  0.26388861662E+03 0.  0.
         25    2    3    3    0    0  0.68782670035E+01  0.19945383717E+02 -0.49307091215E+02  0.13220505832E+03  0.12083815338E+03 0.  0.
         25    2    3    3    0    0 -0.68782670035E+01 -0.19945383717E+02 -0.14434385113E+03  0.19511418867E+03  0.12957341692E+03 0.  0.
          5    1    4    4  502    0 -0.28910523084E+02  0.14439323769E+02 -0.78780396328E+02  0.85280438915E+02  0.47000000000E+01 0.  1.
         -5    1    4    4    0  502  0.35788790087E+02  0.55060599477E+01  0.29473305113E+02  0.46924619406E+02  0.47000000000E+01 0.  1.
          5    1    5    5  503    0 -0.30474723693E+02  0.35262873426E+02 -0.10012811553E+02  0.47901204803E+02  0.47000000000E+01 0. -1.
         -5    1    5    5    0  503  0.23596456689E+02 -0.55208257143E+02 -0.13433103958E+03  0.14721298387E+03  0.47000000000E+01 0. -1.
<mgrwt>
<rscale>  0 0.26388862E+03</rscale>
<asrwt>0</asrwt>
<pdfrwt beam="1">  1        1 0.10282177E-01 0.26388862E+03</pdfrwt>
<pdfrwt beam="2">  1       -1 0.40074630E-01 0.26388862E+03</pdfrwt>
<totfact> 0.37764741E+03</totfact>
</mgrwt>
</event>
<event>
 9    1  0.2051157E-002  0.2785877E+03  0.7818608E-02  0.1096463E+00
          1   -1    0    0  501    0  0.00000000000E+00  0.00000000000E+00  0.36489618963E+03  0.36489618963E+03  0.00000000000E+00 0.  1.
         -1   -1    0    0    0  501 -0.00000000000E+00 -0.00000000000E+00 -0.53173426197E+02  0.53173426197E+02  0.00000000000E+00 0.  1.
         36    2    1    2    0    0  0.00000000000E+00  0.00000000000E+00  0.31172276343E+03  0.41806961583E+03  0.27858772844E+03 0.  0.
         25    2    3    3    0    0  0.42828295889E+02 -0.32153050822E+01  0.18270007531E+03  0.22869147869E+03  0.13067468689E+03 0.  0.
         25    2    3    3    0    0 -0.42828295889E+02  0.32153050822E+01  0.12902268812E+03  0.18937813713E+03  0.13180524897E+03 0.  0.
          5    1    4    4  502    0  0.50567091380E+02 -0.55194267521E+02  0.14687233721E+03  0.16491516405E+03  0.47000000000E+01 0. -1.
         -5    1    4    4    0  502 -0.77387954912E+01  0.51978962439E+02  0.35827738104E+02  0.63776314643E+02  0.47000000000E+01 0. -1.
          5    1    5    5  503    0 -0.44044282924E+02 -0.46613981307E+02  0.12320506607E+03  0.13897604260E+03  0.47000000000E+01 0. -1.
         -5    1    5    5    0  503  0.12159870351E+01  0.49829286389E+02  0.58176220493E+01  0.50402094528E+02  0.47000000000E+01 0. -1.
<mgrwt>
<rscale>  0 0.27858773E+03</rscale>
<asrwt>0</asrwt>
<pdfrwt beam="1">  1        1 0.56137874E-01 0.27858773E+03</pdfrwt>
<pdfrwt beam="2">  1       -1 0.81805273E-02 0.27858773E+03</pdfrwt>
<totfact> 0.56445272E+03</totfact>
</mgrwt>
</event>
<event>
 9    1  0.2051157E-002  0.2738321E+03  0.7818608E-02  0.1099106E+00
         -4   -1    0    0    0  501 -0.00000000000E+00  0.00000000000E+00  0.53445579030E+02  0.53445579030E+02  0.00000000000E+00 0. -1.
          4   -1    0    0  501    0  0.00000000000E+00 -0.00000000000E+00 -0.35074948392E+03  0.35074948392E+03  0.00000000000E+00 0. -1.
         36    2    1    2    0    0  0.00000000000E+00  0.00000000000E+00 -0.29730390489E+03  0.40419506295E+03  0.27383213297E+03 0.  0.
         25    2    3    3    0    0  0.65331606158E+01  0.43961218100E+02 -0.20428698535E+03  0.24134051307E+03  0.12056865257E+03 0.  0.
         25    2    3    3    0    0 -0.65331606158E+01 -0.43961218100E+02 -0.93016919537E+02  0.16285454987E+03  0.12607214684E+03 0.  0.
          5    1    4    4  502    0  0.59452742846E+02  0.46007490605E+02 -0.11827011741E+03  0.14021850269E+03  0.47000000000E+01 0.  1.
         -5    1    4    4    0  502 -0.52919582230E+02 -0.20462725053E+01 -0.86016867940E+02  0.10112201039E+03  0.47000000000E+01 0.  1.
          5    1    5    5  503    0 -0.30331195169E+02  0.37384294591E+02 -0.40058168862E+02  0.62803771981E+02  0.47000000000E+01 0.  1.
         -5    1    5    5    0  503  0.23798034554E+02 -0.81345512691E+02 -0.52958750675E+02  0.10005077789E+03  0.47000000000E+01 0.  1.
<mgrwt>
<rscale>  0 0.27383213E+03</rscale>
<asrwt>0</asrwt>
<pdfrwt beam="1">  1        4 0.53961458E-01 0.27383213E+03</pdfrwt>
<pdfrwt beam="2">  1       -4 0.82223970E-02 0.27383213E+03</pdfrwt>
<totfact> 0.65477686E+02</totfact>
</mgrwt>
</event>
<event>
 9    1  0.2051157E-002  0.2752107E+03  0.7818608E-02  0.1098334E+00
          1   -1    0    0  501    0  0.00000000000E+00  0.00000000000E+00  0.21851195491E+03  0.21851195491E+03  0.00000000000E+00 0.  1.
         -1   -1    0    0    0  501 -0.00000000000E+00 -0.00000000000E+00 -0.86655344325E+02  0.86655344325E+02  0.00000000000E+00 0.  1.
         36    2    1    2    0    0  0.00000000000E+00  0.00000000000E+00  0.13185661058E+03  0.30516729923E+03  0.27521067343E+03 0.  0.
         25    2    3    3    0    0  0.43856741056E+02  0.21433588674E+02  0.31081930978E+02  0.13783315980E+03  0.12509628710E+03 0.  0.
         25    2    3    3    0    0 -0.43856741056E+02 -0.21433588674E+02  0.10077467961E+03  0.16733413944E+03  0.12434776119E+03 0.  0.
          5    1    4    4  502    0 -0.23871524899E+02  0.50115625367E+02  0.31764554074E+02  0.64128796203E+02  0.47000000000E+01 0. -1.
         -5    1    4    4    0  502  0.67728265955E+02 -0.28682036694E+02 -0.68262309606E+00  0.73704363592E+02  0.47000000000E+01 0. -1.
          5    1    5    5  503    0  0.22111934125E+02 -0.34770406855E+02  0.89887941227E+02  0.98994195798E+02  0.47000000000E+01 0. -1.
         -5    1    5    5    0  503 -0.65968675182E+02  0.13336818181E+02  0.10886738379E+02  0.68339943642E+02  0.47000000000E+01 0. -1.
<mgrwt>
<rscale>  0 0.27521067E+03</rscale>
<asrwt>0</asrwt>
<pdfrwt beam="1">  1        1 0.33617224E-01 0.27521067E+03</pdfrwt>
<pdfrwt beam="2">  1       -1 0.13331591E-01 0.27521067E+03</pdfrwt>
<totfact> 0.50477524E+03</totfact>
</mgrwt>
</event>
<event>
 9    1  0.2051157E-002  0.2872366E+03  0.7818608E-02  0.1091801E+00
         -2   -1    0    0    0  501 -0.00000000000E+00  0.00000000000E+00  0.62008968373E+02  0.62008968373E+02  0.00000000000E+00 0. -1.
          2   -1    0    0  501    0  0.00000000000E+00 -0.00000000000E+00 -0.33263272759E+03  0.33263272759E+03  0.00000000000E+00 0. -1.
         36    2    1    2    0    0  0.00000000000E+00 -0.71054273576E-14 -0.27062375921E+03  0.39464169596E+03  0.28723657347E+03 0.  0.
         25    2    3    3    0    0 -0.18622260036E+02  0.51502564335E+02 -0.18290654098E+03  0.22866593620E+03  0.12583324259E+03 0.  0.
         25    2    3    3    0    0  0.18622260036E+02 -0.51502564335E+02 -0.87717218233E+02  0.16597575976E+03  0.12982426488E+03 0.  0.
          5    1    4    4  502    0 -0.31736706497E+02  0.22628302886E+02  0.35993767867E+01  0.39424664159E+02  0.47000000000E+01 0. -1.
         -5    1    4    4    0  502  0.13114446461E+02  0.28874261448E+02 -0.18650591777E+03  0.18924127204E+03  0.47000000000E+01 0. -1.
          5    1    5    5  503    0  0.41321944015E+02 -0.23011551689E+02 -0.11218753126E+03  0.12184074335E+03  0.47000000000E+01 0.  1.
         -5    1    5    5    0  503 -0.22699683979E+02 -0.28491012646E+02  0.24470313029E+02  0.44135016416E+02  0.47000000000E+01 0.  1.
<mgrwt>
<rscale>  0 0.28723657E+03</rscale>
<asrwt>0</asrwt>
<pdfrwt beam="1">  1        2 0.51174266E-01 0.28723657E+03</pdfrwt>
<pdfrwt beam="2">  1       -2 0.95398413E-02 0.28723657E+03</pdfrwt>
<totfact> 0.69567117E+03</totfact>
</mgrwt>
</event>
<event>
 9    1  0.2051157E-002  0.2750785E+03  0.7818608E-02  0.1098408E+00
         -3   -1    0    0    0  501 -0.00000000000E+00  0.00000000000E+00  0.26960990560E+03  0.26960990560E+03  0.00000000000E+00 0.  1.
          3   -1    0    0  501    0  0.00000000000E+00 -0.00000000000E+00 -0.70164529412E+02  0.70164529412E+02  0.00000000000E+00 0.  1.
         36    2    1    2    0    0  0.00000000000E+00 -0.71054273576E-14  0.19944537618E+03  0.33977443501E+03  0.27507854988E+03 0.  0.
         25    2    3    3    0    0 -0.22609011192E+02 -0.51060884900E+02  0.92276699908E+02  0.16327346159E+03  0.12257590529E+03 0.  0.
         25    2    3    3    0    0  0.22609011192E+02  0.51060884900E+02  0.10716867627E+03  0.17650097342E+03  0.12864325513E+03 0.  0.
          5    1    4    4  502    0 -0.57804646786E+02 -0.64108926395E+02  0.32144879272E+02  0.92231854025E+02  0.47000000000E+01 0.  1.
         -5    1    4    4    0  502  0.35195635594E+02  0.13048041495E+02  0.60131820636E+02  0.71041607560E+02  0.47000000000E+01 0.  1.
          5    1    5    5  503    0  0.14165063884E+02  0.94118742119E+02  0.81876917587E+02  0.12563799699E+03  0.47000000000E+01 0. -1.
         -5    1    5    5    0  503  0.84439473074E+01 -0.43057857219E+02  0.25291758688E+02  0.50862976436E+02  0.47000000000E+01 0. -1.
<mgrwt>
<rscale>  0 0.27507855E+03</rscale>
<asrwt>0</asrwt>
<pdfrwt beam="1">  1        3 0.10794543E-01 0.27507855E+03</pdfrwt>
<pdfrwt beam="2">  1       -3 0.41478446E-01 0.27507855E+03</pdfrwt>
<totfact> 0.95530523E+02</totfact>
</mgrwt>
</event>
<event>
 9    1  0.2051157E-002  0.2751575E+03  0.7818608E-02  0.1098364E+00
         -2   -1    0    0    0  501 -0.00000000000E+00  0.00000000000E+00  0.78847090819E+02  0.78847090819E+02  0.00000000000E+00 0. -1.
          2   -1    0    0  501    0  0.00000000000E+00 -0.00000000000E+00 -0.24005843116E+03  0.24005843116E+03  0.00000000000E+00 0. -1.
         36    2    1    2    0    0  0.00000000000E+00  0.14210854715E-13 -0.16121134035E+03  0.31890552198E+03  0.27515747436E+03 0.  0.
         25    2    3    3    0    0 -0.20349671285E+02 -0.20332395570E+02 -0.11072691829E+03  0.18071821711E+03  0.13989677669E+03 0.  0.
         25    2    3    3    0    0  0.20349671285E+02  0.20332395570E+02 -0.50484422051E+02  0.13818730487E+03  0.12537758543E+03 0.  0.
          5    1    4    4  502    0  0.13916621890E+02  0.44674768277E+02  0.84786148429E+00  0.47035265010E+02  0.47000000000E+01 0.  1.
         -5    1    4    4    0  502 -0.34266293175E+02 -0.65007163847E+02 -0.11157477978E+03  0.13368295210E+03  0.47000000000E+01 0.  1.
          5    1    5    5  503    0 -0.80730291103E+01  0.70235318558E+02 -0.31262319377E+02  0.77444150101E+02  0.47000000000E+01 0. -1.
         -5    1    5    5    0  503  0.28422700395E+02 -0.49902922989E+02 -0.19222102674E+02  0.60743154773E+02  0.47000000000E+01 0. -1.
<mgrwt>
<rscale>  0 0.27515747E+03</rscale>
<asrwt>0</asrwt>
<pdfrwt beam="1">  1        2 0.36932066E-01 0.27515747E+03</pdfrwt>
<pdfrwt beam="2">  1       -2 0.12130322E-01 0.27515747E+03</pdfrwt>
<totfact> 0.67217802E+03</totfact>
</mgrwt>
</event>
<event>
 9    1  0.2051157E-002  0.2735866E+03  0.7818608E-02  0.1099244E+00
         -2   -1    0    0    0  501 -0.00000000000E+00  0.00000000000E+00  0.20294797578E+02  0.20294797578E+02  0.00000000000E+00 0. -1.
          2   -1    0    0  501    0  0.00000000000E+00 -0.00000000000E+00 -0.92202956435E+03  0.92202956435E+03  0.00000000000E+00 0. -1.
         36    2    1    2    0    0 -0.14210854715E-13  0.00000000000E+00 -0.90173476678E+03  0.94232436193E+03  0.27358657401E+03 0.  0.
         25    2    3    3    0    0 -0.54236235495E+02 -0.10910434739E+02 -0.39585968261E+03  0.41828620688E+03  0.12327958356E+03 0.  0.
         25    2    3    3    0    0  0.54236235495E+02  0.10910434739E+02 -0.50587508417E+03  0.52403815506E+03  0.12508309376E+03 0.  0.
          5    1    4    4  502    0 -0.89642732667E+02  0.14970496058E+02 -0.26422767235E+03  0.27946070942E+03  0.47000000000E+01 0.  1.
         -5    1    4    4    0  502  0.35406497171E+02 -0.25880930797E+02 -0.13163201025E+03  0.13882549746E+03  0.47000000000E+01 0.  1.
          5    1    5    5  503    0 -0.31437423102E+02  0.26077078060E+02 -0.87393073327E+02  0.96581389703E+02  0.47000000000E+01 0. -1.
         -5    1    5    5    0  503  0.85673658597E+02 -0.15166643321E+02 -0.41848201084E+03  0.42745676535E+03  0.47000000000E+01 0. -1.
<mgrwt>
<rscale>  0 0.27358657E+03</rscale>
<asrwt>0</asrwt>
<pdfrwt beam="1">  1        2 0.14185070E+00 0.27358657E+03</pdfrwt>
<pdfrwt beam="2">  1       -2 0.31222767E-02 0.27358657E+03</pdfrwt>
<totfact> 0.11693573E+04</totfact>
</mgrwt>
</event>
<event>
 9    1  0.2051157E-002  0.2757009E+03  0.7818608E-02  0.1098060E+00
         -2   -1    0    0    0  501 -0.00000000000E+00  0.00000000000E+00  0.57509254083E+01  0.57509254083E+01  0.00000000000E+00 0. -1.
          2   -1    0    0  501    0  0.00000000000E+00 -0.00000000000E+00 -0.33042936754E+04  0.33042936754E+04  0.00000000000E+00 0. -1.
         36    2    1    2    0    0  0.71054273576E-14  0.00000000000E+00 -0.32985427500E+04  0.33100446009E+04  0.27570089920E+03 0.  0.
         25    2    3    3    0    0  0.34195749108E+02 -0.51503322402E+02 -0.14706256289E+04  0.14770783136E+04  0.12328285692E+03 0.  0.
         25    2    3    3    0    0 -0.34195749108E+02  0.51503322402E+02 -0.18279171212E+04  0.18329662872E+04  0.12108867327E+03 0.  0.
          5    1    4    4  502    0 -0.28214693998E+02 -0.59311672645E+01 -0.97753715339E+02  0.10202512713E+03  0.47000000000E+01 0.  1.
         -5    1    4    4    0  502  0.62410443106E+02 -0.45572155137E+02 -0.13728719135E+04  0.13750531865E+04  0.47000000000E+01 0.  1.
          5    1    5    5  503    0 -0.19122384606E+02  0.38720695610E+02 -0.18918482242E+03  0.19410807530E+03  0.47000000000E+01 0.  1.
         -5    1    5    5    0  503 -0.15073364502E+02  0.12782626792E+02 -0.16387322988E+04  0.16388582120E+04  0.47000000000E+01 0.  1.
<mgrwt>
<rscale>  0 0.27570090E+03</rscale>
<asrwt>0</asrwt>
<pdfrwt beam="1">  1        2 0.50835461E+00 0.27570090E+03</pdfrwt>
<pdfrwt beam="2">  1       -2 0.88475473E-03 0.27570090E+03</pdfrwt>
<totfact> 0.34568693E+03</totfact>
</mgrwt>
</event>
<event>
 9    1  0.2051157E-002  0.2747581E+03  0.7818608E-02  0.1098587E+00
          2   -1    0    0  501    0  0.00000000000E+00  0.00000000000E+00  0.15185721287E+04  0.15185721287E+04  0.00000000000E+00 0. -1.
         -2   -1    0    0    0  501 -0.00000000000E+00 -0.00000000000E+00 -0.12428121609E+02  0.12428121609E+02  0.00000000000E+00 0. -1.
         36    2    1    2    0    0  0.71054273576E-14  0.00000000000E+00  0.15061440071E+04  0.15310002503E+04  0.27475806876E+03 0.  0.
         25    2    3    3    0    0  0.52588650398E+02  0.37885938384E+01  0.78661233090E+03  0.79851488500E+03  0.12683510103E+03 0.  0.
         25    2    3    3    0    0 -0.52588650398E+02 -0.37885938384E+01  0.71953167622E+03  0.73248536533E+03  0.12660591515E+03 0.  0.
          5    1    4    4  502    0  0.45060697967E+02 -0.39131257145E+02  0.16791926936E+03  0.17827140210E+03  0.47000000000E+01 0.  1.
         -5    1    4    4    0  502  0.75279524305E+01  0.42919850984E+02  0.61869306154E+03  0.62024348289E+03  0.47000000000E+01 0.  1.
          5    1    5    5  503    0 -0.71109661737E+02 -0.35526077979E+02  0.27181669670E+03  0.28324034461E+03  0.47000000000E+01 0. -1.
         -5    1    5    5    0  503  0.18521011339E+02  0.31737484141E+02  0.44771497951E+03  0.44924502072E+03  0.47000000000E+01 0. -1.
<mgrwt>
<rscale>  0 0.27475807E+03</rscale>
<asrwt>0</asrwt>
<pdfrwt beam="1">  1        2 0.23362633E+00 0.27475807E+03</pdfrwt>
<pdfrwt beam="2">  1       -2 0.19120199E-02 0.27475807E+03</pdfrwt>
<totfact> 0.11014796E+04</totfact>
</mgrwt>
</event>
<event>
 9    1  0.2051157E-002  0.2752872E+03  0.7818608E-02  0.1098291E+00
         -2   -1    0    0    0  501 -0.00000000000E+00  0.00000000000E+00  0.85993125345E+03  0.85993125345E+03  0.00000000000E+00 0. -1.
          2   -1    0    0  501    0  0.00000000000E+00 -0.00000000000E+00 -0.22031718034E+02  0.22031718034E+02  0.00000000000E+00 0. -1.
         36    2    1    2    0    0  0.00000000000E+00  0.71054273576E-14  0.83789953542E+03  0.88196297149E+03  0.27528721659E+03 0.  0.
         25    2    3    3    0    0 -0.30159117280E+02 -0.55825976804E+01  0.57477959646E+03  0.58913251415E+03  0.12555794268E+03 0.  0.
         25    2    3    3    0    0  0.30159117280E+02  0.55825976804E+01  0.26311993896E+03  0.29283045734E+03  0.12480719817E+03 0.  0.
          5    1    4    4  502    0 -0.34096588153E+02  0.39360227482E+02  0.49174068263E+03  0.49451268314E+03  0.47000000000E+01 0. -1.
         -5    1    4    4    0  502  0.39374708723E+01 -0.44942825162E+02  0.83038913823E+02  0.94619831004E+02  0.47000000000E+01 0. -1.
          5    1    5    5  503    0  0.11780150784E+02  0.49576791508E+02  0.22735610256E+03  0.23304402498E+03  0.47000000000E+01 0. -1.
         -5    1    5    5    0  503  0.18378966496E+02 -0.43994193828E+02  0.35763836404E+02  0.59786432360E+02  0.47000000000E+01 0. -1.
<mgrwt>
<rscale>  0 0.27528722E+03</rscale>
<asrwt>0</asrwt>
<pdfrwt beam="1">  1        2 0.33894957E-02 0.27528722E+03</pdfrwt>
<pdfrwt beam="2">  1       -2 0.13229709E+00 0.27528722E+03</pdfrwt>
<totfact> 0.11578739E+03</totfact>
</mgrwt>
</event>
<event>
 9    1  0.2051157E-002  0.2721972E+03  0.7818608E-02  0.1100029E+00
          2   -1    0    0  501    0  0.00000000000E+00  0.00000000000E+00  0.29737526940E+04  0.29737526940E+04  0.00000000000E+00 0.  1.
         -2   -1    0    0    0  501 -0.00000000000E+00 -0.00000000000E+00 -0.62287722059E+01  0.62287722059E+01  0.00000000000E+00 0.  1.
         36    2    1    2    0    0  0.88817841970E-15 -0.35527136788E-14  0.29675239218E+04  0.29799814662E+04  0.27219719416E+03 0.  0.
         25    2    3    3    0    0 -0.52461862390E+01  0.11353732939E+02  0.20946397653E+04  0.20981770692E+04  0.12113974554E+03 0.  0.
         25    2    3    3    0    0  0.52461862390E+01 -0.11353732939E+02  0.87288415655E+03  0.88180439698E+03  0.12448218371E+03 0.  0.
          5    1    4    4  502    0  0.50218578587E+02 -0.23281669881E+02  0.85203367953E+03  0.85384273894E+03  0.47000000000E+01 0.  1.
         -5    1    4    4    0  502 -0.55464764826E+02  0.34635402820E+02  0.12426060857E+04  0.12443343303E+04  0.47000000000E+01 0.  1.
          5    1    5    5  503    0  0.24866244888E+01 -0.30485067245E+02  0.85339498491E+03  0.85395586121E+03  0.47000000000E+01 0. -1.
         -5    1    5    5    0  503  0.27595617502E+01  0.19131334306E+02  0.19489171636E+02  0.27848535768E+02  0.47000000000E+01 0. -1.
<mgrwt>
<rscale>  0 0.27219719E+03</rscale>
<asrwt>0</asrwt>
<pdfrwt beam="1">  1        2 0.45749928E+00 0.27219719E+03</pdfrwt>
<pdfrwt beam="2">  1       -2 0.95827502E-03 0.27219719E+03</pdfrwt>
<totfact> 0.48992358E+03</totfact>
</mgrwt>
</event>
<event>
 9    1  0.2051157E-002  0.2756323E+03  0.7818608E-02  0.1098099E+00
          2   -1    0    0  501    0  0.00000000000E+00  0.00000000000E+00  0.16649324568E+03  0.16649324568E+03  0.00000000000E+00 0.  1.
         -2   -1    0    0    0  501 -0.00000000000E+00 -0.00000000000E+00 -0.11407842762E+03  0.11407842762E+03  0.00000000000E+00 0.  1.
         36    2    1    2    0    0  0.14210854715E-13  0.35527136788E-14  0.52414818063E+02  0.28057167331E+03  0.27563227443E+03 0.  0.
         25    2    3    3    0    0 -0.52837641143E+02 -0.10400135625E+02  0.74821958991E+02  0.14818155879E+03  0.11601495454E+03 0.  0.
         25    2    3    3    0    0  0.52837641143E+02  0.10400135625E+02 -0.22407140928E+02  0.13239011451E+03  0.11884899374E+03 0.  0.
          5    1    4    4  502    0  0.32485351586E+02 -0.11788782490E+02  0.43505068941E+00  0.34879115948E+02  0.47000000000E+01 0.  1.
         -5    1    4    4    0  502 -0.85322992728E+02  0.13886468651E+01  0.74386908301E+02  0.11330244285E+03  0.47000000000E+01 0.  1.
          5    1    5    5  503    0  0.67764091699E+02 -0.36003112716E+02  0.35594678844E+01  0.76960743634E+02  0.47000000000E+01 0. -1.
         -5    1    5    5    0  503 -0.14926450557E+02  0.46403248341E+02 -0.25966608812E+02  0.55429370879E+02  0.47000000000E+01 0. -1.
<mgrwt>
<rscale>  0 0.27563227E+03</rscale>
<asrwt>0</asrwt>
<pdfrwt beam="1">  1        2 0.25614345E-01 0.27563227E+03</pdfrwt>
<pdfrwt beam="2">  1       -2 0.17550527E-01 0.27563227E+03</pdfrwt>
<totfact> 0.54629064E+03</totfact>
</mgrwt>
</event>
<event>
 9    1  0.2051157E-002  0.2749385E+03  0.7818608E-02  0.1098486E+00
          2   -1    0    0  501    0  0.00000000000E+00  0.00000000000E+00  0.25863672198E+04  0.25863672198E+04  0.00000000000E+00 0.  1.
         -2   -1    0    0    0  501 -0.00000000000E+00 -0.00000000000E+00 -0.73066965817E+01  0.73066965817E+01  0.00000000000E+00 0.  1.
         36    2    1    2    0    0  0.00000000000E+00  0.35527136788E-14  0.25790605232E+04  0.25936739164E+04  0.27493854240E+03 0.  0.
         25    2    3    3    0    0  0.19485642039E+01  0.25404599405E+02  0.18248070094E+04  0.18291580964E+04  0.12348898559E+03 0.  0.
         25    2    3    3    0    0 -0.19485642039E+01 -0.25404599405E+02  0.75425351379E+03  0.76451581994E+03  0.12221655082E+03 0.  0.
          5    1    4    4  502    0  0.57752658971E+02  0.19665854867E+02  0.61358005072E+03  0.61662361624E+03  0.47000000000E+01 0.  1.
         -5    1    4    4    0  502 -0.55804094767E+02  0.57387445378E+01  0.12112269587E+04  0.12125344802E+04  0.47000000000E+01 0.  1.
          5    1    5    5  503    0 -0.26839492611E+02  0.22881595400E+02  0.59732976331E+03  0.59838855429E+03  0.47000000000E+01 0.  1.
         -5    1    5    5    0  503  0.24890928407E+02 -0.48286194804E+02  0.15692375048E+03  0.16612726565E+03  0.47000000000E+01 0.  1.
<mgrwt>
<rscale>  0 0.27493854E+03</rscale>
<asrwt>0</asrwt>
<pdfrwt beam="1">  1        2 0.39790192E+00 0.27493854E+03</pdfrwt>
<pdfrwt beam="2">  1       -2 0.11241092E-02 0.27493854E+03</pdfrwt>
<totfact> 0.64632634E+03</totfact>
</mgrwt>
</event>
<event>
 9    1  0.2051157E-002  0.2744368E+03  0.7818608E-02  0.1098767E+00
         -2   -1    0    0    0  501 -0.00000000000E+00  0.00000000000E+00  0.21442348678E+02  0.21442348678E+02  0.00000000000E+00 0.  1.
          2   -1    0    0  501    0  0.00000000000E+00 -0.00000000000E+00 -0.87811712262E+03  0.87811712262E+03  0.00000000000E+00 0.  1.
         36    2    1    2    0    0 -0.88817841970E-15  0.71054273576E-14 -0.85667477394E+03  0.89955947129E+03  0.27443683079E+03 0.  0.
         25    2    3    3    0    0  0.20178876706E+01  0.13420761525E+02 -0.56755244865E+03  0.58341790725E+03  0.13444881485E+03 0.  0.
         25    2    3    3    0    0 -0.20178876706E+01 -0.13420761525E+02 -0.28912232528E+03  0.31614156404E+03  0.12715966667E+03 0.  0.
          5    1    4    4  502    0  0.43770713398E+02 -0.37649054732E+02 -0.15251850508E+03  0.16314812614E+03  0.47000000000E+01 0. -1.
         -5    1    4    4    0  502 -0.41752825727E+02  0.51069816257E+02 -0.41503394358E+03  0.42026978111E+03  0.47000000000E+01 0. -1.
          5    1    5    5  503    0  0.29129073151E+01  0.55275665540E+02 -0.94250880519E+02  0.10940385143E+03  0.47000000000E+01 0. -1.
         -5    1    5    5    0  503 -0.49307949858E+01 -0.68696427066E+02 -0.19487144476E+03  0.20673771261E+03  0.47000000000E+01 0. -1.
<mgrwt>
<rscale>  0 0.27443683E+03</rscale>
<asrwt>0</asrwt>
<pdfrwt beam="1">  1        2 0.13509492E+00 0.27443683E+03</pdfrwt>
<pdfrwt beam="2">  1       -2 0.32988234E-02 0.27443683E+03</pdfrwt>
<totfact> 0.11500800E+04</totfact>
</mgrwt>
</event>
<event>
 9    1  0.2051157E-002  0.2778858E+03  0.7818608E-02  0.1096849E+00
          1   -1    0    0  501    0  0.00000000000E+00  0.00000000000E+00  0.11257560363E+04  0.11257560363E+04  0.00000000000E+00 0. -1.
         -1   -1    0    0    0  501 -0.00000000000E+00 -0.00000000000E+00 -0.17148588099E+02  0.17148588099E+02  0.00000000000E+00 0. -1.
         36    2    1    2    0    0  0.71054273576E-14  0.00000000000E+00  0.11086074482E+04  0.11429046244E+04  0.27788577917E+03 0.  0.
         25    2    3    3    0    0 -0.46739101259E+02  0.16088162960E+02  0.55066555300E+03  0.56775687519E+03  0.12911988805E+03 0.  0.
         25    2    3    3    0    0  0.46739101259E+02 -0.16088162960E+02  0.55794189519E+03  0.57514774920E+03  0.13058484761E+03 0.  0.
          5    1    4    4  502    0 -0.74769326933E+02 -0.31236809065E+02  0.37223604460E+03  0.38098287808E+03  0.47000000000E+01 0.  1.
         -5    1    4    4    0  502  0.28030225674E+02  0.47324972026E+02  0.17842950840E+03  0.18677399711E+03  0.47000000000E+01 0.  1.
          5    1    5    5  503    0 -0.42666220670E+02 -0.23351909024E+02  0.22952136456E+03  0.23466543170E+03  0.47000000000E+01 0. -1.
         -5    1    5    5    0  503  0.89405321929E+02  0.72637460639E+01  0.32842053062E+03  0.34048231750E+03  0.47000000000E+01 0. -1.
<mgrwt>
<rscale>  0 0.27788578E+03</rscale>
<asrwt>0</asrwt>
<pdfrwt beam="1">  1        1 0.17319318E+00 0.27788578E+03</pdfrwt>
<pdfrwt beam="2">  1       -1 0.26382452E-02 0.27788578E+03</pdfrwt>
<totfact> 0.58968074E+03</totfact>
</mgrwt>
</event>
<event>
 9    1  0.2051157E-002  0.2766590E+03  0.7818608E-02  0.1097528E+00
          2   -1    0    0  501    0  0.00000000000E+00  0.00000000000E+00  0.10489166856E+04  0.10489166856E+04  0.00000000000E+00 0. -1.
         -2   -1    0    0    0  501 -0.00000000000E+00 -0.00000000000E+00 -0.18242681032E+02  0.18242681032E+02  0.00000000000E+00 0. -1.
         36    2    1    2    0    0  0.00000000000E+00 -0.14210854715E-13  0.10306740045E+04  0.10671593666E+04  0.27665901412E+03 0.  0.
         25    2    3    3    0    0 -0.18326436704E+02 -0.39701632786E+02  0.29561513994E+03  0.32047668811E+03  0.11577961276E+03 0.  0.
         25    2    3    3    0    0  0.18326436704E+02  0.39701632786E+02  0.73505886457E+03  0.74668267847E+03  0.12373928241E+03 0.  0.
          5    1    4    4  502    0 -0.27732017315E+02  0.26245455450E+02  0.20111978055E+03  0.20476607347E+03  0.47000000000E+01 0.  1.
         -5    1    4    4    0  502  0.94055806113E+01 -0.65947088236E+02  0.94495359393E+02  0.11571061464E+03  0.47000000000E+01 0.  1.
          5    1    5    5  503    0  0.41427543181E+02  0.52703886716E+02  0.69604356230E+03  0.69928010956E+03  0.47000000000E+01 0.  1.
         -5    1    5    5    0  503 -0.23101106477E+02 -0.13002253930E+02  0.39015302272E+02  0.47402568908E+02  0.47000000000E+01 0.  1.
<mgrwt>
<rscale>  0 0.27665901E+03</rscale>
<asrwt>0</asrwt>
<pdfrwt beam="1">  1        2 0.16137175E+00 0.27665901E+03</pdfrwt>
<pdfrwt beam="2">  1       -2 0.28065671E-02 0.27665901E+03</pdfrwt>
<totfact> 0.11445350E+04</totfact>
</mgrwt>
</event>
<event>
 9    1  0.2051157E-002  0.2695963E+03  0.7818608E-02  0.1101511E+00
          2   -1    0    0  501    0  0.00000000000E+00  0.00000000000E+00  0.27128310696E+03  0.27128310696E+03  0.00000000000E+00 0.  1.
         -2   -1    0    0    0  501 -0.00000000000E+00 -0.00000000000E+00 -0.66979982506E+02  0.66979982506E+02  0.00000000000E+00 0.  1.
         36    2    1    2    0    0  0.00000000000E+00  0.79936057773E-14  0.20430312445E+03  0.33826308947E+03  0.26959627415E+03 0.  0.
         25    2    3    3    0    0 -0.18108488730E+02 -0.22970018921E+01  0.90025571178E+02  0.16576279617E+03  0.13798372203E+03 0.  0.
         25    2    3    3    0    0  0.18108488730E+02  0.22970018921E+01  0.11427755328E+03  0.17250029330E+03  0.12792106325E+03 0.  0.
          5    1    4    4  502    0 -0.18610362910E+02 -0.68085004368E+02  0.30935738462E+02  0.77207663749E+02  0.47000000000E+01 0.  1.
         -5    1    4    4    0  502  0.50187418036E+00  0.65788002476E+02  0.59089832716E+02  0.88555132419E+02  0.47000000000E+01 0.  1.
          5    1    5    5  503    0 -0.13131738498E+02  0.38345507276E+01 -0.25430536619E+02  0.29256598024E+02  0.47000000000E+01 0.  1.
         -5    1    5    5    0  503  0.31240227228E+02 -0.15375488355E+01  0.13970808989E+03  0.14324369527E+03  0.47000000000E+01 0.  1.
<mgrwt>
<rscale>  0 0.26959627E+03</rscale>
<asrwt>0</asrwt>
<pdfrwt beam="1">  1        2 0.41735862E-01 0.26959627E+03</pdfrwt>
<pdfrwt beam="2">  1       -2 0.10304613E-01 0.26959627E+03</pdfrwt>
<totfact> 0.76469004E+03</totfact>
</mgrwt>
</event>
<event>
 9    1  0.2051157E-002  0.2747336E+03  0.7818608E-02  0.1098601E+00
          3   -1    0    0  501    0  0.00000000000E+00  0.00000000000E+00  0.84250623592E+03  0.84250623592E+03  0.00000000000E+00 0. -1.
         -3   -1    0    0    0  501 -0.00000000000E+00 -0.00000000000E+00 -0.22397029352E+02  0.22397029352E+02  0.00000000000E+00 0. -1.
         36    2    1    2    0    0  0.00000000000E+00  0.00000000000E+00  0.82010920657E+03  0.86490326528E+03  0.27473359383E+03 0.  0.
         25    2    3    3    0    0  0.11155139108E+02 -0.37192883543E+02  0.31269028854E+03  0.34112275812E+03  0.13069725263E+03 0.  0.
         25    2    3    3    0    0 -0.11155139108E+02  0.37192883543E+02  0.50741891804E+03  0.52378050716E+03  0.12395286839E+03 0.  0.
          5    1    4    4  502    0 -0.28596159180E+02  0.22709557239E+02  0.22329282535E+03  0.22630784379E+03  0.47000000000E+01 0. -1.
         -5    1    4    4    0  502  0.39751298287E+02 -0.59902440782E+02  0.89397463190E+02  0.11481491433E+03  0.47000000000E+01 0. -1.
          5    1    5    5  503    0 -0.28465653110E+02  0.55565708118E+02  0.48690878970E+03  0.49091761103E+03  0.47000000000E+01 0.  1.
         -5    1    5    5    0  503  0.17310514003E+02 -0.18372824574E+02  0.20510128332E+02  0.32862896130E+02  0.47000000000E+01 0.  1.
<mgrwt>
<rscale>  0 0.27473359E+03</rscale>
<asrwt>0</asrwt>
<pdfrwt beam="1">  1        3 0.12961632E+00 0.27473359E+03</pdfrwt>
<pdfrwt beam="2">  1       -3 0.34456975E-02 0.27473359E+03</pdfrwt>
<totfact> 0.51250821E+02</totfact>
</mgrwt>
</event>
<event>
 9    1  0.2051157E-002  0.2883910E+03  0.7818608E-02  0.1091192E+00
         -1   -1    0    0    0  501 -0.00000000000E+00  0.00000000000E+00  0.11560496709E+02  0.11560496709E+02  0.00000000000E+00 0.  1.
          1   -1    0    0  501    0  0.00000000000E+00 -0.00000000000E+00 -0.17985681384E+04  0.17985681384E+04  0.00000000000E+00 0.  1.
         36    2    1    2    0    0  0.00000000000E+00  0.14210854715E-13 -0.17870076417E+04  0.18101286351E+04  0.28839099185E+03 0.  0.
         25    2    3    3    0    0  0.50331270588E+02 -0.26003984345E+02 -0.63328057571E+03  0.64832909038E+03  0.12679462867E+03 0.  0.
         25    2    3    3    0    0 -0.50331270588E+02  0.26003984345E+02 -0.11537270660E+04  0.11617995447E+04  0.12442907762E+03 0.  0.
          5    1    4    4  502    0 -0.20581227563E+02  0.22586242437E+02 -0.37088453973E+03  0.37217087081E+03  0.47000000000E+01 0.  1.
         -5    1    4    4    0  502  0.70912498151E+02 -0.48590226782E+02 -0.26239603599E+03  0.27615821957E+03  0.47000000000E+01 0.  1.
          5    1    5    5  503    0 -0.72757799535E+01  0.66554989021E+02 -0.82778164754E+03  0.83049807317E+03  0.47000000000E+01 0.  1.
         -5    1    5    5    0  503 -0.43055490635E+02 -0.40551004676E+02 -0.32594541843E+03  0.33130147155E+03  0.47000000000E+01 0.  1.
<mgrwt>
<rscale>  0 0.28839099E+03</rscale>
<asrwt>0</asrwt>
<pdfrwt beam="1">  1        1 0.27670250E+00 0.28839099E+03</pdfrwt>
<pdfrwt beam="2">  1       -1 0.17785398E-02 0.28839099E+03</pdfrwt>
<totfact> 0.37124307E+03</totfact>
</mgrwt>
</event>
<event>
 9    1  0.2051157E-002  0.2754030E+03  0.7818608E-02  0.1098227E+00
          2   -1    0    0  501    0  0.00000000000E+00  0.00000000000E+00  0.83721098627E+03  0.83721098627E+03  0.00000000000E+00 0.  1.
         -2   -1    0    0    0  501 -0.00000000000E+00 -0.00000000000E+00 -0.22648650588E+02  0.22648650588E+02  0.00000000000E+00 0.  1.
         36    2    1    2    0    0 -0.71054273576E-14  0.35527136788E-14  0.81456233569E+03  0.85985963686E+03  0.27540297091E+03 0.  0.
         25    2    3    3    0    0 -0.54861793798E+02 -0.10133812552E+01  0.41426494779E+03  0.43716459419E+03  0.12840012494E+03 0.  0.
         25    2    3    3    0    0  0.54861793798E+02  0.10133812552E+01  0.40029738789E+03  0.42269504267E+03  0.12418638003E+03 0.  0.
          5    1    4    4  502    0 -0.20346558644E+02  0.22225915542E+02  0.12074699667E+02  0.32800337535E+02  0.47000000000E+01 0.  1.
         -5    1    4    4    0  502 -0.34515235154E+02 -0.23239296797E+02  0.40219024813E+03  0.40436425666E+03  0.47000000000E+01 0.  1.
          5    1    5    5  503    0  0.74118077379E+02  0.43723855672E+02  0.21805664489E+03  0.23446973223E+03  0.47000000000E+01 0. -1.
         -5    1    5    5    0  503 -0.19256283581E+02 -0.42710474417E+02  0.18224074300E+03  0.18822531044E+03  0.47000000000E+01 0. -1.
<mgrwt>
<rscale>  0 0.27540297E+03</rscale>
<asrwt>0</asrwt>
<pdfrwt beam="1">  1        2 0.12880167E+00 0.27540297E+03</pdfrwt>
<pdfrwt beam="2">  1       -2 0.34844084E-02 0.27540297E+03</pdfrwt>
<totfact> 0.11282190E+04</totfact>
</mgrwt>
</event>
<event>
 9    1  0.2051157E-002  0.2757012E+03  0.7818608E-02  0.1098060E+00
         -1   -1    0    0    0  501 -0.00000000000E+00  0.00000000000E+00  0.81523610362E+03  0.81523610362E+03  0.00000000000E+00 0.  1.
          1   -1    0    0  501    0  0.00000000000E+00 -0.00000000000E+00 -0.23309556249E+02  0.23309556249E+02  0.00000000000E+00 0.  1.
         36    2    1    2    0    0  0.00000000000E+00  0.00000000000E+00  0.79192654737E+03  0.83854565987E+03  0.27570122824E+03 0.  0.
         25    2    3    3    0    0 -0.32871365503E+02  0.49263895750E+02  0.36028909182E+03  0.38552055193E+03  0.12373523418E+03 0.  0.
         25    2    3    3    0    0  0.32871365503E+02 -0.49263895750E+02  0.43163745555E+03  0.45302510794E+03  0.12415070397E+03 0.  0.
          5    1    4    4  502    0  0.10238128068E+02 -0.28702838903E+02  0.28646981230E+02  0.42088142761E+02  0.47000000000E+01 0. -1.
         -5    1    4    4    0  502 -0.43109493572E+02  0.77966734654E+02  0.33164211059E+03  0.34343240917E+03  0.47000000000E+01 0. -1.
          5    1    5    5  503    0  0.36741432162E+02  0.54640447881E+01  0.36347798513E+03  0.36540131951E+03  0.47000000000E+01 0. -1.
         -5    1    5    5    0  503 -0.38700666586E+01 -0.54727940538E+02  0.68159470415E+02  0.87623788430E+02  0.47000000000E+01 0. -1.
<mgrwt>
<rscale>  0 0.27570123E+03</rscale>
<asrwt>0</asrwt>
<pdfrwt beam="1">  1        1 0.35860862E-02 0.27570123E+03</pdfrwt>
<pdfrwt beam="2">  1       -1 0.12542092E+00 0.27570123E+03</pdfrwt>
<totfact> 0.15749512E+03</totfact>
</mgrwt>
</event>
<event>
 9    1  0.2051157E-002  0.2741947E+03  0.7818608E-02  0.1098903E+00
          1   -1    0    0  501    0  0.00000000000E+00  0.00000000000E+00  0.11216420044E+03  0.11216420044E+03  0.00000000000E+00 0. -1.
         -1   -1    0    0    0  501 -0.00000000000E+00 -0.00000000000E+00 -0.16757287549E+03  0.16757287549E+03  0.00000000000E+00 0. -1.
         36    2    1    2    0    0  0.00000000000E+00  0.71054273576E-14 -0.55408675054E+02  0.27973707593E+03  0.27419465782E+03 0.  0.
         25    2    3    3    0    0 -0.32523231977E+02  0.31617211890E+02 -0.25362102501E+02  0.14289454851E+03  0.13310975563E+03 0.  0.
         25    2    3    3    0    0  0.32523231977E+02 -0.31617211890E+02 -0.30046572553E+02  0.13684252742E+03  0.12556142753E+03 0.  0.
          5    1    4    4  502    0  0.39934157868E+02  0.21069981807E+02 -0.48042561987E+02  0.66097343821E+02  0.47000000000E+01 0. -1.
         -5    1    4    4    0  502 -0.72457389845E+02  0.10547230083E+02  0.22680459486E+02  0.76797204689E+02  0.47000000000E+01 0. -1.
          5    1    5    5  503    0  0.37016756380E+02  0.40952189014E+02  0.56835253940E+01  0.55693038154E+02  0.47000000000E+01 0.  1.
         -5    1    5    5    0  503 -0.44935244030E+01 -0.72569400904E+02 -0.35730097947E+02  0.81149489267E+02  0.47000000000E+01 0.  1.
<mgrwt>
<rscale>  0 0.27419466E+03</rscale>
<asrwt>0</asrwt>
<pdfrwt beam="1">  1        1 0.17256031E-01 0.27419466E+03</pdfrwt>
<pdfrwt beam="2">  1       -1 0.25780442E-01 0.27419466E+03</pdfrwt>
<totfact> 0.40707648E+03</totfact>
</mgrwt>
</event>
<event>
 8    1  0.2051157E-002  0.2596599E+03  0.7818608E-02  0.1107348E+00
         -2   -1    0    0    0  501 -0.00000000000E+00  0.00000000000E+00  0.85704950895E+01  0.85704950895E+01  0.00000000000E+00 0. -1.
          2   -1    0    0  501    0  0.00000000000E+00 -0.00000000000E+00 -0.19667257866E+04  0.19667257866E+04  0.00000000000E+00 0. -1.
         25    2    1    2    0    0  0.79196103415E+01  0.28517712669E+02 -0.81105594204E+03  0.82118365054E+03  0.12511940952E+03 0.  0.
         25    2    1    2    0    0 -0.79196103415E+01 -0.28517712669E+02 -0.11470993495E+04  0.11541126311E+04  0.12354378839E+03 0.  0.
          5    1    3    3  502    0  0.61034925634E+02  0.13420303814E+02 -0.26439410889E+03  0.27171989533E+03  0.47000000000E+01 0.  1.
         -5    1    3    3    0  502 -0.53115315293E+02  0.15097408855E+02 -0.54666183315E+03  0.54946375521E+03  0.47000000000E+01 0.  1.
          5    1    4    4  503    0  0.14384242749E+02  0.13646698898E+02 -0.31703534675E+02  0.37687437445E+02  0.47000000000E+01 0.  1.
         -5    1    4    4    0  503 -0.22303853090E+02 -0.42164411567E+02 -0.11153958148E+04  0.11164251937E+04  0.47000000000E+01 0.  1.
<mgrwt>
<rscale>  0 0.25965988E+03</rscale>
<asrwt>0</asrwt>
<pdfrwt beam="1">  1        2 0.30257338E+00 0.25965988E+03</pdfrwt>
<pdfrwt beam="2">  1       -2 0.13185369E-02 0.25965988E+03</pdfrwt>
<totfact> 0.11008465E+04</totfact>
</mgrwt>
</event>
<event>
 9    1  0.2051157E-002  0.2733432E+03  0.7818608E-02  0.1099381E+00
          1   -1    0    0  501    0  0.00000000000E+00  0.00000000000E+00  0.46263071954E+03  0.46263071954E+03  0.00000000000E+00 0.  1.
         -1   -1    0    0    0  501 -0.00000000000E+00 -0.00000000000E+00 -0.40375902004E+02  0.40375902004E+02  0.00000000000E+00 0.  1.
         36    2    1    2    0    0  0.00000000000E+00  0.00000000000E+00  0.42225481754E+03  0.50300662154E+03  0.27334324646E+03 0.  0.
         25    2    3    3    0    0  0.18942800363E+02  0.40456649212E+02  0.22401816119E+03  0.26170391007E+03  0.12770759510E+03 0.  0.
         25    2    3    3    0    0 -0.18942800363E+02 -0.40456649212E+02  0.19823665634E+03  0.24130271148E+03  0.13012938369E+03 0.  0.
          5    1    4    4  502    0 -0.39654677946E+02  0.81500284802E+01  0.17215779313E+03  0.17691611623E+03  0.47000000000E+01 0.  1.
         -5    1    4    4    0  502  0.58597478309E+02  0.32306620732E+02  0.51860368065E+02  0.84787793833E+02  0.47000000000E+01 0.  1.
          5    1    5    5  503    0 -0.69192338492E+00  0.23503445733E+01 -0.18671442377E+02  0.19409163764E+02  0.47000000000E+01 0. -1.
         -5    1    5    5    0  503 -0.18250876978E+02 -0.42806993785E+02  0.21690809872E+03  0.22189354771E+03  0.47000000000E+01 0. -1.
<mgrwt>
<rscale>  0 0.27334325E+03</rscale>
<asrwt>0</asrwt>
<pdfrwt beam="1">  1        1 0.71173953E-01 0.27334325E+03</pdfrwt>
<pdfrwt beam="2">  1       -1 0.62116776E-02 0.27334325E+03</pdfrwt>
<totfact> 0.63138360E+03</totfact>
</mgrwt>
</event>
<event>
 9    1  0.2051157E-002  0.2751300E+03  0.7818608E-02  0.1098379E+00
         -2   -1    0    0    0  501 -0.00000000000E+00  0.00000000000E+00  0.19612829902E+02  0.19612829902E+02  0.00000000000E+00 0.  1.
          2   -1    0    0  501    0  0.00000000000E+00 -0.00000000000E+00 -0.96488529915E+03  0.96488529915E+03  0.00000000000E+00 0.  1.
         36    2    1    2    0    0 -0.14210854715E-13  0.00000000000E+00 -0.94527246925E+03  0.98449812906E+03  0.27513001470E+03 0.  0.
         25    2    3    3    0    0  0.89033256913E+02 -0.79302203850E+01 -0.46473956524E+03  0.48580803056E+03  0.10971221364E+03 0.  0.
         25    2    3    3    0    0 -0.89033256913E+02  0.79302203850E+01 -0.48053290401E+03  0.49869009850E+03  0.98945102309E+02 0.  0.
          5    1    4    4  502    0 -0.91670176791E+01 -0.37256243938E+02 -0.11425798351E+03  0.12061939613E+03  0.47000000000E+01 0.  1.
         -5    1    4    4    0  502  0.98200274592E+02  0.29326023553E+02 -0.35048158173E+03  0.36518863443E+03  0.47000000000E+01 0.  1.
          5    1    5    5  503    0 -0.36707364659E+02  0.43333899200E+02 -0.12263382623E+03  0.13522722646E+03  0.47000000000E+01 0.  1.
         -5    1    5    5    0  503 -0.52325892254E+02 -0.35403678815E+02 -0.35789907779E+03  0.36346287204E+03  0.47000000000E+01 0.  1.
<mgrwt>
<rscale>  0 0.27513001E+03</rscale>
<asrwt>0</asrwt>
<pdfrwt beam="1">  1        2 0.14844394E+00 0.27513001E+03</pdfrwt>
<pdfrwt beam="2">  1       -2 0.30173574E-02 0.27513001E+03</pdfrwt>
<totfact> 0.11564437E+04</totfact>
</mgrwt>
</event>
<event>
 9    1  0.2051157E-002  0.2752471E+03  0.7818608E-02  0.1098314E+00
         -2   -1    0    0    0  501 -0.00000000000E+00  0.00000000000E+00  0.18714562818E+02  0.18714562818E+02  0.00000000000E+00 0.  1.
          2   -1    0    0  501    0  0.00000000000E+00 -0.00000000000E+00 -0.10120593440E+04  0.10120593440E+04  0.00000000000E+00 0.  1.
         36    2    1    2    0    0  0.00000000000E+00  0.35527136788E-14 -0.99334478116E+03  0.10307739068E+04  0.27524714835E+03 0.  0.
         25    2    3    3    0    0 -0.42023162677E+02  0.16885522719E+02 -0.37382399608E+03  0.39685238000E+03  0.12528513235E+03 0.  0.
         25    2    3    3    0    0  0.42023162677E+02 -0.16885522719E+02 -0.61952078508E+03  0.63392152680E+03  0.12648886081E+03 0.  0.
          5    1    4    4  502    0 -0.19479500951E+01  0.65954585183E+02 -0.14506065519E+03  0.15943175813E+03  0.47000000000E+01 0.  1.
         -5    1    4    4    0  502 -0.40075212582E+02 -0.49069062464E+02 -0.22876334089E+03  0.23742062187E+03  0.47000000000E+01 0.  1.
          5    1    5    5  503    0  0.12647446528E+02  0.29785846194E+02 -0.39555570057E+02  0.51321415215E+02  0.47000000000E+01 0. -1.
         -5    1    5    5    0  503  0.29375716149E+02 -0.46671368913E+02 -0.57996521503E+03  0.58260011158E+03  0.47000000000E+01 0. -1.
<mgrwt>
<rscale>  0 0.27524715E+03</rscale>
<asrwt>0</asrwt>
<pdfrwt beam="1">  1        2 0.15570146E+00 0.27524715E+03</pdfrwt>
<pdfrwt beam="2">  1       -2 0.28791630E-02 0.27524715E+03</pdfrwt>
<totfact> 0.11597232E+04</totfact>
</mgrwt>
</event>
<event>
 9    1  0.2051157E-002  0.2751982E+03  0.7818608E-02  0.1098341E+00
         -1   -1    0    0    0  501 -0.00000000000E+00  0.00000000000E+00  0.10858941146E+03  0.10858941146E+03  0.00000000000E+00 0.  1.
          1   -1    0    0  501    0  0.00000000000E+00 -0.00000000000E+00 -0.17435875223E+03  0.17435875223E+03  0.00000000000E+00 0.  1.
         36    2    1    2    0    0  0.00000000000E+00 -0.71054273576E-14 -0.65769340762E+02  0.28294816369E+03  0.27519821429E+03 0.  0.
         25    2    3    3    0    0  0.23364676381E+02 -0.35117726343E+02 -0.32457501104E+02  0.13542568325E+03  0.12452896651E+03 0.  0.
         25    2    3    3    0    0 -0.23364676381E+02  0.35117726343E+02 -0.33311839658E+02  0.14752248044E+03  0.13738282559E+03 0.  0.
          5    1    4    4  502    0 -0.54498957147E+01  0.35486909428E+02  0.21296643946E+02  0.42007846260E+02  0.47000000000E+01 0. -1.
         -5    1    4    4    0  502  0.28814572095E+02 -0.70604635771E+02 -0.53754145050E+02  0.93417836988E+02  0.47000000000E+01 0. -1.
          5    1    5    5  503    0  0.83562431929E+01  0.21545212114E+01  0.50755894652E+02  0.51698352042E+02  0.47000000000E+01 0.  1.
         -5    1    5    5    0  503 -0.31720919573E+02  0.32963205132E+02 -0.84067734310E+02  0.95824128398E+02  0.47000000000E+01 0.  1.
<mgrwt>
<rscale>  0 0.27519821E+03</rscale>
<asrwt>0</asrwt>
<pdfrwt beam="1">  1        1 0.26824423E-01 0.27519821E+03</pdfrwt>
<pdfrwt beam="2">  1       -1 0.16706064E-01 0.27519821E+03</pdfrwt>
<totfact> 0.46922161E+03</totfact>
</mgrwt>
</event>
<event>
 9    1  0.2051157E-002  0.2789001E+03  0.7818608E-02  0.1096291E+00
          2   -1    0    0  501    0  0.00000000000E+00  0.00000000000E+00  0.73874007021E+03  0.73874007021E+03  0.00000000000E+00 0. -1.
         -2   -1    0    0    0  501 -0.00000000000E+00 -0.00000000000E+00 -0.26323618970E+02  0.26323618970E+02  0.00000000000E+00 0. -1.
         36    2    1    2    0    0  0.00000000000E+00  0.71054273576E-14  0.71241645124E+03  0.76506368918E+03  0.27890006903E+03 0.  0.
         25    2    3    3    0    0  0.73070656600E+01 -0.34298997573E+02  0.32775184808E+03  0.35267909926E+03  0.12542511191E+03 0.  0.
         25    2    3    3    0    0 -0.73070656600E+01  0.34298997573E+02  0.38466460317E+03  0.41238458992E+03  0.14444507133E+03 0.  0.
          5    1    4    4  502    0 -0.32795763907E+02 -0.69247627737E+02  0.19889246881E+03  0.21319263643E+03  0.47000000000E+01 0.  1.
         -5    1    4    4    0  502  0.40102829567E+02  0.34948630164E+02  0.12885937927E+03  0.13948646284E+03  0.47000000000E+01 0.  1.
          5    1    5    5  503    0 -0.40164495489E+01  0.25046823545E+02 -0.17113894593E+01  0.25855252669E+02  0.47000000000E+01 0.  1.
         -5    1    5    5    0  503 -0.32906161111E+01  0.92521740281E+01  0.38637599262E+03  0.38652933725E+03  0.47000000000E+01 0.  1.
<mgrwt>
<rscale>  0 0.27890007E+03</rscale>
<asrwt>0</asrwt>
<pdfrwt beam="1">  1        2 0.11365230E+00 0.27890007E+03</pdfrwt>
<pdfrwt beam="2">  1       -2 0.40497881E-02 0.27890007E+03</pdfrwt>
<totfact> 0.10552282E+04</totfact>
</mgrwt>
</event>
<event>
 9    1  0.2051157E-002  0.2755576E+03  0.7818608E-02  0.1098140E+00
          1   -1    0    0  501    0  0.00000000000E+00  0.00000000000E+00  0.11099566376E+04  0.11099566376E+04  0.00000000000E+00 0. -1.
         -1   -1    0    0    0  501 -0.00000000000E+00 -0.00000000000E+00 -0.17102467268E+02  0.17102467268E+02  0.00000000000E+00 0. -1.
         36    2    1    2    0    0 -0.35527136788E-14  0.00000000000E+00  0.10928541703E+04  0.11270591048E+04  0.27555759516E+03 0.  0.
         25    2    3    3    0    0 -0.74205363622E+01  0.44692824418E+02  0.30496921238E+03  0.32795530584E+03  0.11178528175E+03 0.  0.
         25    2    3    3    0    0  0.74205363622E+01 -0.44692824418E+02  0.78788495793E+03  0.79910379900E+03  0.12550562432E+03 0.  0.
          5    1    4    4  502    0  0.26003447295E+02  0.43641256445E+02  0.52383506100E+02  0.73122228129E+02  0.47000000000E+01 0.  1.
         -5    1    4    4    0  502 -0.33423983658E+02  0.10515679737E+01  0.25258570628E+03  0.25483307771E+03  0.47000000000E+01 0.  1.
          5    1    5    5  503    0  0.33515524142E+02 -0.41438474118E+02  0.75427713449E+03  0.75617228401E+03  0.47000000000E+01 0. -1.
         -5    1    5    5    0  503 -0.26094987779E+02 -0.32543503002E+01  0.33607823440E+02  0.42931514992E+02  0.47000000000E+01 0. -1.
<mgrwt>
<rscale>  0 0.27555760E+03</rscale>
<asrwt>0</asrwt>
<pdfrwt beam="1">  1        1 0.17076250E+00 0.27555760E+03</pdfrwt>
<pdfrwt beam="2">  1       -1 0.26311497E-02 0.27555760E+03</pdfrwt>
<totfact> 0.60757151E+03</totfact>
</mgrwt>
</event>
<event>
 9    1  0.2051157E-002  0.2748937E+03  0.7818608E-02  0.1098511E+00
          2   -1    0    0  501    0  0.00000000000E+00  0.00000000000E+00  0.18525869987E+04  0.18525869987E+04  0.00000000000E+00 0.  1.
         -2   -1    0    0    0  501 -0.00000000000E+00 -0.00000000000E+00 -0.10197435413E+02  0.10197435413E+02  0.00000000000E+00 0.  1.
         36    2    1    2    0    0 -0.71054273576E-14  0.00000000000E+00  0.18423895633E+04  0.18627844341E+04  0.27489369775E+03 0.  0.
         25    2    3    3    0    0  0.39148467650E+02 -0.39238006162E+02  0.10068758907E+04  0.10162829063E+04  0.12633155848E+03 0.  0.
         25    2    3    3    0    0 -0.39148467650E+02  0.39238006162E+02  0.83551367257E+03  0.84650152782E+03  0.12413507120E+03 0.  0.
          5    1    4    4  502    0  0.50713149541E+02 -0.70965949767E+02  0.89688718906E+03  0.90113079487E+03  0.47000000000E+01 0.  1.
         -5    1    4    4    0  502 -0.11564681892E+02  0.31727943605E+02  0.10998870163E+03  0.11515211139E+03  0.47000000000E+01 0.  1.
          5    1    5    5  503    0 -0.76106172136E+02 -0.25496432409E+01  0.57506968733E+03  0.58010851175E+03  0.47000000000E+01 0.  1.
         -5    1    5    5    0  503  0.36957704487E+02  0.41787649403E+02  0.26044398524E+03  0.26639301607E+03  0.47000000000E+01 0.  1.
<mgrwt>
<rscale>  0 0.27489370E+03</rscale>
<asrwt>0</asrwt>
<pdfrwt beam="1">  1        2 0.28501312E+00 0.27489370E+03</pdfrwt>
<pdfrwt beam="2">  1       -2 0.15688377E-02 0.27489370E+03</pdfrwt>
<totfact> 0.98105914E+03</totfact>
</mgrwt>
</event>
<event>
 9    1  0.2051157E-002  0.2753303E+03  0.7818608E-02  0.1098267E+00
          2   -1    0    0  501    0  0.00000000000E+00  0.00000000000E+00  0.27827161176E+04  0.27827161176E+04  0.00000000000E+00 0. -1.
         -2   -1    0    0    0  501 -0.00000000000E+00 -0.00000000000E+00 -0.68105003098E+01  0.68105003098E+01  0.00000000000E+00 0. -1.
         36    2    1    2    0    0  0.00000000000E+00  0.14210854715E-13  0.27759056173E+04  0.27895266179E+04  0.27533026699E+03 0.  0.
         25    2    3    3    0    0  0.18076713805E+02  0.48564682520E+02  0.11250786858E+04  0.11329481200E+04  0.12281733414E+03 0.  0.
         25    2    3    3    0    0 -0.18076713805E+02 -0.48564682520E+02  0.16508269315E+04  0.16565784979E+04  0.12781809650E+03 0.  0.
          5    1    4    4  502    0 -0.83177702041E+00 -0.69661847247E+01  0.90784261262E+03  0.90788188597E+03  0.47000000000E+01 0. -1.
         -5    1    4    4    0  502  0.18908490825E+02  0.55530867245E+02  0.21723607314E+03  0.22506623407E+03  0.47000000000E+01 0. -1.
          5    1    5    5  503    0  0.45064487573E+02  0.15457033496E+02  0.56487334068E+03  0.56689832328E+03  0.47000000000E+01 0.  1.
         -5    1    5    5    0  503 -0.63141201377E+02 -0.64021716016E+02  0.10859535908E+04  0.10896801746E+04  0.47000000000E+01 0.  1.
<mgrwt>
<rscale>  0 0.27533027E+03</rscale>
<asrwt>0</asrwt>
<pdfrwt beam="1">  1        2 0.42810926E+00 0.27533027E+03</pdfrwt>
<pdfrwt beam="2">  1       -2 0.10477715E-02 0.27533027E+03</pdfrwt>
<totfact> 0.55526098E+03</totfact>
</mgrwt>
</event>
<event>
 9    1  0.2051157E-002  0.2749357E+03  0.7818608E-02  0.1098488E+00
          1   -1    0    0  501    0  0.00000000000E+00  0.00000000000E+00  0.26697302355E+03  0.26697302355E+03  0.00000000000E+00 0. -1.
         -1   -1    0    0    0  501 -0.00000000000E+00 -0.00000000000E+00 -0.70783963982E+02  0.70783963982E+02  0.00000000000E+00 0. -1.
         36    2    1    2    0    0  0.35527136788E-14 -0.53290705182E-14  0.19618905956E+03  0.33775698753E+03  0.27493569345E+03 0.  0.
         25    2    3    3    0    0 -0.18122737189E+02 -0.35970390794E+01  0.18192539910E+03  0.22038899795E+03  0.12301661387E+03 0.  0.
         25    2    3    3    0    0  0.18122737189E+02  0.35970390794E+01  0.14263660465E+02  0.11736798957E+03  0.11502356573E+03 0.  0.
          5    1    4    4  502    0 -0.15435438364E+02  0.46158336003E+02  0.15707549198E+03  0.16451031858E+03  0.47000000000E+01 0.  1.
         -5    1    4    4    0  502 -0.26872988251E+01 -0.49755375082E+02  0.24849907122E+02  0.55878679373E+02  0.47000000000E+01 0.  1.
          5    1    5    5  503    0  0.26427944069E+02  0.19450167584E+02 -0.44653952392E+02  0.55613044431E+02  0.47000000000E+01 0. -1.
         -5    1    5    5    0  503 -0.83052068796E+01 -0.15853128504E+02  0.58917612857E+02  0.61754945141E+02  0.47000000000E+01 0. -1.
<mgrwt>
<rscale>  0 0.27493569E+03</rscale>
<asrwt>0</asrwt>
<pdfrwt beam="1">  1        1 0.41072773E-01 0.27493569E+03</pdfrwt>
<pdfrwt beam="2">  1       -1 0.10889841E-01 0.27493569E+03</pdfrwt>
<totfact> 0.53844216E+03</totfact>
</mgrwt>
</event>
<event>
 9    1  0.2051157E-002  0.2717272E+03  0.7818608E-02  0.1100295E+00
         -2   -1    0    0    0  501 -0.00000000000E+00  0.00000000000E+00  0.65757461447E+01  0.65757461447E+01  0.00000000000E+00 0.  1.
          2   -1    0    0  501    0  0.00000000000E+00 -0.00000000000E+00 -0.28071224148E+04  0.28071224148E+04  0.00000000000E+00 0.  1.
         36    2    1    2    0    0  0.00000000000E+00  0.00000000000E+00 -0.28005466686E+04  0.28136981609E+04  0.27172724852E+03 0.  0.
         25    2    3    3    0    0 -0.48962180945E+02  0.10120862895E+02 -0.11452276531E+04  0.11529143305E+04  0.12314767095E+03 0.  0.
         25    2    3    3    0    0  0.48962180945E+02 -0.10120862895E+02 -0.16553190155E+04  0.16607838305E+04  0.12498864511E+03 0.  0.
          5    1    4    4  502    0  0.38373459980E+01 -0.46125220691E+02 -0.65306886485E+03  0.65472382990E+03  0.47000000000E+01 0.  1.
         -5    1    4    4    0  502 -0.52799526943E+02  0.56246083586E+02 -0.49215878830E+03  0.49819050057E+03  0.47000000000E+01 0.  1.
          5    1    5    5  503    0  0.36133909031E+00 -0.62551032521E+02 -0.82278191337E+03  0.82516963662E+03  0.47000000000E+01 0. -1.
         -5    1    5    5    0  503  0.48600841855E+02  0.52430169626E+02 -0.83253710213E+03  0.83561419384E+03  0.47000000000E+01 0. -1.
<mgrwt>
<rscale>  0 0.27172725E+03</rscale>
<asrwt>0</asrwt>
<pdfrwt beam="1">  1        2 0.43186576E+00 0.27172725E+03</pdfrwt>
<pdfrwt beam="2">  1       -2 0.10116515E-02 0.27172725E+03</pdfrwt>
<totfact> 0.56592652E+03</totfact>
</mgrwt>
</event>
<event>
 9    1  0.2051157E-002  0.2753784E+03  0.7818608E-02  0.1098240E+00
          1   -1    0    0  501    0  0.00000000000E+00  0.00000000000E+00  0.42073389318E+02  0.42073389318E+02  0.00000000000E+00 0.  1.
         -1   -1    0    0    0  501 -0.00000000000E+00 -0.00000000000E+00 -0.45060097952E+03  0.45060097952E+03  0.00000000000E+00 0.  1.
         36    2    1    2    0    0 -0.14210854715E-13 -0.35527136788E-14 -0.40852759021E+03  0.49267436884E+03  0.27537836109E+03 0.  0.
         25    2    3    3    0    0 -0.52203758650E+02  0.10095897128E+02 -0.15972837084E+03  0.20927687221E+03  0.12432416191E+03 0.  0.
         25    2    3    3    0    0  0.52203758650E+02 -0.10095897128E+02 -0.24879921937E+03  0.28339749663E+03  0.12484362212E+03 0.  0.
          5    1    4    4  502    0  0.26732432630E+02 -0.22422275620E+01  0.35242277196E+01  0.27461986814E+02  0.47000000000E+01 0.  1.
         -5    1    4    4    0  502 -0.78936191281E+02  0.12338124690E+02 -0.16325259856E+03  0.18181488539E+03  0.47000000000E+01 0.  1.
          5    1    5    5  503    0  0.70037463157E+02  0.37889901909E+02 -0.18499531869E+03  0.20146029100E+03  0.47000000000E+01 0.  1.
         -5    1    5    5    0  503 -0.17833704507E+02 -0.47985799037E+02 -0.63803900683E+02  0.81937205639E+02  0.47000000000E+01 0.  1.
<mgrwt>
<rscale>  0 0.27537836E+03</rscale>
<asrwt>0</asrwt>
<pdfrwt beam="1">  1        1 0.64728292E-02 0.27537836E+03</pdfrwt>
<pdfrwt beam="2">  1       -1 0.69323227E-01 0.27537836E+03</pdfrwt>
<totfact> 0.25376817E+03</totfact>
</mgrwt>
</event>
<event>
 9    1  0.2051157E-002  0.2753440E+03  0.7818608E-02  0.1098259E+00
         -2   -1    0    0    0  501 -0.00000000000E+00  0.00000000000E+00  0.45768365953E+02  0.45768365953E+02  0.00000000000E+00 0. -1.
          2   -1    0    0  501    0  0.00000000000E+00 -0.00000000000E+00 -0.41411965140E+03  0.41411965140E+03  0.00000000000E+00 0. -1.
         36    2    1    2    0    0  0.17763568394E-14  0.71054273576E-14 -0.36835128545E+03  0.45988801736E+03  0.27534400124E+03 0.  0.
         25    2    3    3    0    0  0.15433013128E+02 -0.50266174652E+01 -0.91469303481E+02  0.15151988450E+03  0.11970044755E+03 0.  0.
         25    2    3    3    0    0 -0.15433013128E+02  0.50266174652E+01 -0.27688198197E+03  0.30836813286E+03  0.13477324899E+03 0.  0.
          5    1    4    4  502    0 -0.20336693336E+02  0.28175748264E+02  0.11967607662E+02  0.37050877443E+02  0.47000000000E+01 0.  1.
         -5    1    4    4    0  502  0.35769706464E+02 -0.33202365730E+02 -0.10343691114E+03  0.11446900706E+03  0.47000000000E+01 0.  1.
          5    1    5    5  503    0 -0.29432161562E+02  0.46437431742E+02 -0.25175119583E+03  0.25772745644E+03  0.47000000000E+01 0. -1.
         -5    1    5    5    0  503  0.13999148433E+02 -0.41410814276E+02 -0.25130786142E+02  0.50640676418E+02  0.47000000000E+01 0. -1.
<mgrwt>
<rscale>  0 0.27534400E+03</rscale>
<asrwt>0</asrwt>
<pdfrwt beam="1">  1        2 0.63710714E-01 0.27534400E+03</pdfrwt>
<pdfrwt beam="2">  1       -2 0.70412872E-02 0.27534400E+03</pdfrwt>
<totfact> 0.88150255E+03</totfact>
</mgrwt>
</event>
<event>
 9    1  0.2051157E-002  0.2766006E+03  0.7818608E-02  0.1097560E+00
         -3   -1    0    0    0  501 -0.00000000000E+00  0.00000000000E+00  0.61893870155E+03  0.61893870155E+03  0.00000000000E+00 0. -1.
          3   -1    0    0  501    0  0.00000000000E+00 -0.00000000000E+00 -0.30902847776E+02  0.30902847776E+02  0.00000000000E+00 0. -1.
         36    2    1    2    0    0  0.00000000000E+00  0.71054273576E-14  0.58803585377E+03  0.64984154933E+03  0.27660056744E+03 0.  0.
         25    2    3    3    0    0  0.99891434457E+01 -0.34656444853E+02  0.19260024502E+03  0.23324356339E+03  0.12651819366E+03 0.  0.
         25    2    3    3    0    0 -0.99891434457E+01  0.34656444853E+02  0.39543560876E+03  0.41659798594E+03  0.12603058777E+03 0.  0.
          5    1    4    4  502    0  0.46429085840E+02  0.43800510821E+01  0.16771457979E+03  0.17414107825E+03  0.47000000000E+01 0. -1.
         -5    1    4    4    0  502 -0.36439942394E+02 -0.39036495935E+02  0.24885665228E+02  0.59102485146E+02  0.47000000000E+01 0. -1.
          5    1    5    5  503    0 -0.59993427123E+02  0.38738458122E+02  0.30281351244E+03  0.31115589782E+03  0.47000000000E+01 0.  1.
         -5    1    5    5    0  503  0.50004283677E+02 -0.40820132691E+01  0.92622096320E+02  0.10544208811E+03  0.47000000000E+01 0.  1.
<mgrwt>
<rscale>  0 0.27660057E+03</rscale>
<asrwt>0</asrwt>
<pdfrwt beam="1">  1        3 0.47542847E-02 0.27660057E+03</pdfrwt>
<pdfrwt beam="2">  1       -3 0.95221330E-01 0.27660057E+03</pdfrwt>
<totfact> 0.63466165E+02</totfact>
</mgrwt>
</event>
<event>
 9    1  0.2051157E-002  0.2749674E+03  0.7818608E-02  0.1098470E+00
         -2   -1    0    0    0  501 -0.00000000000E+00  0.00000000000E+00  0.16295920193E+02  0.16295920193E+02  0.00000000000E+00 0.  1.
          2   -1    0    0  501    0  0.00000000000E+00 -0.00000000000E+00 -0.11599081656E+04  0.11599081656E+04  0.00000000000E+00 0.  1.
         36    2    1    2    0    0 -0.14210854715E-13  0.35527136788E-14 -0.11436122455E+04  0.11762040858E+04  0.27496742279E+03 0.  0.
         25    2    3    3    0    0 -0.49772866184E+02  0.25948054892E+02 -0.59239150988E+03  0.60692159839E+03  0.11948006467E+03 0.  0.
         25    2    3    3    0    0  0.49772866184E+02 -0.25948054892E+02 -0.55122073558E+03  0.56928248745E+03  0.13071959084E+03 0.  0.
          5    1    4    4  502    0  0.18762054522E+02  0.21687230342E+00 -0.40822556333E+03  0.40868357231E+03  0.47000000000E+01 0. -1.
         -5    1    4    4    0  502 -0.68534920706E+02  0.25731182588E+02 -0.18416594655E+03  0.19823802608E+03  0.47000000000E+01 0. -1.
          5    1    5    5  503    0  0.81738065174E+00 -0.69900550085E+02 -0.36655145198E+03  0.37318736844E+03  0.47000000000E+01 0.  1.
         -5    1    5    5    0  503  0.48955485533E+02  0.43952495193E+02 -0.18466928360E+03  0.19609511902E+03  0.47000000000E+01 0.  1.
<mgrwt>
<rscale>  0 0.27496742E+03</rscale>
<asrwt>0</asrwt>
<pdfrwt beam="1">  1        2 0.17844739E+00 0.27496742E+03</pdfrwt>
<pdfrwt beam="2">  1       -2 0.25070649E-02 0.27496742E+03</pdfrwt>
<totfact> 0.11643449E+04</totfact>
</mgrwt>
</event>
<event>
 9    1  0.2051157E-002  0.2746583E+03  0.7818608E-02  0.1098643E+00
          4   -1    0    0  501    0  0.00000000000E+00  0.00000000000E+00  0.93601591716E+02  0.93601591716E+02  0.00000000000E+00 0. -1.
         -4   -1    0    0    0  501 -0.00000000000E+00 -0.00000000000E+00 -0.20148481915E+03  0.20148481915E+03  0.00000000000E+00 0. -1.
         36    2    1    2    0    0 -0.71054273576E-14  0.00000000000E+00 -0.10788322743E+03  0.29508641086E+03  0.27465833160E+03 0.  0.
         25    2    3    3    0    0 -0.50444748885E+02  0.22808164533E+01 -0.75481786530E+02  0.15470341382E+03  0.12524284945E+03 0.  0.
         25    2    3    3    0    0  0.50444748885E+02 -0.22808164533E+01 -0.32401440901E+02  0.14038299704E+03  0.12691594727E+03 0.  0.
          5    1    4    4  502    0 -0.27166381200E+02 -0.27685337834E+02 -0.10129577571E+03  0.10856985942E+03  0.47000000000E+01 0.  1.
         -5    1    4    4    0  502 -0.23278367685E+02  0.29966154287E+02  0.25813989177E+02  0.46133554405E+02  0.47000000000E+01 0.  1.
          5    1    5    5  503    0  0.49280988260E+02 -0.53437657753E+02  0.10302375905E+02  0.73569205645E+02  0.47000000000E+01 0.  1.
         -5    1    5    5    0  503  0.11637606248E+01  0.51156841299E+02 -0.42703816807E+02  0.66813791393E+02  0.47000000000E+01 0.  1.
<mgrwt>
<rscale>  0 0.27465833E+03</rscale>
<asrwt>0</asrwt>
<pdfrwt beam="1">  1        4 0.14400245E-01 0.27465833E+03</pdfrwt>
<pdfrwt beam="2">  1       -4 0.30997664E-01 0.27465833E+03</pdfrwt>
<totfact> 0.75835818E+02</totfact>
</mgrwt>
</event>
<event>
 9    1  0.2051157E-002  0.2756077E+03  0.7818608E-02  0.1098112E+00
          2   -1    0    0  501    0  0.00000000000E+00  0.00000000000E+00  0.43435333169E+03  0.43435333169E+03  0.00000000000E+00 0.  1.
         -2   -1    0    0    0  501 -0.00000000000E+00 -0.00000000000E+00 -0.43719930688E+02  0.43719930688E+02  0.00000000000E+00 0.  1.
         36    2    1    2    0    0  0.00000000000E+00  0.35527136788E-14  0.39063340100E+03  0.47807326237E+03  0.27560767446E+03 0.  0.
         25    2    3    3    0    0  0.44097694449E+02  0.29713014835E+01  0.12014230783E+03  0.17739516942E+03  0.12280650111E+03 0.  0.
         25    2    3    3    0    0 -0.44097694449E+02 -0.29713014835E+01  0.27049109317E+03  0.30067809296E+03  0.12364646704E+03 0.  0.
          5    1    4    4  502    0 -0.11304327163E+02 -0.22729702662E+02  0.11278396333E+03  0.11570107856E+03  0.47000000000E+01 0.  1.
         -5    1    4    4    0  502  0.55402021611E+02  0.25701004146E+02  0.73583444958E+01  0.61694090855E+02  0.47000000000E+01 0.  1.
          5    1    5    5  503    0 -0.17098780625E+02  0.33504299459E+02  0.24598659731E+03  0.24889034219E+03  0.47000000000E+01 0. -1.
         -5    1    5    5    0  503 -0.26998913824E+02 -0.36475600943E+02  0.24504495863E+02  0.51787750765E+02  0.47000000000E+01 0. -1.
<mgrwt>
<rscale>  0 0.27560767E+03</rscale>
<asrwt>0</asrwt>
<pdfrwt beam="1">  1        2 0.66823586E-01 0.27560767E+03</pdfrwt>
<pdfrwt beam="2">  1       -2 0.67261435E-02 0.27560767E+03</pdfrwt>
<totfact> 0.89815500E+03</totfact>
</mgrwt>
</event>
<event>
 9    1  0.2051157E-002  0.2751291E+03  0.7818608E-02  0.1098379E+00
          1   -1    0    0  501    0  0.00000000000E+00  0.00000000000E+00  0.22522973529E+04  0.22522973529E+04  0.00000000000E+00 0.  1.
         -1   -1    0    0    0  501 -0.00000000000E+00 -0.00000000000E+00 -0.84020886925E+01  0.84020886925E+01  0.00000000000E+00 0.  1.
         36    2    1    2    0    0 -0.71054273576E-14  0.00000000000E+00  0.22438952642E+04  0.22606994416E+04  0.27512907604E+03 0.  0.
         25    2    3    3    0    0 -0.53815363868E+02 -0.16020195615E+02  0.10372234902E+04  0.10464197670E+04  0.12652675664E+03 0.  0.
         25    2    3    3    0    0  0.53815363868E+02  0.16020195615E+02  0.12066717740E+04  0.12142796745E+04  0.12355410887E+03 0.  0.
          5    1    4    4  502    0 -0.75584120458E+02  0.23604897808E+02  0.41334146360E+03  0.42088407667E+03  0.47000000000E+01 0. -1.
         -5    1    4    4    0  502  0.21768756590E+02 -0.39625093424E+02  0.62388202661E+03  0.62553569037E+03  0.47000000000E+01 0. -1.
          5    1    5    5  503    0 -0.39876430886E+02  0.28745697968E+01  0.30477348226E+03  0.30742049115E+03  0.47000000000E+01 0. -1.
         -5    1    5    5    0  503  0.93691794754E+02  0.13145625819E+02  0.90189829171E+03  0.90685918337E+03  0.47000000000E+01 0. -1.
<mgrwt>
<rscale>  0 0.27512908E+03</rscale>
<asrwt>0</asrwt>
<pdfrwt beam="1">  1        1 0.34650681E+00 0.27512908E+03</pdfrwt>
<pdfrwt beam="2">  1       -1 0.12926308E-02 0.27512908E+03</pdfrwt>
<totfact> 0.29943003E+03</totfact>
</mgrwt>
</event>
<event>
 9    1  0.2051157E-002  0.2766049E+03  0.7818608E-02  0.1097558E+00
          1   -1    0    0  501    0  0.00000000000E+00  0.00000000000E+00  0.13707297088E+03  0.13707297088E+03  0.00000000000E+00 0. -1.
         -1   -1    0    0    0  501 -0.00000000000E+00 -0.00000000000E+00 -0.13954295275E+03  0.13954295275E+03  0.00000000000E+00 0. -1.
         36    2    1    2    0    0 -0.21316282073E-13  0.00000000000E+00 -0.24699818700E+01  0.27661592362E+03  0.27660489582E+03 0.  0.
         25    2    3    3    0    0  0.63211658437E+02  0.45262588269E+01 -0.18533998216E+02  0.14343239146E+03  0.12733083307E+03 0.  0.
         25    2    3    3    0    0 -0.63211658437E+02 -0.45262588269E+01  0.16064016346E+02  0.13318353216E+03  0.11603275329E+03 0.  0.
          5    1    4    4  502    0 -0.20010838249E+02  0.41174401000E+02 -0.24585562517E+02  0.52175711106E+02  0.47000000000E+01 0.  1.
         -5    1    4    4    0  502  0.83222496686E+02 -0.36648142173E+02  0.60515643008E+01  0.91256680358E+02  0.47000000000E+01 0.  1.
          5    1    5    5  503    0  0.24960955563E+02  0.27674362413E+02 -0.13964189909E+01  0.37589355190E+02  0.47000000000E+01 0. -1.
         -5    1    5    5    0  503 -0.88172614000E+02 -0.32200621240E+02  0.17460435337E+02  0.95594176967E+02  0.47000000000E+01 0. -1.
<mgrwt>
<rscale>  0 0.27660490E+03</rscale>
<asrwt>0</asrwt>
<pdfrwt beam="1">  1        1 0.21088149E-01 0.27660490E+03</pdfrwt>
<pdfrwt beam="2">  1       -1 0.21468147E-01 0.27660490E+03</pdfrwt>
<totfact> 0.42519421E+03</totfact>
</mgrwt>
</event>
<event>
 9    1  0.2051157E-002  0.2748346E+03  0.7818608E-02  0.1098544E+00
          2   -1    0    0  501    0  0.00000000000E+00  0.00000000000E+00  0.18796694688E+04  0.18796694688E+04  0.00000000000E+00 0. -1.
         -2   -1    0    0    0  501 -0.00000000000E+00 -0.00000000000E+00 -0.10046186030E+02  0.10046186030E+02  0.00000000000E+00 0. -1.
         36    2    1    2    0    0  0.35527136788E-14  0.71054273576E-14  0.18696232828E+04  0.18897156548E+04  0.27483456230E+03 0.  0.
         25    2    3    3    0    0 -0.26537594837E+02 -0.55678828230E+02  0.76825376246E+03  0.77938048346E+03  0.11582624315E+03 0.  0.
         25    2    3    3    0    0  0.26537594837E+02  0.55678828230E+02  0.11013695203E+04  0.11103351714E+04  0.12658987587E+03 0.  0.
          5    1    4    4  502    0  0.33774228070E+01 -0.79153111701E+02  0.65566425091E+03  0.66045009047E+03  0.47000000000E+01 0.  1.
         -5    1    4    4    0  502 -0.29915017644E+02  0.23474283471E+02  0.11258951155E+03  0.11893039299E+03  0.47000000000E+01 0.  1.
          5    1    5    5  503    0  0.72794989083E+02  0.42717975894E+02  0.86282884925E+03  0.86696000427E+03  0.47000000000E+01 0. -1.
         -5    1    5    5    0  503 -0.46257394246E+02  0.12960852336E+02  0.23854067107E+03  0.24337516712E+03  0.47000000000E+01 0. -1.
<mgrwt>
<rscale>  0 0.27483456E+03</rscale>
<asrwt>0</asrwt>
<pdfrwt beam="1">  1        2 0.28917964E+00 0.27483456E+03</pdfrwt>
<pdfrwt beam="2">  1       -2 0.15455686E-02 0.27483456E+03</pdfrwt>
<totfact> 0.97046711E+03</totfact>
</mgrwt>
</event>
<event>
 9    1  0.2051157E-002  0.2754244E+03  0.7818608E-02  0.1098215E+00
          3   -1    0    0  501    0  0.00000000000E+00  0.00000000000E+00  0.55135420622E+03  0.55135420622E+03  0.00000000000E+00 0. -1.
         -3   -1    0    0    0  501 -0.00000000000E+00 -0.00000000000E+00 -0.34396495373E+02  0.34396495373E+02  0.00000000000E+00 0. -1.
         36    2    1    2    0    0  0.00000000000E+00  0.35527136788E-14  0.51695771085E+03  0.58575070159E+03  0.27542441724E+03 0.  0.
         25    2    3    3    0    0  0.31269698648E+02 -0.18645714438E+02  0.15011991053E+03  0.19591718610E+03  0.12050767425E+03 0.  0.
         25    2    3    3    0    0 -0.31269698648E+02  0.18645714438E+02  0.36683780032E+03  0.38983351549E+03  0.12678620326E+03 0.  0.
          5    1    4    4  502    0  0.10298096967E+01 -0.66836279992E+01  0.16107187015E+03  0.16128226420E+03  0.47000000000E+01 0. -1.
         -5    1    4    4    0  502  0.30239888952E+02 -0.11962086439E+02 -0.10951959622E+02  0.34634921904E+02  0.47000000000E+01 0. -1.
          5    1    5    5  503    0 -0.15147617705E+02  0.33114761333E+02  0.36580463063E+03  0.36764270091E+03  0.47000000000E+01 0. -1.
         -5    1    5    5    0  503 -0.16122080944E+02 -0.14469046895E+02  0.10331696836E+01  0.22190814577E+02  0.47000000000E+01 0. -1.
<mgrwt>
<rscale>  0 0.27542442E+03</rscale>
<asrwt>0</asrwt>
<pdfrwt beam="1">  1        3 0.84823718E-01 0.27542442E+03</pdfrwt>
<pdfrwt beam="2">  1       -3 0.52917689E-02 0.27542442E+03</pdfrwt>
<totfact> 0.69417171E+02</totfact>
</mgrwt>
</event>
<event>
 9    1  0.2051157E-002  0.2739646E+03  0.7818608E-02  0.1099032E+00
          2   -1    0    0  501    0  0.00000000000E+00  0.00000000000E+00  0.85523107433E+03  0.85523107433E+03  0.00000000000E+00 0. -1.
         -2   -1    0    0    0  501 -0.00000000000E+00 -0.00000000000E+00 -0.21940451277E+02  0.21940451277E+02  0.00000000000E+00 0. -1.
         36    2    1    2    0    0 -0.35527136788E-14  0.00000000000E+00  0.83329062305E+03  0.87717152560E+03  0.27396463798E+03 0.  0.
         25    2    3    3    0    0  0.77034146509E+01 -0.91697130194E+01  0.27112756086E+03  0.29883774091E+03  0.12510161830E+03 0.  0.
         25    2    3    3    0    0 -0.77034146509E+01  0.91697130194E+01  0.56216306219E+03  0.57833378469E+03  0.13527465317E+03 0.  0.
          5    1    4    4  502    0  0.44495430374E+02 -0.26775017906E+02  0.24427729436E+03  0.24978036642E+03  0.47000000000E+01 0.  1.
         -5    1    4    4    0  502 -0.36792015723E+02  0.17605304887E+02  0.26850266503E+02  0.49057374496E+02  0.47000000000E+01 0.  1.
          5    1    5    5  503    0 -0.39001801683E+02  0.61151884174E+02  0.25278867075E+03  0.26303021790E+03  0.47000000000E+01 0.  1.
         -5    1    5    5    0  503  0.31298387032E+02 -0.51982171154E+02  0.30937439144E+03  0.31530356679E+03  0.47000000000E+01 0.  1.
<mgrwt>
<rscale>  0 0.27396464E+03</rscale>
<asrwt>0</asrwt>
<pdfrwt beam="1">  1        2 0.13157399E+00 0.27396464E+03</pdfrwt>
<pdfrwt beam="2">  1       -2 0.33754547E-02 0.27396464E+03</pdfrwt>
<totfact> 0.11505305E+04</totfact>
</mgrwt>
</event>
<event>
 9    1  0.2051157E-002  0.2753780E+03  0.7818608E-02  0.1098241E+00
          2   -1    0    0  501    0  0.00000000000E+00  0.00000000000E+00  0.12016221101E+04  0.12016221101E+04  0.00000000000E+00 0. -1.
         -2   -1    0    0    0  501 -0.00000000000E+00 -0.00000000000E+00 -0.15777221918E+02  0.15777221918E+02  0.00000000000E+00 0. -1.
         36    2    1    2    0    0 -0.71054273576E-14 -0.35527136788E-14  0.11858448882E+04  0.12173993320E+04  0.27537798526E+03 0.  0.
         25    2    3    3    0    0 -0.40979844190E+02 -0.14223776514E+02  0.67404472810E+03  0.68633942896E+03  0.12183535125E+03 0.  0.
         25    2    3    3    0    0  0.40979844190E+02  0.14223776514E+02  0.51180016005E+03  0.53105990303E+03  0.13492054450E+03 0.  0.
          5    1    4    4  502    0  0.40961709507E+02 -0.12680839775E+02  0.32046929878E+03  0.32335943902E+03  0.47000000000E+01 0. -1.
         -5    1    4    4    0  502 -0.81941553697E+02 -0.15429367391E+01  0.35357542933E+03  0.36297998994E+03  0.47000000000E+01 0. -1.
          5    1    5    5  503    0  0.72448995462E+02 -0.34134488197E+02  0.23640370115E+03  0.24964538879E+03  0.47000000000E+01 0. -1.
         -5    1    5    5    0  503 -0.31469151272E+02  0.48358264711E+02  0.27539645891E+03  0.28141451424E+03  0.47000000000E+01 0. -1.
<mgrwt>
<rscale>  0 0.27537799E+03</rscale>
<asrwt>0</asrwt>
<pdfrwt beam="1">  1        2 0.18486487E+00 0.27537799E+03</pdfrwt>
<pdfrwt beam="2">  1       -2 0.24272659E-02 0.27537799E+03</pdfrwt>
<totfact> 0.11562170E+04</totfact>
</mgrwt>
</event>
<event>
 9    1  0.2051157E-002  0.2756809E+03  0.7818608E-02  0.1098072E+00
         -1   -1    0    0    0  501 -0.00000000000E+00  0.00000000000E+00  0.11376289202E+03  0.11376289202E+03  0.00000000000E+00 0.  1.
          1   -1    0    0  501    0  0.00000000000E+00 -0.00000000000E+00 -0.16701391802E+03  0.16701391802E+03  0.00000000000E+00 0.  1.
         36    2    1    2    0    0  0.00000000000E+00  0.71054273576E-14 -0.53251026000E+02  0.28077681004E+03  0.27568087581E+03 0.  0.
         25    2    3    3    0    0 -0.21789317166E+02  0.22292528333E+02  0.17270880042E+02  0.12913933692E+03  0.12412475128E+03 0.  0.
         25    2    3    3    0    0  0.21789317166E+02 -0.22292528333E+02 -0.70521906042E+02  0.15163747313E+03  0.13057125588E+03 0.  0.
          5    1    4    4  502    0 -0.30226857498E+02 -0.13991648283E+02 -0.45145548446E+02  0.56299553110E+02  0.47000000000E+01 0.  1.
         -5    1    4    4    0  502  0.84375403322E+01  0.36284176616E+02  0.62416428488E+02  0.72839783805E+02  0.47000000000E+01 0.  1.
          5    1    5    5  503    0 -0.44340718101E+02 -0.39210310876E+02 -0.98462329547E+01  0.60187922909E+02  0.47000000000E+01 0.  1.
         -5    1    5    5    0  503  0.66130035267E+02  0.16917782544E+02 -0.60675673087E+02  0.91449550218E+02  0.47000000000E+01 0.  1.
<mgrwt>
<rscale>  0 0.27568088E+03</rscale>
<asrwt>0</asrwt>
<pdfrwt beam="1">  1        1 0.25694449E-01 0.27568088E+03</pdfrwt>
<pdfrwt beam="2">  1       -1 0.17501983E-01 0.27568088E+03</pdfrwt>
<totfact> 0.45997308E+03</totfact>
</mgrwt>
</event>
<event>
 9    1  0.2051157E-002  0.2750517E+03  0.7818608E-02  0.1098423E+00
          2   -1    0    0  501    0  0.00000000000E+00  0.00000000000E+00  0.18665473373E+04  0.18665473373E+04  0.00000000000E+00 0. -1.
         -2   -1    0    0    0  501 -0.00000000000E+00 -0.00000000000E+00 -0.10132807156E+02  0.10132807156E+02  0.00000000000E+00 0. -1.
         36    2    1    2    0    0 -0.71054273576E-14 -0.17763568394E-14  0.18564145302E+04  0.18766801445E+04  0.27505173489E+03 0.  0.
         25    2    3    3    0    0 -0.57698112558E+02  0.10019780426E+02  0.10823813299E+04  0.10908505215E+04  0.12237666697E+03 0.  0.
         25    2    3    3    0    0  0.57698112558E+02 -0.10019780426E+02  0.77403320024E+03  0.78582962302E+03  0.12235739919E+03 0.  0.
          5    1    4    4  502    0 -0.24362979580E+00 -0.12573920985E+02  0.85739397337E+03  0.85749908362E+03  0.47000000000E+01 0.  1.
         -5    1    4    4    0  502 -0.57454482762E+02  0.22593701411E+02  0.22498735655E+03  0.23335143783E+03  0.47000000000E+01 0.  1.
          5    1    5    5  503    0 -0.46557187093E+01 -0.56889934448E+02  0.35014281408E+03  0.35479602677E+03  0.47000000000E+01 0. -1.
         -5    1    5    5    0  503  0.62353831267E+02  0.46870154022E+02  0.42389038616E+03  0.43103359625E+03  0.47000000000E+01 0. -1.
<mgrwt>
<rscale>  0 0.27505173E+03</rscale>
<asrwt>0</asrwt>
<pdfrwt beam="1">  1        2 0.28716086E+00 0.27505173E+03</pdfrwt>
<pdfrwt beam="2">  1       -2 0.15588949E-02 0.27505173E+03</pdfrwt>
<totfact> 0.97367542E+03</totfact>
</mgrwt>
</event>
<event>
 9    1  0.2051157E-002  0.2750118E+03  0.7818608E-02  0.1098445E+00
         -1   -1    0    0    0  501 -0.00000000000E+00  0.00000000000E+00  0.94148450784E+01  0.94148450784E+01  0.00000000000E+00 0. -1.
          1   -1    0    0  501    0  0.00000000000E+00 -0.00000000000E+00 -0.20083037624E+04  0.20083037624E+04  0.00000000000E+00 0. -1.
         36    2    1    2    0    0 -0.71054273576E-14  0.00000000000E+00 -0.19988889173E+04  0.20177186074E+04  0.27501177279E+03 0.  0.
         25    2    3    3    0    0 -0.43957920810E+02  0.23124633497E+02 -0.85190389570E+03  0.86235505726E+03  0.12429380437E+03 0.  0.
         25    2    3    3    0    0  0.43957920810E+02 -0.23124633497E+02 -0.11469850216E+04  0.11553635502E+04  0.12970445582E+03 0.  0.
          5    1    4    4  502    0 -0.87024831691E+02  0.17091816388E+02 -0.62439850635E+03  0.63068299188E+03  0.47000000000E+01 0.  1.
         -5    1    4    4    0  502  0.43066910881E+02  0.60328171088E+01 -0.22750538934E+03  0.23167206538E+03  0.47000000000E+01 0.  1.
          5    1    5    5  503    0  0.79395324517E+02 -0.10649356693E+02 -0.43282818434E+03  0.44020376363E+03  0.47000000000E+01 0. -1.
         -5    1    5    5    0  503 -0.35437403707E+02 -0.12475276804E+02 -0.71415683724E+03  0.71515978654E+03  0.47000000000E+01 0. -1.
<mgrwt>
<rscale>  0 0.27501177E+03</rscale>
<asrwt>0</asrwt>
<pdfrwt beam="1">  1        1 0.30897017E+00 0.27501177E+03</pdfrwt>
<pdfrwt beam="2">  1       -1 0.14484360E-02 0.27501177E+03</pdfrwt>
<totfact> 0.36595847E+03</totfact>
</mgrwt>
</event>
<event>
 9    1  0.2051157E-002  0.2745233E+03  0.7818608E-02  0.1098718E+00
         -2   -1    0    0    0  501 -0.00000000000E+00  0.00000000000E+00  0.96786407610E+02  0.96786407610E+02  0.00000000000E+00 0. -1.
          2   -1    0    0  501    0  0.00000000000E+00 -0.00000000000E+00 -0.19466325278E+03  0.19466325278E+03  0.00000000000E+00 0. -1.
         36    2    1    2    0    0  0.71054273576E-14  0.00000000000E+00 -0.97876845175E+02  0.29144966039E+03  0.27452327355E+03 0.  0.
         25    2    3    3    0    0  0.56941906750E+02  0.41885081270E+01 -0.37115972978E+02  0.14317691048E+03  0.12594486055E+03 0.  0.
         25    2    3    3    0    0 -0.56941906750E+02 -0.41885081270E+01 -0.60760872197E+02  0.14827274992E+03  0.12260913683E+03 0.  0.
          5    1    4    4  502    0  0.16492896468E+02 -0.56662178614E+02 -0.37274393855E+02  0.69957762660E+02  0.47000000000E+01 0. -1.
         -5    1    4    4    0  502  0.40449010283E+02  0.60850686741E+02  0.15842087678E+00  0.73219147816E+02  0.47000000000E+01 0. -1.
          5    1    5    5  503    0 -0.30320425275E+02  0.53198180618E+02 -0.58471702284E+02  0.84796253325E+02  0.47000000000E+01 0. -1.
         -5    1    5    5    0  503 -0.26621481475E+02 -0.57386688745E+02 -0.22891699131E+01  0.63476496594E+02  0.47000000000E+01 0. -1.
<mgrwt>
<rscale>  0 0.27452327E+03</rscale>
<asrwt>0</asrwt>
<pdfrwt beam="1">  1        2 0.29948193E-01 0.27452327E+03</pdfrwt>
<pdfrwt beam="2">  1       -2 0.14890217E-01 0.27452327E+03</pdfrwt>
<totfact> 0.60426603E+03</totfact>
</mgrwt>
</event>
<event>
 9    1  0.2051157E-002  0.2747452E+03  0.7818608E-02  0.1098594E+00
         -2   -1    0    0    0  501 -0.00000000000E+00  0.00000000000E+00  0.10014439352E+04  0.10014439352E+04  0.00000000000E+00 0. -1.
          2   -1    0    0  501    0  0.00000000000E+00 -0.00000000000E+00 -0.18844015169E+02  0.18844015169E+02  0.00000000000E+00 0. -1.
         36    2    1    2    0    0 -0.35527136788E-14  0.14210854715E-13  0.98259992006E+03  0.10202879504E+04  0.27474515250E+03 0.  0.
         25    2    3    3    0    0  0.20878459116E+02  0.67935920095E+02  0.49598234209E+03  0.51290365483E+03  0.10963793218E+03 0.  0.
         25    2    3    3    0    0 -0.20878459116E+02 -0.67935920095E+02  0.48661757796E+03  0.50738429557E+03  0.12486375340E+03 0.  0.
          5    1    4    4  502    0  0.25440427865E+02  0.59886416331E+02  0.11842869519E+03  0.13520741131E+03  0.47000000000E+01 0. -1.
         -5    1    4    4    0  502 -0.45619687494E+01  0.80495037636E+01  0.37755364691E+03  0.37769624351E+03  0.47000000000E+01 0. -1.
          5    1    5    5  503    0  0.78460429243E+01 -0.52922386955E+02  0.64214069408E+02  0.83713058363E+02  0.47000000000E+01 0. -1.
         -5    1    5    5    0  503 -0.28724502040E+02 -0.15013533140E+02  0.42240350856E+03  0.42367123720E+03  0.47000000000E+01 0. -1.
<mgrwt>
<rscale>  0 0.27474515E+03</rscale>
<asrwt>0</asrwt>
<pdfrwt beam="1">  1        2 0.28990800E-02 0.27474515E+03</pdfrwt>
<pdfrwt beam="2">  1       -2 0.15406826E+00 0.27474515E+03</pdfrwt>
<totfact> 0.97130645E+02</totfact>
</mgrwt>
</event>
<event>
 9    1  0.2051157E-002  0.2763993E+03  0.7818608E-02  0.1097672E+00
         -1   -1    0    0    0  501 -0.00000000000E+00  0.00000000000E+00  0.74477363757E+02  0.74477363757E+02  0.00000000000E+00 0. -1.
          1   -1    0    0  501    0  0.00000000000E+00 -0.00000000000E+00 -0.25644228875E+03  0.25644228875E+03  0.00000000000E+00 0. -1.
         36    2    1    2    0    0 -0.71054273576E-14  0.00000000000E+00 -0.18196492499E+03  0.33091965251E+03  0.27639931709E+03 0.  0.
         25    2    3    3    0    0  0.58452646911E+02 -0.34420286666E+02 -0.14634093216E+03  0.18723605316E+03  0.95079982725E+02 0.  0.
         25    2    3    3    0    0 -0.58452646911E+02  0.34420286666E+02 -0.35623992839E+02  0.14368359935E+03  0.12155015339E+03 0.  0.
          5    1    4    4  502    0  0.14047226098E+02 -0.92950030527E+01  0.11737558463E+02  0.21061384605E+02  0.47000000000E+01 0.  1.
         -5    1    4    4    0  502  0.44405420813E+02 -0.25125283613E+02 -0.15807849062E+03  0.16617466856E+03  0.47000000000E+01 0.  1.
          5    1    5    5  503    0 -0.39585043280E+02  0.38990775785E+01  0.42000973483E+02  0.58037489875E+02  0.47000000000E+01 0.  1.
         -5    1    5    5    0  503 -0.18867603631E+02  0.30521209088E+02 -0.77624966322E+02  0.85646109471E+02  0.47000000000E+01 0.  1.
<mgrwt>
<rscale>  0 0.27639932E+03</rscale>
<asrwt>0</asrwt>
<pdfrwt beam="1">  1        1 0.39452659E-01 0.27639932E+03</pdfrwt>
<pdfrwt beam="2">  1       -1 0.11458056E-01 0.27639932E+03</pdfrwt>
<totfact> 0.52333511E+03</totfact>
</mgrwt>
</event>
<event>
 9    1  0.2051157E-002  0.2747449E+03  0.7818608E-02  0.1098594E+00
          1   -1    0    0  501    0  0.00000000000E+00  0.00000000000E+00  0.12149405227E+04  0.12149405227E+04  0.00000000000E+00 0. -1.
         -1   -1    0    0    0  501 -0.00000000000E+00 -0.00000000000E+00 -0.15532599679E+02  0.15532599679E+02  0.00000000000E+00 0. -1.
         36    2    1    2    0    0  0.00000000000E+00 -0.17763568394E-14  0.11994079231E+04  0.12304731224E+04  0.27474486181E+03 0.  0.
         25    2    3    3    0    0  0.45521300216E+02 -0.84178354841E+01  0.44896411494E+03  0.46812366763E+03  0.12420927084E+03 0.  0.
         25    2    3    3    0    0 -0.45521300216E+02  0.84178354841E+01  0.75044380812E+03  0.76234945479E+03  0.12596719154E+03 0.  0.
          5    1    4    4  502    0 -0.23484629234E+02 -0.43022679606E+02  0.11113259294E+03  0.12155254824E+03  0.47000000000E+01 0. -1.
         -5    1    4    4    0  502  0.69005929450E+02  0.34604844121E+02  0.33783152200E+03  0.34657111939E+03  0.47000000000E+01 0. -1.
          5    1    5    5  503    0 -0.86006201356E+02  0.19596603979E+01  0.38164171017E+03  0.39124594807E+03  0.47000000000E+01 0.  1.
         -5    1    5    5    0  503  0.40484901140E+02  0.64581750861E+01  0.36880209795E+03  0.37110350672E+03  0.47000000000E+01 0.  1.
<mgrwt>
<rscale>  0 0.27474486E+03</rscale>
<asrwt>0</asrwt>
<pdfrwt beam="1">  1        1 0.18691385E+00 0.27474486E+03</pdfrwt>
<pdfrwt beam="2">  1       -1 0.23896317E-02 0.27474486E+03</pdfrwt>
<totfact> 0.58987766E+03</totfact>
</mgrwt>
</event>
<event>
 9    1  0.2051157E-002  0.2750278E+03  0.7818608E-02  0.1098436E+00
         -1   -1    0    0    0  501 -0.00000000000E+00  0.00000000000E+00  0.93128434156E+02  0.93128434156E+02  0.00000000000E+00 0.  1.
          1   -1    0    0  501    0  0.00000000000E+00 -0.00000000000E+00 -0.20305371913E+03  0.20305371913E+03  0.00000000000E+00 0.  1.
         36    2    1    2    0    0 -0.71054273576E-14  0.17763568394E-14 -0.10992528498E+03  0.29618215329E+03  0.27502781614E+03 0.  0.
         25    2    3    3    0    0  0.25351377421E+02 -0.81266725272E+01 -0.11706510902E+03  0.17172704964E+03  0.12278926943E+03 0.  0.
         25    2    3    3    0    0 -0.25351377421E+02  0.81266725272E+01  0.71398240415E+01  0.12445510365E+03  0.12136457717E+03 0.  0.
          5    1    4    4  502    0  0.14546175904E+02 -0.37635927273E+02 -0.13090942991E+03  0.13706722108E+03  0.47000000000E+01 0. -1.
         -5    1    4    4    0  502  0.10805201517E+02  0.29509254746E+02  0.13844320887E+02  0.34659828567E+02  0.47000000000E+01 0. -1.
          5    1    5    5  503    0 -0.68572503604E+02  0.23943151388E+02 -0.13107119582E+02  0.73955049406E+02  0.47000000000E+01 0. -1.
         -5    1    5    5    0  503  0.43221126183E+02 -0.15816478861E+02  0.20246943624E+02  0.50500054240E+02  0.47000000000E+01 0. -1.
<mgrwt>
<rscale>  0 0.27502782E+03</rscale>
<asrwt>0</asrwt>
<pdfrwt beam="1">  1        1 0.31239033E-01 0.27502782E+03</pdfrwt>
<pdfrwt beam="2">  1       -1 0.14327452E-01 0.27502782E+03</pdfrwt>
<totfact> 0.49414032E+03</totfact>
</mgrwt>
</event>
<event>
 9    1  0.2051157E-002  0.2755357E+03  0.7818608E-02  0.1098153E+00
          1   -1    0    0  501    0  0.00000000000E+00  0.00000000000E+00  0.70507429664E+02  0.70507429664E+02  0.00000000000E+00 0.  1.
         -1   -1    0    0    0  501 -0.00000000000E+00 -0.00000000000E+00 -0.26919130910E+03  0.26919130910E+03  0.00000000000E+00 0.  1.
         36    2    1    2    0    0  0.71054273576E-14 -0.71054273576E-14 -0.19868387944E+03  0.33969873877E+03  0.27553574935E+03 0.  0.
         25    2    3    3    0    0  0.42061417870E+01 -0.45575542123E+02 -0.42508451707E+02  0.13811011072E+03  0.12317715920E+03 0.  0.
         25    2    3    3    0    0 -0.42061417870E+01  0.45575542123E+02 -0.15617542773E+03  0.20158862804E+03  0.11896381408E+03 0.  0.
          5    1    4    4  502    0 -0.55030061872E+02 -0.39904807084E+01 -0.28506904807E+01  0.55447705832E+02  0.47000000000E+01 0. -1.
         -5    1    4    4    0  502  0.59236203659E+02 -0.41585061414E+02 -0.39657761226E+02  0.82662404890E+02  0.47000000000E+01 0. -1.
          5    1    5    5  503    0 -0.50795793121E+02  0.29550979516E+02 -0.30198089595E+02  0.66238112928E+02  0.47000000000E+01 0. -1.
         -5    1    5    5    0  503  0.46589651334E+02  0.16024562607E+02 -0.12597733814E+03  0.13535051512E+03  0.47000000000E+01 0. -1.
<mgrwt>
<rscale>  0 0.27553575E+03</rscale>
<asrwt>0</asrwt>
<pdfrwt beam="1">  1        1 0.10847297E-01 0.27553575E+03</pdfrwt>
<pdfrwt beam="2">  1       -1 0.41414049E-01 0.27553575E+03</pdfrwt>
<totfact> 0.33196293E+03</totfact>
</mgrwt>
</event>
<event>
 9    1  0.2051157E-002  0.2752640E+03  0.7818608E-02  0.1098304E+00
          2   -1    0    0  501    0  0.00000000000E+00  0.00000000000E+00  0.65775649112E+03  0.65775649112E+03  0.00000000000E+00 0.  1.
         -2   -1    0    0    0  501 -0.00000000000E+00 -0.00000000000E+00 -0.28798759707E+02  0.28798759707E+02  0.00000000000E+00 0.  1.
         36    2    1    2    0    0 -0.71054273576E-14 -0.35527136788E-14  0.62895773141E+03  0.68655525082E+03  0.27526402695E+03 0.  0.
         25    2    3    3    0    0  0.23903128987E+02 -0.50585399870E+01  0.43714118646E+03  0.45573302569E+03  0.12650385529E+03 0.  0.
         25    2    3    3    0    0 -0.23903128987E+02  0.50585399870E+01  0.19181654495E+03  0.23082222514E+03  0.12604905512E+03 0.  0.
          5    1    4    4  502    0 -0.33689859087E+02  0.36490832469E+02  0.10771559523E+03  0.11870689498E+03  0.47000000000E+01 0.  1.
         -5    1    4    4    0  502  0.57592988074E+02 -0.41549372456E+02  0.32942559122E+03  0.33702613071E+03  0.47000000000E+01 0.  1.
          5    1    5    5  503    0 -0.72173121638E+02 -0.18133886881E+02  0.10762678949E+03  0.13093285744E+03  0.47000000000E+01 0. -1.
         -5    1    5    5    0  503  0.48269992651E+02  0.23192426868E+02  0.84189755460E+02  0.99889367697E+02  0.47000000000E+01 0. -1.
<mgrwt>
<rscale>  0 0.27526403E+03</rscale>
<asrwt>0</asrwt>
<pdfrwt beam="1">  1        2 0.10119329E+00 0.27526403E+03</pdfrwt>
<pdfrwt beam="2">  1       -2 0.44305789E-02 0.27526403E+03</pdfrwt>
<totfact> 0.10602956E+04</totfact>
</mgrwt>
</event>
<event>
 9    1  0.2051157E-002  0.2746660E+03  0.7818608E-02  0.1098638E+00
          2   -1    0    0  501    0  0.00000000000E+00  0.00000000000E+00  0.67673688168E+02  0.67673688168E+02  0.00000000000E+00 0. -1.
         -2   -1    0    0    0  501 -0.00000000000E+00 -0.00000000000E+00 -0.27869555267E+03  0.27869555267E+03  0.00000000000E+00 0. -1.
         36    2    1    2    0    0 -0.71054273576E-14  0.00000000000E+00 -0.21102186450E+03  0.34636924084E+03  0.27466602211E+03 0.  0.
         25    2    3    3    0    0  0.42691730665E+02  0.18576765651E+02 -0.60995833999E+02  0.14558622174E+03  0.12372217306E+03 0.  0.
         25    2    3    3    0    0 -0.42691730665E+02 -0.18576765651E+02 -0.15002603050E+03  0.20078301909E+03  0.12505331199E+03 0.  0.
          5    1    4    4  502    0  0.75280825858E+02  0.22326331491E+02 -0.75845946586E+02  0.10927197918E+03  0.47000000000E+01 0. -1.
         -5    1    4    4    0  502 -0.32589095193E+02 -0.37495658401E+01  0.14850112586E+02  0.36314242568E+02  0.47000000000E+01 0. -1.
          5    1    5    5  503    0  0.11292651807E+02 -0.46026790599E+02 -0.10729867154E+02  0.48818126621E+02  0.47000000000E+01 0.  1.
         -5    1    5    5    0  503 -0.53984382472E+02  0.27450024947E+02 -0.13929616335E+03  0.15196489247E+03  0.47000000000E+01 0.  1.
<mgrwt>
<rscale>  0 0.27466602E+03</rscale>
<asrwt>0</asrwt>
<pdfrwt beam="1">  1        2 0.10411336E-01 0.27466602E+03</pdfrwt>
<pdfrwt beam="2">  1       -2 0.42876240E-01 0.27466602E+03</pdfrwt>
<totfact> 0.31593714E+03</totfact>
</mgrwt>
</event>
<event>
 9    1  0.2051157E-002  0.2749796E+03  0.7818608E-02  0.1098463E+00
         -1   -1    0    0    0  501 -0.00000000000E+00  0.00000000000E+00  0.13136119815E+02  0.13136119815E+02  0.00000000000E+00 0. -1.
          1   -1    0    0  501    0  0.00000000000E+00 -0.00000000000E+00 -0.14390432205E+04  0.14390432205E+04  0.00000000000E+00 0. -1.
         36    2    1    2    0    0  0.00000000000E+00  0.17763568394E-14 -0.14259071007E+04  0.14521793404E+04  0.27497959317E+03 0.  0.
         25    2    3    3    0    0 -0.22490940765E+02  0.77965537450E+01 -0.10005037288E+04  0.10082446893E+04  0.12240512015E+03 0.  0.
         25    2    3    3    0    0  0.22490940765E+02 -0.77965537450E+01 -0.42540337190E+03  0.44393465106E+03  0.12467283954E+03 0.  0.
          5    1    4    4  502    0 -0.68869157616E+02  0.51417092348E+01 -0.40144159062E+03  0.40736573092E+03  0.47000000000E+01 0. -1.
         -5    1    4    4    0  502  0.46378216850E+02  0.26548445101E+01 -0.59906213820E+03  0.60087895838E+03  0.47000000000E+01 0. -1.
          5    1    5    5  503    0 -0.23433302908E+02  0.34722790281E+02 -0.60887646014E+02  0.74055298846E+02  0.47000000000E+01 0.  1.
         -5    1    5    5    0  503  0.45924243673E+02 -0.42519344026E+02 -0.36451572589E+03  0.36987935221E+03  0.47000000000E+01 0.  1.
<mgrwt>
<rscale>  0 0.27497959E+03</rscale>
<asrwt>0</asrwt>
<pdfrwt beam="1">  1        1 0.22139130E+00 0.27497959E+03</pdfrwt>
<pdfrwt beam="2">  1       -1 0.20209412E-02 0.27497959E+03</pdfrwt>
<totfact> 0.53063595E+03</totfact>
</mgrwt>
</event>
<event>
 9    1  0.2051157E-002  0.2749068E+03  0.7818608E-02  0.1098504E+00
          2   -1    0    0  501    0  0.00000000000E+00  0.00000000000E+00  0.41682667421E+03  0.41682667421E+03  0.00000000000E+00 0.  1.
         -2   -1    0    0    0  501 -0.00000000000E+00 -0.00000000000E+00 -0.45326841447E+02  0.45326841447E+02  0.00000000000E+00 0.  1.
         36    2    1    2    0    0 -0.71054273576E-14  0.21316282073E-13  0.37149983276E+03  0.46215351566E+03  0.27490679564E+03 0.  0.
         25    2    3    3    0    0 -0.23634049601E+02  0.61602961946E+02  0.20971655694E+03  0.24623739448E+03  0.11089782218E+03 0.  0.
         25    2    3    3    0    0  0.23634049601E+02 -0.61602961946E+02  0.16178327583E+03  0.21591612118E+03  0.12685602007E+03 0.  0.
          5    1    4    4  502    0  0.94420884265E+01 -0.11960775224E+02  0.13579693962E+03  0.13673006980E+03  0.47000000000E+01 0.  1.
         -5    1    4    4    0  502 -0.33076138028E+02  0.73563737170E+02  0.73919617313E+02  0.10950732467E+03  0.47000000000E+01 0.  1.
          5    1    5    5  503    0  0.44045419856E+02 -0.24370289457E+02  0.20819378547E+01  0.50599747863E+02  0.47000000000E+01 0.  1.
         -5    1    5    5    0  503 -0.20411370255E+02 -0.37232672489E+02  0.15970133797E+03  0.16531637332E+03  0.47000000000E+01 0.  1.
<mgrwt>
<rscale>  0 0.27490680E+03</rscale>
<asrwt>0</asrwt>
<pdfrwt beam="1">  1        2 0.64127178E-01 0.27490680E+03</pdfrwt>
<pdfrwt beam="2">  1       -2 0.69733605E-02 0.27490680E+03</pdfrwt>
<totfact> 0.88844370E+03</totfact>
</mgrwt>
</event>
<event>
 9    1  0.2051157E-002  0.2749766E+03  0.7818608E-02  0.1098465E+00
          1   -1    0    0  501    0  0.00000000000E+00  0.00000000000E+00  0.12058939535E+04  0.12058939535E+04  0.00000000000E+00 0.  1.
         -1   -1    0    0    0  501 -0.00000000000E+00 -0.00000000000E+00 -0.15675540264E+02  0.15675540264E+02  0.00000000000E+00 0.  1.
         36    2    1    2    0    0  0.00000000000E+00 -0.35527136788E-14  0.11902184132E+04  0.12215694937E+04  0.27497664790E+03 0.  0.
         25    2    3    3    0    0 -0.31550935943E+02 -0.20538752004E+02  0.46056335471E+03  0.47959399932E+03  0.12835302330E+03 0.  0.
         25    2    3    3    0    0  0.31550935943E+02  0.20538752004E+02  0.72965505851E+03  0.74197549443E+03  0.12928197101E+03 0.  0.
          5    1    4    4  502    0 -0.54783041691E+02 -0.50256909667E+02  0.40789123472E+03  0.41463753808E+03  0.47000000000E+01 0. -1.
         -5    1    4    4    0  502  0.23232105747E+02  0.29718157663E+02  0.52672119990E+02  0.64956461238E+02  0.47000000000E+01 0. -1.
          5    1    5    5  503    0 -0.31344973988E+02 -0.11042340288E+02  0.61117628042E+02  0.69727291148E+02  0.47000000000E+01 0.  1.
         -5    1    5    5    0  503  0.62895909931E+02  0.31581092292E+02  0.66853743047E+03  0.67224820328E+03  0.47000000000E+01 0.  1.
<mgrwt>
<rscale>  0 0.27497665E+03</rscale>
<asrwt>0</asrwt>
<pdfrwt beam="1">  1        1 0.18552207E+00 0.27497665E+03</pdfrwt>
<pdfrwt beam="2">  1       -1 0.24116225E-02 0.27497665E+03</pdfrwt>
<totfact> 0.59052920E+03</totfact>
</mgrwt>
</event>
<event>
 9    1  0.2051157E-002  0.2752942E+03  0.7818608E-02  0.1098287E+00
         -1   -1    0    0    0  501 -0.00000000000E+00  0.00000000000E+00  0.57962310704E+02  0.57962310704E+02  0.00000000000E+00 0.  1.
          1   -1    0    0  501    0  0.00000000000E+00 -0.00000000000E+00 -0.32688005221E+03  0.32688005221E+03  0.00000000000E+00 0.  1.
         36    2    1    2    0    0 -0.35527136788E-14 -0.71054273576E-14 -0.26891774151E+03  0.38484236292E+03  0.27529419281E+03 0.  0.
         25    2    3    3    0    0  0.57645045834E+01  0.15695747562E+02 -0.52365686647E+02  0.13680814603E+03  0.12527856033E+03 0.  0.
         25    2    3    3    0    0 -0.57645045834E+01 -0.15695747562E+02 -0.21655205486E+03  0.24803421689E+03  0.11977726945E+03 0.  0.
          5    1    4    4  502    0 -0.36923909013E+02 -0.18772146991E+02 -0.67824758122E+02  0.79611911004E+02  0.47000000000E+01 0.  1.
         -5    1    4    4    0  502  0.42688413596E+02  0.34467894553E+02  0.15459071475E+02  0.57196235026E+02  0.47000000000E+01 0.  1.
          5    1    5    5  503    0 -0.32183664347E+02  0.43748674283E+02 -0.81399767672E+02  0.97968091384E+02  0.47000000000E+01 0.  1.
         -5    1    5    5    0  503  0.26419159764E+02 -0.59444421845E+02 -0.13515228719E+03  0.15006612550E+03  0.47000000000E+01 0.  1.
<mgrwt>
<rscale>  0 0.27529419E+03</rscale>
<asrwt>0</asrwt>
<pdfrwt beam="1">  1        1 0.50289239E-01 0.27529419E+03</pdfrwt>
<pdfrwt beam="2">  1       -1 0.89172785E-02 0.27529419E+03</pdfrwt>
<totfact> 0.56835864E+03</totfact>
</mgrwt>
</event>
<event>
 9    1  0.2051157E-002  0.2748753E+03  0.7818608E-02  0.1098521E+00
         -2   -1    0    0    0  501 -0.00000000000E+00  0.00000000000E+00  0.72810181069E+01  0.72810181069E+01  0.00000000000E+00 0.  1.
          2   -1    0    0  501    0  0.00000000000E+00 -0.00000000000E+00 -0.25942952685E+04  0.25942952685E+04  0.00000000000E+00 0.  1.
         36    2    1    2    0    0  0.00000000000E+00 -0.17763568394E-14 -0.25870142504E+04  0.26015762867E+04  0.27487532319E+03 0.  0.
         25    2    3    3    0    0  0.60545046392E+01 -0.40853635989E+01 -0.81491293892E+03  0.82506045438E+03  0.12879560609E+03 0.  0.
         25    2    3    3    0    0 -0.60545046392E+01  0.40853635989E+01 -0.17721013115E+04  0.17765158323E+04  0.12494837649E+03 0.  0.
          5    1    4    4  502    0  0.43408422342E+02 -0.32238260186E+02 -0.17038577242E+03  0.17882113408E+03  0.47000000000E+01 0. -1.
         -5    1    4    4    0  502 -0.37353917703E+02  0.28152896587E+02 -0.64452716650E+03  0.64623932030E+03  0.47000000000E+01 0. -1.
          5    1    5    5  503    0 -0.49587569941E+02  0.41969569105E+01 -0.15065340197E+04  0.15073630565E+04  0.47000000000E+01 0.  1.
         -5    1    5    5    0  503  0.43533065302E+02 -0.11159331153E+00 -0.26556729180E+03  0.26915277576E+03  0.47000000000E+01 0.  1.
<mgrwt>
<rscale>  0 0.27487532E+03</rscale>
<asrwt>0</asrwt>
<pdfrwt beam="1">  1        2 0.39912269E+00 0.27487532E+03</pdfrwt>
<pdfrwt beam="2">  1       -2 0.11201557E-02 0.27487532E+03</pdfrwt>
<totfact> 0.64310180E+03</totfact>
</mgrwt>
</event>
<event>
 9    1  0.2051157E-002  0.2743061E+03  0.7818608E-02  0.1098840E+00
         -4   -1    0    0    0  501 -0.00000000000E+00  0.00000000000E+00  0.36966195794E+02  0.36966195794E+02  0.00000000000E+00 0.  1.
          4   -1    0    0  501    0  0.00000000000E+00 -0.00000000000E+00 -0.50886932691E+03  0.50886932691E+03  0.00000000000E+00 0.  1.
         36    2    1    2    0    0 -0.71054273576E-14  0.00000000000E+00 -0.47190313112E+03  0.54583552271E+03  0.27430612952E+03 0.  0.
         25    2    3    3    0    0  0.14014381946E+02  0.24447882962E+02 -0.14536427168E+03  0.19553499843E+03  0.12770693892E+03 0.  0.
         25    2    3    3    0    0 -0.14014381946E+02 -0.24447882962E+02 -0.32653885944E+03  0.35030052427E+03  0.12364759884E+03 0.  0.
          5    1    4    4  502    0 -0.41426787998E+02 -0.22292267599E+02 -0.21519108386E+02  0.51945028485E+02  0.47000000000E+01 0.  1.
         -5    1    4    4    0  502  0.55441169945E+02  0.46740150561E+02 -0.12384516329E+03  0.14358996995E+03  0.47000000000E+01 0.  1.
          5    1    5    5  503    0 -0.39665924130E+01  0.39982330875E+02 -0.23111482286E+03  0.23462836994E+03  0.47000000000E+01 0. -1.
         -5    1    5    5    0  503 -0.10047789533E+02 -0.64430213837E+02 -0.95424036582E+02  0.11567215433E+03  0.47000000000E+01 0. -1.
<mgrwt>
<rscale>  0 0.27430613E+03</rscale>
<asrwt>0</asrwt>
<pdfrwt beam="1">  1        4 0.78287589E-01 0.27430613E+03</pdfrwt>
<pdfrwt beam="2">  1       -4 0.56871071E-02 0.27430613E+03</pdfrwt>
<totfact> 0.54081757E+02</totfact>
</mgrwt>
</event>
<event>
 9    1  0.2051157E-002  0.2754268E+03  0.7818608E-02  0.1098213E+00
         -2   -1    0    0    0  501 -0.00000000000E+00  0.00000000000E+00  0.20555519733E+02  0.20555519733E+02  0.00000000000E+00 0. -1.
          2   -1    0    0  501    0  0.00000000000E+00 -0.00000000000E+00 -0.92262243025E+03  0.92262243025E+03  0.00000000000E+00 0. -1.
         36    2    1    2    0    0 -0.14210854715E-13  0.17763568394E-14 -0.90206691052E+03  0.94317794999E+03  0.27542682201E+03 0.  0.
         25    2    3    3    0    0  0.57728367361E+02 -0.65186903236E+01 -0.50537827980E+03  0.52358450907E+03  0.12392931343E+03 0.  0.
         25    2    3    3    0    0 -0.57728367361E+02  0.65186903236E+01 -0.39668863072E+03  0.41959344091E+03  0.12378096862E+03 0.  0.
          5    1    4    4  502    0  0.27430411416E+02  0.52078732497E+02 -0.13501139860E+03  0.14735938926E+03  0.47000000000E+01 0.  1.
         -5    1    4    4    0  502  0.30297955945E+02 -0.58597422820E+02 -0.37036688119E+03  0.37622511982E+03  0.47000000000E+01 0.  1.
          5    1    5    5  503    0  0.33582505407E+02  0.82798380552E+01 -0.19556162717E+03  0.19865241103E+03  0.47000000000E+01 0. -1.
         -5    1    5    5    0  503 -0.91310872768E+02 -0.17611477316E+01 -0.20112700356E+03  0.22094102989E+03  0.47000000000E+01 0. -1.
<mgrwt>
<rscale>  0 0.27542682E+03</rscale>
<asrwt>0</asrwt>
<pdfrwt beam="1">  1        2 0.14194190E+00 0.27542682E+03</pdfrwt>
<pdfrwt beam="2">  1       -2 0.31623879E-02 0.27542682E+03</pdfrwt>
<totfact> 0.11465740E+04</totfact>
</mgrwt>
</event>
<event>
 9    1  0.2051157E-002  0.2757022E+03  0.7818608E-02  0.1098060E+00
         -1   -1    0    0    0  501 -0.00000000000E+00  0.00000000000E+00  0.27421587420E+03  0.27421587420E+03  0.00000000000E+00 0. -1.
          1   -1    0    0  501    0  0.00000000000E+00 -0.00000000000E+00 -0.69299122604E+02  0.69299122604E+02  0.00000000000E+00 0. -1.
         36    2    1    2    0    0  0.00000000000E+00  0.71054273576E-14  0.20491675160E+03  0.34351499681E+03  0.27570215441E+03 0.  0.
         25    2    3    3    0    0 -0.29921228495E+02  0.32598646943E+02  0.62030579390E+02  0.14742971424E+03  0.12621321707E+03 0.  0.
         25    2    3    3    0    0  0.29921228495E+02 -0.32598646943E+02  0.14288617221E+03  0.19608528257E+03  0.12678733429E+03 0.  0.
          5    1    4    4  502    0 -0.13435130680E+02 -0.62793399281E+01 -0.36745214596E+02  0.39902802433E+02  0.47000000000E+01 0. -1.
         -5    1    4    4    0  502 -0.16486097815E+02  0.38877986872E+02  0.98775793986E+02  0.10752691180E+03  0.47000000000E+01 0. -1.
          5    1    5    5  503    0 -0.64681861083E+01 -0.69036255147E+00  0.14706220099E+03  0.14728100689E+03  0.47000000000E+01 0. -1.
         -5    1    5    5    0  503  0.36389414603E+02 -0.31908284392E+02 -0.41760287804E+01  0.48804275677E+02  0.47000000000E+01 0. -1.
<mgrwt>
<rscale>  0 0.27570215E+03</rscale>
<asrwt>0</asrwt>
<pdfrwt beam="1">  1        1 0.10661404E-01 0.27570215E+03</pdfrwt>
<pdfrwt beam="2">  1       -1 0.42187057E-01 0.27570215E+03</pdfrwt>
<totfact> 0.32868388E+03</totfact>
</mgrwt>
</event>
<event>
 9    1  0.2051157E-002  0.2753115E+03  0.7818608E-02  0.1098278E+00
          2   -1    0    0  501    0  0.00000000000E+00  0.00000000000E+00  0.18246200071E+04  0.18246200071E+04  0.00000000000E+00 0. -1.
         -2   -1    0    0    0  501 -0.00000000000E+00 -0.00000000000E+00 -0.10385233645E+02  0.10385233645E+02  0.00000000000E+00 0. -1.
         36    2    1    2    0    0  0.00000000000E+00  0.00000000000E+00  0.18142347735E+04  0.18350052408E+04  0.27531149695E+03 0.  0.
         25    2    3    3    0    0  0.65040392861E+02  0.61142421098E+02  0.85851851062E+03  0.87205732582E+03  0.12434346820E+03 0.  0.
         25    2    3    3    0    0 -0.65040392861E+02 -0.61142421098E+02  0.95571626286E+03  0.96294791494E+03  0.76853519396E+02 0.  0.
          5    1    4    4  502    0  0.53395152550E+02  0.75175231702E+02  0.31599427669E+03  0.32920636488E+03  0.47000000000E+01 0.  1.
         -5    1    4    4    0  502  0.11645240310E+02 -0.14032810604E+02  0.54252423393E+03  0.54285096094E+03  0.47000000000E+01 0.  1.
          5    1    5    5  503    0 -0.49291173339E+02 -0.49317177742E+01  0.25640825477E+03  0.26119193081E+03  0.47000000000E+01 0. -1.
         -5    1    5    5    0  503 -0.15749219522E+02 -0.56210703323E+02  0.69930800809E+03  0.70175598413E+03  0.47000000000E+01 0. -1.
<mgrwt>
<rscale>  0 0.27531150E+03</rscale>
<asrwt>0</asrwt>
<pdfrwt beam="1">  1        2 0.28071052E+00 0.27531150E+03</pdfrwt>
<pdfrwt beam="2">  1       -2 0.15977297E-02 0.27531150E+03</pdfrwt>
<totfact> 0.98804777E+03</totfact>
</mgrwt>
</event>
<event>
 9    1  0.2051157E-002  0.2747370E+03  0.7818608E-02  0.1098599E+00
          2   -1    0    0  501    0  0.00000000000E+00  0.00000000000E+00  0.10542296378E+04  0.10542296378E+04  0.00000000000E+00 0. -1.
         -2   -1    0    0    0  501 -0.00000000000E+00 -0.00000000000E+00 -0.17899427995E+02  0.17899427995E+02  0.00000000000E+00 0. -1.
         36    2    1    2    0    0  0.00000000000E+00 -0.71054273576E-14  0.10363302098E+04  0.10721290658E+04  0.27473701966E+03 0.  0.
         25    2    3    3    0    0  0.94005090824E+01  0.38280420824E+02  0.34021960511E+03  0.36427089798E+03  0.12405703214E+03 0.  0.
         25    2    3    3    0    0 -0.94005090824E+01 -0.38280420824E+02  0.69611060472E+03  0.70785816785E+03  0.12222704933E+03 0.  0.
          5    1    4    4  502    0 -0.97103421898E+01  0.35905971233E+02  0.34229264241E+03  0.34433976327E+03  0.47000000000E+01 0.  1.
         -5    1    4    4    0  502  0.19110851272E+02  0.23744495905E+01 -0.20730373038E+01  0.19931134711E+02  0.47000000000E+01 0.  1.
          5    1    5    5  503    0 -0.59723240272E+02  0.71986907923E+01  0.34097171398E+03  0.34626938402E+03  0.47000000000E+01 0. -1.
         -5    1    5    5    0  503  0.50322731190E+02 -0.45479111616E+02  0.35513889075E+03  0.36158878382E+03  0.47000000000E+01 0. -1.
<mgrwt>
<rscale>  0 0.27473702E+03</rscale>
<asrwt>0</asrwt>
<pdfrwt beam="1">  1        2 0.16218913E+00 0.27473702E+03</pdfrwt>
<pdfrwt beam="2">  1       -2 0.27537590E-02 0.27473702E+03</pdfrwt>
<totfact> 0.11684310E+04</totfact>
</mgrwt>
</event>
<event>
 9    1  0.2051157E-002  0.2737521E+03  0.7818608E-02  0.1099151E+00
          1   -1    0    0  501    0  0.00000000000E+00  0.00000000000E+00  0.61683148627E+03  0.61683148627E+03  0.00000000000E+00 0.  1.
         -1   -1    0    0    0  501 -0.00000000000E+00 -0.00000000000E+00 -0.30373044907E+02  0.30373044907E+02  0.00000000000E+00 0.  1.
         36    2    1    2    0    0  0.00000000000E+00 -0.71054273576E-14  0.58645844136E+03  0.64720453118E+03  0.27375208078E+03 0.  0.
         25    2    3    3    0    0  0.26871475168E+02  0.41066159532E+02  0.34875492705E+03  0.37389122435E+03  0.12552347535E+03 0.  0.
         25    2    3    3    0    0 -0.26871475168E+02 -0.41066159532E+02  0.23770351431E+03  0.27331330683E+03  0.12565308328E+03 0.  0.
          5    1    4    4  502    0 -0.41591980062E+02  0.47321183016E+02  0.12997379244E+03  0.14451458020E+03  0.47000000000E+01 0. -1.
         -5    1    4    4    0  502  0.68463455230E+02 -0.62550234842E+01  0.21878113461E+03  0.22937664415E+03  0.47000000000E+01 0. -1.
          5    1    5    5  503    0  0.32697566787E+02  0.15584126308E+02  0.14405901145E+03  0.14861724209E+03  0.47000000000E+01 0.  1.
         -5    1    5    5    0  503 -0.59569041955E+02 -0.56650285840E+02  0.93644502855E+02  0.12469606473E+03  0.47000000000E+01 0.  1.
<mgrwt>
<rscale>  0 0.27375208E+03</rscale>
<asrwt>0</asrwt>
<pdfrwt beam="1">  1        1 0.94897143E-01 0.27375208E+03</pdfrwt>
<pdfrwt beam="2">  1       -1 0.46727766E-02 0.27375208E+03</pdfrwt>
<totfact> 0.65669616E+03</totfact>
</mgrwt>
</event>
<event>
 9    1  0.2051157E-002  0.2747350E+03  0.7818608E-02  0.1098600E+00
         -2   -1    0    0    0  501 -0.00000000000E+00  0.00000000000E+00  0.56743172456E+03  0.56743172456E+03  0.00000000000E+00 0. -1.
          2   -1    0    0  501    0  0.00000000000E+00 -0.00000000000E+00 -0.33254794249E+02  0.33254794249E+02  0.00000000000E+00 0. -1.
         36    2    1    2    0    0 -0.71054273576E-14  0.00000000000E+00  0.53417693031E+03  0.60068651881E+03  0.27473496501E+03 0.  0.
         25    2    3    3    0    0  0.29832446277E+02 -0.37988974419E+02  0.30517186162E+03  0.33386121321E+03  0.12649232202E+03 0.  0.
         25    2    3    3    0    0 -0.29832446277E+02  0.37988974419E+02  0.22900506869E+03  0.26682530560E+03  0.12813775867E+03 0.  0.
          5    1    4    4  502    0  0.53093005361E+02 -0.32959938800E+02  0.30310496074E+03  0.30951564097E+03  0.47000000000E+01 0. -1.
         -5    1    4    4    0  502 -0.23260559084E+02 -0.50290356195E+01  0.20669008878E+01  0.24345572235E+02  0.47000000000E+01 0. -1.
          5    1    5    5  503    0 -0.68515567735E+02  0.14193437248E+02  0.61715966398E+02  0.93417274588E+02  0.47000000000E+01 0. -1.
         -5    1    5    5    0  503  0.38683121459E+02  0.23795537171E+02  0.16728910229E+03  0.17340803101E+03  0.47000000000E+01 0. -1.
<mgrwt>
<rscale>  0 0.27473497E+03</rscale>
<asrwt>0</asrwt>
<pdfrwt beam="1">  1        2 0.51161226E-02 0.27473497E+03</pdfrwt>
<pdfrwt beam="2">  1       -2 0.87297181E-01 0.27473497E+03</pdfrwt>
<totfact> 0.17836865E+03</totfact>
</mgrwt>
</event>
<event>
 9    1  0.2051157E-002  0.2740006E+03  0.7818608E-02  0.1099012E+00
         -1   -1    0    0    0  501 -0.00000000000E+00  0.00000000000E+00  0.53450537876E+03  0.53450537876E+03  0.00000000000E+00 0.  1.
          1   -1    0    0  501    0  0.00000000000E+00 -0.00000000000E+00 -0.35114861270E+02  0.35114861270E+02  0.00000000000E+00 0.  1.
         36    2    1    2    0    0  0.00000000000E+00  0.71054273576E-14  0.49939051749E+03  0.56962024003E+03  0.27400060017E+03 0.  0.
         25    2    3    3    0    0 -0.36040444748E+02  0.24897975922E+02  0.32127412103E+03  0.34800867645E+03  0.12638890450E+03 0.  0.
         25    2    3    3    0    0  0.36040444748E+02 -0.24897975922E+02  0.17811639646E+03  0.22161156357E+03  0.12436804879E+03 0.  0.
          5    1    4    4  502    0 -0.14299270708E+02  0.76045269953E+02  0.20103021326E+03  0.21545901900E+03  0.47000000000E+01 0.  1.
         -5    1    4    4    0  502 -0.21741174039E+02 -0.51147294031E+02  0.12024390777E+03  0.13254965746E+03  0.47000000000E+01 0.  1.
          5    1    5    5  503    0  0.18518214951E+02 -0.62237378912E+02  0.16608610457E+03  0.17839030173E+03  0.47000000000E+01 0.  1.
         -5    1    5    5    0  503  0.17522229797E+02  0.37339402991E+02  0.12030291886E+02  0.43221261847E+02  0.47000000000E+01 0.  1.
<mgrwt>
<rscale>  0 0.27400060E+03</rscale>
<asrwt>0</asrwt>
<pdfrwt beam="1">  1        1 0.54022867E-02 0.27400060E+03</pdfrwt>
<pdfrwt beam="2">  1       -1 0.82231591E-01 0.27400060E+03</pdfrwt>
<totfact> 0.22973647E+03</totfact>
</mgrwt>
</event>
<event>
 9    1  0.2051157E-002  0.2749622E+03  0.7818608E-02  0.1098473E+00
          2   -1    0    0  501    0  0.00000000000E+00  0.00000000000E+00  0.15008961629E+04  0.15008961629E+04  0.00000000000E+00 0.  1.
         -2   -1    0    0    0  501 -0.00000000000E+00 -0.00000000000E+00 -0.12593176691E+02  0.12593176691E+02  0.00000000000E+00 0.  1.
         36    2    1    2    0    0 -0.35527136788E-14  0.00000000000E+00  0.14883029862E+04  0.15134893396E+04  0.27496218339E+03 0.  0.
         25    2    3    3    0    0  0.73164200903E+01  0.37081817572E+02  0.87979313709E+03  0.88939959013E+03  0.12476808749E+03 0.  0.
         25    2    3    3    0    0 -0.73164200903E+01 -0.37081817572E+02  0.60850984914E+03  0.62408974948E+03  0.13332362023E+03 0.  0.
          5    1    4    4  502    0 -0.28107272445E+02  0.48016986970E+02  0.17666033040E+03  0.18527442387E+03  0.47000000000E+01 0. -1.
         -5    1    4    4    0  502  0.35423692535E+02 -0.10935169398E+02  0.70313280669E+03  0.70412516626E+03  0.47000000000E+01 0. -1.
          5    1    5    5  503    0 -0.58657243822E+02  0.91638861147E+00  0.15006303206E+03  0.16119092906E+03  0.47000000000E+01 0.  1.
         -5    1    5    5    0  503  0.51340823732E+02 -0.37998206183E+02  0.45844681708E+03  0.46289882042E+03  0.47000000000E+01 0.  1.
<mgrwt>
<rscale>  0 0.27496218E+03</rscale>
<asrwt>0</asrwt>
<pdfrwt beam="1">  1        2 0.23090696E+00 0.27496218E+03</pdfrwt>
<pdfrwt beam="2">  1       -2 0.19374130E-02 0.27496218E+03</pdfrwt>
<totfact> 0.11041077E+04</totfact>
</mgrwt>
</event>
<event>
 9    1  0.2051157E-002  0.2731162E+03  0.7818608E-02  0.1099509E+00
          1   -1    0    0  501    0  0.00000000000E+00  0.00000000000E+00  0.22088948379E+03  0.22088948379E+03  0.00000000000E+00 0.  1.
         -1   -1    0    0    0  501 -0.00000000000E+00 -0.00000000000E+00 -0.84422855839E+02  0.84422855839E+02  0.00000000000E+00 0.  1.
         36    2    1    2    0    0  0.71054273576E-14  0.00000000000E+00  0.13646662795E+03  0.30531233963E+03  0.27311624665E+03 0.  0.
         25    2    3    3    0    0 -0.16649152848E+02  0.53233657897E+02  0.70030504930E+02  0.15310491923E+03  0.12420075703E+03 0.  0.
         25    2    3    3    0    0  0.16649152848E+02 -0.53233657897E+02  0.66436123018E+02  0.15220742040E+03  0.12506927584E+03 0.  0.
          5    1    4    4  502    0 -0.27171983677E+02  0.55112923359E+02  0.10194326782E+03  0.11912292337E+03  0.47000000000E+01 0.  1.
         -5    1    4    4    0  502  0.10522830829E+02 -0.18792654626E+01 -0.31912762889E+02  0.33981995858E+02  0.47000000000E+01 0.  1.
          5    1    5    5  503    0 -0.53834044244E+01  0.62915875767E+01 -0.32889419426E+02  0.34239874819E+02  0.47000000000E+01 0. -1.
         -5    1    5    5    0  503  0.22032557273E+02 -0.59525245473E+02  0.99325542444E+02  0.11796754558E+03  0.47000000000E+01 0. -1.
<mgrwt>
<rscale>  0 0.27311625E+03</rscale>
<asrwt>0</asrwt>
<pdfrwt beam="1">  1        1 0.33982997E-01 0.27311625E+03</pdfrwt>
<pdfrwt beam="2">  1       -1 0.12988132E-01 0.27311625E+03</pdfrwt>
<totfact> 0.51867797E+03</totfact>
</mgrwt>
</event>
<event>
 9    1  0.2051157E-002  0.2745047E+03  0.7818608E-02  0.1098729E+00
         -1   -1    0    0    0  501 -0.00000000000E+00  0.00000000000E+00  0.21190722765E+03  0.21190722765E+03  0.00000000000E+00 0. -1.
          1   -1    0    0  501    0  0.00000000000E+00 -0.00000000000E+00 -0.88898359330E+02  0.88898359330E+02  0.00000000000E+00 0. -1.
         36    2    1    2    0    0 -0.71054273576E-14  0.35527136788E-14  0.12300886833E+03  0.30080558698E+03  0.27450468024E+03 0.  0.
         25    2    3    3    0    0  0.19444198718E+02  0.55180257264E+01  0.45269756209E+01  0.12637640706E+03  0.12466746681E+03 0.  0.
         25    2    3    3    0    0 -0.19444198718E+02 -0.55180257264E+01  0.11848189270E+03  0.17442917993E+03  0.12640828469E+03 0.  0.
          5    1    4    4  502    0 -0.15938636705E+02  0.58941581479E+02 -0.49142499829E+01  0.61436064491E+02  0.47000000000E+01 0.  1.
         -5    1    4    4    0  502  0.35382835422E+02 -0.53423555753E+02  0.94412256039E+01  0.64940342567E+02  0.47000000000E+01 0.  1.
          5    1    5    5  503    0  0.44112762220E+02  0.29982919243E+02  0.37128867573E+02  0.65157916205E+02  0.47000000000E+01 0. -1.
         -5    1    5    5    0  503 -0.63556960937E+02 -0.35500944969E+02  0.81353025131E+02  0.10927126372E+03  0.47000000000E+01 0. -1.
<mgrwt>
<rscale>  0 0.27450468E+03</rscale>
<asrwt>0</asrwt>
<pdfrwt beam="1">  1        1 0.13676671E-01 0.27450468E+03</pdfrwt>
<pdfrwt beam="2">  1       -1 0.32601112E-01 0.27450468E+03</pdfrwt>
<totfact> 0.37092036E+03</totfact>
</mgrwt>
</event>
<event>
 9    1  0.2051157E-002  0.2685877E+03  0.7818608E-02  0.1102091E+00
          2   -1    0    0  501    0  0.00000000000E+00  0.00000000000E+00  0.12961666798E+03  0.12961666798E+03  0.00000000000E+00 0. -1.
         -2   -1    0    0    0  501 -0.00000000000E+00 -0.00000000000E+00 -0.13913979606E+03  0.13913979606E+03  0.00000000000E+00 0. -1.
         36    2    1    2    0    0 -0.35527136788E-14 -0.44408920985E-15 -0.95231280720E+01  0.26875646404E+03  0.26858768958E+03 0.  0.
         25    2    3    3    0    0 -0.18883325562E+02 -0.18964176613E+01  0.49479226080E+02  0.12994042339E+03  0.11864292407E+03 0.  0.
         25    2    3    3    0    0  0.18883325562E+02  0.18964176613E+01 -0.59002354152E+02  0.13881604065E+03  0.12421126746E+03 0.  0.
          5    1    4    4  502    0 -0.45076766546E+02  0.21144630130E+01  0.78308115969E+02  0.90502137337E+02  0.47000000000E+01 0. -1.
         -5    1    4    4    0  502  0.26193440984E+02 -0.40108806743E+01 -0.28828889888E+02  0.39438286050E+02  0.47000000000E+01 0. -1.
          5    1    5    5  503    0  0.44570256928E+02 -0.39308127923E+02  0.32800722463E+01  0.59703313119E+02  0.47000000000E+01 0. -1.
         -5    1    5    5    0  503 -0.25686931367E+02  0.41204545584E+02 -0.62282426398E+02  0.79112727534E+02  0.47000000000E+01 0. -1.
<mgrwt>
<rscale>  0 0.26858769E+03</rscale>
<asrwt>0</asrwt>
<pdfrwt beam="1">  1        2 0.19941026E-01 0.26858769E+03</pdfrwt>
<pdfrwt beam="2">  1       -2 0.21406122E-01 0.26858769E+03</pdfrwt>
<totfact> 0.51631917E+03</totfact>
</mgrwt>
</event>
<event>
 9    1  0.2051157E-002  0.2745858E+03  0.7818608E-02  0.1098683E+00
          2   -1    0    0  501    0  0.00000000000E+00  0.00000000000E+00  0.29861542511E+02  0.29861542511E+02  0.00000000000E+00 0. -1.
         -2   -1    0    0    0  501 -0.00000000000E+00 -0.00000000000E+00 -0.63122483428E+03  0.63122483428E+03  0.00000000000E+00 0. -1.
         36    2    1    2    0    0 -0.35527136788E-14  0.14210854715E-13 -0.60136329177E+03  0.66108637680E+03  0.27458584977E+03 0.  0.
         25    2    3    3    0    0  0.31091214134E+02 -0.45847299156E+02 -0.23813735075E+03  0.27315546698E+03  0.12180259803E+03 0.  0.
         25    2    3    3    0    0 -0.31091214134E+02  0.45847299156E+02 -0.36322594103E+03  0.38793090981E+03  0.12445347772E+03 0.  0.
          5    1    4    4  502    0  0.57655647537E+02 -0.52469966223E+02 -0.77114901475E+02  0.10975458568E+03  0.47000000000E+01 0.  1.
         -5    1    4    4    0  502 -0.26564433403E+02  0.66226670674E+01 -0.16102244927E+03  0.16340088130E+03  0.47000000000E+01 0.  1.
          5    1    5    5  503    0 -0.54878226688E+02 -0.19641832690E+02 -0.10242562968E+03  0.11794287164E+03  0.47000000000E+01 0. -1.
         -5    1    5    5    0  503  0.23787012554E+02  0.65489131846E+02 -0.26080031135E+03  0.26998803817E+03  0.47000000000E+01 0. -1.
<mgrwt>
<rscale>  0 0.27458585E+03</rscale>
<asrwt>0</asrwt>
<pdfrwt beam="1">  1        2 0.45940835E-02 0.27458585E+03</pdfrwt>
<pdfrwt beam="2">  1       -2 0.97111511E-01 0.27458585E+03</pdfrwt>
<totfact> 0.16141650E+03</totfact>
</mgrwt>
</event>
<event>
 9    1  0.2051157E-002  0.2742775E+03  0.7818608E-02  0.1098856E+00
         -2   -1    0    0    0  501 -0.00000000000E+00  0.00000000000E+00  0.10345616416E+02  0.10345616416E+02  0.00000000000E+00 0.  1.
          2   -1    0    0  501    0  0.00000000000E+00 -0.00000000000E+00 -0.18178748074E+04  0.18178748074E+04  0.00000000000E+00 0.  1.
         36    2    1    2    0    0  0.35527136788E-14 -0.71054273576E-14 -0.18075291909E+04  0.18282204238E+04  0.27427749051E+03 0.  0.
         25    2    3    3    0    0 -0.10048204173E+02 -0.65139550334E+01 -0.75883963764E+03  0.77228514003E+03  0.14298022185E+03 0.  0.
         25    2    3    3    0    0  0.10048204173E+02  0.65139550334E+01 -0.10486895533E+04  0.10559352837E+04  0.12290706341E+03 0.  0.
          5    1    4    4  502    0 -0.59803501133E+02 -0.44088765143E+02 -0.52408648898E+03  0.52934772683E+03  0.47000000000E+01 0.  1.
         -5    1    4    4    0  502  0.49755296960E+02  0.37574810110E+02 -0.23475314866E+03  0.24293741320E+03  0.47000000000E+01 0.  1.
          5    1    5    5  503    0 -0.29677186017E+02  0.43995203112E+02 -0.26335857034E+03  0.26869339374E+03  0.47000000000E+01 0.  1.
         -5    1    5    5    0  503  0.39725390190E+02 -0.37481248079E+02 -0.78533098296E+03  0.78724189001E+03  0.47000000000E+01 0.  1.
<mgrwt>
<rscale>  0 0.27427749E+03</rscale>
<asrwt>0</asrwt>
<pdfrwt beam="1">  1        2 0.27967282E+00 0.27427749E+03</pdfrwt>
<pdfrwt beam="2">  1       -2 0.15916346E-02 0.27427749E+03</pdfrwt>
<totfact> 0.10016751E+04</totfact>
</mgrwt>
</event>
<event>
 9    1  0.2051157E-002  0.2697887E+03  0.7818608E-02  0.1101401E+00
          2   -1    0    0  501    0  0.00000000000E+00  0.00000000000E+00  0.23477368701E+03  0.23477368701E+03  0.00000000000E+00 0. -1.
         -2   -1    0    0    0  501 -0.00000000000E+00 -0.00000000000E+00 -0.77506516512E+02  0.77506516512E+02  0.00000000000E+00 0. -1.
         36    2    1    2    0    0  0.00000000000E+00  0.00000000000E+00  0.15726717050E+03  0.31228020352E+03  0.26978873697E+03 0.  0.
         25    2    3    3    0    0 -0.46838617411E+02 -0.35280983370E+02  0.60910043681E+02  0.14477054463E+03  0.11751541730E+03 0.  0.
         25    2    3    3    0    0  0.46838617411E+02  0.35280983370E+02  0.96357126816E+02  0.16750965889E+03  0.12383935588E+03 0.  0.
          5    1    4    4  502    0 -0.71741784013E+02  0.15799769503E+02  0.41686993564E+02  0.84595577438E+02  0.47000000000E+01 0.  1.
         -5    1    4    4    0  502  0.24903166602E+02 -0.51080752873E+02  0.19223050117E+02  0.60174967193E+02  0.47000000000E+01 0.  1.
          5    1    5    5  503    0  0.75689551729E+02 -0.16082690741E+02  0.48299034063E+02  0.91337001668E+02  0.47000000000E+01 0. -1.
         -5    1    5    5    0  503 -0.28850934318E+02  0.51363674111E+02  0.48058092753E+02  0.76172657223E+02  0.47000000000E+01 0. -1.
<mgrwt>
<rscale>  0 0.26978874E+03</rscale>
<asrwt>0</asrwt>
<pdfrwt beam="1">  1        2 0.36119028E-01 0.26978874E+03</pdfrwt>
<pdfrwt beam="2">  1       -2 0.11924080E-01 0.26978874E+03</pdfrwt>
<totfact> 0.70738586E+03</totfact>
</mgrwt>
</event>
<event>
 9    1  0.2051157E-002  0.2749427E+03  0.7818608E-02  0.1098484E+00
         -2   -1    0    0    0  501 -0.00000000000E+00  0.00000000000E+00  0.13328666302E+02  0.13328666302E+02  0.00000000000E+00 0.  1.
          2   -1    0    0  501    0  0.00000000000E+00 -0.00000000000E+00 -0.14178739434E+04  0.14178739434E+04  0.00000000000E+00 0.  1.
         36    2    1    2    0    0 -0.71054273576E-14  0.00000000000E+00 -0.14045452770E+04  0.14312026097E+04  0.27494267511E+03 0.  0.
         25    2    3    3    0    0  0.42087637236E+02  0.34490412589E+02 -0.68581552976E+03  0.70147912602E+03  0.13700023948E+03 0.  0.
         25    2    3    3    0    0 -0.42087637236E+02 -0.34490412589E+02 -0.71872974729E+03  0.72972348363E+03  0.11385497422E+03 0.  0.
          5    1    4    4  502    0  0.26282314559E+02  0.52939040540E+01 -0.17579557606E+02  0.32402412323E+02  0.47000000000E+01 0. -1.
         -5    1    4    4    0  502  0.15805322677E+02  0.29196508535E+02 -0.66823597215E+03  0.66907671370E+03  0.47000000000E+01 0. -1.
          5    1    5    5  503    0  0.24813681527E+02 -0.36519343643E+02 -0.47033278047E+03  0.47242395752E+03  0.47000000000E+01 0. -1.
         -5    1    5    5    0  503 -0.66901318763E+02  0.20289310543E+01 -0.24839696682E+03  0.25729952611E+03  0.47000000000E+01 0. -1.
<mgrwt>
<rscale>  0 0.27494268E+03</rscale>
<asrwt>0</asrwt>
<pdfrwt beam="1">  1        2 0.21813456E+00 0.27494268E+03</pdfrwt>
<pdfrwt beam="2">  1       -2 0.20505630E-02 0.27494268E+03</pdfrwt>
<totfact> 0.11257132E+04</totfact>
</mgrwt>
</event>
<event>
 9    1  0.2051157E-002  0.2703079E+03  0.7818608E-02  0.1101104E+00
         -2   -1    0    0    0  501 -0.00000000000E+00  0.00000000000E+00  0.50863031158E+01  0.50863031158E+01  0.00000000000E+00 0. -1.
          2   -1    0    0  501    0  0.00000000000E+00 -0.00000000000E+00 -0.35913286124E+04  0.35913286124E+04  0.00000000000E+00 0. -1.
         36    2    1    2    0    0 -0.71054273576E-14  0.00000000000E+00 -0.35862423093E+04  0.35964149155E+04  0.27030786826E+03 0.  0.
         25    2    3    3    0    0 -0.17822912036E+02  0.54539898085E+01 -0.11067384701E+04  0.11137961819E+04  0.12379213014E+03 0.  0.
         25    2    3    3    0    0  0.17822912036E+02 -0.54539898085E+01 -0.24795038392E+04  0.24826187336E+04  0.12291902059E+03 0.  0.
          5    1    4    4  502    0 -0.22219724929E+02 -0.32748720113E+02 -0.98990813389E+03  0.99071004759E+03  0.47000000000E+01 0. -1.
         -5    1    4    4    0  502  0.43968128925E+01  0.38202709921E+02 -0.11683033620E+03  0.12308613434E+03  0.47000000000E+01 0. -1.
          5    1    5    5  503    0 -0.24029187050E+02 -0.41818452345E+02 -0.50229966756E+03  0.50463177745E+03  0.47000000000E+01 0. -1.
         -5    1    5    5    0  503  0.41852099086E+02  0.36364462537E+02 -0.19772041716E+04  0.19779869561E+04  0.47000000000E+01 0. -1.
<mgrwt>
<rscale>  0 0.27030787E+03</rscale>
<asrwt>0</asrwt>
<pdfrwt beam="1">  1        2 0.55251283E+00 0.27030787E+03</pdfrwt>
<pdfrwt beam="2">  1       -2 0.78250713E-03 0.27030787E+03</pdfrwt>
<totfact> 0.26822619E+03</totfact>
</mgrwt>
</event>
<event>
 9    1  0.2051157E-002  0.2743682E+03  0.7818608E-02  0.1098805E+00
          2   -1    0    0  501    0  0.00000000000E+00  0.00000000000E+00  0.22791729460E+04  0.22791729460E+04  0.00000000000E+00 0.  1.
         -2   -1    0    0    0  501 -0.00000000000E+00 -0.00000000000E+00 -0.82571539408E+01  0.82571539408E+01  0.00000000000E+00 0.  1.
         36    2    1    2    0    0  0.00000000000E+00 -0.35527136788E-14  0.22709157920E+04  0.22874300999E+04  0.27436823338E+03 0.  0.
         25    2    3    3    0    0  0.58444882089E+02  0.22104555526E+02  0.99009303248E+03  0.99863014651E+03  0.11433958603E+03 0.  0.
         25    2    3    3    0    0 -0.58444882089E+02 -0.22104555526E+02  0.12808227595E+04  0.12887999534E+04  0.12881755661E+03 0.  0.
          5    1    4    4  502    0  0.53656544129E+02  0.33452462331E+02  0.23445685266E+03  0.24287897752E+03  0.47000000000E+01 0. -1.
         -5    1    4    4    0  502  0.47883379598E+01 -0.11347906806E+02  0.75563617982E+03  0.75575116899E+03  0.47000000000E+01 0. -1.
          5    1    5    5  503    0  0.32237694117E+02  0.13468635555E+02  0.16502429131E+03  0.16874768083E+03  0.47000000000E+01 0.  1.
         -5    1    5    5    0  503 -0.90682576205E+02 -0.35573191081E+02  0.11157984682E+04  0.11200522726E+04  0.47000000000E+01 0.  1.
<mgrwt>
<rscale>  0 0.27436823E+03</rscale>
<asrwt>0</asrwt>
<pdfrwt beam="1">  1        2 0.35064149E+00 0.27436823E+03</pdfrwt>
<pdfrwt beam="2">  1       -2 0.12703332E-02 0.27436823E+03</pdfrwt>
<totfact> 0.79472399E+03</totfact>
</mgrwt>
</event>
<event>
 9    1  0.2051157E-002  0.2747691E+03  0.7818608E-02  0.1098581E+00
         -2   -1    0    0    0  501 -0.00000000000E+00  0.00000000000E+00  0.88305734712E+01  0.88305734712E+01  0.00000000000E+00 0. -1.
          2   -1    0    0  501    0  0.00000000000E+00 -0.00000000000E+00 -0.21374048283E+04  0.21374048283E+04  0.00000000000E+00 0. -1.
         36    2    1    2    0    0  0.00000000000E+00 -0.17763568394E-14 -0.21285742549E+04  0.21462354018E+04  0.27476906940E+03 0.  0.
         25    2    3    3    0    0  0.37845087100E+02  0.86513734961E+01 -0.80768817011E+03  0.81871144254E+03  0.12814503166E+03 0.  0.
         25    2    3    3    0    0 -0.37845087100E+02 -0.86513734961E+01 -0.13208860848E+04  0.13275239593E+04  0.12677821828E+03 0.  0.
          5    1    4    4  502    0 -0.41245042022E+02 -0.15960333631E+01 -0.13370692178E+03  0.14001189859E+03  0.47000000000E+01 0.  1.
         -5    1    4    4    0  502  0.79090129122E+02  0.10247406859E+02 -0.67398124832E+03  0.67869954395E+03  0.47000000000E+01 0.  1.
          5    1    5    5  503    0 -0.77517340188E+02 -0.12999952116E+02 -0.55191249809E+03  0.55750106039E+03  0.47000000000E+01 0.  1.
         -5    1    5    5    0  503  0.39672253088E+02  0.43485786197E+01 -0.76897358668E+03  0.77002289889E+03  0.47000000000E+01 0.  1.
<mgrwt>
<rscale>  0 0.27476907E+03</rscale>
<asrwt>0</asrwt>
<pdfrwt beam="1">  1        2 0.32883141E+00 0.27476907E+03</pdfrwt>
<pdfrwt beam="2">  1       -2 0.13585502E-02 0.27476907E+03</pdfrwt>
<totfact> 0.85731252E+03</totfact>
</mgrwt>
</event>
<event>
 9    1  0.2051157E-002  0.2741908E+03  0.7818608E-02  0.1098905E+00
          2   -1    0    0  501    0  0.00000000000E+00  0.00000000000E+00  0.16685948537E+04  0.16685948537E+04  0.00000000000E+00 0.  1.
         -2   -1    0    0    0  501 -0.00000000000E+00 -0.00000000000E+00 -0.11264057329E+02  0.11264057329E+02  0.00000000000E+00 0.  1.
         36    2    1    2    0    0  0.00000000000E+00  0.00000000000E+00  0.16573307964E+04  0.16798589111E+04  0.27419079555E+03 0.  0.
         25    2    3    3    0    0 -0.24028937007E+01 -0.23001082407E+02  0.51799129057E+03  0.53327118212E+03  0.12461281187E+03 0.  0.
         25    2    3    3    0    0  0.24028937007E+01  0.23001082407E+02  0.11393395058E+04  0.11465877289E+04  0.12662577508E+03 0.  0.
          5    1    4    4  502    0 -0.15047668890E+02  0.43736012508E+02  0.10678702778E+03  0.11646815201E+03  0.47000000000E+01 0.  1.
         -5    1    4    4    0  502  0.12644775189E+02 -0.66737094915E+02  0.41120426279E+03  0.41680303011E+03  0.47000000000E+01 0.  1.
          5    1    5    5  503    0  0.55294990063E+02  0.40656108821E+02  0.48417408637E+03  0.48903690149E+03  0.47000000000E+01 0.  1.
         -5    1    5    5    0  503 -0.52892096363E+02 -0.17655026415E+02  0.65516541947E+03  0.65755082746E+03  0.47000000000E+01 0.  1.
<mgrwt>
<rscale>  0 0.27419080E+03</rscale>
<asrwt>0</asrwt>
<pdfrwt beam="1">  1        2 0.25670670E+00 0.27419080E+03</pdfrwt>
<pdfrwt beam="2">  1       -2 0.17329332E-02 0.27419080E+03</pdfrwt>
<totfact> 0.10594813E+04</totfact>
</mgrwt>
</event>
<event>
 9    1  0.2051157E-002  0.2751469E+03  0.7818608E-02  0.1098370E+00
         -3   -1    0    0    0  501 -0.00000000000E+00  0.00000000000E+00  0.18752120547E+02  0.18752120547E+02  0.00000000000E+00 0.  1.
          3   -1    0    0  501    0  0.00000000000E+00 -0.00000000000E+00 -0.10092965117E+04  0.10092965117E+04  0.00000000000E+00 0.  1.
         36    2    1    2    0    0  0.00000000000E+00  0.00000000000E+00 -0.99054439112E+03  0.10280486322E+04  0.27514686882E+03 0.  0.
         25    2    3    3    0    0 -0.15972979171E+02 -0.84219202720E+00 -0.72046539387E+03  0.73110088211E+03  0.12321635731E+03 0.  0.
         25    2    3    3    0    0  0.15972979171E+02  0.84219202720E+00 -0.27007899725E+03  0.29694775011E+03  0.12239058863E+03 0.  0.
          5    1    4    4  502    0 -0.13024891975E+02 -0.34558986851E+02 -0.66254013505E+02  0.75997734760E+02  0.47000000000E+01 0. -1.
         -5    1    4    4    0  502 -0.29480871963E+01  0.33716794823E+02 -0.65421138037E+03  0.65510314735E+03  0.47000000000E+01 0. -1.
          5    1    5    5  503    0  0.18681285741E+02  0.41689920867E+02 -0.24377111932E+03  0.24805944560E+03  0.47000000000E+01 0.  1.
         -5    1    5    5    0  503 -0.27083065703E+01 -0.40847728840E+02 -0.26307877937E+02  0.48888304506E+02  0.47000000000E+01 0.  1.
<mgrwt>
<rscale>  0 0.27514687E+03</rscale>
<asrwt>0</asrwt>
<pdfrwt beam="1">  1        3 0.15527638E+00 0.27514687E+03</pdfrwt>
<pdfrwt beam="2">  1       -3 0.28849418E-02 0.27514687E+03</pdfrwt>
<totfact> 0.43181990E+02</totfact>
</mgrwt>
</event>
<event>
 9    1  0.2051157E-002  0.2746176E+03  0.7818608E-02  0.1098666E+00
         -2   -1    0    0    0  501 -0.00000000000E+00  0.00000000000E+00  0.25379673158E+02  0.25379673158E+02  0.00000000000E+00 0. -1.
          2   -1    0    0  501    0  0.00000000000E+00 -0.00000000000E+00 -0.74286659931E+03  0.74286659931E+03  0.00000000000E+00 0. -1.
         36    2    1    2    0    0  0.00000000000E+00 -0.71054273576E-14 -0.71748692615E+03  0.76824627247E+03  0.27461763592E+03 0.  0.
         25    2    3    3    0    0  0.26930675558E+02  0.36244261736E+02 -0.32913550257E+03  0.35703373536E+03  0.13078226692E+03 0.  0.
         25    2    3    3    0    0 -0.26930675558E+02 -0.36244261736E+02 -0.38835142358E+03  0.41121253710E+03  0.12743631617E+03 0.  0.
          5    1    4    4  502    0  0.46370911653E+02  0.78550831684E+02 -0.22707986402E+03  0.24476080007E+03  0.47000000000E+01 0. -1.
         -5    1    4    4    0  502 -0.19440236095E+02 -0.42306569948E+02 -0.10205563855E+03  0.11227293529E+03  0.47000000000E+01 0. -1.
          5    1    5    5  503    0  0.26272581834E+02  0.24877920329E+02 -0.42732736670E+02  0.56190179386E+02  0.47000000000E+01 0.  1.
         -5    1    5    5    0  503 -0.53203257392E+02 -0.61122182065E+02 -0.34561868691E+03  0.35502235772E+03  0.47000000000E+01 0.  1.
<mgrwt>
<rscale>  0 0.27461764E+03</rscale>
<asrwt>0</asrwt>
<pdfrwt beam="1">  1        2 0.11428716E+00 0.27461764E+03</pdfrwt>
<pdfrwt beam="2">  1       -2 0.39045655E-02 0.27461764E+03</pdfrwt>
<totfact> 0.11065437E+04</totfact>
</mgrwt>
</event>
<event>
 9    1  0.2051157E-002  0.2752249E+03  0.7818608E-02  0.1098326E+00
         -2   -1    0    0    0  501 -0.00000000000E+00  0.00000000000E+00  0.11003536640E+02  0.11003536640E+02  0.00000000000E+00 0. -1.
          2   -1    0    0  501    0  0.00000000000E+00 -0.00000000000E+00 -0.17210086477E+04  0.17210086477E+04  0.00000000000E+00 0. -1.
         36    2    1    2    0    0  0.00000000000E+00 -0.17763568394E-14 -0.17100051111E+04  0.17320121844E+04  0.27522486598E+03 0.  0.
         25    2    3    3    0    0 -0.45469986050E+02  0.11454675493E+02 -0.64047245795E+03  0.65419116121E+03  0.12474925567E+03 0.  0.
         25    2    3    3    0    0  0.45469986050E+02 -0.11454675493E+02 -0.10695326531E+04  0.10778210232E+04  0.12489728824E+03 0.  0.
          5    1    4    4  502    0  0.43446963730E+02  0.29980031395E+01 -0.21664832244E+03  0.22103215218E+03  0.47000000000E+01 0. -1.
         -5    1    4    4    0  502 -0.88916949779E+02  0.84566723535E+01 -0.42382413551E+03  0.43315900903E+03  0.47000000000E+01 0. -1.
          5    1    5    5  503    0  0.34811036523E+02  0.36046099743E+02 -0.17886309810E+03  0.18580965376E+03  0.47000000000E+01 0.  1.
         -5    1    5    5    0  503  0.10658949527E+02 -0.47500775236E+02 -0.89066955505E+03  0.89201136940E+03  0.47000000000E+01 0.  1.
<mgrwt>
<rscale>  0 0.27522487E+03</rscale>
<asrwt>0</asrwt>
<pdfrwt beam="1">  1        2 0.26477075E+00 0.27522487E+03</pdfrwt>
<pdfrwt beam="2">  1       -2 0.16928506E-02 0.27522487E+03</pdfrwt>
<totfact> 0.10289903E+04</totfact>
</mgrwt>
</event>
<event>
 9    1  0.2051157E-002  0.2762254E+03  0.7818608E-02  0.1097769E+00
         -2   -1    0    0    0  501 -0.00000000000E+00  0.00000000000E+00  0.10213301261E+02  0.10213301261E+02  0.00000000000E+00 0.  1.
          2   -1    0    0  501    0  0.00000000000E+00 -0.00000000000E+00 -0.18676744981E+04  0.18676744981E+04  0.00000000000E+00 0.  1.
         36    2    1    2    0    0  0.88817841970E-14  0.00000000000E+00 -0.18574611968E+04  0.18778877993E+04  0.27622543190E+03 0.  0.
         25    2    3    3    0    0 -0.14092343181E+02 -0.50241959190E+02 -0.90520438203E+03  0.91580066104E+03  0.12873627661E+03 0.  0.
         25    2    3    3    0    0  0.14092343181E+02  0.50241959190E+02 -0.95225681477E+03  0.96208713829E+03  0.12686911277E+03 0.  0.
          5    1    4    4  502    0 -0.15842902529E+02 -0.46334587318E+02 -0.90765482863E+03  0.90898694682E+03  0.47000000000E+01 0.  1.
         -5    1    4    4    0  502  0.17505593484E+01 -0.39073718716E+01  0.24504466018E+01  0.68137142238E+01  0.47000000000E+01 0.  1.
          5    1    5    5  503    0 -0.54189086649E+02  0.80292931831E+01 -0.46502485052E+03  0.46826395149E+03  0.47000000000E+01 0.  1.
         -5    1    5    5    0  503  0.68281429830E+02  0.42212666006E+02 -0.48723196425E+03  0.49382318680E+03  0.47000000000E+01 0.  1.
<mgrwt>
<rscale>  0 0.27622543E+03</rscale>
<asrwt>0</asrwt>
<pdfrwt beam="1">  1        2 0.28733448E+00 0.27622543E+03</pdfrwt>
<pdfrwt beam="2">  1       -2 0.15712775E-02 0.27622543E+03</pdfrwt>
<totfact> 0.96120104E+03</totfact>
</mgrwt>
</event>
<event>
 9    1  0.2051157E-002  0.2747288E+03  0.7818608E-02  0.1098603E+00
         -2   -1    0    0    0  501 -0.00000000000E+00  0.00000000000E+00  0.12472872444E+02  0.12472872444E+02  0.00000000000E+00 0.  1.
          2   -1    0    0  501    0  0.00000000000E+00 -0.00000000000E+00 -0.15128011152E+04  0.15128011152E+04  0.00000000000E+00 0.  1.
         36    2    1    2    0    0  0.35527136788E-14  0.71054273576E-14 -0.15003282428E+04  0.15252739877E+04  0.27472877784E+03 0.  0.
         25    2    3    3    0    0  0.24584447890E+02 -0.38772256911E+02 -0.61282933831E+03  0.62765943283E+03  0.12762790738E+03 0.  0.
         25    2    3    3    0    0 -0.24584447890E+02  0.38772256911E+02 -0.88749890445E+03  0.89761455482E+03  0.12629291603E+03 0.  0.
          5    1    4    4  502    0 -0.14067227165E+02  0.32826289902E+02 -0.36499485943E+03  0.36676803241E+03  0.47000000000E+01 0.  1.
         -5    1    4    4    0  502  0.38651675054E+02 -0.71598546812E+02 -0.24783447888E+03  0.26089140042E+03  0.47000000000E+01 0.  1.
          5    1    5    5  503    0 -0.11101641845E+02 -0.20615950667E+02 -0.31956388111E+02  0.39894418340E+02  0.47000000000E+01 0.  1.
         -5    1    5    5    0  503 -0.13482806045E+02  0.59388207578E+02 -0.85554251634E+03  0.85772013648E+03  0.47000000000E+01 0.  1.
<mgrwt>
<rscale>  0 0.27472878E+03</rscale>
<asrwt>0</asrwt>
<pdfrwt beam="1">  1        2 0.23273846E+00 0.27472878E+03</pdfrwt>
<pdfrwt beam="2">  1       -2 0.19189049E-02 0.27472878E+03</pdfrwt>
<totfact> 0.11034804E+04</totfact>
</mgrwt>
</event>
<event>
 9    1  0.2051157E-002  0.2749377E+03  0.7818608E-02  0.1098486E+00
          2   -1    0    0  501    0  0.00000000000E+00  0.00000000000E+00  0.26634778556E+03  0.26634778556E+03  0.00000000000E+00 0.  1.
         -2   -1    0    0    0  501 -0.00000000000E+00 -0.00000000000E+00 -0.70951174724E+02  0.70951174724E+02  0.00000000000E+00 0.  1.
         36    2    1    2    0    0 -0.35527136788E-14  0.00000000000E+00  0.19539661084E+03  0.33729896029E+03  0.27493772583E+03 0.  0.
         25    2    3    3    0    0 -0.13268042536E+02  0.40732089618E+01  0.17152018573E+03  0.21316649351E+03  0.12580996724E+03 0.  0.
         25    2    3    3    0    0  0.13268042536E+02 -0.40732089618E+01  0.23876425108E+02  0.12413246678E+03  0.12102129420E+03 0.  0.
          5    1    4    4  502    0  0.53441107191E+02  0.82519085028E+01  0.47160914007E+02  0.71904712932E+02  0.47000000000E+01 0.  1.
         -5    1    4    4    0  502 -0.66709149727E+02 -0.41786995409E+01  0.12435927172E+03  0.14126178057E+03  0.47000000000E+01 0.  1.
          5    1    5    5  503    0 -0.56453963094E+00 -0.10120188762E+02 -0.48642897625E+02  0.49909502251E+02  0.47000000000E+01 0. -1.
         -5    1    5    5    0  503  0.13832582167E+02  0.60469798003E+01  0.72519322733E+02  0.74222964531E+02  0.47000000000E+01 0. -1.
<mgrwt>
<rscale>  0 0.27493773E+03</rscale>
<asrwt>0</asrwt>
<pdfrwt beam="1">  1        2 0.40976582E-01 0.27493773E+03</pdfrwt>
<pdfrwt beam="2">  1       -2 0.10915565E-01 0.27493773E+03</pdfrwt>
<totfact> 0.71195396E+03</totfact>
</mgrwt>
</event>
<event>
 9    1  0.2051157E-002  0.2749908E+03  0.7818608E-02  0.1098457E+00
          2   -1    0    0  501    0  0.00000000000E+00  0.00000000000E+00  0.15474386933E+03  0.15474386933E+03  0.00000000000E+00 0.  1.
         -2   -1    0    0    0  501 -0.00000000000E+00 -0.00000000000E+00 -0.12216954602E+03  0.12216954602E+03  0.00000000000E+00 0.  1.
         36    2    1    2    0    0 -0.17763568394E-14 -0.14210854715E-13  0.32574323312E+02  0.27691341534E+03  0.27499082359E+03 0.  0.
         25    2    3    3    0    0  0.15694741867E+02  0.53912739077E+02  0.33115229766E+02  0.14458243154E+03  0.12905251920E+03 0.  0.
         25    2    3    3    0    0 -0.15694741867E+02 -0.53912739077E+02 -0.54090645453E+00  0.13233098380E+03  0.11982607537E+03 0.  0.
          5    1    4    4  502    0  0.19204575772E+02 -0.37613743094E+02  0.31427739718E+02  0.52852646328E+02  0.47000000000E+01 0. -1.
         -5    1    4    4    0  502 -0.35098339056E+01  0.91526482171E+02  0.16874900486E+01  0.91729785214E+02  0.47000000000E+01 0. -1.
          5    1    5    5  503    0  0.24149673166E+02 -0.78698110427E+02 -0.13195903132E+02  0.83503420039E+02  0.47000000000E+01 0.  1.
         -5    1    5    5    0  503 -0.39844415033E+02  0.24785371350E+02  0.12654996677E+02  0.48827563764E+02  0.47000000000E+01 0.  1.
<mgrwt>
<rscale>  0 0.27499082E+03</rscale>
<asrwt>0</asrwt>
<pdfrwt beam="1">  1        2 0.23806749E-01 0.27499082E+03</pdfrwt>
<pdfrwt beam="2">  1       -2 0.18795315E-01 0.27499082E+03</pdfrwt>
<totfact> 0.52806526E+03</totfact>
</mgrwt>
</event>
<event>
 9    1  0.2051157E-002  0.2753406E+03  0.7818608E-02  0.1098261E+00
         -2   -1    0    0    0  501 -0.00000000000E+00  0.00000000000E+00  0.89858077751E+01  0.89858077751E+01  0.00000000000E+00 0. -1.
          2   -1    0    0  501    0  0.00000000000E+00 -0.00000000000E+00 -0.21092268294E+04  0.21092268294E+04  0.00000000000E+00 0. -1.
         36    2    1    2    0    0  0.00000000000E+00  0.00000000000E+00 -0.21002410217E+04  0.21182126372E+04  0.27534056616E+03 0.  0.
         25    2    3    3    0    0  0.33290803727E+01 -0.54920225219E+02 -0.76494048572E+03  0.77681212655E+03  0.12359538562E+03 0.  0.
         25    2    3    3    0    0 -0.33290803727E+01  0.54920225219E+02 -0.13353005359E+04  0.13414005107E+04  0.11532777117E+03 0.  0.
          5    1    4    4  502    0  0.13030250787E+02 -0.77752510419E+01 -0.67069065681E+03  0.67087874396E+03  0.47000000000E+01 0.  1.
         -5    1    4    4    0  502 -0.97011704147E+01 -0.47144974177E+02 -0.94249828912E+02  0.10593338259E+03  0.47000000000E+01 0.  1.
          5    1    5    5  503    0 -0.13875162631E+02  0.82957251721E+02 -0.65090542944E+03  0.65633405658E+03  0.47000000000E+01 0. -1.
         -5    1    5    5    0  503  0.10546082258E+02 -0.28037026502E+02 -0.68439510651E+03  0.68506645409E+03  0.47000000000E+01 0. -1.
<mgrwt>
<rscale>  0 0.27534057E+03</rscale>
<asrwt>0</asrwt>
<pdfrwt beam="1">  1        2 0.32449659E+00 0.27534057E+03</pdfrwt>
<pdfrwt beam="2">  1       -2 0.13824313E-02 0.27534057E+03</pdfrwt>
<totfact> 0.86497690E+03</totfact>
</mgrwt>
</event>
<event>
 9    1  0.2051157E-002  0.2741705E+03  0.7818608E-02  0.1098916E+00
          2   -1    0    0  501    0  0.00000000000E+00  0.00000000000E+00  0.40848305692E+03  0.40848305692E+03  0.00000000000E+00 0. -1.
         -2   -1    0    0    0  501 -0.00000000000E+00 -0.00000000000E+00 -0.46005243594E+02  0.46005243594E+02  0.00000000000E+00 0. -1.
         36    2    1    2    0    0  0.00000000000E+00  0.00000000000E+00  0.36247781333E+03  0.45448830052E+03  0.27417047644E+03 0.  0.
         25    2    3    3    0    0 -0.45502476295E+02  0.11501516256E+02  0.17371899391E+03  0.22093289959E+03  0.12818072027E+03 0.  0.
         25    2    3    3    0    0  0.45502476295E+02 -0.11501516256E+02  0.18875881942E+03  0.23355540093E+03  0.12928833346E+03 0.  0.
          5    1    4    4  502    0 -0.28450990700E+02 -0.34406339355E+02  0.49797045714E+01  0.45167936827E+02  0.47000000000E+01 0. -1.
         -5    1    4    4    0  502 -0.17051485595E+02  0.45907855611E+02  0.16873928934E+03  0.17576496276E+03  0.47000000000E+01 0. -1.
          5    1    5    5  503    0  0.95979016268E+01  0.26577285039E+02  0.17752422338E+03  0.17982049851E+03  0.47000000000E+01 0. -1.
         -5    1    5    5    0  503  0.35904574668E+02 -0.38078801294E+02  0.11234596036E+02  0.53734902421E+02  0.47000000000E+01 0. -1.
<mgrwt>
<rscale>  0 0.27417048E+03</rscale>
<asrwt>0</asrwt>
<pdfrwt beam="1">  1        2 0.62843545E-01 0.27417048E+03</pdfrwt>
<pdfrwt beam="2">  1       -2 0.70777301E-02 0.27417048E+03</pdfrwt>
<totfact> 0.88749157E+03</totfact>
</mgrwt>
</event>
<event>
 9    1  0.2051157E-002  0.2740443E+03  0.7818608E-02  0.1098987E+00
         -2   -1    0    0    0  501 -0.00000000000E+00  0.00000000000E+00  0.14857470150E+02  0.14857470150E+02  0.00000000000E+00 0. -1.
          2   -1    0    0  501    0  0.00000000000E+00 -0.00000000000E+00 -0.12636790999E+04  0.12636790999E+04  0.00000000000E+00 0. -1.
         36    2    1    2    0    0  0.00000000000E+00  0.00000000000E+00 -0.12488216297E+04  0.12785365700E+04  0.27404433587E+03 0.  0.
         25    2    3    3    0    0  0.27447198714E+02  0.38872519690E+02 -0.46941087453E+03  0.48629207396E+03  0.11776667850E+03 0.  0.
         25    2    3    3    0    0 -0.27447198714E+02 -0.38872519690E+02 -0.77941075518E+03  0.79224449605E+03  0.13381253576E+03 0.  0.
          5    1    4    4  502    0 -0.36459437777E+02 -0.15824729015E+02 -0.20188387434E+03  0.20581278233E+03  0.47000000000E+01 0. -1.
         -5    1    4    4    0  502  0.63906636492E+02  0.54697248705E+02 -0.26752700019E+03  0.28047929163E+03  0.47000000000E+01 0. -1.
          5    1    5    5  503    0 -0.18321003805E+02  0.34301287853E+02 -0.54631781604E+03  0.54772026040E+03  0.47000000000E+01 0.  1.
         -5    1    5    5    0  503 -0.91261949096E+01 -0.73173807543E+02 -0.23309293914E+03  0.24452423565E+03  0.47000000000E+01 0.  1.
<mgrwt>
<rscale>  0 0.27404434E+03</rscale>
<asrwt>0</asrwt>
<pdfrwt beam="1">  1        2 0.19441215E+00 0.27404434E+03</pdfrwt>
<pdfrwt beam="2">  1       -2 0.22857649E-02 0.27404434E+03</pdfrwt>
<totfact> 0.11656702E+04</totfact>
</mgrwt>
</event>
<event>
 9    1  0.2051157E-002  0.2754401E+03  0.7818608E-02  0.1098206E+00
         -1   -1    0    0    0  501 -0.00000000000E+00  0.00000000000E+00  0.14100716356E+02  0.14100716356E+02  0.00000000000E+00 0. -1.
          1   -1    0    0  501    0  0.00000000000E+00 -0.00000000000E+00 -0.13450959537E+04  0.13450959537E+04  0.00000000000E+00 0. -1.
         36    2    1    2    0    0  0.00000000000E+00 -0.71054273576E-14 -0.13309952374E+04  0.13591966701E+04  0.27544013154E+03 0.  0.
         25    2    3    3    0    0  0.12872157296E+02  0.43059942660E+02 -0.85022649472E+03  0.86040739445E+03  0.12408038119E+03 0.  0.
         25    2    3    3    0    0 -0.12872157296E+02 -0.43059942660E+02 -0.48076874267E+03  0.49878927566E+03  0.12502922253E+03 0.  0.
          5    1    4    4  502    0  0.29146806681E+02 -0.25027055113E+02 -0.10536449594E+03  0.11224819300E+03  0.47000000000E+01 0.  1.
         -5    1    4    4    0  502 -0.16274649385E+02  0.68086997772E+02 -0.74486199879E+03  0.74815920145E+03  0.47000000000E+01 0.  1.
          5    1    5    5  503    0  0.53680109749E+02 -0.12225377358E+02 -0.26934884951E+03  0.27495800910E+03  0.47000000000E+01 0.  1.
         -5    1    5    5    0  503 -0.66552267045E+02 -0.30834565302E+02 -0.21141989315E+03  0.22383126656E+03  0.47000000000E+01 0.  1.
<mgrwt>
<rscale>  0 0.27544013E+03</rscale>
<asrwt>0</asrwt>
<pdfrwt beam="1">  1        1 0.20693776E+00 0.27544013E+03</pdfrwt>
<pdfrwt beam="2">  1       -1 0.21693418E-02 0.27544013E+03</pdfrwt>
<totfact> 0.55329779E+03</totfact>
</mgrwt>
</event>
<event>
 9    1  0.2051157E-002  0.2751603E+03  0.7818608E-02  0.1098362E+00
         -1   -1    0    0    0  501 -0.00000000000E+00  0.00000000000E+00  0.42595508448E+03  0.42595508448E+03  0.00000000000E+00 0.  1.
          1   -1    0    0  501    0  0.00000000000E+00 -0.00000000000E+00 -0.44437299359E+02  0.44437299359E+02  0.00000000000E+00 0.  1.
         36    2    1    2    0    0  0.00000000000E+00  0.00000000000E+00  0.38151778512E+03  0.47039238384E+03  0.27516027040E+03 0.  0.
         25    2    3    3    0    0  0.67327071278E+02 -0.12445395650E+02  0.18287743824E+03  0.23162495417E+03  0.12457182497E+03 0.  0.
         25    2    3    3    0    0 -0.67327071278E+02  0.12445395650E+02  0.19864034688E+03  0.23876742967E+03  0.11341990858E+03 0.  0.
          5    1    4    4  502    0  0.70098534634E+02  0.11037793621E+02  0.30550442927E+02  0.77401918639E+02  0.47000000000E+01 0. -1.
         -5    1    4    4    0  502 -0.27714633563E+01 -0.23483189271E+02  0.15232699531E+03  0.15422303553E+03  0.47000000000E+01 0. -1.
          5    1    5    5  503    0 -0.40048148450E+02 -0.49097536854E+02  0.78675440072E+02  0.10112535384E+03  0.47000000000E+01 0. -1.
         -5    1    5    5    0  503 -0.27278922828E+02  0.61542932504E+02  0.11996490681E+03  0.13764207582E+03  0.47000000000E+01 0. -1.
<mgrwt>
<rscale>  0 0.27516027E+03</rscale>
<asrwt>0</asrwt>
<pdfrwt beam="1">  1        1 0.68365079E-02 0.27516027E+03</pdfrwt>
<pdfrwt beam="2">  1       -1 0.65531549E-01 0.27516027E+03</pdfrwt>
<totfact> 0.26316837E+03</totfact>
</mgrwt>
</event>
<event>
 9    1  0.2051157E-002  0.2729174E+03  0.7818608E-02  0.1099621E+00
         -2   -1    0    0    0  501 -0.00000000000E+00  0.00000000000E+00  0.91725287023E+02  0.91725287023E+02  0.00000000000E+00 0.  1.
          2   -1    0    0  501    0  0.00000000000E+00 -0.00000000000E+00 -0.20300805212E+03  0.20300805212E+03  0.00000000000E+00 0.  1.
         36    2    1    2    0    0  0.71054273576E-14 -0.71054273576E-14 -0.11128276509E+03  0.29473333914E+03  0.27291736367E+03 0.  0.
         25    2    3    3    0    0 -0.28814977778E+02  0.23019461960E+02 -0.72784503241E+02  0.15022874219E+03  0.12613838629E+03 0.  0.
         25    2    3    3    0    0  0.28814977778E+02 -0.23019461960E+02 -0.38498261853E+02  0.14450459695E+03  0.13431032648E+03 0.  0.
          5    1    4    4  502    0 -0.35416432961E+02  0.13412687600E+01 -0.10479641624E+03  0.11072714925E+03  0.47000000000E+01 0.  1.
         -5    1    4    4    0  502  0.66014551824E+01  0.21678193200E+02  0.32011912996E+02  0.39501592938E+02  0.47000000000E+01 0.  1.
          5    1    5    5  503    0  0.49476189012E+02 -0.40721752730E+02  0.29807933629E+02  0.70829071233E+02  0.47000000000E+01 0.  1.
         -5    1    5    5    0  503 -0.20661211234E+02  0.17702290770E+02 -0.68306195483E+02  0.73675525716E+02  0.47000000000E+01 0.  1.
<mgrwt>
<rscale>  0 0.27291736E+03</rscale>
<asrwt>0</asrwt>
<pdfrwt beam="1">  1        2 0.31232008E-01 0.27291736E+03</pdfrwt>
<pdfrwt beam="2">  1       -2 0.14111583E-01 0.27291736E+03</pdfrwt>
<totfact> 0.63030723E+03</totfact>
</mgrwt>
</event>
<event>
 9    1  0.2051157E-002  0.2762528E+03  0.7818608E-02  0.1097753E+00
          3   -1    0    0  501    0  0.00000000000E+00  0.00000000000E+00  0.14122627487E+02  0.14122627487E+02  0.00000000000E+00 0. -1.
         -3   -1    0    0    0  501 -0.00000000000E+00 -0.00000000000E+00 -0.13509455963E+04  0.13509455963E+04  0.00000000000E+00 0. -1.
         36    2    1    2    0    0  0.00000000000E+00  0.71054273576E-14 -0.13368229689E+04  0.13650682238E+04  0.27625279301E+03 0.  0.
         25    2    3    3    0    0  0.52095356050E+02 -0.53235803401E+02 -0.58632753685E+03  0.60071373209E+03  0.10737332335E+03 0.  0.
         25    2    3    3    0    0 -0.52095356050E+02  0.53235803401E+02 -0.75049543201E+03  0.76435449174E+03  0.12428362198E+03 0.  0.
          5    1    4    4  502    0  0.66073652512E+01 -0.44742655224E+02 -0.50485992305E+03  0.50690353557E+03  0.47000000000E+01 0. -1.
         -5    1    4    4    0  502  0.45487990799E+02 -0.84931481776E+01 -0.81467613802E+02  0.93810196522E+02  0.47000000000E+01 0. -1.
          5    1    5    5  503    0  0.31297733982E+01  0.77036220022E+02 -0.29764281380E+03  0.30750237281E+03  0.47000000000E+01 0. -1.
         -5    1    5    5    0  503 -0.55225129448E+02 -0.23800416620E+02 -0.45285261821E+03  0.45685211894E+03  0.47000000000E+01 0. -1.
<mgrwt>
<rscale>  0 0.27625279E+03</rscale>
<asrwt>0</asrwt>
<pdfrwt beam="1">  1        3 0.21727122E-02 0.27625279E+03</pdfrwt>
<pdfrwt beam="2">  1       -3 0.20783776E+00 0.27625279E+03</pdfrwt>
<totfact> 0.30386755E+02</totfact>
</mgrwt>
</event>
<event>
 9    1  0.2051157E-002  0.2784171E+03  0.7818608E-02  0.1096557E+00
         -4   -1    0    0    0  501 -0.00000000000E+00  0.00000000000E+00  0.64584947298E+02  0.64584947298E+02  0.00000000000E+00 0.  1.
          4   -1    0    0  501    0  0.00000000000E+00 -0.00000000000E+00 -0.30005469327E+03  0.30005469327E+03  0.00000000000E+00 0.  1.
         36    2    1    2    0    0  0.00000000000E+00 -0.35527136788E-14 -0.23546974598E+03  0.36463964057E+03  0.27841707240E+03 0.  0.
         25    2    3    3    0    0 -0.24460009840E+02  0.95661709868E+01 -0.18829160136E+03  0.22778551208E+03  0.12546995124E+03 0.  0.
         25    2    3    3    0    0  0.24460009840E+02 -0.95661709868E+01 -0.47178144619E+02  0.13685412849E+03  0.12575162602E+03 0.  0.
          5    1    4    4  502    0  0.40288186436E+02 -0.29629141549E+02 -0.55416486697E+02  0.74793722953E+02  0.47000000000E+01 0. -1.
         -5    1    4    4    0  502 -0.64748196276E+02  0.39195312536E+02 -0.13287511466E+03  0.15299178913E+03  0.47000000000E+01 0. -1.
          5    1    5    5  503    0  0.72753209377E+02 -0.24526143432E+02 -0.21036499329E+02  0.79744501317E+02  0.47000000000E+01 0.  1.
         -5    1    5    5    0  503 -0.48293199537E+02  0.14959972445E+02 -0.26141645291E+02  0.57109627171E+02  0.47000000000E+01 0.  1.
<mgrwt>
<rscale>  0 0.27841707E+03</rscale>
<asrwt>0</asrwt>
<pdfrwt beam="1">  1        4 0.46162261E-01 0.27841707E+03</pdfrwt>
<pdfrwt beam="2">  1       -4 0.99361456E-02 0.27841707E+03</pdfrwt>
<totfact> 0.65744369E+02</totfact>
</mgrwt>
</event>
<event>
 9    1  0.2051157E-002  0.2754652E+03  0.7818608E-02  0.1098192E+00
         -2   -1    0    0    0  501 -0.00000000000E+00  0.00000000000E+00  0.44178546074E+02  0.44178546074E+02  0.00000000000E+00 0. -1.
          2   -1    0    0  501    0  0.00000000000E+00 -0.00000000000E+00 -0.42940014078E+03  0.42940014078E+03  0.00000000000E+00 0. -1.
         36    2    1    2    0    0 -0.88817841970E-15  0.00000000000E+00 -0.38522159470E+03  0.47357868685E+03  0.27546523485E+03 0.  0.
         25    2    3    3    0    0  0.35612140887E+01 -0.18196957590E+02 -0.14469051814E+03  0.20129056777E+03  0.13870376752E+03 0.  0.
         25    2    3    3    0    0 -0.35612140887E+01  0.18196957590E+02 -0.24053107656E+03  0.27228811908E+03  0.12626087869E+03 0.  0.
          5    1    4    4  502    0  0.10876181280E-01 -0.44427663303E+02 -0.16283768531E+03  0.16885502403E+03  0.47000000000E+01 0.  1.
         -5    1    4    4    0  502  0.35503379074E+01  0.26230705713E+02  0.18147167167E+02  0.32435543739E+02  0.47000000000E+01 0.  1.
          5    1    5    5  503    0  0.11265323894E+02  0.70499225378E+02 -0.11544690098E+03  0.13582019455E+03  0.47000000000E+01 0. -1.
         -5    1    5    5    0  503 -0.14826537983E+02 -0.52302267788E+02 -0.12508417558E+03  0.13646792453E+03  0.47000000000E+01 0. -1.
<mgrwt>
<rscale>  0 0.27546523E+03</rscale>
<asrwt>0</asrwt>
<pdfrwt beam="1">  1        2 0.66061560E-01 0.27546523E+03</pdfrwt>
<pdfrwt beam="2">  1       -2 0.67966994E-02 0.27546523E+03</pdfrwt>
<totfact> 0.89494518E+03</totfact>
</mgrwt>
</event>
<event>
 9    1  0.2051157E-002  0.2806659E+03  0.7818608E-02  0.1095326E+00
         -2   -1    0    0    0  501 -0.00000000000E+00  0.00000000000E+00  0.11782301244E+02  0.11782301244E+02  0.00000000000E+00 0.  1.
          2   -1    0    0  501    0  0.00000000000E+00 -0.00000000000E+00 -0.16714343520E+04  0.16714343520E+04  0.00000000000E+00 0.  1.
         36    2    1    2    0    0  0.00000000000E+00  0.71054273576E-14 -0.16596520508E+04  0.16832166533E+04  0.28066594411E+03 0.  0.
         25    2    3    3    0    0  0.43763855480E+02  0.51269689112E+02 -0.66651712165E+03  0.68007833747E+03  0.11712222490E+03 0.  0.
         25    2    3    3    0    0 -0.43763855480E+02 -0.51269689112E+02 -0.99313492914E+03  0.10031383158E+04  0.12419998837E+03 0.  0.
          5    1    4    4  502    0  0.31151888911E+02  0.43126859350E+02 -0.66137572103E+03  0.66352867349E+03  0.47000000000E+01 0. -1.
         -5    1    4    4    0  502  0.12611966569E+02  0.81428297616E+01 -0.51414006246E+01  0.16549663974E+02  0.47000000000E+01 0. -1.
          5    1    5    5  503    0  0.12362467039E+01  0.41761574495E+01  0.95268261376E+00  0.64781325333E+01  0.47000000000E+01 0. -1.
         -5    1    5    5    0  503 -0.45000102184E+02 -0.55445846561E+02 -0.99408761176E+03  0.99666018329E+03  0.47000000000E+01 0. -1.
<mgrwt>
<rscale>  0 0.28066594E+03</rscale>
<asrwt>0</asrwt>
<pdfrwt beam="1">  1        2 0.25714360E+00 0.28066594E+03</pdfrwt>
<pdfrwt beam="2">  1       -2 0.18126628E-02 0.28066594E+03</pdfrwt>
<totfact> 0.98875435E+03</totfact>
</mgrwt>
</event>
<event>
 9    1  0.2051157E-002  0.2743776E+03  0.7818608E-02  0.1098800E+00
         -2   -1    0    0    0  501 -0.00000000000E+00  0.00000000000E+00  0.42551270841E+02  0.42551270841E+02  0.00000000000E+00 0. -1.
          2   -1    0    0  501    0  0.00000000000E+00 -0.00000000000E+00 -0.44230801879E+03  0.44230801879E+03  0.00000000000E+00 0. -1.
         36    2    1    2    0    0 -0.14210854715E-13  0.00000000000E+00 -0.39975674795E+03  0.48485928963E+03  0.27437761062E+03 0.  0.
         25    2    3    3    0    0 -0.32225040596E+02  0.49032387180E+02 -0.22106322360E+03  0.25983664659E+03  0.12330249734E+03 0.  0.
         25    2    3    3    0    0  0.32225040596E+02 -0.49032387180E+02 -0.17869352435E+03  0.22502264304E+03  0.12353617285E+03 0.  0.
          5    1    4    4  502    0 -0.26465178176E+02  0.36157173114E+02 -0.23510712384E+03  0.23938503818E+03  0.47000000000E+01 0.  1.
         -5    1    4    4    0  502 -0.57598624198E+01  0.12875214066E+02  0.14043900246E+02  0.20451608408E+02  0.47000000000E+01 0.  1.
          5    1    5    5  503    0  0.34656118560E+01 -0.84921365230E+02 -0.14378822231E+03  0.16709515736E+03  0.47000000000E+01 0.  1.
         -5    1    5    5    0  503  0.28759428740E+02  0.35888978051E+02 -0.34905302047E+02  0.57927485687E+02  0.47000000000E+01 0.  1.
<mgrwt>
<rscale>  0 0.27437761E+03</rscale>
<asrwt>0</asrwt>
<pdfrwt beam="1">  1        2 0.68047385E-01 0.27437761E+03</pdfrwt>
<pdfrwt beam="2">  1       -2 0.65463496E-02 0.27437761E+03</pdfrwt>
<totfact> 0.91788584E+03</totfact>
</mgrwt>
</event>
<event>
 9    1  0.2051157E-002  0.2742818E+03  0.7818608E-02  0.1098854E+00
         -1   -1    0    0    0  501 -0.00000000000E+00  0.00000000000E+00  0.36304115126E+03  0.36304115126E+03  0.00000000000E+00 0.  1.
          1   -1    0    0  501    0  0.00000000000E+00 -0.00000000000E+00 -0.51805762710E+02  0.51805762710E+02  0.00000000000E+00 0.  1.
         36    2    1    2    0    0  0.00000000000E+00  0.00000000000E+00  0.31123538855E+03  0.41484691397E+03  0.27428178019E+03 0.  0.
         25    2    3    3    0    0  0.23234604259E+02  0.49906719974E+02  0.13199563755E+03  0.19033320392E+03  0.12559200870E+03 0.  0.
         25    2    3    3    0    0 -0.23234604259E+02 -0.49906719974E+02  0.17923975101E+03  0.22451371006E+03  0.12348680143E+03 0.  0.
          5    1    4    4  502    0  0.72884632955E+02  0.20833393035E+02  0.53521140974E+02  0.92912875951E+02  0.47000000000E+01 0.  1.
         -5    1    4    4    0  502 -0.49650028696E+02  0.29073326939E+02  0.78474496572E+02  0.97420327966E+02  0.47000000000E+01 0.  1.
          5    1    5    5  503    0 -0.53991429949E+02 -0.42888787813E+02  0.36314490832E+02  0.78072753713E+02  0.47000000000E+01 0. -1.
         -5    1    5    5    0  503  0.30756825690E+02 -0.70179321602E+01  0.14292526018E+03  0.14644095634E+03  0.47000000000E+01 0. -1.
<mgrwt>
<rscale>  0 0.27428178E+03</rscale>
<asrwt>0</asrwt>
<pdfrwt beam="1">  1        1 0.79701176E-02 0.27428178E+03</pdfrwt>
<pdfrwt beam="2">  1       -1 0.55852483E-01 0.27428178E+03</pdfrwt>
<totfact> 0.29047404E+03</totfact>
</mgrwt>
</event>
<event>
 9    1  0.2051157E-002  0.2759510E+03  0.7818608E-02  0.1097921E+00
         -1   -1    0    0    0  501 -0.00000000000E+00  0.00000000000E+00  0.19050602346E+02  0.19050602346E+02  0.00000000000E+00 0.  1.
          1   -1    0    0  501    0  0.00000000000E+00 -0.00000000000E+00 -0.99929845325E+03  0.99929845325E+03  0.00000000000E+00 0.  1.
         36    2    1    2    0    0  0.00000000000E+00  0.00000000000E+00 -0.98024785091E+03  0.10183490556E+04  0.27595099172E+03 0.  0.
         25    2    3    3    0    0 -0.39845716434E+02 -0.14175796626E+02 -0.33013879896E+03  0.35493269465E+03  0.12327593774E+03 0.  0.
         25    2    3    3    0    0  0.39845716434E+02  0.14175796626E+02 -0.65010905195E+03  0.66341636095E+03  0.12526313991E+03 0.  0.
          5    1    4    4  502    0  0.43340668203E+02 -0.11277969313E+02 -0.14630626604E+03  0.15307912854E+03  0.47000000000E+01 0.  1.
         -5    1    4    4    0  502 -0.83186384637E+02 -0.28978273126E+01 -0.18383253293E+03  0.20185356612E+03  0.47000000000E+01 0.  1.
          5    1    5    5  503    0 -0.44679464362E+02  0.12770286077E+02 -0.19661771002E+03  0.20208896218E+03  0.47000000000E+01 0.  1.
         -5    1    5    5    0  503  0.84525180796E+02  0.14055105491E+01 -0.45349134193E+03  0.46132739877E+03  0.47000000000E+01 0.  1.
<mgrwt>
<rscale>  0 0.27595099E+03</rscale>
<asrwt>0</asrwt>
<pdfrwt beam="1">  1        1 0.15373829E+00 0.27595099E+03</pdfrwt>
<pdfrwt beam="2">  1       -1 0.29308606E-02 0.27595099E+03</pdfrwt>
<totfact> 0.62476664E+03</totfact>
</mgrwt>
</event>
<event>
 9    1  0.2051157E-002  0.2750633E+03  0.7818608E-02  0.1098416E+00
          2   -1    0    0  501    0  0.00000000000E+00  0.00000000000E+00  0.41783512958E+03  0.41783512958E+03  0.00000000000E+00 0.  1.
         -2   -1    0    0    0  501 -0.00000000000E+00 -0.00000000000E+00 -0.45268942758E+02  0.45268942758E+02  0.00000000000E+00 0.  1.
         36    2    1    2    0    0 -0.35527136788E-14  0.00000000000E+00  0.37256618682E+03  0.46310407234E+03  0.27506329863E+03 0.  0.
         25    2    3    3    0    0 -0.28361582416E+02 -0.38511995840E+01  0.26693942969E+03  0.29599271910E+03  0.12464276772E+03 0.  0.
         25    2    3    3    0    0  0.28361582416E+02  0.38511995840E+01  0.10562675714E+03  0.16711135324E+03  0.12629323601E+03 0.  0.
          5    1    4    4  502    0 -0.28548679250E+02 -0.54121081601E+02  0.71925364801E+02  0.94548752834E+02  0.47000000000E+01 0.  1.
         -5    1    4    4    0  502  0.18709683467E+00  0.50269882017E+02  0.19501406489E+03  0.20144396627E+03  0.47000000000E+01 0.  1.
          5    1    5    5  503    0  0.29033936766E+02  0.16507409671E+02 -0.21022402435E+02  0.39742866810E+02  0.47000000000E+01 0.  1.
         -5    1    5    5    0  503 -0.67235435021E+00 -0.12656210087E+02  0.12664915957E+03  0.12736848642E+03  0.47000000000E+01 0.  1.
<mgrwt>
<rscale>  0 0.27506330E+03</rscale>
<asrwt>0</asrwt>
<pdfrwt beam="1">  1        2 0.64282325E-01 0.27506330E+03</pdfrwt>
<pdfrwt beam="2">  1       -2 0.69644530E-02 0.27506330E+03</pdfrwt>
<totfact> 0.88787838E+03</totfact>
</mgrwt>
</event>
<event>
 9    1  0.2051157E-002  0.2745838E+03  0.7818608E-02  0.1098684E+00
          2   -1    0    0  501    0  0.00000000000E+00  0.00000000000E+00  0.21375290281E+04  0.21375290281E+04  0.00000000000E+00 0. -1.
         -2   -1    0    0    0  501 -0.00000000000E+00 -0.00000000000E+00 -0.88181536903E+01  0.88181536903E+01  0.00000000000E+00 0. -1.
         36    2    1    2    0    0 -0.71054273576E-14 -0.35527136788E-14  0.21287108744E+04  0.21463471818E+04  0.27458375398E+03 0.  0.
         25    2    3    3    0    0  0.37865989016E+02 -0.58844477203E+01  0.13639547677E+04  0.13703766073E+04  0.12685021741E+03 0.  0.
         25    2    3    3    0    0 -0.37865989016E+02  0.58844477203E+01  0.76475610676E+03  0.77597057454E+03  0.12573770268E+03 0.  0.
          5    1    4    4  502    0  0.76549121851E+02 -0.40067800787E+01  0.53275887860E+03  0.53826567332E+03  0.47000000000E+01 0.  1.
         -5    1    4    4    0  502 -0.38683132836E+02 -0.18776676416E+01  0.83119588906E+03  0.83211093395E+03  0.47000000000E+01 0.  1.
          5    1    5    5  503    0  0.35328449146E+02 -0.27844567895E+02  0.17657311389E+03  0.18227334920E+03  0.47000000000E+01 0.  1.
         -5    1    5    5    0  503 -0.73194438162E+02  0.33729015615E+02  0.58818299287E+03  0.59369722534E+03  0.47000000000E+01 0.  1.
<mgrwt>
<rscale>  0 0.27458375E+03</rscale>
<asrwt>0</asrwt>
<pdfrwt beam="1">  1        2 0.32885021E+00 0.27458375E+03</pdfrwt>
<pdfrwt beam="2">  1       -2 0.13566407E-02 0.27458375E+03</pdfrwt>
<totfact> 0.85894354E+03</totfact>
</mgrwt>
</event>
<event>
 9    1  0.2051157E-002  0.2741638E+03  0.7818608E-02  0.1098920E+00
         -2   -1    0    0    0  501 -0.00000000000E+00  0.00000000000E+00  0.13218963162E+02  0.13218963162E+02  0.00000000000E+00 0.  1.
          2   -1    0    0  501    0  0.00000000000E+00 -0.00000000000E+00 -0.14215521792E+04  0.14215521792E+04  0.00000000000E+00 0.  1.
         36    2    1    2    0    0  0.00000000000E+00  0.35527136788E-14 -0.14083332160E+04  0.14347711424E+04  0.27416378966E+03 0.  0.
         25    2    3    3    0    0 -0.45062329951E+02  0.22280514585E+02 -0.61470012718E+03  0.62963060845E+03  0.12669420601E+03 0.  0.
         25    2    3    3    0    0  0.45062329951E+02 -0.22280514585E+02 -0.79363308886E+03  0.80514053391E+03  0.12597922329E+03 0.  0.
          5    1    4    4  502    0  0.14470347337E+02 -0.71527362733E+01 -0.68640507546E+01  0.18159234042E+02  0.47000000000E+01 0. -1.
         -5    1    4    4    0  502 -0.59532677287E+02  0.29433250859E+02 -0.60783607643E+03  0.61147137441E+03  0.47000000000E+01 0. -1.
          5    1    5    5  503    0  0.71584872062E+02 -0.56921983492E+02 -0.51682599187E+03  0.52487684458E+03  0.47000000000E+01 0.  1.
         -5    1    5    5    0  503 -0.26522542111E+02  0.34641468907E+02 -0.27680709699E+03  0.28026368932E+03  0.47000000000E+01 0.  1.
<mgrwt>
<rscale>  0 0.27416379E+03</rscale>
<asrwt>0</asrwt>
<pdfrwt beam="1">  1        2 0.21870031E+00 0.27416379E+03</pdfrwt>
<pdfrwt beam="2">  1       -2 0.20336869E-02 0.27416379E+03</pdfrwt>
<totfact> 0.11342073E+04</totfact>
</mgrwt>
</event>
<event>
 9    1  0.2051157E-002  0.2754130E+03  0.7818608E-02  0.1098221E+00
         -1   -1    0    0    0  501 -0.00000000000E+00  0.00000000000E+00  0.15211402191E+02  0.15211402191E+02  0.00000000000E+00 0. -1.
          1   -1    0    0  501    0  0.00000000000E+00 -0.00000000000E+00 -0.12466356694E+04  0.12466356694E+04  0.00000000000E+00 0. -1.
         36    2    1    2    0    0  0.35527136788E-14 -0.71054273576E-14 -0.12314242672E+04  0.12618470716E+04  0.27541297393E+03 0.  0.
         25    2    3    3    0    0  0.43148416061E+01 -0.42485725748E+02 -0.80628709590E+03  0.81682999028E+03  0.12364747166E+03 0.  0.
         25    2    3    3    0    0 -0.43148416061E+01  0.42485725748E+02 -0.42513717128E+03  0.44501708128E+03  0.12439828568E+03 0.  0.
          5    1    4    4  502    0 -0.28590587663E+02  0.33622439600E+02 -0.37517793766E+03  0.37779420993E+03  0.47000000000E+01 0.  1.
         -5    1    4    4    0  502  0.32905429269E+02 -0.76108165348E+02 -0.43110915824E+03  0.43903578035E+03  0.47000000000E+01 0.  1.
          5    1    5    5  503    0  0.58988756489E+01  0.76581436366E+02 -0.37806199989E+03  0.38581404704E+03  0.47000000000E+01 0. -1.
         -5    1    5    5    0  503 -0.10213717255E+02 -0.34095710618E+02 -0.47075171383E+02  0.59203034242E+02  0.47000000000E+01 0. -1.
<mgrwt>
<rscale>  0 0.27541297E+03</rscale>
<asrwt>0</asrwt>
<pdfrwt beam="1">  1        1 0.19179014E+00 0.27541297E+03</pdfrwt>
<pdfrwt beam="2">  1       -1 0.23402153E-02 0.27541297E+03</pdfrwt>
<totfact> 0.57821072E+03</totfact>
</mgrwt>
</event>
<event>
 9    1  0.2051157E-002  0.2756461E+03  0.7818608E-02  0.1098091E+00
          2   -1    0    0  501    0  0.00000000000E+00  0.00000000000E+00  0.44113875496E+03  0.44113875496E+03  0.00000000000E+00 0. -1.
         -2   -1    0    0    0  501 -0.00000000000E+00 -0.00000000000E+00 -0.43059465419E+02  0.43059465419E+02  0.00000000000E+00 0. -1.
         36    2    1    2    0    0  0.00000000000E+00  0.00000000000E+00  0.39807928954E+03  0.48419822038E+03  0.27564614247E+03 0.  0.
         25    2    3    3    0    0  0.52735503801E+02  0.16457603054E+02  0.15303328881E+03  0.20278187040E+03  0.12103476121E+03 0.  0.
         25    2    3    3    0    0 -0.52735503801E+02 -0.16457603054E+02  0.24504600073E+03  0.28141634997E+03  0.12686896192E+03 0.  0.
          5    1    4    4  502    0 -0.51461603709E+01  0.60030046365E+02  0.70861839718E+02  0.93132055499E+02  0.47000000000E+01 0.  1.
         -5    1    4    4    0  502  0.57881664172E+02 -0.43572443311E+02  0.82171449089E+02  0.10964981491E+03  0.47000000000E+01 0.  1.
          5    1    5    5  503    0 -0.73718020023E+02 -0.28123881355E+00  0.62103971460E+02  0.96506055988E+02  0.47000000000E+01 0.  1.
         -5    1    5    5    0  503  0.20982516222E+02 -0.16176364241E+02  0.18294202927E+03  0.18491029399E+03  0.47000000000E+01 0.  1.
<mgrwt>
<rscale>  0 0.27564614E+03</rscale>
<asrwt>0</asrwt>
<pdfrwt beam="1">  1        2 0.67867498E-01 0.27564614E+03</pdfrwt>
<pdfrwt beam="2">  1       -2 0.66245334E-02 0.27564614E+03</pdfrwt>
<totfact> 0.90401183E+03</totfact>
</mgrwt>
</event>
<event>
 9    1  0.2051157E-002  0.2745231E+03  0.7818608E-02  0.1098718E+00
         -2   -1    0    0    0  501 -0.00000000000E+00  0.00000000000E+00  0.17379160302E+02  0.17379160302E+02  0.00000000000E+00 0.  1.
          2   -1    0    0  501    0  0.00000000000E+00 -0.00000000000E+00 -0.10840992754E+04  0.10840992754E+04  0.00000000000E+00 0.  1.
         36    2    1    2    0    0 -0.71054273576E-14  0.00000000000E+00 -0.10667201151E+04  0.11014784357E+04  0.27452311444E+03 0.  0.
         25    2    3    3    0    0  0.52691156188E+02 -0.27933565008E+02 -0.55054254829E+03  0.56727700017E+03  0.12308312413E+03 0.  0.
         25    2    3    3    0    0 -0.52691156188E+02  0.27933565008E+02 -0.51617756677E+03  0.53420143549E+03  0.12399698084E+03 0.  0.
          5    1    4    4  502    0  0.54697962539E+02  0.37127336235E+02 -0.19952228784E+03  0.21024162183E+03  0.47000000000E+01 0. -1.
         -5    1    4    4    0  502 -0.20068063512E+01 -0.65060901243E+02 -0.35102026045E+03  0.35703537834E+03  0.47000000000E+01 0. -1.
          5    1    5    5  503    0 -0.66938483416E+02  0.30260628464E+02 -0.51354392156E+03  0.51879274819E+03  0.47000000000E+01 0. -1.
         -5    1    5    5    0  503  0.14247327228E+02 -0.23270634563E+01 -0.26336452028E+01  0.15408687307E+02  0.47000000000E+01 0. -1.
<mgrwt>
<rscale>  0 0.27452311E+03</rscale>
<asrwt>0</asrwt>
<pdfrwt beam="1">  1        2 0.16678447E+00 0.27452311E+03</pdfrwt>
<pdfrwt beam="2">  1       -2 0.26737175E-02 0.27452311E+03</pdfrwt>
<totfact> 0.11717651E+04</totfact>
</mgrwt>
</event>
<event>
 9    1  0.2051157E-002  0.2750127E+03  0.7818608E-02  0.1098444E+00
          2   -1    0    0  501    0  0.00000000000E+00  0.00000000000E+00  0.23495339297E+04  0.23495339297E+04  0.00000000000E+00 0.  1.
         -2   -1    0    0    0  501 -0.00000000000E+00 -0.00000000000E+00 -0.80475545301E+01  0.80475545301E+01  0.00000000000E+00 0.  1.
         36    2    1    2    0    0  0.00000000000E+00  0.00000000000E+00  0.23414863752E+04  0.23575814843E+04  0.27501274458E+03 0.  0.
         25    2    3    3    0    0  0.12598127936E+02 -0.21571734050E+02  0.15319672418E+04  0.15374144187E+04  0.12686769561E+03 0.  0.
         25    2    3    3    0    0 -0.12598127936E+02  0.21571734050E+02  0.80951913338E+03  0.82016706559E+03  0.12933961355E+03 0.  0.
          5    1    4    4  502    0  0.66830679730E+02  0.63719882201E+01  0.88810034185E+03  0.89064653437E+03  0.47000000000E+01 0.  1.
         -5    1    4    4    0  502 -0.54232551793E+02 -0.27943722270E+02  0.64386689997E+03  0.64676788430E+03  0.47000000000E+01 0.  1.
          5    1    5    5  503    0 -0.24801476032E+02 -0.16786252036E+02  0.73258421774E+03  0.73321116846E+03  0.47000000000E+01 0.  1.
         -5    1    5    5    0  503  0.12203348096E+02  0.38357986086E+02  0.76934915638E+02  0.86955897129E+02  0.47000000000E+01 0.  1.
<mgrwt>
<rscale>  0 0.27501274E+03</rscale>
<asrwt>0</asrwt>
<pdfrwt beam="1">  1        2 0.36146621E+00 0.27501274E+03</pdfrwt>
<pdfrwt beam="2">  1       -2 0.12380872E-02 0.27501274E+03</pdfrwt>
<totfact> 0.75632143E+03</totfact>
</mgrwt>
</event>
<event>
 9    1  0.2051157E-002  0.2747175E+03  0.7818608E-02  0.1098610E+00
          1   -1    0    0  501    0  0.00000000000E+00  0.00000000000E+00  0.13693181640E+03  0.13693181640E+03  0.00000000000E+00 0.  1.
         -1   -1    0    0    0  501 -0.00000000000E+00 -0.00000000000E+00 -0.13778704176E+03  0.13778704176E+03  0.00000000000E+00 0.  1.
         36    2    1    2    0    0 -0.17763568394E-14  0.00000000000E+00 -0.85522535396E+00  0.27471885816E+03  0.27471752696E+03 0.  0.
         25    2    3    3    0    0  0.78240386876E+01 -0.32490211575E+02 -0.31165355450E+02  0.14102666053E+03  0.13341817781E+03 0.  0.
         25    2    3    3    0    0 -0.78240386876E+01  0.32490211575E+02  0.30310130096E+02  0.13369219763E+03  0.12584939528E+03 0.  0.
          5    1    4    4  502    0  0.21183149199E+02  0.47059148399E+02 -0.30686943151E+02  0.60225142075E+02  0.47000000000E+01 0. -1.
         -5    1    4    4    0  502 -0.13359110512E+02 -0.79549359974E+02 -0.47841229929E+00  0.80801518453E+02  0.47000000000E+01 0. -1.
          5    1    5    5  503    0 -0.33204873812E+02  0.41042692475E+02  0.68624455357E+02  0.86709123646E+02  0.47000000000E+01 0. -1.
         -5    1    5    5    0  503  0.25380835124E+02 -0.85524809003E+01 -0.38314325261E+02  0.46983073988E+02  0.47000000000E+01 0. -1.
<mgrwt>
<rscale>  0 0.27471753E+03</rscale>
<asrwt>0</asrwt>
<pdfrwt beam="1">  1        1 0.21066433E-01 0.27471753E+03</pdfrwt>
<pdfrwt beam="2">  1       -1 0.21198006E-01 0.27471753E+03</pdfrwt>
<totfact> 0.43457879E+03</totfact>
</mgrwt>
</event>
<event>
 9    1  0.2051157E-002  0.2747829E+03  0.7818608E-02  0.1098573E+00
          2   -1    0    0  501    0  0.00000000000E+00  0.00000000000E+00  0.71467326725E+03  0.71467326725E+03  0.00000000000E+00 0.  1.
         -2   -1    0    0    0  501 -0.00000000000E+00 -0.00000000000E+00 -0.26412647474E+02  0.26412647474E+02  0.00000000000E+00 0.  1.
         36    2    1    2    0    0 -0.71054273576E-14  0.00000000000E+00  0.68826061978E+03  0.74108591473E+03  0.27478291844E+03 0.  0.
         25    2    3    3    0    0 -0.45273607889E+01 -0.30725141036E+02  0.40773138339E+03  0.43223302060E+03  0.14005703055E+03 0.  0.
         25    2    3    3    0    0  0.45273607889E+01  0.30725141036E+02  0.28052923639E+03  0.30885289413E+03  0.12541501686E+03 0.  0.
          5    1    4    4  502    0 -0.69472809701E+02 -0.34944883166E+02  0.23570243572E+03  0.24824452532E+03  0.47000000000E+01 0. -1.
         -5    1    4    4    0  502  0.64945448912E+02  0.42197421293E+01  0.17202894767E+03  0.18398849528E+03  0.47000000000E+01 0. -1.
          5    1    5    5  503    0 -0.43168010422E+02  0.31621367306E+02  0.49976653125E+02  0.73369911078E+02  0.47000000000E+01 0. -1.
         -5    1    5    5    0  503  0.47695371210E+02 -0.89622626976E+00  0.23055258326E+03  0.23548298305E+03  0.47000000000E+01 0. -1.
<mgrwt>
<rscale>  0 0.27478292E+03</rscale>
<asrwt>0</asrwt>
<pdfrwt beam="1">  1        2 0.10994972E+00 0.27478292E+03</pdfrwt>
<pdfrwt beam="2">  1       -2 0.40634848E-02 0.27478292E+03</pdfrwt>
<totfact> 0.10929121E+04</totfact>
</mgrwt>
</event>
<event>
 9    1  0.2051157E-002  0.2742675E+03  0.7818608E-02  0.1098862E+00
          1   -1    0    0  501    0  0.00000000000E+00  0.00000000000E+00  0.23276414889E+02  0.23276414889E+02  0.00000000000E+00 0. -1.
         -1   -1    0    0    0  501 -0.00000000000E+00 -0.00000000000E+00 -0.80792787837E+03  0.80792787837E+03  0.00000000000E+00 0. -1.
         36    2    1    2    0    0  0.00000000000E+00  0.35527136788E-14 -0.78465146349E+03  0.83120429326E+03  0.27426749350E+03 0.  0.
         25    2    3    3    0    0 -0.36217336599E+02  0.19396295503E+02 -0.33184697676E+03  0.35678870827E+03  0.12445020937E+03 0.  0.
         25    2    3    3    0    0  0.36217336599E+02 -0.19396295503E+02 -0.45280448672E+03  0.47441558499E+03  0.13546339852E+03 0.  0.
          5    1    4    4  502    0  0.40391014873E+02  0.10614242991E+02 -0.19652221391E+03  0.20096558610E+03  0.47000000000E+01 0.  1.
         -5    1    4    4    0  502 -0.76608351472E+02  0.87820525123E+01 -0.13532476285E+03  0.15582312217E+03  0.47000000000E+01 0.  1.
          5    1    5    5  503    0  0.55848819270E+02  0.27445690217E+02 -0.38249922407E+03  0.38755658031E+03  0.47000000000E+01 0.  1.
         -5    1    5    5    0  503 -0.19631482671E+02 -0.46841985720E+02 -0.70305262649E+02  0.86859004681E+02  0.47000000000E+01 0.  1.
<mgrwt>
<rscale>  0 0.27426749E+03</rscale>
<asrwt>0</asrwt>
<pdfrwt beam="1">  1        1 0.35809881E-02 0.27426749E+03</pdfrwt>
<pdfrwt beam="2">  1       -1 0.12429656E+00 0.27426749E+03</pdfrwt>
<totfact> 0.16127500E+03</totfact>
</mgrwt>
</event>
<event>
 9    1  0.2051157E-002  0.2738030E+03  0.7818608E-02  0.1099123E+00
          2   -1    0    0  501    0  0.00000000000E+00  0.00000000000E+00  0.12073103493E+04  0.12073103493E+04  0.00000000000E+00 0. -1.
         -2   -1    0    0    0  501 -0.00000000000E+00 -0.00000000000E+00 -0.15523782863E+02  0.15523782863E+02  0.00000000000E+00 0. -1.
         36    2    1    2    0    0  0.00000000000E+00  0.71054273576E-14  0.11917865664E+04  0.12228341322E+04  0.27380302197E+03 0.  0.
         25    2    3    3    0    0 -0.30338847902E+02  0.43140772024E+02  0.72933921569E+03  0.74196830237E+03  0.12569685074E+03 0.  0.
         25    2    3    3    0    0  0.30338847902E+02 -0.43140772024E+02  0.46244735075E+03  0.48086582978E+03  0.12080075388E+03 0.  0.
          5    1    4    4  502    0 -0.14053786673E+02  0.65406409572E+02  0.18280917165E+03  0.19472234225E+03  0.47000000000E+01 0. -1.
         -5    1    4    4    0  502 -0.16285061228E+02 -0.22265637549E+02  0.54653004404E+03  0.54724596012E+03  0.47000000000E+01 0. -1.
          5    1    5    5  503    0 -0.70794298482E+01  0.38758813667E+02  0.10575392009E+03  0.11295284670E+03  0.47000000000E+01 0. -1.
         -5    1    5    5    0  503  0.37418277750E+02 -0.81899585691E+02  0.35669343066E+03  0.36791298308E+03  0.47000000000E+01 0. -1.
<mgrwt>
<rscale>  0 0.27380302E+03</rscale>
<asrwt>0</asrwt>
<pdfrwt beam="1">  1        2 0.18573998E+00 0.27380302E+03</pdfrwt>
<pdfrwt beam="2">  1       -2 0.23882752E-02 0.27380302E+03</pdfrwt>
<totfact> 0.11752744E+04</totfact>
</mgrwt>
</event>
<event>
 9    1  0.2051157E-002  0.2750867E+03  0.7818608E-02  0.1098403E+00
         -4   -1    0    0    0  501 -0.00000000000E+00  0.00000000000E+00  0.12913609355E+02  0.12913609355E+02  0.00000000000E+00 0.  1.
          4   -1    0    0  501    0  0.00000000000E+00 -0.00000000000E+00 -0.14649796037E+04  0.14649796037E+04  0.00000000000E+00 0.  1.
         36    2    1    2    0    0  0.00000000000E+00  0.14210854715E-13 -0.14520659944E+04  0.14778932131E+04  0.27508670863E+03 0.  0.
         25    2    3    3    0    0  0.35024176605E+02 -0.74798342252E+02 -0.41097230177E+03  0.42562511221E+03  0.73736140182E+02 0.  0.
         25    2    3    3    0    0 -0.35024176605E+02  0.74798342252E+02 -0.10410936926E+04  0.10522681009E+04  0.12872682080E+03 0.  0.
          5    1    4    4  502    0 -0.61632770069E+01 -0.44474694260E+02 -0.29957302778E+03  0.30295556339E+03  0.47000000000E+01 0.  1.
         -5    1    4    4    0  502  0.41187453612E+02 -0.30323647992E+02 -0.11139927399E+03  0.12266954882E+03  0.47000000000E+01 0.  1.
          5    1    5    5  503    0  0.41948307713E+02  0.53821957178E+02 -0.61060074130E+03  0.61441990436E+03  0.47000000000E+01 0. -1.
         -5    1    5    5    0  503 -0.76972484318E+02  0.20976385074E+02 -0.43049295130E+03  0.43784819651E+03  0.47000000000E+01 0. -1.
<mgrwt>
<rscale>  0 0.27508671E+03</rscale>
<asrwt>0</asrwt>
<pdfrwt beam="1">  1        4 0.22538156E+00 0.27508671E+03</pdfrwt>
<pdfrwt beam="2">  1       -4 0.19867084E-02 0.27508671E+03</pdfrwt>
<totfact> 0.19260128E+02</totfact>
</mgrwt>
</event>
<event>
 9    1  0.2051157E-002  0.2742035E+03  0.7818608E-02  0.1098898E+00
         -1   -1    0    0    0  501 -0.00000000000E+00  0.00000000000E+00  0.42449493028E+03  0.42449493028E+03  0.00000000000E+00 0.  1.
          1   -1    0    0  501    0  0.00000000000E+00 -0.00000000000E+00 -0.44280606154E+02  0.44280606154E+02  0.00000000000E+00 0.  1.
         36    2    1    2    0    0  0.14210854715E-13 -0.71054273576E-14  0.38021432412E+03  0.46877553643E+03  0.27420352165E+03 0.  0.
         25    2    3    3    0    0 -0.41625628941E+02 -0.82317396033E+01  0.12279805991E+03  0.17293515253E+03  0.11413478409E+03 0.  0.
         25    2    3    3    0    0  0.41625628941E+02  0.82317396033E+01  0.25741626421E+03  0.29584038390E+03  0.13949173863E+03 0.  0.
          5    1    4    4  502    0  0.17139526193E+02  0.39171910086E+02  0.64055090433E+02  0.77157932245E+02  0.47000000000E+01 0. -1.
         -5    1    4    4    0  502 -0.58765155134E+02 -0.47403649689E+02  0.58742969479E+02  0.95777220282E+02  0.47000000000E+01 0. -1.
          5    1    5    5  503    0  0.92140920497E+02  0.11722578315E+02  0.14235614240E+03  0.17004331610E+03  0.47000000000E+01 0. -1.
         -5    1    5    5    0  503 -0.50515291556E+02 -0.34908387121E+01  0.11506012181E+03  0.12579706780E+03  0.47000000000E+01 0. -1.
<mgrwt>
<rscale>  0 0.27420352E+03</rscale>
<asrwt>0</asrwt>
<pdfrwt beam="1">  1        1 0.68124012E-02 0.27420352E+03</pdfrwt>
<pdfrwt beam="2">  1       -1 0.65306910E-01 0.27420352E+03</pdfrwt>
<totfact> 0.26621187E+03</totfact>
</mgrwt>
</event>
<event>
 8    1  0.2051157E-002  0.3141524E+03  0.7818608E-02  0.1078372E+00
          2   -1    0    0  501    0  0.00000000000E+00  0.00000000000E+00  0.57601659066E+03  0.57601659066E+03  0.00000000000E+00 0.  1.
         -2   -1    0    0    0  501 -0.00000000000E+00 -0.00000000000E+00 -0.42833732148E+02  0.42833732148E+02  0.00000000000E+00 0.  1.
         25    2    1    2    0    0  0.16000262707E+00  0.25991405162E+02  0.45503938506E+03  0.47157730616E+03  0.12103195855E+03 0.  0.
         25    2    1    2    0    0 -0.16000262707E+00 -0.25991405162E+02  0.78143473448E+02  0.14727301664E+03  0.12209570117E+03 0.  0.
          5    1    3    3  502    0 -0.53682762373E+02  0.34994916857E+02  0.30871071181E+03  0.31532661919E+03  0.47000000000E+01 0.  1.
         -5    1    3    3    0  502  0.53842765000E+02 -0.90035116953E+01  0.14632867325E+03  0.15625068697E+03  0.47000000000E+01 0.  1.
          5    1    4    4  503    0  0.40668289560E+02  0.24288862817E+02  0.26270066343E+01  0.47674414486E+02  0.47000000000E+01 0. -1.
         -5    1    4    4    0  503 -0.40828292187E+02 -0.50280267979E+02  0.75516466813E+02  0.99598602154E+02  0.47000000000E+01 0. -1.
<mgrwt>
<rscale>  0 0.31415245E+03</rscale>
<asrwt>0</asrwt>
<pdfrwt beam="1">  1        2 0.88617931E-01 0.31415245E+03</pdfrwt>
<pdfrwt beam="2">  1       -2 0.65898054E-02 0.31415245E+03</pdfrwt>
<totfact> 0.67801533E+03</totfact>
</mgrwt>
</event>
<event>
 9    1  0.2051157E-002  0.2732916E+03  0.7818608E-02  0.1099410E+00
         -1   -1    0    0    0  501 -0.00000000000E+00  0.00000000000E+00  0.33085125418E+02  0.33085125418E+02  0.00000000000E+00 0. -1.
          1   -1    0    0  501    0  0.00000000000E+00 -0.00000000000E+00 -0.56436482368E+03  0.56436482368E+03  0.00000000000E+00 0. -1.
         36    2    1    2    0    0  0.00000000000E+00  0.35527136788E-14 -0.53127969827E+03  0.59744994910E+03  0.27329164622E+03 0.  0.
         25    2    3    3    0    0 -0.21524889336E+02 -0.31869772805E+02 -0.27948166552E+03  0.30994599253E+03  0.12836476793E+03 0.  0.
         25    2    3    3    0    0  0.21524889336E+02  0.31869772805E+02 -0.25179803274E+03  0.28750395657E+03  0.13333143841E+03 0.  0.
          5    1    4    4  502    0 -0.52922265823E+02 -0.10233466687E+02 -0.26236578182E+03  0.26788688570E+03  0.47000000000E+01 0.  1.
         -5    1    4    4    0  502  0.31397376487E+02 -0.21636306119E+02 -0.17115883701E+02  0.42059106833E+02  0.47000000000E+01 0.  1.
          5    1    5    5  503    0 -0.27126529686E+01 -0.11145154334E+02  0.13081048096E+02  0.18021564043E+02  0.47000000000E+01 0.  1.
         -5    1    5    5    0  503  0.24237542305E+02  0.43014927140E+02 -0.26487908084E+03  0.26948239252E+03  0.47000000000E+01 0.  1.
<mgrwt>
<rscale>  0 0.27329165E+03</rscale>
<asrwt>0</asrwt>
<pdfrwt beam="1">  1        1 0.86825362E-01 0.27329165E+03</pdfrwt>
<pdfrwt beam="2">  1       -1 0.50900191E-02 0.27329165E+03</pdfrwt>
<totfact> 0.65330583E+03</totfact>
</mgrwt>
</event>
<event>
 9    1  0.2051157E-002  0.2747450E+03  0.7818608E-02  0.1098594E+00
         -1   -1    0    0    0  501 -0.00000000000E+00  0.00000000000E+00  0.95116643571E+01  0.95116643571E+01  0.00000000000E+00 0. -1.
          1   -1    0    0  501    0  0.00000000000E+00 -0.00000000000E+00 -0.19840069032E+04  0.19840069032E+04  0.00000000000E+00 0. -1.
         36    2    1    2    0    0 -0.71054273576E-14  0.00000000000E+00 -0.19744952389E+04  0.19935185676E+04  0.27474502904E+03 0.  0.
         25    2    3    3    0    0 -0.43357141377E+02  0.10331088572E+02 -0.11875690140E+04  0.11953251324E+04  0.12843455899E+03 0.  0.
         25    2    3    3    0    0  0.43357141377E+02 -0.10331088572E+02 -0.78692622484E+03  0.79819343519E+03  0.12598929933E+03 0.  0.
          5    1    4    4  502    0 -0.68885164492E+02 -0.29679748088E+01 -0.11146403287E+04  0.11167806978E+04  0.47000000000E+01 0. -1.
         -5    1    4    4    0  502  0.25528023115E+02  0.13299063381E+02 -0.72928685331E+02  0.78544434526E+02  0.47000000000E+01 0. -1.
          5    1    5    5  503    0  0.84189236913E+02 -0.27856180506E+02 -0.54142869964E+03  0.54866284839E+03  0.47000000000E+01 0.  1.
         -5    1    5    5    0  503 -0.40832095536E+02  0.17525091934E+02 -0.24549752520E+03  0.24953058681E+03  0.47000000000E+01 0.  1.
<mgrwt>
<rscale>  0 0.27474503E+03</rscale>
<asrwt>0</asrwt>
<pdfrwt beam="1">  1        1 0.30523250E+00 0.27474503E+03</pdfrwt>
<pdfrwt beam="2">  1       -1 0.14633298E-02 0.27474503E+03</pdfrwt>
<totfact> 0.37389018E+03</totfact>
</mgrwt>
</event>
<event>
 9    1  0.2051157E-002  0.2649414E+03  0.7818608E-02  0.1104210E+00
          2   -1    0    0  501    0  0.00000000000E+00  0.00000000000E+00  0.38761726839E+03  0.38761726839E+03  0.00000000000E+00 0. -1.
         -2   -1    0    0    0  501 -0.00000000000E+00 -0.00000000000E+00 -0.45272715510E+02  0.45272715510E+02  0.00000000000E+00 0. -1.
         36    2    1    2    0    0 -0.35527136788E-14  0.17763568394E-14  0.34234455288E+03  0.43288998390E+03  0.26494139970E+03 0.  0.
         25    2    3    3    0    0  0.16272208174E+02 -0.12507639401E+02  0.23562395592E+03  0.26778912426E+03  0.12558320217E+03 0.  0.
         25    2    3    3    0    0 -0.16272208174E+02  0.12507639401E+02  0.10672059697E+03  0.16510085964E+03  0.12428910747E+03 0.  0.
          5    1    4    4  502    0 -0.50819069991E+02  0.16162360406E+01  0.57671603597E+02  0.77027877779E+02  0.47000000000E+01 0.  1.
         -5    1    4    4    0  502  0.67091278164E+02 -0.14123875441E+02  0.17795235232E+03  0.19076124648E+03  0.47000000000E+01 0.  1.
          5    1    5    5  503    0 -0.12248775558E+02  0.67196611255E+02  0.42765342009E+02  0.80724107576E+02  0.47000000000E+01 0. -1.
         -5    1    5    5    0  503 -0.40234326160E+01 -0.54688971854E+02  0.63955254957E+02  0.84376752065E+02  0.47000000000E+01 0. -1.
<mgrwt>
<rscale>  0 0.26494140E+03</rscale>
<asrwt>0</asrwt>
<pdfrwt beam="1">  1        2 0.59633424E-01 0.26494140E+03</pdfrwt>
<pdfrwt beam="2">  1       -2 0.69650334E-02 0.26494140E+03</pdfrwt>
<totfact> 0.96180011E+03</totfact>
</mgrwt>
</event>
<event>
 9    1  0.2051157E-002  0.2740294E+03  0.7818608E-02  0.1098995E+00
         -2   -1    0    0    0  501 -0.00000000000E+00  0.00000000000E+00  0.24992899087E+02  0.24992899087E+02  0.00000000000E+00 0. -1.
          2   -1    0    0  501    0  0.00000000000E+00 -0.00000000000E+00 -0.75113419922E+03  0.75113419922E+03  0.00000000000E+00 0. -1.
         36    2    1    2    0    0  0.71054273576E-14 -0.17763568394E-14 -0.72614130013E+03  0.77612709831E+03  0.27402935056E+03 0.  0.
         25    2    3    3    0    0 -0.34110379866E+02  0.10402409577E+02 -0.50551975099E+03  0.52062259209E+03  0.11927253084E+03 0.  0.
         25    2    3    3    0    0  0.34110379866E+02 -0.10402409577E+02 -0.22062154914E+03  0.25550450622E+03  0.12384246692E+03 0.  0.
          5    1    4    4  502    0 -0.59656348453E+02  0.24731385461E+01 -0.47877454104E+03  0.48250611133E+03  0.47000000000E+01 0.  1.
         -5    1    4    4    0  502  0.25545968587E+02  0.79292710304E+01 -0.26745209956E+02  0.38116480762E+02  0.47000000000E+01 0.  1.
          5    1    5    5  503    0 -0.44660082361E+02 -0.20392095839E+02 -0.82587143366E+02  0.96192966368E+02  0.47000000000E+01 0.  1.
         -5    1    5    5    0  503  0.78770462228E+02  0.99896862629E+01 -0.13803440578E+03  0.15931153985E+03  0.47000000000E+01 0.  1.
<mgrwt>
<rscale>  0 0.27402935E+03</rscale>
<asrwt>0</asrwt>
<pdfrwt beam="1">  1        2 0.11555909E+00 0.27402935E+03</pdfrwt>
<pdfrwt beam="2">  1       -2 0.38450619E-02 0.27402935E+03</pdfrwt>
<totfact> 0.11168417E+04</totfact>
</mgrwt>
</event>
<event>
 9    1  0.2051157E-002  0.2735037E+03  0.7818608E-02  0.1099291E+00
         -2   -1    0    0    0  501 -0.00000000000E+00  0.00000000000E+00  0.28839410699E+02  0.28839410699E+02  0.00000000000E+00 0.  1.
          2   -1    0    0  501    0  0.00000000000E+00 -0.00000000000E+00 -0.64845526549E+03  0.64845526549E+03  0.00000000000E+00 0.  1.
         36    2    1    2    0    0  0.00000000000E+00 -0.35527136788E-14 -0.61961585479E+03  0.67729467619E+03  0.27350369446E+03 0.  0.
         25    2    3    3    0    0  0.42194614958E+01  0.21208378474E+02 -0.19371906545E+03  0.23350140444E+03  0.12856216544E+03 0.  0.
         25    2    3    3    0    0 -0.42194614958E+01 -0.21208378474E+02 -0.42589678934E+03  0.44379327175E+03  0.12286901036E+03 0.  0.
          5    1    4    4  502    0  0.59578029653E+02  0.23646632423E+02 -0.14854945587E+03  0.16185714591E+03  0.47000000000E+01 0.  1.
         -5    1    4    4    0  502 -0.55358568158E+02 -0.24382539497E+01 -0.45169609578E+02  0.71644258529E+02  0.47000000000E+01 0.  1.
          5    1    5    5  503    0 -0.46648996244E+02 -0.12065313125E+01 -0.66830759655E+02  0.81645728636E+02  0.47000000000E+01 0. -1.
         -5    1    5    5    0  503  0.42429534748E+02 -0.20001847161E+02 -0.35906602969E+03  0.36214754311E+03  0.47000000000E+01 0. -1.
<mgrwt>
<rscale>  0 0.27350369E+03</rscale>
<asrwt>0</asrwt>
<pdfrwt beam="1">  1        2 0.99762336E-01 0.27350369E+03</pdfrwt>
<pdfrwt beam="2">  1       -2 0.44368330E-02 0.27350369E+03</pdfrwt>
<totfact> 0.10758368E+04</totfact>
</mgrwt>
</event>
<event>
 9    1  0.2051157E-002  0.2757217E+03  0.7818608E-02  0.1098049E+00
         -1   -1    0    0    0  501 -0.00000000000E+00  0.00000000000E+00  0.87027781380E+02  0.87027781380E+02  0.00000000000E+00 0. -1.
          1   -1    0    0  501    0  0.00000000000E+00 -0.00000000000E+00 -0.21838566601E+03  0.21838566601E+03  0.00000000000E+00 0. -1.
         36    2    1    2    0    0 -0.35527136788E-14  0.35527136788E-14 -0.13135788463E+03  0.30541344739E+03  0.27572174378E+03 0.  0.
         25    2    3    3    0    0  0.20607625439E+02  0.81977422887E+01 -0.12504735442E+03  0.18040022654E+03  0.12812308022E+03 0.  0.
         25    2    3    3    0    0 -0.20607625439E+02 -0.81977422887E+01 -0.63105302123E+01  0.12501322085E+03  0.12286824403E+03 0.  0.
          5    1    4    4  502    0  0.62757362066E+02  0.32698089495E+02 -0.10665396331E+03  0.12808126108E+03  0.47000000000E+01 0. -1.
         -5    1    4    4    0  502 -0.42149736627E+02 -0.24500347206E+02 -0.18393391109E+02  0.52318965466E+02  0.47000000000E+01 0. -1.
          5    1    5    5  503    0 -0.15822932336E+02  0.41515190285E+02 -0.43664022175E+02  0.62470097203E+02  0.47000000000E+01 0. -1.
         -5    1    5    5    0  503 -0.47846931027E+01 -0.49712932573E+02  0.37353491963E+02  0.62543123642E+02  0.47000000000E+01 0. -1.
<mgrwt>
<rscale>  0 0.27572174E+03</rscale>
<asrwt>0</asrwt>
<pdfrwt beam="1">  1        1 0.33597795E-01 0.27572174E+03</pdfrwt>
<pdfrwt beam="2">  1       -1 0.13388889E-01 0.27572174E+03</pdfrwt>
<totfact> 0.50177466E+03</totfact>
</mgrwt>
</event>
<event>
 9    1  0.2051157E-002  0.2750441E+03  0.7818608E-02  0.1098427E+00
          1   -1    0    0  501    0  0.00000000000E+00  0.00000000000E+00  0.17509078005E+03  0.17509078005E+03  0.00000000000E+00 0.  1.
         -1   -1    0    0    0  501 -0.00000000000E+00 -0.00000000000E+00 -0.10801429998E+03  0.10801429998E+03  0.00000000000E+00 0.  1.
         36    2    1    2    0    0 -0.10658141036E-13  0.35527136788E-14  0.67076480067E+02  0.28310508002E+03  0.27504405494E+03 0.  0.
         25    2    3    3    0    0 -0.25172739315E+02  0.15632786506E+02  0.86718806149E+02  0.15372410856E+03  0.12342163260E+03 0.  0.
         25    2    3    3    0    0  0.25172739315E+02 -0.15632786506E+02 -0.19642326082E+02  0.12938097146E+03  0.12440081987E+03 0.  0.
          5    1    4    4  502    0 -0.42589017895E+02 -0.45684476923E+02  0.36984500218E+02  0.72738154592E+02  0.47000000000E+01 0. -1.
         -5    1    4    4    0  502  0.17416278580E+02  0.61317263429E+02  0.49734305931E+02  0.80985953970E+02  0.47000000000E+01 0. -1.
          5    1    5    5  503    0  0.72305103247E+02 -0.24864248545E+02  0.16784959150E+01  0.76623535287E+02  0.47000000000E+01 0.  1.
         -5    1    5    5    0  503 -0.47132363933E+02  0.92314620387E+01 -0.21320821997E+02  0.52757436176E+02  0.47000000000E+01 0.  1.
<mgrwt>
<rscale>  0 0.27504405E+03</rscale>
<asrwt>0</asrwt>
<pdfrwt beam="1">  1        1 0.26937043E-01 0.27504405E+03</pdfrwt>
<pdfrwt beam="2">  1       -1 0.16617585E-01 0.27504405E+03</pdfrwt>
<totfact> 0.47070807E+03</totfact>
</mgrwt>
</event>
<event>
 9    1  0.2051157E-002  0.2752785E+03  0.7818608E-02  0.1098296E+00
          2   -1    0    0  501    0  0.00000000000E+00  0.00000000000E+00  0.12973652272E+03  0.12973652272E+03  0.00000000000E+00 0.  1.
         -2   -1    0    0    0  501 -0.00000000000E+00 -0.00000000000E+00 -0.14602331903E+03  0.14602331903E+03  0.00000000000E+00 0.  1.
         36    2    1    2    0    0 -0.17763568394E-14  0.35527136788E-14 -0.16286796312E+02  0.27575984175E+03  0.27527846009E+03 0.  0.
         25    2    3    3    0    0  0.12853210824E+02 -0.26506148470E+01 -0.69001137874E+02  0.14237615079E+03  0.12384498577E+03 0.  0.
         25    2    3    3    0    0 -0.12853210824E+02  0.26506148470E+01  0.52714341563E+02  0.13338369096E+03  0.12182026277E+03 0.  0.
          5    1    4    4  502    0  0.18930923967E+02 -0.21690016124E+02 -0.10057173093E+03  0.10471675961E+03  0.47000000000E+01 0.  1.
         -5    1    4    4    0  502 -0.60777131425E+01  0.19039401277E+02  0.31570593057E+02  0.37659391179E+02  0.47000000000E+01 0.  1.
          5    1    5    5  503    0  0.10090581503E+01  0.61421712160E+02  0.31611912386E+02  0.69246284577E+02  0.47000000000E+01 0. -1.
         -5    1    5    5    0  503 -0.13862268975E+02 -0.58771097313E+02  0.21102429177E+02  0.64137406384E+02  0.47000000000E+01 0. -1.
<mgrwt>
<rscale>  0 0.27527846E+03</rscale>
<asrwt>0</asrwt>
<pdfrwt beam="1">  1        2 0.19959465E-01 0.27527846E+03</pdfrwt>
<pdfrwt beam="2">  1       -2 0.22465126E-01 0.27527846E+03</pdfrwt>
<totfact> 0.47481483E+03</totfact>
</mgrwt>
</event>
<event>
 9    1  0.2051157E-002  0.2751265E+03  0.7818608E-02  0.1098381E+00
         -2   -1    0    0    0  501 -0.00000000000E+00  0.00000000000E+00  0.16244478600E+04  0.16244478600E+04  0.00000000000E+00 0.  1.
          2   -1    0    0  501    0  0.00000000000E+00 -0.00000000000E+00 -0.11649281046E+02  0.11649281046E+02  0.00000000000E+00 0.  1.
         36    2    1    2    0    0  0.00000000000E+00  0.00000000000E+00  0.16127985789E+04  0.16360971410E+04  0.27512651392E+03 0.  0.
         25    2    3    3    0    0  0.34719777330E+02  0.23748125879E+00  0.58135322602E+03  0.59586003157E+03  0.12598446131E+03 0.  0.
         25    2    3    3    0    0 -0.34719777330E+02 -0.23748125879E+00  0.10314453529E+04  0.10402371094E+04  0.13041552244E+03 0.  0.
          5    1    4    4  502    0 -0.60476367056E+01 -0.43889162190E+02  0.86001833545E+02  0.96856790369E+02  0.47000000000E+01 0.  1.
         -5    1    4    4    0  502  0.40767414036E+02  0.44126643449E+02  0.49535139247E+03  0.49900324121E+03  0.47000000000E+01 0.  1.
          5    1    5    5  503    0 -0.15804773903E+02 -0.54632166404E+02  0.78655644213E+03  0.78862385910E+03  0.47000000000E+01 0. -1.
         -5    1    5    5    0  503 -0.18915003427E+02  0.54394685145E+02  0.24488891077E+03  0.25161325033E+03  0.47000000000E+01 0. -1.
<mgrwt>
<rscale>  0 0.27512651E+03</rscale>
<asrwt>0</asrwt>
<pdfrwt beam="1">  1        2 0.17921984E-02 0.27512651E+03</pdfrwt>
<pdfrwt beam="2">  1       -2 0.24991488E+00 0.27512651E+03</pdfrwt>
<totfact> 0.45798058E+02</totfact>
</mgrwt>
</event>
<event>
 9    1  0.2051157E-002  0.2752180E+03  0.7818608E-02  0.1098330E+00
          2   -1    0    0  501    0  0.00000000000E+00  0.00000000000E+00  0.15912203523E+04  0.15912203523E+04  0.00000000000E+00 0. -1.
         -2   -1    0    0    0  501 -0.00000000000E+00 -0.00000000000E+00 -0.11900445083E+02  0.11900445083E+02  0.00000000000E+00 0. -1.
         36    2    1    2    0    0 -0.17763568394E-14  0.00000000000E+00  0.15793199072E+04  0.16031207974E+04  0.27521795303E+03 0.  0.
         25    2    3    3    0    0  0.15651615131E+02  0.14169710511E+02  0.11620764185E+04  0.11689675959E+04  0.12497153315E+03 0.  0.
         25    2    3    3    0    0 -0.15651615131E+02 -0.14169710511E+02  0.41724348866E+03  0.43415320142E+03  0.11811485817E+03 0.  0.
          5    1    4    4  502    0  0.91402393948E+01 -0.50585053718E+02  0.74826327460E+03  0.75004160535E+03  0.47000000000E+01 0.  1.
         -5    1    4    4    0  502  0.65113757365E+01  0.64754764229E+02  0.41381314393E+03  0.41892599059E+03  0.47000000000E+01 0.  1.
          5    1    5    5  503    0  0.13649639964E+02  0.45737471046E+02  0.11493540438E+03  0.12454102179E+03  0.47000000000E+01 0.  1.
         -5    1    5    5    0  503 -0.29301255095E+02 -0.59907181557E+02  0.30230808428E+03  0.30961217963E+03  0.47000000000E+01 0.  1.
<mgrwt>
<rscale>  0 0.27521795E+03</rscale>
<asrwt>0</asrwt>
<pdfrwt beam="1">  1        2 0.24480296E+00 0.27521795E+03</pdfrwt>
<pdfrwt beam="2">  1       -2 0.18308390E-02 0.27521795E+03</pdfrwt>
<totfact> 0.10740170E+04</totfact>
</mgrwt>
</event>
<event>
 9    1  0.2051157E-002  0.2750230E+03  0.7818608E-02  0.1098439E+00
          1   -1    0    0  501    0  0.00000000000E+00  0.00000000000E+00  0.19660566567E+03  0.19660566567E+03  0.00000000000E+00 0. -1.
         -1   -1    0    0    0  501 -0.00000000000E+00 -0.00000000000E+00 -0.96179365390E+02  0.96179365390E+02  0.00000000000E+00 0. -1.
         36    2    1    2    0    0  0.00000000000E+00 -0.14210854715E-13  0.10042630028E+03  0.29278503106E+03  0.27502296745E+03 0.  0.
         25    2    3    3    0    0  0.27972290839E+02  0.53180310745E+02  0.47593109385E+02  0.14554837597E+03  0.12372805332E+03 0.  0.
         25    2    3    3    0    0 -0.27972290839E+02 -0.53180310745E+02  0.52833190900E+02  0.14723665510E+03  0.12359891601E+03 0.  0.
          5    1    4    4  502    0 -0.41186543148E+01  0.89003050141E+02  0.30578843933E+02  0.94316816868E+02  0.47000000000E+01 0. -1.
         -5    1    4    4    0  502  0.32090945153E+02 -0.35822739396E+02  0.17014265451E+02  0.51231559097E+02  0.47000000000E+01 0. -1.
          5    1    5    5  503    0 -0.35071746825E+02  0.33906293259E+02  0.10896694934E+02  0.50204502870E+02  0.47000000000E+01 0. -1.
         -5    1    5    5    0  503  0.70994559859E+01 -0.87086604005E+02  0.41936495966E+02  0.97032152229E+02  0.47000000000E+01 0. -1.
<mgrwt>
<rscale>  0 0.27502297E+03</rscale>
<asrwt>0</asrwt>
<pdfrwt beam="1">  1        1 0.30247025E-01 0.27502297E+03</pdfrwt>
<pdfrwt beam="2">  1       -1 0.14796825E-01 0.27502297E+03</pdfrwt>
<totfact> 0.48905186E+03</totfact>
</mgrwt>
</event>
<event>
 9    1  0.2051157E-002  0.2751501E+03  0.7818608E-02  0.1098368E+00
         -2   -1    0    0    0  501 -0.00000000000E+00  0.00000000000E+00  0.47508226806E+01  0.47508226806E+01  0.00000000000E+00 0.  1.
          2   -1    0    0  501    0  0.00000000000E+00 -0.00000000000E+00 -0.39839203950E+04  0.39839203950E+04  0.00000000000E+00 0.  1.
         36    2    1    2    0    0  0.00000000000E+00  0.00000000000E+00 -0.39791695723E+04  0.39886712176E+04  0.27515013625E+03 0.  0.
         25    2    3    3    0    0  0.23246009768E+02 -0.49018328524E+02 -0.22025742866E+04  0.22068504076E+04  0.12614301491E+03 0.  0.
         25    2    3    3    0    0 -0.23246009768E+02  0.49018328524E+02 -0.17765952857E+04  0.17818208100E+04  0.12510562078E+03 0.  0.
          5    1    4    4  502    0  0.52850675344E+02 -0.23431276950E+02 -0.43655112423E+03  0.44038754829E+03  0.47000000000E+01 0. -1.
         -5    1    4    4    0  502 -0.29604665576E+02 -0.25587051574E+02 -0.17660231623E+04  0.17664628593E+04  0.47000000000E+01 0. -1.
          5    1    5    5  503    0 -0.11413617898E+00  0.13457428685E+02 -0.19230516011E+02  0.23937797725E+02  0.47000000000E+01 0. -1.
         -5    1    5    5    0  503 -0.23131873589E+02  0.35560899839E+02 -0.17573647697E+04  0.17578830123E+04  0.47000000000E+01 0. -1.
<mgrwt>
<rscale>  0 0.27515014E+03</rscale>
<asrwt>0</asrwt>
<pdfrwt beam="1">  1        2 0.61290725E+00 0.27515014E+03</pdfrwt>
<pdfrwt beam="2">  1       -2 0.73090007E-03 0.27515014E+03</pdfrwt>
<totfact> 0.15454759E+03</totfact>
</mgrwt>
</event>
<event>
 9    1  0.2051157E-002  0.2754254E+03  0.7818608E-02  0.1098214E+00
         -1   -1    0    0    0  501 -0.00000000000E+00  0.00000000000E+00  0.12877910039E+02  0.12877910039E+02  0.00000000000E+00 0.  1.
          1   -1    0    0  501    0  0.00000000000E+00 -0.00000000000E+00 -0.14726607094E+04  0.14726607094E+04  0.00000000000E+00 0.  1.
         36    2    1    2    0    0  0.71054273576E-14 -0.71054273576E-14 -0.14597827994E+04  0.14855386195E+04  0.27542543189E+03 0.  0.
         25    2    3    3    0    0  0.48403493605E+02 -0.21917649584E+02 -0.74958113939E+03  0.76267092165E+03  0.13027574085E+03 0.  0.
         25    2    3    3    0    0 -0.48403493605E+02  0.21917649584E+02 -0.71020166001E+03  0.72286769782E+03  0.12380641791E+03 0.  0.
          5    1    4    4  502    0  0.65681229791E+02 -0.58861418013E+02 -0.34943279824E+03  0.36042205949E+03  0.47000000000E+01 0.  1.
         -5    1    4    4    0  502 -0.17277736186E+02  0.36943768429E+02 -0.40014834114E+03  0.40224886217E+03  0.47000000000E+01 0.  1.
          5    1    5    5  503    0 -0.11941026608E+02 -0.44481521814E+02 -0.43285044989E+03  0.43531918849E+03  0.47000000000E+01 0.  1.
         -5    1    5    5    0  503 -0.36462466998E+02  0.66399171399E+02 -0.27735121012E+03  0.28754850933E+03  0.47000000000E+01 0.  1.
<mgrwt>
<rscale>  0 0.27542543E+03</rscale>
<asrwt>0</asrwt>
<pdfrwt beam="1">  1        1 0.22656311E+00 0.27542543E+03</pdfrwt>
<pdfrwt beam="2">  1       -1 0.19812176E-02 0.27542543E+03</pdfrwt>
<totfact> 0.51880474E+03</totfact>
</mgrwt>
</event>
<event>
 9    1  0.2051157E-002  0.2758185E+03  0.7818608E-02  0.1097995E+00
         -2   -1    0    0    0  501 -0.00000000000E+00  0.00000000000E+00  0.71003270074E+01  0.71003270074E+01  0.00000000000E+00 0. -1.
          2   -1    0    0  501    0  0.00000000000E+00 -0.00000000000E+00 -0.26786042821E+04  0.26786042821E+04  0.00000000000E+00 0. -1.
         36    2    1    2    0    0  0.35527136788E-14  0.00000000000E+00 -0.26715039551E+04  0.26857046091E+04  0.27581853691E+03 0.  0.
         25    2    3    3    0    0  0.30310658547E+02  0.27378691927E+02 -0.16843985004E+04  0.16902736835E+04  0.13475343458E+03 0.  0.
         25    2    3    3    0    0 -0.30310658547E+02 -0.27378691927E+02 -0.98710545468E+03  0.99543092562E+03  0.12180812868E+03 0.  0.
          5    1    4    4  502    0  0.51600593060E+02 -0.23559368936E+00 -0.15635329624E+04  0.15643912845E+04  0.47000000000E+01 0. -1.
         -5    1    4    4    0  502 -0.21289934513E+02  0.27614285616E+02 -0.12086553803E+03  0.12588239895E+03  0.47000000000E+01 0. -1.
          5    1    5    5  503    0 -0.87375518215E+01  0.39850429261E+02 -0.63263319109E+03  0.63396470406E+03  0.47000000000E+01 0.  1.
         -5    1    5    5    0  503 -0.21573106726E+02 -0.67229121188E+02 -0.35447226359E+03  0.36146622155E+03  0.47000000000E+01 0.  1.
<mgrwt>
<rscale>  0 0.27581854E+03</rscale>
<asrwt>0</asrwt>
<pdfrwt beam="1">  1        2 0.41209267E+00 0.27581854E+03</pdfrwt>
<pdfrwt beam="2">  1       -2 0.10923588E-02 0.27581854E+03</pdfrwt>
<totfact> 0.59853836E+03</totfact>
</mgrwt>
</event>
<event>
 9    1  0.2051157E-002  0.2750611E+03  0.7818608E-02  0.1098417E+00
          1   -1    0    0  501    0  0.00000000000E+00  0.00000000000E+00  0.11364763045E+04  0.11364763045E+04  0.00000000000E+00 0.  1.
         -1   -1    0    0    0  501 -0.00000000000E+00 -0.00000000000E+00 -0.16643238724E+02  0.16643238724E+02  0.00000000000E+00 0.  1.
         36    2    1    2    0    0  0.26645352591E-14 -0.71054273576E-14  0.11198330658E+04  0.11531195432E+04  0.27506105824E+03 0.  0.
         25    2    3    3    0    0 -0.27584586633E+01  0.50113044687E+02  0.62629208608E+03  0.64042057891E+03  0.12400731616E+03 0.  0.
         25    2    3    3    0    0  0.27584586633E+01 -0.50113044687E+02  0.49354097969E+03  0.51269896431E+03  0.12945502319E+03 0.  0.
          5    1    4    4  502    0  0.35140028406E+02  0.12824699012E+02  0.55238478758E+02  0.66878053475E+02  0.47000000000E+01 0.  1.
         -5    1    4    4    0  502 -0.37898487069E+02  0.37288345674E+02  0.57105360732E+03  0.57354252543E+03  0.47000000000E+01 0.  1.
          5    1    5    5  503    0  0.17983765818E+01 -0.91028359257E+02  0.25922408860E+03  0.27478830844E+03  0.47000000000E+01 0.  1.
         -5    1    5    5    0  503  0.96008208156E+00  0.40915314570E+02  0.23431689109E+03  0.23791065587E+03  0.47000000000E+01 0.  1.
<mgrwt>
<rscale>  0 0.27506106E+03</rscale>
<asrwt>0</asrwt>
<pdfrwt beam="1">  1        1 0.17484245E+00 0.27506106E+03</pdfrwt>
<pdfrwt beam="2">  1       -1 0.25604992E-02 0.27506106E+03</pdfrwt>
<totfact> 0.60532949E+03</totfact>
</mgrwt>
</event>
<event>
 9    1  0.2051157E-002  0.2747356E+03  0.7818608E-02  0.1098600E+00
         -2   -1    0    0    0  501 -0.00000000000E+00  0.00000000000E+00  0.10589498390E+02  0.10589498390E+02  0.00000000000E+00 0. -1.
          2   -1    0    0  501    0  0.00000000000E+00 -0.00000000000E+00 -0.17819453541E+04  0.17819453541E+04  0.00000000000E+00 0. -1.
         36    2    1    2    0    0  0.71054273576E-14  0.35527136788E-14 -0.17713558557E+04  0.17925348525E+04  0.27473556347E+03 0.  0.
         25    2    3    3    0    0 -0.43959225488E+02  0.19482006761E+02 -0.69600565788E+03  0.70862417647E+03  0.12414662936E+03 0.  0.
         25    2    3    3    0    0  0.43959225488E+02 -0.19482006761E+02 -0.10753501978E+04  0.10839106760E+04  0.12717052933E+03 0.  0.
          5    1    4    4  502    0 -0.11621543499E+02  0.63814220909E+02 -0.52390750489E+03  0.52792847881E+03  0.47000000000E+01 0.  1.
         -5    1    4    4    0  502 -0.32337681990E+02 -0.44332214148E+02 -0.17209815299E+03  0.18069569766E+03  0.47000000000E+01 0.  1.
          5    1    5    5  503    0  0.76247991280E+02 -0.47543460851E+02 -0.61406894209E+03  0.62062620995E+03  0.47000000000E+01 0.  1.
         -5    1    5    5    0  503 -0.32288765792E+02  0.28061454090E+02 -0.46128125575E+03  0.46328446607E+03  0.47000000000E+01 0.  1.
<mgrwt>
<rscale>  0 0.27473556E+03</rscale>
<asrwt>0</asrwt>
<pdfrwt beam="1">  1        2 0.27414559E+00 0.27473556E+03</pdfrwt>
<pdfrwt beam="2">  1       -2 0.16291527E-02 0.27473556E+03</pdfrwt>
<totfact> 0.10110678E+04</totfact>
</mgrwt>
</event>
<event>
 9    1  0.2051157E-002  0.2743109E+03  0.7818608E-02  0.1098837E+00
         -1   -1    0    0    0  501 -0.00000000000E+00  0.00000000000E+00  0.21093891737E+02  0.21093891737E+02  0.00000000000E+00 0. -1.
          1   -1    0    0  501    0  0.00000000000E+00 -0.00000000000E+00 -0.89180399778E+03  0.89180399778E+03  0.00000000000E+00 0. -1.
         36    2    1    2    0    0  0.35527136788E-14  0.00000000000E+00 -0.87071010604E+03  0.91289788951E+03  0.27431089646E+03 0.  0.
         25    2    3    3    0    0 -0.10282109481E+02  0.63695247131E+02 -0.40059563292E+03  0.42438515126E+03  0.12435067034E+03 0.  0.
         25    2    3    3    0    0  0.10282109481E+02 -0.63695247131E+02 -0.47011447312E+03  0.48851273825E+03  0.11607872895E+03 0.  0.
          5    1    4    4  502    0  0.41180299084E+01  0.85687639423E+02 -0.15397354163E+03  0.17632149966E+03  0.47000000000E+01 0. -1.
         -5    1    4    4    0  502 -0.14400139389E+02 -0.21992392292E+02 -0.24662209129E+03  0.24806365160E+03  0.47000000000E+01 0. -1.
          5    1    5    5  503    0  0.52464274173E+02 -0.72330128219E+02 -0.32013299984E+03  0.33240242944E+03  0.47000000000E+01 0.  1.
         -5    1    5    5    0  503 -0.42182164692E+02  0.86348810877E+01 -0.14998147328E+03  0.15611030881E+03  0.47000000000E+01 0.  1.
<mgrwt>
<rscale>  0 0.27431090E+03</rscale>
<asrwt>0</asrwt>
<pdfrwt beam="1">  1        1 0.13720057E+00 0.27431090E+03</pdfrwt>
<pdfrwt beam="2">  1       -1 0.32452151E-02 0.27431090E+03</pdfrwt>
<totfact> 0.64994731E+03</totfact>
</mgrwt>
</event>
<event>
 9    1  0.2051157E-002  0.2745098E+03  0.7818608E-02  0.1098726E+00
          1   -1    0    0  501    0  0.00000000000E+00  0.00000000000E+00  0.58728363585E+02  0.58728363585E+02  0.00000000000E+00 0.  1.
         -1   -1    0    0    0  501 -0.00000000000E+00 -0.00000000000E+00 -0.32078028652E+03  0.32078028652E+03  0.00000000000E+00 0.  1.
         36    2    1    2    0    0  0.00000000000E+00  0.91593399532E-15 -0.26205192293E+03  0.37950865010E+03  0.27450975427E+03 0.  0.
         25    2    3    3    0    0 -0.49007068677E+02  0.38739034540E-01 -0.93834769582E+02  0.16426869320E+03  0.12560869915E+03 0.  0.
         25    2    3    3    0    0  0.49007068677E+02 -0.38739034540E-01 -0.16821715335E+03  0.21523995690E+03  0.12501813502E+03 0.  0.
          5    1    4    4  502    0 -0.31493105971E+02  0.14861274418E+00  0.27203048567E+02  0.41879991175E+02  0.47000000000E+01 0.  1.
         -5    1    4    4    0  502 -0.17513962706E+02 -0.10987370964E+00 -0.12103781815E+03  0.12238870203E+03  0.47000000000E+01 0.  1.
          5    1    5    5  503    0  0.16663794689E+02 -0.35196292040E+02 -0.16218409038E+03  0.16685991190E+03  0.47000000000E+01 0.  1.
         -5    1    5    5    0  503  0.32343273988E+02  0.35157553005E+02 -0.60330629749E+01  0.48380045002E+02  0.47000000000E+01 0.  1.
<mgrwt>
<rscale>  0 0.27450975E+03</rscale>
<asrwt>0</asrwt>
<pdfrwt beam="1">  1        1 0.90351327E-02 0.27450975E+03</pdfrwt>
<pdfrwt beam="2">  1       -1 0.49350814E-01 0.27450975E+03</pdfrwt>
<totfact> 0.30878029E+03</totfact>
</mgrwt>
</event>
<event>
 9    1  0.2051157E-002  0.2757329E+03  0.7818608E-02  0.1098043E+00
          2   -1    0    0  501    0  0.00000000000E+00  0.00000000000E+00  0.11140955405E+03  0.11140955405E+03  0.00000000000E+00 0.  1.
         -2   -1    0    0    0  501 -0.00000000000E+00 -0.00000000000E+00 -0.17060618597E+03  0.17060618597E+03  0.00000000000E+00 0.  1.
         36    2    1    2    0    0  0.71054273576E-14  0.00000000000E+00 -0.59196631915E+02  0.28201574002E+03  0.27573290770E+03 0.  0.
         25    2    3    3    0    0  0.32211944842E+02 -0.39373688067E+01  0.40168111625E+02  0.12042880378E+03  0.10879571372E+03 0.  0.
         25    2    3    3    0    0 -0.32211944842E+02  0.39373688067E+01 -0.99364743540E+02  0.16158693624E+03  0.12322286087E+03 0.  0.
          5    1    4    4  502    0  0.45363598566E+02 -0.24918979415E+02  0.66221030915E+02  0.84179133670E+02  0.47000000000E+01 0.  1.
         -5    1    4    4    0  502 -0.13151653724E+02  0.20981610609E+02 -0.26052919290E+02  0.36249670108E+02  0.47000000000E+01 0.  1.
          5    1    5    5  503    0  0.72391549369E+01 -0.55369206719E+02 -0.43245998263E+02  0.70784608374E+02  0.47000000000E+01 0.  1.
         -5    1    5    5    0  503 -0.39451099779E+02  0.59306575526E+02 -0.56118745277E+02  0.90802327866E+02  0.47000000000E+01 0.  1.
<mgrwt>
<rscale>  0 0.27573291E+03</rscale>
<asrwt>0</asrwt>
<pdfrwt beam="1">  1        2 0.17139931E-01 0.27573291E+03</pdfrwt>
<pdfrwt beam="2">  1       -2 0.26247105E-01 0.27573291E+03</pdfrwt>
<totfact> 0.43079998E+03</totfact>
</mgrwt>
</event>
<event>
 9    1  0.2051157E-002  0.2757140E+03  0.7818608E-02  0.1098053E+00
          1   -1    0    0  501    0  0.00000000000E+00  0.00000000000E+00  0.66673518447E+03  0.66673518447E+03  0.00000000000E+00 0. -1.
         -1   -1    0    0    0  501 -0.00000000000E+00 -0.00000000000E+00 -0.28503896219E+02  0.28503896219E+02  0.00000000000E+00 0. -1.
         36    2    1    2    0    0 -0.35527136788E-14 -0.35527136788E-14  0.63823128825E+03  0.69523908069E+03  0.27571398589E+03 0.  0.
         25    2    3    3    0    0  0.23523196718E+02  0.29631800835E+02  0.21454941587E+03  0.25177261577E+03  0.12620068858E+03 0.  0.
         25    2    3    3    0    0 -0.23523196718E+02 -0.29631800835E+02  0.42368187238E+03  0.44346646492E+03  0.12539853316E+03 0.  0.
          5    1    4    4  502    0 -0.45151215841E+02  0.41895563330E+02  0.10435073397E+03  0.12126432368E+03  0.47000000000E+01 0. -1.
         -5    1    4    4    0  502  0.68674412560E+02 -0.12263762494E+02  0.11019868190E+03  0.13050829209E+03  0.47000000000E+01 0. -1.
          5    1    5    5  503    0 -0.29053295314E+02 -0.11188754586E+02  0.42243593148E+03  0.42360770579E+03  0.47000000000E+01 0.  1.
         -5    1    5    5    0  503  0.55300985962E+01 -0.18443046249E+02  0.12459409007E+01  0.19858759129E+02  0.47000000000E+01 0.  1.
<mgrwt>
<rscale>  0 0.27571399E+03</rscale>
<asrwt>0</asrwt>
<pdfrwt beam="1">  1        1 0.10257463E+00 0.27571399E+03</pdfrwt>
<pdfrwt beam="2">  1       -1 0.43852153E-02 0.27571399E+03</pdfrwt>
<totfact> 0.64678583E+03</totfact>
</mgrwt>
</event>
<event>
 9    1  0.2051157E-002  0.2738578E+03  0.7818608E-02  0.1099092E+00
         -2   -1    0    0    0  501 -0.00000000000E+00  0.00000000000E+00  0.15281371728E+02  0.15281371728E+02  0.00000000000E+00 0. -1.
          2   -1    0    0  501    0  0.00000000000E+00 -0.00000000000E+00 -0.12269525015E+04  0.12269525015E+04  0.00000000000E+00 0. -1.
         36    2    1    2    0    0  0.00000000000E+00  0.71054273576E-14 -0.12116711298E+04  0.12422338733E+04  0.27385775336E+03 0.  0.
         25    2    3    3    0    0 -0.36940550016E+02  0.41663328108E+02 -0.62179451098E+03  0.63745088928E+03  0.12889835221E+03 0.  0.
         25    2    3    3    0    0  0.36940550016E+02 -0.41663328108E+02 -0.58987661883E+03  0.60478298399E+03  0.12127487433E+03 0.  0.
          5    1    4    4  502    0 -0.66967190098E+01  0.85956735650E+02 -0.36516048138E+03  0.37523016085E+03  0.47000000000E+01 0.  1.
         -5    1    4    4    0  502 -0.30243831006E+02 -0.44293407542E+02 -0.25663402960E+03  0.26222072842E+03  0.47000000000E+01 0.  1.
          5    1    5    5  503    0  0.24733300710E+02 -0.83316301359E+02 -0.33106675168E+03  0.34231655862E+03  0.47000000000E+01 0.  1.
         -5    1    5    5    0  503  0.12207249306E+02  0.41652973251E+02 -0.25880986715E+03  0.26246642538E+03  0.47000000000E+01 0.  1.
<mgrwt>
<rscale>  0 0.27385775E+03</rscale>
<asrwt>0</asrwt>
<pdfrwt beam="1">  1        2 0.18876198E+00 0.27385775E+03</pdfrwt>
<pdfrwt beam="2">  1       -2 0.23509796E-02 0.27385775E+03</pdfrwt>
<totfact> 0.11725600E+04</totfact>
</mgrwt>
</event>
<event>
 9    1  0.2051157E-002  0.2749968E+03  0.7818608E-02  0.1098453E+00
          2   -1    0    0  501    0  0.00000000000E+00  0.00000000000E+00  0.82577995287E+03  0.82577995287E+03  0.00000000000E+00 0.  1.
         -2   -1    0    0    0  501 -0.00000000000E+00 -0.00000000000E+00 -0.22894495771E+02  0.22894495771E+02  0.00000000000E+00 0.  1.
         36    2    1    2    0    0  0.71054273576E-14 -0.71054273576E-14  0.80288545710E+03  0.84867444864E+03  0.27499684099E+03 0.  0.
         25    2    3    3    0    0 -0.44194486504E+02  0.25380103743E+02  0.40367039299E+03  0.42697468025E+03  0.12946153521E+03 0.  0.
         25    2    3    3    0    0  0.44194486504E+02 -0.25380103743E+02  0.39921506411E+03  0.42169976839E+03  0.12593937010E+03 0.  0.
          5    1    4    4  502    0 -0.79852322335E+02 -0.56262513228E+01  0.32782743249E+03  0.33749216817E+03  0.47000000000E+01 0.  1.
         -5    1    4    4    0  502  0.35657835831E+02  0.31006355066E+02  0.75842960502E+02  0.89482512081E+02  0.47000000000E+01 0.  1.
          5    1    5    5  503    0  0.82483496235E+02 -0.16703096979E+02  0.17762241220E+03  0.19660704950E+03  0.47000000000E+01 0. -1.
         -5    1    5    5    0  503 -0.38289009731E+02 -0.86770067641E+01  0.22159265192E+03  0.22509271889E+03  0.47000000000E+01 0. -1.
<mgrwt>
<rscale>  0 0.27499684E+03</rscale>
<asrwt>0</asrwt>
<pdfrwt beam="1">  1        2 0.12704305E+00 0.27499684E+03</pdfrwt>
<pdfrwt beam="2">  1       -2 0.35222308E-02 0.27499684E+03</pdfrwt>
<totfact> 0.11299908E+04</totfact>
</mgrwt>
</event>
<event>
 9    1  0.2051157E-002  0.2751109E+03  0.7818608E-02  0.1098390E+00
          1   -1    0    0  501    0  0.00000000000E+00  0.00000000000E+00  0.36339911612E+03  0.36339911612E+03  0.00000000000E+00 0.  1.
         -1   -1    0    0    0  501 -0.00000000000E+00 -0.00000000000E+00 -0.52068107857E+02  0.52068107857E+02  0.00000000000E+00 0.  1.
         36    2    1    2    0    0 -0.71054273576E-14 -0.35527136788E-14  0.31133100826E+03  0.41546722398E+03  0.27511091853E+03 0.  0.
         25    2    3    3    0    0 -0.42151881035E+02 -0.24479694084E+02  0.19829802925E+03  0.23942256905E+03  0.12500008667E+03 0.  0.
         25    2    3    3    0    0  0.42151881035E+02  0.24479694084E+02  0.11303297901E+03  0.17604465493E+03  0.12585400148E+03 0.  0.
          5    1    4    4  502    0  0.20138518654E+02 -0.72185021533E+01  0.16521097719E+03  0.16665660410E+03  0.47000000000E+01 0.  1.
         -5    1    4    4    0  502 -0.62290399689E+02 -0.17261191930E+02  0.33087052065E+02  0.72765964947E+02  0.47000000000E+01 0.  1.
          5    1    5    5  503    0  0.36328238552E+02 -0.48958475165E+02  0.51154193042E+02  0.79721481876E+02  0.47000000000E+01 0. -1.
         -5    1    5    5    0  503  0.58236424830E+01  0.73438169249E+02  0.61878785972E+02  0.96323173057E+02  0.47000000000E+01 0. -1.
<mgrwt>
<rscale>  0 0.27511092E+03</rscale>
<asrwt>0</asrwt>
<pdfrwt beam="1">  1        1 0.55907555E-01 0.27511092E+03</pdfrwt>
<pdfrwt beam="2">  1       -1 0.80104784E-02 0.27511092E+03</pdfrwt>
<totfact> 0.58569393E+03</totfact>
</mgrwt>
</event>
<event>
 9    1  0.2051157E-002  0.2748344E+03  0.7818608E-02  0.1098544E+00
          2   -1    0    0  501    0  0.00000000000E+00  0.00000000000E+00  0.30951494693E+03  0.30951494693E+03  0.00000000000E+00 0.  1.
         -2   -1    0    0    0  501 -0.00000000000E+00 -0.00000000000E+00 -0.61009931804E+02  0.61009931804E+02  0.00000000000E+00 0.  1.
         36    2    1    2    0    0  0.00000000000E+00  0.00000000000E+00  0.24850501513E+03  0.37052487873E+03  0.27483439235E+03 0.  0.
         25    2    3    3    0    0 -0.40574287489E+02  0.11807351494E+02  0.17577046741E+03  0.21877677363E+03  0.12321661052E+03 0.  0.
         25    2    3    3    0    0  0.40574287489E+02 -0.11807351494E+02  0.72734547711E+02  0.15174810511E+03  0.12629919485E+03 0.  0.
          5    1    4    4  502    0 -0.45579532361E+02 -0.47465694414E+02  0.63153886620E+02  0.91329016810E+02  0.47000000000E+01 0. -1.
         -5    1    4    4    0  502  0.50052448714E+01  0.59273045907E+02  0.11261658080E+03  0.12744775682E+03  0.47000000000E+01 0. -1.
          5    1    5    5  503    0  0.16801717677E+02  0.53426755768E+02  0.81210152219E+01  0.56786942487E+02  0.47000000000E+01 0. -1.
         -5    1    5    5    0  503  0.23772569812E+02 -0.65234107261E+02  0.64613532490E+02  0.94961162621E+02  0.47000000000E+01 0. -1.
<mgrwt>
<rscale>  0 0.27483439E+03</rscale>
<asrwt>0</asrwt>
<pdfrwt beam="1">  1        2 0.47617683E-01 0.27483439E+03</pdfrwt>
<pdfrwt beam="2">  1       -2 0.93861436E-02 0.27483439E+03</pdfrwt>
<totfact> 0.77016382E+03</totfact>
</mgrwt>
</event>
<event>
 9    1  0.2051157E-002  0.2756539E+03  0.7818608E-02  0.1098087E+00
         -2   -1    0    0    0  501 -0.00000000000E+00  0.00000000000E+00  0.70926350243E+02  0.70926350243E+02  0.00000000000E+00 0.  1.
          2   -1    0    0  501    0  0.00000000000E+00 -0.00000000000E+00 -0.26783082040E+03  0.26783082040E+03  0.00000000000E+00 0.  1.
         36    2    1    2    0    0  0.00000000000E+00  0.00000000000E+00 -0.19690447016E+03  0.33875717064E+03  0.27565385957E+03 0.  0.
         25    2    3    3    0    0 -0.33428123163E+02 -0.77135184271E+01 -0.40088160443E+02  0.13465705323E+03  0.12388915849E+03 0.  0.
         25    2    3    3    0    0  0.33428123163E+02  0.77135184271E+01 -0.15681630971E+03  0.20410011742E+03  0.12604985185E+03 0.  0.
          5    1    4    4  502    0  0.11727161475E+01 -0.57077499440E+02  0.74184990605E+01  0.57761062436E+02  0.47000000000E+01 0. -1.
         -5    1    4    4    0  502 -0.34600839310E+02  0.49363981013E+02 -0.47506659504E+02  0.76895990790E+02  0.47000000000E+01 0. -1.
          5    1    5    5  503    0  0.52529565781E+02  0.50066105988E+02 -0.13322991500E+03  0.15178363054E+03  0.47000000000E+01 0. -1.
         -5    1    5    5    0  503 -0.19101442618E+02 -0.42352587561E+02 -0.23586394714E+02  0.52316486874E+02  0.47000000000E+01 0. -1.
<mgrwt>
<rscale>  0 0.27565386E+03</rscale>
<asrwt>0</asrwt>
<pdfrwt beam="1">  1        2 0.41204742E-01 0.27565386E+03</pdfrwt>
<pdfrwt beam="2">  1       -2 0.10911746E-01 0.27565386E+03</pdfrwt>
<totfact> 0.70817620E+03</totfact>
</mgrwt>
</event>
<event>
 9    1  0.2051157E-002  0.2752866E+03  0.7818608E-02  0.1098292E+00
         -1   -1    0    0    0  501 -0.00000000000E+00  0.00000000000E+00  0.89863089715E+02  0.89863089715E+02  0.00000000000E+00 0. -1.
          1   -1    0    0  501    0  0.00000000000E+00 -0.00000000000E+00 -0.21082819609E+03  0.21082819609E+03  0.00000000000E+00 0. -1.
         36    2    1    2    0    0  0.10658141036E-13  0.17763568394E-14 -0.12096510638E+03  0.30069128581E+03  0.27528656415E+03 0.  0.
         25    2    3    3    0    0  0.31249710657E+02 -0.44931072721E+01 -0.91964857460E+01  0.13446591311E+03  0.13038318146E+03 0.  0.
         25    2    3    3    0    0 -0.31249710657E+02  0.44931072721E+01 -0.11176862063E+03  0.16622537270E+03  0.11891979458E+03 0.  0.
          5    1    4    4  502    0  0.20184420744E+01 -0.28284032420E+01  0.59424812619E+02  0.59711576165E+02  0.47000000000E+01 0. -1.
         -5    1    4    4    0  502  0.29231268583E+02 -0.16647040301E+01 -0.68621298365E+02  0.74754336943E+02  0.47000000000E+01 0. -1.
          5    1    5    5  503    0 -0.62021325877E+02 -0.35797887313E+02 -0.59073443989E+02  0.92951037565E+02  0.47000000000E+01 0. -1.
         -5    1    5    5    0  503  0.30771615220E+02  0.40290994586E+02 -0.52695176641E+02  0.73274335133E+02  0.47000000000E+01 0. -1.
<mgrwt>
<rscale>  0 0.27528656E+03</rscale>
<asrwt>0</asrwt>
<pdfrwt beam="1">  1        1 0.32435107E-01 0.27528656E+03</pdfrwt>
<pdfrwt beam="2">  1       -1 0.13825091E-01 0.27528656E+03</pdfrwt>
<totfact> 0.49864798E+03</totfact>
</mgrwt>
</event>
<event>
 9    1  0.2051157E-002  0.2751049E+03  0.7818608E-02  0.1098393E+00
          2   -1    0    0  501    0  0.00000000000E+00  0.00000000000E+00  0.82788847061E+03  0.82788847061E+03  0.00000000000E+00 0.  1.
         -2   -1    0    0    0  501 -0.00000000000E+00 -0.00000000000E+00 -0.22854139025E+02  0.22854139025E+02  0.00000000000E+00 0.  1.
         36    2    1    2    0    0  0.00000000000E+00 -0.71054273576E-14  0.80503433159E+03  0.85074260964E+03  0.27510491239E+03 0.  0.
         25    2    3    3    0    0  0.23350007500E+02  0.44579803930E+02  0.51316440098E+03  0.53071991477E+03  0.12567157089E+03 0.  0.
         25    2    3    3    0    0 -0.23350007500E+02 -0.44579803930E+02  0.29186993060E+03  0.32002269487E+03  0.12121834461E+03 0.  0.
          5    1    4    4  502    0  0.44421339004E+02  0.34064326555E+02  0.50036386229E+03  0.50350741642E+03  0.47000000000E+01 0. -1.
         -5    1    4    4    0  502 -0.21071331504E+02  0.10515477375E+02  0.12800538694E+02  0.27212498353E+02  0.47000000000E+01 0. -1.
          5    1    5    5  503    0 -0.89233847459E+01 -0.86129974774E+02  0.18288108560E+03  0.20239955736E+03  0.47000000000E+01 0.  1.
         -5    1    5    5    0  503 -0.14426622754E+02  0.41550170844E+02  0.10898884501E+03  0.11762313751E+03  0.47000000000E+01 0.  1.
<mgrwt>
<rscale>  0 0.27510491E+03</rscale>
<asrwt>0</asrwt>
<pdfrwt beam="1">  1        2 0.12736743E+00 0.27510491E+03</pdfrwt>
<pdfrwt beam="2">  1       -2 0.35160220E-02 0.27510491E+03</pdfrwt>
<totfact> 0.11292729E+04</totfact>
</mgrwt>
</event>
<event>
 9    1  0.2051157E-002  0.2751447E+03  0.7818608E-02  0.1098371E+00
         -1   -1    0    0    0  501 -0.00000000000E+00  0.00000000000E+00  0.27963985126E+02  0.27963985126E+02  0.00000000000E+00 0.  1.
          1   -1    0    0  501    0  0.00000000000E+00 -0.00000000000E+00 -0.67680446334E+03  0.67680446334E+03  0.00000000000E+00 0.  1.
         36    2    1    2    0    0  0.00000000000E+00 -0.88817841970E-15 -0.64884047821E+03  0.70476844846E+03  0.27514468881E+03 0.  0.
         25    2    3    3    0    0 -0.56610187143E+02 -0.47324704210E+01 -0.36911159001E+03  0.39369120262E+03  0.12458847286E+03 0.  0.
         25    2    3    3    0    0  0.56610187143E+02  0.47324704210E+01 -0.27972888820E+03  0.31107724585E+03  0.12366766929E+03 0.  0.
          5    1    4    4  502    0 -0.95727631501E+02 -0.94200318916E+01 -0.28139488151E+03  0.29741836825E+03  0.47000000000E+01 0.  1.
         -5    1    4    4    0  502  0.39117444358E+02  0.46875614706E+01 -0.87716708506E+02  0.96272834365E+02  0.47000000000E+01 0.  1.
          5    1    5    5  503    0  0.24849292978E+02 -0.10938947823E+02  0.14932875668E+01  0.27594706897E+02  0.47000000000E+01 0. -1.
         -5    1    5    5    0  503  0.31760894165E+02  0.15671418244E+02 -0.28122217576E+03  0.28348253895E+03  0.47000000000E+01 0. -1.
<mgrwt>
<rscale>  0 0.27514469E+03</rscale>
<asrwt>0</asrwt>
<pdfrwt beam="1">  1        1 0.10412376E+00 0.27514469E+03</pdfrwt>
<pdfrwt beam="2">  1       -1 0.43021517E-02 0.27514469E+03</pdfrwt>
<totfact> 0.65125738E+03</totfact>
</mgrwt>
</event>
<event>
 9    1  0.2051157E-002  0.2753486E+03  0.7818608E-02  0.1098257E+00
         -1   -1    0    0    0  501 -0.00000000000E+00  0.00000000000E+00  0.11642071193E+03  0.11642071193E+03  0.00000000000E+00 0. -1.
          1   -1    0    0  501    0  0.00000000000E+00 -0.00000000000E+00 -0.16280796619E+03  0.16280796619E+03  0.00000000000E+00 0. -1.
         36    2    1    2    0    0 -0.71054273576E-14  0.00000000000E+00 -0.46387254256E+02  0.27922867813E+03  0.27534864686E+03 0.  0.
         25    2    3    3    0    0  0.16835220594E+02  0.29395721943E+02 -0.64436802663E+02  0.14488918728E+03  0.12527267034E+03 0.  0.
         25    2    3    3    0    0 -0.16835220594E+02 -0.29395721943E+02  0.18049548407E+02  0.13433949084E+03  0.12873919171E+03 0.  0.
          5    1    4    4  502    0 -0.51120785034E+02  0.15447775536E+02 -0.51154579510E+02  0.74100266102E+02  0.47000000000E+01 0. -1.
         -5    1    4    4    0  502  0.67956005629E+02  0.13947946407E+02 -0.13282223153E+02  0.70788921180E+02  0.47000000000E+01 0. -1.
          5    1    5    5  503    0  0.20401273373E+02  0.34292978894E+02 -0.26404284156E+02  0.48078025942E+02  0.47000000000E+01 0. -1.
         -5    1    5    5    0  503 -0.37236493968E+02 -0.63688700837E+02  0.44453832563E+02  0.86261464901E+02  0.47000000000E+01 0. -1.
<mgrwt>
<rscale>  0 0.27534865E+03</rscale>
<asrwt>0</asrwt>
<pdfrwt beam="1">  1        1 0.25047379E-01 0.27534865E+03</pdfrwt>
<pdfrwt beam="2">  1       -1 0.17910879E-01 0.27534865E+03</pdfrwt>
<totfact> 0.45780408E+03</totfact>
</mgrwt>
</event>
<event>
 9    1  0.2051157E-002  0.2755943E+03  0.7818608E-02  0.1098120E+00
         -2   -1    0    0    0  501 -0.00000000000E+00  0.00000000000E+00  0.14690371447E+04  0.14690371447E+04  0.00000000000E+00 0.  1.
          2   -1    0    0  501    0  0.00000000000E+00 -0.00000000000E+00 -0.12925513380E+02  0.12925513380E+02  0.00000000000E+00 0.  1.
         36    2    1    2    0    0  0.71054273576E-14  0.00000000000E+00  0.14561116313E+04  0.14819626580E+04  0.27559433426E+03 0.  0.
         25    2    3    3    0    0 -0.45523272980E+02  0.14731349087E+02  0.33183319856E+03  0.34979289726E+03  0.99761807706E+02 0.  0.
         25    2    3    3    0    0  0.45523272980E+02 -0.14731349087E+02  0.11242784327E+04  0.11321697608E+04  0.12456721850E+03 0.  0.
          5    1    4    4  502    0  0.31061236960E+01 -0.34544752044E+02  0.17234500298E+03  0.17586323650E+03  0.47000000000E+01 0.  1.
         -5    1    4    4    0  502 -0.48629396676E+02  0.49276101131E+02  0.15948819558E+03  0.17392966076E+03  0.47000000000E+01 0.  1.
          5    1    5    5  503    0 -0.12814453531E+02  0.40990286172E+02  0.21438169374E+03  0.21869159652E+03  0.47000000000E+01 0. -1.
         -5    1    5    5    0  503  0.58337726511E+02 -0.55721635259E+02  0.90989673898E+03  0.91347816426E+03  0.47000000000E+01 0. -1.
<mgrwt>
<rscale>  0 0.27559433E+03</rscale>
<asrwt>0</asrwt>
<pdfrwt beam="1">  1        2 0.19885417E-02 0.27559433E+03</pdfrwt>
<pdfrwt beam="2">  1       -2 0.22600558E+00 0.27559433E+03</pdfrwt>
<totfact> 0.55016392E+02</totfact>
</mgrwt>
</event>
<event>
 9    1  0.2051157E-002  0.2744487E+03  0.7818608E-02  0.1098760E+00
         -1   -1    0    0    0  501 -0.00000000000E+00  0.00000000000E+00  0.10162387263E+04  0.10162387263E+04  0.00000000000E+00 0.  1.
          1   -1    0    0  501    0  0.00000000000E+00 -0.00000000000E+00 -0.18529618550E+02  0.18529618550E+02  0.00000000000E+00 0.  1.
         36    2    1    2    0    0  0.35527136788E-14  0.00000000000E+00  0.99770910774E+03  0.10347683448E+04  0.27444865424E+03 0.  0.
         25    2    3    3    0    0  0.21492419972E+02  0.39612405294E+02  0.34998864302E+03  0.37395077762E+03  0.12375809901E+03 0.  0.
         25    2    3    3    0    0 -0.21492419972E+02 -0.39612405294E+02  0.64772046471E+03  0.66081756721E+03  0.12291049574E+03 0.  0.
          5    1    4    4  502    0  0.46982610166E+02  0.34069512662E+01  0.43648292266E+02  0.64391275749E+02  0.47000000000E+01 0.  1.
         -5    1    4    4    0  502 -0.25490190193E+02  0.36205454028E+02  0.30634035076E+03  0.30955950187E+03  0.47000000000E+01 0.  1.
          5    1    5    5  503    0 -0.20479287572E+02 -0.23763038259E+02  0.64274017254E+03  0.64352241810E+03  0.47000000000E+01 0.  1.
         -5    1    5    5    0  503 -0.10131324006E+01 -0.15849367035E+02  0.49802921764E+01  0.17295149113E+02  0.47000000000E+01 0.  1.
<mgrwt>
<rscale>  0 0.27444865E+03</rscale>
<asrwt>0</asrwt>
<pdfrwt beam="1">  1        1 0.28507113E-02 0.27444865E+03</pdfrwt>
<pdfrwt beam="2">  1       -1 0.15634438E+00 0.27444865E+03</pdfrwt>
<totfact> 0.12401776E+03</totfact>
</mgrwt>
</event>
<event>
 9    1  0.2051157E-002  0.2732235E+03  0.7818608E-02  0.1099449E+00
          1   -1    0    0  501    0  0.00000000000E+00  0.00000000000E+00  0.34784408183E+03  0.34784408183E+03  0.00000000000E+00 0.  1.
         -1   -1    0    0    0  501 -0.00000000000E+00 -0.00000000000E+00 -0.53652690449E+02  0.53652690449E+02  0.00000000000E+00 0.  1.
         36    2    1    2    0    0  0.21316282073E-13  0.00000000000E+00  0.29419139138E+03  0.40149677228E+03  0.27322350446E+03 0.  0.
         25    2    3    3    0    0  0.56450536625E+02 -0.81174175832E+01  0.12365292705E+03  0.18297551990E+03  0.12221881591E+03 0.  0.
         25    2    3    3    0    0 -0.56450536625E+02  0.81174175832E+01  0.17053846434E+03  0.21852125238E+03  0.12415963261E+03 0.  0.
          5    1    4    4  502    0  0.93489024727E+02 -0.88167233661E+01  0.10594134403E+03  0.14164600500E+03  0.47000000000E+01 0.  1.
         -5    1    4    4    0  502 -0.37038488102E+02  0.69930578291E+00  0.17711583011E+02  0.41329514904E+02  0.47000000000E+01 0.  1.
          5    1    5    5  503    0  0.15071352678E+02 -0.14401702532E+02 -0.95374295512E+01  0.23401010017E+02  0.47000000000E+01 0.  1.
         -5    1    5    5    0  503 -0.71521889304E+02  0.22519120115E+02  0.18007589389E+03  0.19512024236E+03  0.47000000000E+01 0.  1.
<mgrwt>
<rscale>  0 0.27322350E+03</rscale>
<asrwt>0</asrwt>
<pdfrwt beam="1">  1        1 0.53514473E-01 0.27322350E+03</pdfrwt>
<pdfrwt beam="2">  1       -1 0.82542603E-02 0.27322350E+03</pdfrwt>
<totfact> 0.59128081E+03</totfact>
</mgrwt>
</event>
<event>
 9    1  0.2051157E-002  0.2743058E+03  0.7818608E-02  0.1098840E+00
         -1   -1    0    0    0  501 -0.00000000000E+00  0.00000000000E+00  0.43709710715E+03  0.43709710715E+03  0.00000000000E+00 0.  1.
          1   -1    0    0  501    0  0.00000000000E+00 -0.00000000000E+00 -0.43036021620E+02  0.43036021620E+02  0.00000000000E+00 0.  1.
         36    2    1    2    0    0 -0.26645352591E-14  0.00000000000E+00  0.39406108553E+03  0.48013312877E+03  0.27430581878E+03 0.  0.
         25    2    3    3    0    0 -0.12207357474E+01 -0.32865712946E+02  0.12505598834E+03  0.18020137097E+03  0.12550652810E+03 0.  0.
         25    2    3    3    0    0  0.12207357474E+01  0.32865712946E+02  0.26900509719E+03  0.29993175780E+03  0.12850553194E+03 0.  0.
          5    1    4    4  502    0  0.33481798898E+02 -0.67909642622E+02  0.52155633646E+02  0.92060037690E+02  0.47000000000E+01 0. -1.
         -5    1    4    4    0  502 -0.34702534645E+02  0.35043929676E+02  0.72900354696E+02  0.88141333282E+02  0.47000000000E+01 0. -1.
          5    1    5    5  503    0 -0.41347600859E+01 -0.32501857718E+02  0.12906689435E+02  0.35526604514E+02  0.47000000000E+01 0.  1.
         -5    1    5    5    0  503  0.53554958333E+01  0.65367570664E+02  0.25609840776E+03  0.26440515329E+03  0.47000000000E+01 0.  1.
<mgrwt>
<rscale>  0 0.27430582E+03</rscale>
<asrwt>0</asrwt>
<pdfrwt beam="1">  1        1 0.66209267E-02 0.27430582E+03</pdfrwt>
<pdfrwt beam="2">  1       -1 0.67245706E-01 0.27430582E+03</pdfrwt>
<totfact> 0.26131151E+03</totfact>
</mgrwt>
</event>
<event>
 9    1  0.2051157E-002  0.2751398E+03  0.7818608E-02  0.1098373E+00
         -1   -1    0    0    0  501 -0.00000000000E+00  0.00000000000E+00  0.10360452622E+04  0.10360452622E+04  0.00000000000E+00 0.  1.
          1   -1    0    0  501    0  0.00000000000E+00 -0.00000000000E+00 -0.18267035985E+02  0.18267035985E+02  0.00000000000E+00 0.  1.
         36    2    1    2    0    0 -0.35527136788E-14 -0.71054273576E-14  0.10177782262E+04  0.10543122982E+04  0.27513979055E+03 0.  0.
         25    2    3    3    0    0  0.25083636399E+02 -0.20725251617E+02  0.27935558459E+03  0.30583381731E+03  0.12015014066E+03 0.  0.
         25    2    3    3    0    0 -0.25083636399E+02  0.20725251617E+02  0.73842264162E+03  0.74847848087E+03  0.11786990199E+03 0.  0.
          5    1    4    4  502    0 -0.13450538771E+02  0.44327058838E+02  0.79898873215E+02  0.92475537735E+02  0.47000000000E+01 0.  1.
         -5    1    4    4    0  502  0.38534175170E+02 -0.65052310455E+02  0.19945671138E+03  0.21335827958E+03  0.47000000000E+01 0.  1.
          5    1    5    5  503    0  0.11463708067E+01 -0.47003974455E+02  0.22375342445E+03  0.22868837472E+03  0.47000000000E+01 0.  1.
         -5    1    5    5    0  503 -0.26230007206E+02  0.67729226072E+02  0.51466921717E+03  0.51979010615E+03  0.47000000000E+01 0.  1.
<mgrwt>
<rscale>  0 0.27513979E+03</rscale>
<asrwt>0</asrwt>
<pdfrwt beam="1">  1        1 0.28103140E-02 0.27513979E+03</pdfrwt>
<pdfrwt beam="2">  1       -1 0.15939153E+00 0.27513979E+03</pdfrwt>
<totfact> 0.12012305E+03</totfact>
</mgrwt>
</event>
<event>
 9    1  0.2051157E-002  0.2753183E+03  0.7818608E-02  0.1098274E+00
          1   -1    0    0  501    0  0.00000000000E+00  0.00000000000E+00  0.17532572520E+02  0.17532572520E+02  0.00000000000E+00 0. -1.
         -1   -1    0    0    0  501 -0.00000000000E+00 -0.00000000000E+00 -0.10808479437E+04  0.10808479437E+04  0.00000000000E+00 0. -1.
         36    2    1    2    0    0 -0.71054273576E-14 -0.71054273576E-14 -0.10633153712E+04  0.10983805162E+04  0.27531832453E+03 0.  0.
         25    2    3    3    0    0 -0.33540179014E+02 -0.32994407222E+02 -0.43477686556E+03  0.45489674367E+03  0.12524595826E+03 0.  0.
         25    2    3    3    0    0  0.33540179014E+02  0.32994407222E+02 -0.62853850562E+03  0.64348377255E+03  0.12960377298E+03 0.  0.
          5    1    4    4  502    0 -0.68856973343E+02 -0.63267144734E+01 -0.13416699808E+03  0.15101054091E+03  0.47000000000E+01 0. -1.
         -5    1    4    4    0  502  0.35316794329E+02 -0.26667692748E+02 -0.30060986748E+03  0.30388620275E+03  0.47000000000E+01 0. -1.
          5    1    5    5  503    0  0.41459055101E+02 -0.29248448561E+02 -0.47246079665E+03  0.47520060960E+03  0.47000000000E+01 0. -1.
         -5    1    5    5    0  503 -0.79188760874E+01  0.62242855782E+02 -0.15607770897E+03  0.16828316294E+03  0.47000000000E+01 0. -1.
<mgrwt>
<rscale>  0 0.27531832E+03</rscale>
<asrwt>0</asrwt>
<pdfrwt beam="1">  1        1 0.26973184E-02 0.27531832E+03</pdfrwt>
<pdfrwt beam="2">  1       -1 0.16628432E+00 0.27531832E+03</pdfrwt>
<totfact> 0.11334731E+03</totfact>
</mgrwt>
</event>
<event>
 9    1  0.2051157E-002  0.2762998E+03  0.7818608E-02  0.1097727E+00
          2   -1    0    0  501    0  0.00000000000E+00  0.00000000000E+00  0.95360517990E+03  0.95360517990E+03  0.00000000000E+00 0. -1.
         -2   -1    0    0    0  501 -0.00000000000E+00 -0.00000000000E+00 -0.20013933829E+02  0.20013933829E+02  0.00000000000E+00 0. -1.
         36    2    1    2    0    0  0.35527136788E-14  0.00000000000E+00  0.93359124607E+03  0.97361911373E+03  0.27629977177E+03 0.  0.
         25    2    3    3    0    0 -0.31287540679E+02 -0.43829505610E+02  0.56646794634E+03  0.58239346486E+03  0.12408173885E+03 0.  0.
         25    2    3    3    0    0  0.31287540679E+02  0.43829505610E+02  0.36712329973E+03  0.39122564887E+03  0.12400828749E+03 0.  0.
          5    1    4    4  502    0 -0.52524130997E+02 -0.78115016327E+02  0.37437463468E+03  0.38605595087E+03  0.47000000000E+01 0. -1.
         -5    1    4    4    0  502  0.21236590318E+02  0.34285510717E+02  0.19209331166E+03  0.19633751399E+03  0.47000000000E+01 0. -1.
          5    1    5    5  503    0 -0.13405524327E+02  0.22698925359E+02  0.69767713051E+01  0.27671549157E+02  0.47000000000E+01 0.  1.
         -5    1    5    5    0  503  0.44693065006E+02  0.21130580251E+02  0.36014652842E+03  0.36355409971E+03  0.47000000000E+01 0.  1.
<mgrwt>
<rscale>  0 0.27629977E+03</rscale>
<asrwt>0</asrwt>
<pdfrwt beam="1">  1        2 0.14670845E+00 0.27629977E+03</pdfrwt>
<pdfrwt beam="2">  1       -2 0.30790675E-02 0.27629977E+03</pdfrwt>
<totfact> 0.11406209E+04</totfact>
</mgrwt>
</event>
<event>
 9    1  0.2051157E-002  0.2754532E+03  0.7818608E-02  0.1098199E+00
         -1   -1    0    0    0  501 -0.00000000000E+00  0.00000000000E+00  0.44592551292E+02  0.44592551292E+02  0.00000000000E+00 0.  1.
          1   -1    0    0  501    0  0.00000000000E+00 -0.00000000000E+00 -0.42537626757E+03  0.42537626757E+03  0.00000000000E+00 0.  1.
         36    2    1    2    0    0 -0.71054273576E-14  0.00000000000E+00 -0.38078371628E+03  0.46996881886E+03  0.27545317591E+03 0.  0.
         25    2    3    3    0    0  0.62096670825E+02 -0.80189601578E+01 -0.19172251816E+03  0.23625032394E+03  0.12303004244E+03 0.  0.
         25    2    3    3    0    0 -0.62096670825E+02  0.80189601578E+01 -0.18906119812E+03  0.23371849492E+03  0.12231066178E+03 0.  0.
          5    1    4    4  502    0  0.59797454895E+02 -0.19635569687E+02 -0.20697078082E+03  0.21637995592E+03  0.47000000000E+01 0.  1.
         -5    1    4    4    0  502  0.22992159296E+01  0.11616609530E+02  0.15248262667E+02  0.19870368019E+02  0.47000000000E+01 0.  1.
          5    1    5    5  503    0  0.34081121164E+02 -0.10429046828E+02 -0.75958560276E+02  0.84036186948E+02  0.47000000000E+01 0. -1.
         -5    1    5    5    0  503 -0.96177791989E+02  0.18448006986E+02 -0.11310263784E+03  0.14968230798E+03  0.47000000000E+01 0. -1.
<mgrwt>
<rscale>  0 0.27545318E+03</rscale>
<asrwt>0</asrwt>
<pdfrwt beam="1">  1        1 0.65442499E-01 0.27545318E+03</pdfrwt>
<pdfrwt beam="2">  1       -1 0.68603929E-02 0.27545318E+03</pdfrwt>
<totfact> 0.60608120E+03</totfact>
</mgrwt>
</event>
<event>
 9    1  0.2051157E-002  0.2752595E+03  0.7818608E-02  0.1098307E+00
          2   -1    0    0  501    0  0.00000000000E+00  0.00000000000E+00  0.77318095654E+01  0.77318095654E+01  0.00000000000E+00 0. -1.
         -2   -1    0    0    0  501 -0.00000000000E+00 -0.00000000000E+00 -0.24498719168E+04  0.24498719168E+04  0.00000000000E+00 0. -1.
         36    2    1    2    0    0 -0.14210854715E-13  0.00000000000E+00 -0.24421401072E+04  0.24576037263E+04  0.27525946392E+03 0.  0.
         25    2    3    3    0    0  0.48914735425E+02 -0.37977869492E+02 -0.12427044465E+04  0.12501958646E+04  0.12182113274E+03 0.  0.
         25    2    3    3    0    0 -0.48914735425E+02  0.37977869492E+02 -0.11994356607E+04  0.12074078618E+04  0.12390670162E+03 0.  0.
          5    1    4    4  502    0 -0.54898442583E+01  0.39926234826E+02 -0.44230996934E+03  0.44416713250E+03  0.47000000000E+01 0. -1.
         -5    1    4    4    0  502  0.54404579683E+02 -0.77904104318E+02 -0.80039447720E+03  0.80602873205E+03  0.47000000000E+01 0. -1.
          5    1    5    5  503    0 -0.87640084578E+02  0.63413023687E+01 -0.72469525646E+03  0.73001801436E+03  0.47000000000E+01 0. -1.
         -5    1    5    5    0  503  0.38725349154E+02  0.31636567123E+02 -0.47474040419E+03  0.47738984742E+03  0.47000000000E+01 0. -1.
<mgrwt>
<rscale>  0 0.27525946E+03</rscale>
<asrwt>0</asrwt>
<pdfrwt beam="1">  1        2 0.11895079E-02 0.27525946E+03</pdfrwt>
<pdfrwt beam="2">  1       -2 0.37690376E+00 0.27525946E+03</pdfrwt>
<totfact> 0.14265743E+02</totfact>
</mgrwt>
</event>
<event>
 9    1  0.2051157E-002  0.2749613E+03  0.7818608E-02  0.1098473E+00
         -2   -1    0    0    0  501 -0.00000000000E+00  0.00000000000E+00  0.84741617703E+02  0.84741617703E+02  0.00000000000E+00 0. -1.
          2   -1    0    0  501    0  0.00000000000E+00 -0.00000000000E+00 -0.22304192620E+03  0.22304192620E+03  0.00000000000E+00 0. -1.
         36    2    1    2    0    0  0.00000000000E+00 -0.35527136788E-14 -0.13830030850E+03  0.30778354391E+03  0.27496133286E+03 0.  0.
         25    2    3    3    0    0 -0.53382865790E+02 -0.18662764188E+02 -0.90961812473E+02  0.16307771680E+03  0.12297260370E+03 0.  0.
         25    2    3    3    0    0  0.53382865790E+02  0.18662764188E+02 -0.47338496028E+02  0.14470582711E+03  0.12450226531E+03 0.  0.
          5    1    4    4  502    0 -0.81670431937E+02  0.22735780677E+02 -0.59898004657E+02  0.10390782520E+03  0.47000000000E+01 0.  1.
         -5    1    4    4    0  502  0.28287566147E+02 -0.41398544865E+02 -0.31063807817E+02  0.59169891596E+02  0.47000000000E+01 0.  1.
          5    1    5    5  503    0  0.60181955834E+02  0.13931277581E+02 -0.85381098731E+02  0.10548919529E+03  0.47000000000E+01 0. -1.
         -5    1    5    5    0  503 -0.67990900444E+01  0.47314866073E+01  0.38042602703E+02  0.39216631820E+02  0.47000000000E+01 0. -1.
<mgrwt>
<rscale>  0 0.27496133E+03</rscale>
<asrwt>0</asrwt>
<pdfrwt beam="1">  1        2 0.34314142E-01 0.27496133E+03</pdfrwt>
<pdfrwt beam="2">  1       -2 0.13037172E-01 0.27496133E+03</pdfrwt>
<totfact> 0.64762976E+03</totfact>
</mgrwt>
</event>
<event>
 9    1  0.2051157E-002  0.2740857E+03  0.7818608E-02  0.1098964E+00
          3   -1    0    0  501    0  0.00000000000E+00  0.00000000000E+00  0.21749916551E+03  0.21749916551E+03  0.00000000000E+00 0.  1.
         -3   -1    0    0    0  501 -0.00000000000E+00 -0.00000000000E+00 -0.86348574391E+02  0.86348574391E+02  0.00000000000E+00 0.  1.
         36    2    1    2    0    0  0.14210854715E-13  0.71054273576E-14  0.13115059112E+03  0.30384773990E+03  0.27408570100E+03 0.  0.
         25    2    3    3    0    0  0.59904262672E+02  0.25261150461E+02  0.58611996735E+02  0.14521478714E+03  0.11586769108E+03 0.  0.
         25    2    3    3    0    0 -0.59904262672E+02 -0.25261150461E+02  0.72538594385E+02  0.15863295276E+03  0.12520351280E+03 0.  0.
          5    1    4    4  502    0  0.12083537209E+02 -0.42121192701E+02  0.41845847664E+02  0.60773116694E+02  0.47000000000E+01 0.  1.
         -5    1    4    4    0  502  0.47820725463E+02  0.67382343162E+02  0.16766149071E+02  0.84441670450E+02  0.47000000000E+01 0.  1.
          5    1    5    5  503    0  0.32083071539E+02 -0.14591054918E+02 -0.72704678998E+01  0.36292865228E+02  0.47000000000E+01 0.  1.
         -5    1    5    5    0  503 -0.91987334210E+02 -0.10670095543E+02  0.79809062284E+02  0.12234008753E+03  0.47000000000E+01 0.  1.
<mgrwt>
<rscale>  0 0.27408570E+03</rscale>
<asrwt>0</asrwt>
<pdfrwt beam="1">  1        3 0.33461410E-01 0.27408570E+03</pdfrwt>
<pdfrwt beam="2">  1       -3 0.13284396E-01 0.27408570E+03</pdfrwt>
<totfact> 0.10164742E+03</totfact>
</mgrwt>
</event>
<event>
 9    1  0.2051157E-002  0.2752443E+03  0.7818608E-02  0.1098315E+00
         -1   -1    0    0    0  501 -0.00000000000E+00  0.00000000000E+00  0.21098482040E+02  0.21098482040E+02  0.00000000000E+00 0. -1.
          1   -1    0    0  501    0  0.00000000000E+00 -0.00000000000E+00 -0.89768817319E+03  0.89768817319E+03  0.00000000000E+00 0. -1.
         36    2    1    2    0    0  0.35527136788E-14 -0.71054273576E-14 -0.87658969115E+03  0.91878665523E+03  0.27524431184E+03 0.  0.
         25    2    3    3    0    0  0.98599382070E+01  0.56369165751E+02 -0.46824103586E+03  0.48863373864E+03  0.12743061502E+03 0.  0.
         25    2    3    3    0    0 -0.98599382070E+01 -0.56369165751E+02 -0.40834865529E+03  0.43015291659E+03  0.12250798400E+03 0.  0.
          5    1    4    4  502    0  0.29187447574E+02 -0.32621589070E+02 -0.99845235009E+02  0.10912028282E+03  0.47000000000E+01 0. -1.
         -5    1    4    4    0  502 -0.19327509367E+02  0.88990754821E+02 -0.36839580085E+03  0.37951345581E+03  0.47000000000E+01 0. -1.
          5    1    5    5  503    0 -0.43740330383E+02 -0.81579660508E+02 -0.28464578230E+03  0.29935558938E+03  0.47000000000E+01 0.  1.
         -5    1    5    5    0  503  0.33880392176E+02  0.25210494757E+02 -0.12370287299E+03  0.13079732721E+03  0.47000000000E+01 0.  1.
<mgrwt>
<rscale>  0 0.27524431E+03</rscale>
<asrwt>0</asrwt>
<pdfrwt beam="1">  1        1 0.13810586E+00 0.27524431E+03</pdfrwt>
<pdfrwt beam="2">  1       -1 0.32459206E-02 0.27524431E+03</pdfrwt>
<totfact> 0.64288864E+03</totfact>
</mgrwt>
</event>
<event>
 9    1  0.2051157E-002  0.2741947E+03  0.7818608E-02  0.1098903E+00
         -2   -1    0    0    0  501 -0.00000000000E+00  0.00000000000E+00  0.15482427946E+02  0.15482427946E+02  0.00000000000E+00 0. -1.
          2   -1    0    0  501    0  0.00000000000E+00 -0.00000000000E+00 -0.12140006412E+04  0.12140006412E+04  0.00000000000E+00 0. -1.
         36    2    1    2    0    0 -0.71054273576E-14  0.17763568394E-14 -0.11985182132E+04  0.12294830691E+04  0.27419465679E+03 0.  0.
         25    2    3    3    0    0  0.53511606174E+02  0.95480832125E+01 -0.54117037364E+03  0.55794116557E+03  0.12441186858E+03 0.  0.
         25    2    3    3    0    0 -0.53511606174E+02 -0.95480832125E+01 -0.65734783960E+03  0.67154190356E+03  0.12612568384E+03 0.  0.
          5    1    4    4  502    0  0.92426151955E+02 -0.29284151146E+01 -0.32700069896E+03  0.33985690563E+03  0.47000000000E+01 0. -1.
         -5    1    4    4    0  502 -0.38914545781E+02  0.12476498327E+02 -0.21416967468E+03  0.21808425994E+03  0.47000000000E+01 0. -1.
          5    1    5    5  503    0 -0.60127428806E+02 -0.13879235577E+02 -0.65925001918E+03  0.66214848687E+03  0.47000000000E+01 0.  1.
         -5    1    5    5    0  503  0.66158226320E+01  0.43311523642E+01  0.19021795837E+01  0.93934166877E+01  0.47000000000E+01 0.  1.
<mgrwt>
<rscale>  0 0.27419466E+03</rscale>
<asrwt>0</asrwt>
<pdfrwt beam="1">  1        2 0.18676942E+00 0.27419466E+03</pdfrwt>
<pdfrwt beam="2">  1       -2 0.23819108E-02 0.27419466E+03</pdfrwt>
<totfact> 0.11697115E+04</totfact>
</mgrwt>
</event>
<event>
 9    1  0.2051157E-002  0.2733922E+03  0.7818608E-02  0.1099354E+00
         -2   -1    0    0    0  501 -0.00000000000E+00  0.00000000000E+00  0.38284168316E+03  0.38284168316E+03  0.00000000000E+00 0. -1.
          2   -1    0    0  501    0  0.00000000000E+00 -0.00000000000E+00 -0.48808224207E+02  0.48808224207E+02  0.00000000000E+00 0. -1.
         36    2    1    2    0    0 -0.35527136788E-14 -0.71054273576E-14  0.33403345895E+03  0.43164990736E+03  0.27339219233E+03 0.  0.
         25    2    3    3    0    0  0.24376009662E+02  0.14603481309E+02  0.23866136932E+03  0.27144707198E+03  0.12616184908E+03 0.  0.
         25    2    3    3    0    0 -0.24376009662E+02 -0.14603481309E+02  0.95372089625E+02  0.16020283539E+03  0.12554545580E+03 0.  0.
          5    1    4    4  502    0  0.30571188164E+02  0.14736731403E+02  0.16428526292E+01  0.34300987784E+02  0.47000000000E+01 0. -1.
         -5    1    4    4    0  502 -0.61951785020E+01 -0.13325009424E+00  0.23701851670E+03  0.23714608419E+03  0.47000000000E+01 0. -1.
          5    1    5    5  503    0  0.14324269932E+02  0.41017941649E+02  0.79082600456E+02  0.90353771040E+02  0.47000000000E+01 0.  1.
         -5    1    5    5    0  503 -0.38700279594E+02 -0.55621422958E+02  0.16289489170E+02  0.69849064346E+02  0.47000000000E+01 0.  1.
<mgrwt>
<rscale>  0 0.27339219E+03</rscale>
<asrwt>0</asrwt>
<pdfrwt beam="1">  1        2 0.75089578E-02 0.27339219E+03</pdfrwt>
<pdfrwt beam="2">  1       -2 0.58898718E-01 0.27339219E+03</pdfrwt>
<totfact> 0.25272793E+03</totfact>
</mgrwt>
</event>
<event>
 9    1  0.2051157E-002  0.2736165E+03  0.7818608E-02  0.1099227E+00
          2   -1    0    0  501    0  0.00000000000E+00  0.00000000000E+00  0.11466218006E+04  0.11466218006E+04  0.00000000000E+00 0.  1.
         -2   -1    0    0    0  501 -0.00000000000E+00 -0.00000000000E+00 -0.16323167646E+02  0.16323167646E+02  0.00000000000E+00 0.  1.
         36    2    1    2    0    0 -0.71054273576E-14 -0.71054273576E-14  0.11302986330E+04  0.11629449683E+04  0.27361651908E+03 0.  0.
         25    2    3    3    0    0 -0.39431018478E+02  0.40815318111E+02  0.52107131754E+03  0.53866828116E+03  0.12420750283E+03 0.  0.
         25    2    3    3    0    0  0.39431018478E+02 -0.40815318111E+02  0.60922731546E+03  0.62427668712E+03  0.12386591451E+03 0.  0.
          5    1    4    4  502    0 -0.11717031236E+02  0.56433174798E+02  0.93831040138E+02  0.11021953607E+03  0.47000000000E+01 0. -1.
         -5    1    4    4    0  502 -0.27713987242E+02 -0.15617856687E+02  0.42724027740E+03  0.42844874509E+03  0.47000000000E+01 0. -1.
          5    1    5    5  503    0  0.80467876498E+02 -0.22293605493E+02  0.48279420063E+03  0.48998409582E+03  0.47000000000E+01 0.  1.
         -5    1    5    5    0  503 -0.41036858019E+02 -0.18521712618E+02  0.12643311483E+03  0.13429259131E+03  0.47000000000E+01 0.  1.
<mgrwt>
<rscale>  0 0.27361652E+03</rscale>
<asrwt>0</asrwt>
<pdfrwt beam="1">  1        2 0.17640329E+00 0.27361652E+03</pdfrwt>
<pdfrwt beam="2">  1       -2 0.25112575E-02 0.27361652E+03</pdfrwt>
<totfact> 0.11819672E+04</totfact>
</mgrwt>
</event>
<event>
 9    1  0.2051157E-002  0.2756799E+03  0.7818608E-02  0.1098072E+00
          1   -1    0    0  501    0  0.00000000000E+00  0.00000000000E+00  0.61532859088E+03  0.61532859088E+03  0.00000000000E+00 0. -1.
         -1   -1    0    0    0  501 -0.00000000000E+00 -0.00000000000E+00 -0.30877574044E+02  0.30877574044E+02  0.00000000000E+00 0. -1.
         36    2    1    2    0    0  0.00000000000E+00 -0.71054273576E-14  0.58445101684E+03  0.64620616493E+03  0.27567991676E+03 0.  0.
         25    2    3    3    0    0  0.26486195952E+01  0.22625532682E+02  0.39769289869E+03  0.41701207911E+03  0.12337140083E+03 0.  0.
         25    2    3    3    0    0 -0.26486195952E+01 -0.22625532682E+02  0.18675811815E+03  0.22919408581E+03  0.13089081084E+03 0.  0.
          5    1    4    4  502    0  0.32739847118E+02  0.52959252221E+02  0.11309653701E+03  0.12918783483E+03  0.47000000000E+01 0. -1.
         -5    1    4    4    0  502 -0.30091227523E+02 -0.30333719538E+02  0.28459636168E+03  0.28782424428E+03  0.47000000000E+01 0. -1.
          5    1    5    5  503    0 -0.29229426635E+02  0.41859327024E+02  0.12795490022E+03  0.13784451070E+03  0.47000000000E+01 0.  1.
         -5    1    5    5    0  503  0.26580807040E+02 -0.64484859706E+02  0.58803217931E+02  0.91349575113E+02  0.47000000000E+01 0.  1.
<mgrwt>
<rscale>  0 0.27567992E+03</rscale>
<asrwt>0</asrwt>
<pdfrwt beam="1">  1        1 0.94665928E-01 0.27567992E+03</pdfrwt>
<pdfrwt beam="2">  1       -1 0.47503964E-02 0.27567992E+03</pdfrwt>
<totfact> 0.64303955E+03</totfact>
</mgrwt>
</event>
<event>
 9    1  0.2051157E-002  0.2741687E+03  0.7818608E-02  0.1098917E+00
          2   -1    0    0  501    0  0.00000000000E+00  0.00000000000E+00  0.11195355403E+04  0.11195355403E+04  0.00000000000E+00 0. -1.
         -2   -1    0    0    0  501 -0.00000000000E+00 -0.00000000000E+00 -0.16785635899E+02  0.16785635899E+02  0.00000000000E+00 0. -1.
         36    2    1    2    0    0  0.00000000000E+00  0.71054273576E-14  0.11027499044E+04  0.11363211762E+04  0.27416867768E+03 0.  0.
         25    2    3    3    0    0  0.70227424620E+01 -0.20945422486E+02  0.77931796044E+03  0.78914714818E+03  0.12218309370E+03 0.  0.
         25    2    3    3    0    0 -0.70227424620E+01  0.20945422486E+02  0.32343194393E+03  0.34717402798E+03  0.12423185468E+03 0.  0.
          5    1    4    4  502    0 -0.56016036492E+02 -0.17880230381E+02  0.30786204911E+03  0.31346232670E+03  0.47000000000E+01 0. -1.
         -5    1    4    4    0  502  0.63038778954E+02 -0.30651921048E+01  0.47145591133E+03  0.47568482148E+03  0.47000000000E+01 0. -1.
          5    1    5    5  503    0 -0.45878859791E+02 -0.34273451735E+02  0.17086559405E+03  0.18026835690E+03  0.47000000000E+01 0. -1.
         -5    1    5    5    0  503  0.38856117329E+02  0.55218874221E+02  0.15256634988E+03  0.16690567108E+03  0.47000000000E+01 0. -1.
<mgrwt>
<rscale>  0 0.27416868E+03</rscale>
<asrwt>0</asrwt>
<pdfrwt beam="1">  1        2 0.17223618E+00 0.27416868E+03</pdfrwt>
<pdfrwt beam="2">  1       -2 0.25824064E-02 0.27416868E+03</pdfrwt>
<totfact> 0.11759465E+04</totfact>
</mgrwt>
</event>
<event>
 9    1  0.2051157E-002  0.2747049E+03  0.7818608E-02  0.1098617E+00
          1   -1    0    0  501    0  0.00000000000E+00  0.00000000000E+00  0.22791957304E+03  0.22791957304E+03  0.00000000000E+00 0.  1.
         -1   -1    0    0    0  501 -0.00000000000E+00 -0.00000000000E+00 -0.82773454752E+02  0.82773454752E+02  0.00000000000E+00 0.  1.
         36    2    1    2    0    0  0.00000000000E+00  0.14210854715E-13  0.14514611829E+03  0.31069302779E+03  0.27470486320E+03 0.  0.
         25    2    3    3    0    0 -0.29384821603E+02  0.47134467455E+02  0.97585642006E+02  0.16410456319E+03  0.11967549612E+03 0.  0.
         25    2    3    3    0    0  0.29384821603E+02 -0.47134467455E+02  0.47560476279E+02  0.14658846460E+03  0.12704744502E+03 0.  0.
          5    1    4    4  502    0 -0.27057585647E+02 -0.20656311377E+02  0.89206973300E+02  0.95596915359E+02  0.47000000000E+01 0. -1.
         -5    1    4    4    0  502 -0.23272359564E+01  0.67790778833E+02  0.83786687065E+01  0.68507647830E+02  0.47000000000E+01 0. -1.
          5    1    5    5  503    0  0.47482464053E+02 -0.34477231261E+02  0.84685834362E+02  0.10313604806E+03  0.47000000000E+01 0. -1.
         -5    1    5    5    0  503 -0.18097642450E+02 -0.12657236194E+02 -0.37125358083E+02  0.43452416539E+02  0.47000000000E+01 0. -1.
<mgrwt>
<rscale>  0 0.27470486E+03</rscale>
<asrwt>0</asrwt>
<pdfrwt beam="1">  1        1 0.35064550E-01 0.27470486E+03</pdfrwt>
<pdfrwt beam="2">  1       -1 0.12734378E-01 0.27470486E+03</pdfrwt>
<totfact> 0.51442728E+03</totfact>
</mgrwt>
</event>
<event>
 9    1  0.2051157E-002  0.2739685E+03  0.7818608E-02  0.1099030E+00
          1   -1    0    0  501    0  0.00000000000E+00  0.00000000000E+00  0.12543130371E+04  0.12543130371E+04  0.00000000000E+00 0.  1.
         -1   -1    0    0    0  501 -0.00000000000E+00 -0.00000000000E+00 -0.14960126887E+02  0.14960126887E+02  0.00000000000E+00 0.  1.
         36    2    1    2    0    0  0.00000000000E+00  0.00000000000E+00  0.12393529102E+04  0.12692731640E+04  0.27396848134E+03 0.  0.
         25    2    3    3    0    0 -0.16791460413E+02 -0.32026277569E+02  0.81789176444E+03  0.82801098789E+03  0.12388552022E+03 0.  0.
         25    2    3    3    0    0  0.16791460413E+02  0.32026277569E+02  0.42146114581E+03  0.44126217614E+03  0.12559926380E+03 0.  0.
          5    1    4    4  502    0 -0.63911337663E+02  0.19842936343E+01  0.55736082194E+03  0.56103633781E+03  0.47000000000E+01 0. -1.
         -5    1    4    4    0  502  0.47119877250E+02 -0.34010571204E+02  0.26053094250E+03  0.26697465008E+03  0.47000000000E+01 0. -1.
          5    1    5    5  503    0  0.45654937941E+02  0.66976210290E+02  0.31814791100E+03  0.32834489394E+03  0.47000000000E+01 0.  1.
         -5    1    5    5    0  503 -0.28863477529E+02 -0.34949932720E+02  0.10331323481E+03  0.11291728220E+03  0.47000000000E+01 0.  1.
<mgrwt>
<rscale>  0 0.27396848E+03</rscale>
<asrwt>0</asrwt>
<pdfrwt beam="1">  1        1 0.19297115E+00 0.27396848E+03</pdfrwt>
<pdfrwt beam="2">  1       -1 0.23015590E-02 0.27396848E+03</pdfrwt>
<totfact> 0.58527121E+03</totfact>
</mgrwt>
</event>
<event>
 9    1  0.2051157E-002  0.2751069E+03  0.7818608E-02  0.1098392E+00
         -2   -1    0    0    0  501 -0.00000000000E+00  0.00000000000E+00  0.57766374951E+01  0.57766374951E+01  0.00000000000E+00 0. -1.
          2   -1    0    0  501    0  0.00000000000E+00 -0.00000000000E+00 -0.32754259575E+04  0.32754259575E+04  0.00000000000E+00 0. -1.
         36    2    1    2    0    0  0.00000000000E+00 -0.88817841970E-15 -0.32696493200E+04  0.32812025950E+04  0.27510687668E+03 0.  0.
         25    2    3    3    0    0 -0.41197633688E+02  0.42787149166E+01 -0.11624568323E+04  0.11698063637E+04  0.12419939260E+03 0.  0.
         25    2    3    3    0    0  0.41197633688E+02 -0.42787149166E+01 -0.21071924877E+04  0.21113962313E+04  0.12656347399E+03 0.  0.
          5    1    4    4  502    0  0.41144228559E+02  0.27699054979E+01 -0.23057533180E+03  0.23428101407E+03  0.47000000000E+01 0.  1.
         -5    1    4    4    0  502 -0.82341862247E+02  0.15088094188E+01 -0.93188150052E+03  0.93552534963E+03  0.47000000000E+01 0.  1.
          5    1    5    5  503    0 -0.37177053679E+02 -0.13444157570E+01 -0.12626885040E+04  0.12632451421E+04  0.47000000000E+01 0. -1.
         -5    1    5    5    0  503  0.78374687367E+02 -0.29342991596E+01 -0.84450398367E+03  0.84815108923E+03  0.47000000000E+01 0. -1.
<mgrwt>
<rscale>  0 0.27510688E+03</rscale>
<asrwt>0</asrwt>
<pdfrwt beam="1">  1        2 0.50391261E+00 0.27510688E+03</pdfrwt>
<pdfrwt beam="2">  1       -2 0.88871183E-03 0.27510688E+03</pdfrwt>
<totfact> 0.35816736E+03</totfact>
</mgrwt>
</event>
<event>
 9    1  0.2051157E-002  0.2753512E+03  0.7818608E-02  0.1098255E+00
         -1   -1    0    0    0  501 -0.00000000000E+00  0.00000000000E+00  0.83439976936E+03  0.83439976936E+03  0.00000000000E+00 0.  1.
          1   -1    0    0  501    0  0.00000000000E+00 -0.00000000000E+00 -0.22716418767E+02  0.22716418767E+02  0.00000000000E+00 0.  1.
         36    2    1    2    0    0  0.00000000000E+00  0.00000000000E+00  0.81168335059E+03  0.85711618813E+03  0.27535122720E+03 0.  0.
         25    2    3    3    0    0  0.41505442870E+02 -0.25226147641E+02  0.49035783297E+03  0.50844787869E+03  0.12533706825E+03 0.  0.
         25    2    3    3    0    0 -0.41505442870E+02  0.25226147641E+02  0.32132551762E+03  0.34866830944E+03  0.12633464061E+03 0.  0.
          5    1    4    4  502    0  0.50528437694E+02  0.19667482321E+02  0.42520690138E+03  0.42867578874E+03  0.47000000000E+01 0. -1.
         -5    1    4    4    0  502 -0.90229948240E+01 -0.44893629962E+02  0.65150931589E+02  0.79772089942E+02  0.47000000000E+01 0. -1.
          5    1    5    5  503    0  0.14349086244E+02  0.54067685121E+02  0.70911155688E+02  0.90441654404E+02  0.47000000000E+01 0. -1.
         -5    1    5    5    0  503 -0.55854529115E+02 -0.28841537480E+02  0.25041436194E+03  0.25822665503E+03  0.47000000000E+01 0. -1.
<mgrwt>
<rscale>  0 0.27535123E+03</rscale>
<asrwt>0</asrwt>
<pdfrwt beam="1">  1        1 0.34948343E-02 0.27535123E+03</pdfrwt>
<pdfrwt beam="2">  1       -1 0.12836917E+00 0.27535123E+03</pdfrwt>
<totfact> 0.15428867E+03</totfact>
</mgrwt>
</event>
<event>
 9    1  0.2051157E-002  0.2786113E+03  0.7818608E-02  0.1096450E+00
         -2   -1    0    0    0  501 -0.00000000000E+00  0.00000000000E+00  0.10180084904E+02  0.10180084904E+02  0.00000000000E+00 0.  1.
          2   -1    0    0  501    0  0.00000000000E+00 -0.00000000000E+00 -0.19062772242E+04  0.19062772242E+04  0.00000000000E+00 0.  1.
         36    2    1    2    0    0 -0.71054273576E-14  0.00000000000E+00 -0.18960971393E+04  0.19164573091E+04  0.27861129907E+03 0.  0.
         25    2    3    3    0    0 -0.16152353464E+02 -0.11980661373E+02 -0.61042455359E+03  0.62427766861E+03  0.12922862346E+03 0.  0.
         25    2    3    3    0    0  0.16152353464E+02  0.11980661373E+02 -0.12856725857E+04  0.12921796405E+04  0.12794448373E+03 0.  0.
          5    1    4    4  502    0 -0.71366962218E+02 -0.10273100250E+00 -0.40058458942E+03  0.40691934966E+03  0.47000000000E+01 0. -1.
         -5    1    4    4    0  502  0.55214608754E+02 -0.11877930370E+02 -0.20983996418E+03  0.21735831895E+03  0.47000000000E+01 0. -1.
          5    1    5    5  503    0  0.61514227128E+02 -0.12362899519E+02 -0.99187641257E+03  0.99387008670E+03  0.47000000000E+01 0. -1.
         -5    1    5    5    0  503 -0.45361873664E+02  0.24343560891E+02 -0.29379617314E+03  0.29830955381E+03  0.47000000000E+01 0. -1.
<mgrwt>
<rscale>  0 0.27861130E+03</rscale>
<asrwt>0</asrwt>
<pdfrwt beam="1">  1        2 0.29327320E+00 0.27861130E+03</pdfrwt>
<pdfrwt beam="2">  1       -2 0.15661681E-02 0.27861130E+03</pdfrwt>
<totfact> 0.92184908E+03</totfact>
</mgrwt>
</event>
<event>
 9    1  0.2051157E-002  0.2787488E+03  0.7818608E-02  0.1096374E+00
         -1   -1    0    0    0  501 -0.00000000000E+00  0.00000000000E+00  0.66091638226E+02  0.66091638226E+02  0.00000000000E+00 0.  1.
          1   -1    0    0  501    0  0.00000000000E+00 -0.00000000000E+00 -0.29391337486E+03  0.29391337486E+03  0.00000000000E+00 0.  1.
         36    2    1    2    0    0  0.00000000000E+00 -0.71054273576E-14 -0.22782173663E+03  0.36000501308E+03  0.27874875025E+03 0.  0.
         25    2    3    3    0    0  0.14402018308E+01 -0.57165854172E+02 -0.10712343618E+03  0.17848996603E+03  0.13081753832E+03 0.  0.
         25    2    3    3    0    0 -0.14402018308E+01  0.57165854172E+02 -0.12069830045E+03  0.18151504705E+03  0.12292120854E+03 0.  0.
          5    1    4    4  502    0 -0.40531244766E+01 -0.14480320069E+02  0.30439757080E+02  0.34275009823E+02  0.47000000000E+01 0.  1.
         -5    1    4    4    0  502  0.54933263074E+01 -0.42685534103E+02 -0.13756319326E+03  0.14421495621E+03  0.47000000000E+01 0.  1.
          5    1    5    5  503    0 -0.41104379964E+01  0.67082920240E+02 -0.75388746005E+01  0.67793351582E+02  0.47000000000E+01 0.  1.
         -5    1    5    5    0  503  0.26702361656E+01 -0.99170660681E+01 -0.11315942585E+03  0.11372169547E+03  0.47000000000E+01 0.  1.
<mgrwt>
<rscale>  0 0.27874875E+03</rscale>
<asrwt>0</asrwt>
<pdfrwt beam="1">  1        1 0.45217442E-01 0.27874875E+03</pdfrwt>
<pdfrwt beam="2">  1       -1 0.10167944E-01 0.27874875E+03</pdfrwt>
<totfact> 0.53098361E+03</totfact>
</mgrwt>
</event>
<event>
 9    1  0.2051157E-002  0.2744019E+03  0.7818608E-02  0.1098786E+00
         -1   -1    0    0    0  501 -0.00000000000E+00  0.00000000000E+00  0.22739059367E+03  0.22739059367E+03  0.00000000000E+00 0.  1.
          1   -1    0    0  501    0  0.00000000000E+00 -0.00000000000E+00 -0.82783130132E+02  0.82783130132E+02  0.00000000000E+00 0.  1.
         36    2    1    2    0    0  0.71054273576E-14 -0.71054273576E-14  0.14460746354E+03  0.31017372380E+03  0.27440193226E+03 0.  0.
         25    2    3    3    0    0 -0.21017088606E+02 -0.43682132026E+02  0.39523136886E+02  0.14045549659E+03  0.12576096971E+03 0.  0.
         25    2    3    3    0    0  0.21017088606E+02  0.43682132026E+02  0.10508432665E+03  0.16971822721E+03  0.12414392561E+03 0.  0.
          5    1    4    4  502    0  0.26697776114E+02  0.75081061248E+01  0.60942094292E+02  0.67120576306E+02  0.47000000000E+01 0. -1.
         -5    1    4    4    0  502 -0.47714864720E+02 -0.51190238150E+02 -0.21418957406E+02  0.73334920287E+02  0.47000000000E+01 0. -1.
          5    1    5    5  503    0  0.66319631379E+02  0.28838142028E+02  0.97085811834E+02  0.12115146223E+03  0.47000000000E+01 0. -1.
         -5    1    5    5    0  503 -0.45302542773E+02  0.14843989998E+02  0.79985148178E+01  0.48566764974E+02  0.47000000000E+01 0. -1.
<mgrwt>
<rscale>  0 0.27440193E+03</rscale>
<asrwt>0</asrwt>
<pdfrwt beam="1">  1        1 0.12735866E-01 0.27440193E+03</pdfrwt>
<pdfrwt beam="2">  1       -1 0.34983168E-01 0.27440193E+03</pdfrwt>
<totfact> 0.36079476E+03</totfact>
</mgrwt>
</event>
<event>
 9    1  0.2051157E-002  0.2748828E+03  0.7818608E-02  0.1098517E+00
         -4   -1    0    0    0  501 -0.00000000000E+00  0.00000000000E+00  0.79337431932E+01  0.79337431932E+01  0.00000000000E+00 0. -1.
          4   -1    0    0  501    0  0.00000000000E+00 -0.00000000000E+00 -0.23809862273E+04  0.23809862273E+04  0.00000000000E+00 0. -1.
         36    2    1    2    0    0  0.00000000000E+00  0.35527136788E-14 -0.23730524841E+04  0.23889199705E+04  0.27488276246E+03 0.  0.
         25    2    3    3    0    0 -0.45644616920E+02 -0.26362643819E+02 -0.10714771616E+04  0.10800551105E+04  0.12520908026E+03 0.  0.
         25    2    3    3    0    0  0.45644616920E+02  0.26362643819E+02 -0.13015753225E+04  0.13088648600E+04  0.12747737682E+03 0.  0.
          5    1    4    4  502    0  0.18600713476E+02  0.11352042450E+02 -0.39299237449E+02  0.45181583346E+02  0.47000000000E+01 0. -1.
         -5    1    4    4    0  502 -0.64245330396E+02 -0.37714686269E+02 -0.10321779242E+04  0.10348735272E+04  0.47000000000E+01 0. -1.
          5    1    5    5  503    0 -0.35399544523E+02  0.36885191151E+02 -0.34578175155E+03  0.34957224544E+03  0.47000000000E+01 0. -1.
         -5    1    5    5    0  503  0.81044161442E+02 -0.10522547332E+02 -0.95579357094E+03  0.95929261457E+03  0.47000000000E+01 0. -1.
<mgrwt>
<rscale>  0 0.27488276E+03</rscale>
<asrwt>0</asrwt>
<pdfrwt beam="1">  1        4 0.36630581E+00 0.27488276E+03</pdfrwt>
<pdfrwt beam="2">  1       -4 0.12205751E-02 0.27488276E+03</pdfrwt>
<totfact> 0.57844596E+01</totfact>
</mgrwt>
</event>
<event>
 9    1  0.2051157E-002  0.2707260E+03  0.7818608E-02  0.1100865E+00
          2   -1    0    0  501    0  0.00000000000E+00  0.00000000000E+00  0.23771365974E+03  0.23771365974E+03  0.00000000000E+00 0.  1.
         -2   -1    0    0    0  501 -0.00000000000E+00 -0.00000000000E+00 -0.77080747425E+02  0.77080747425E+02  0.00000000000E+00 0.  1.
         36    2    1    2    0    0  0.00000000000E+00 -0.71054273576E-14  0.16063291232E+03  0.31479440717E+03  0.27072603544E+03 0.  0.
         25    2    3    3    0    0  0.14591457409E+02  0.33147000441E+02  0.95810899686E+02  0.16306157556E+03  0.12687676957E+03 0.  0.
         25    2    3    3    0    0 -0.14591457409E+02 -0.33147000441E+02  0.64822012631E+02  0.15173283161E+03  0.13232280453E+03 0.  0.
          5    1    4    4  502    0 -0.24331066430E+02 -0.41048492867E+02  0.37570174527E+02  0.60914592457E+02  0.47000000000E+01 0. -1.
         -5    1    4    4    0  502  0.38922523839E+02  0.74195493308E+02  0.58240725159E+02  0.10214698310E+03  0.47000000000E+01 0. -1.
          5    1    5    5  503    0 -0.39172644947E+02  0.26089508155E+02 -0.14636850842E+02  0.49512482775E+02  0.47000000000E+01 0.  1.
         -5    1    5    5    0  503  0.24581187537E+02 -0.59236508597E+02  0.79458863474E+02  0.10222034884E+03  0.47000000000E+01 0.  1.
<mgrwt>
<rscale>  0 0.27072604E+03</rscale>
<asrwt>0</asrwt>
<pdfrwt beam="1">  1        2 0.36571332E-01 0.27072604E+03</pdfrwt>
<pdfrwt beam="2">  1       -2 0.11858577E-01 0.27072604E+03</pdfrwt>
<totfact> 0.70423649E+03</totfact>
</mgrwt>
</event>
<event>
 9    1  0.2051157E-002  0.2740086E+03  0.7818608E-02  0.1099007E+00
          2   -1    0    0  501    0  0.00000000000E+00  0.00000000000E+00  0.82953175643E+02  0.82953175643E+02  0.00000000000E+00 0.  1.
         -2   -1    0    0    0  501 -0.00000000000E+00 -0.00000000000E+00 -0.22627430413E+03  0.22627430413E+03  0.00000000000E+00 0.  1.
         36    2    1    2    0    0  0.00000000000E+00  0.00000000000E+00 -0.14332112849E+03  0.30922747977E+03  0.27400855530E+03 0.  0.
         25    2    3    3    0    0  0.27708436439E+02 -0.13833909085E+02 -0.79063806264E+01  0.12908297136E+03  0.12506305670E+03 0.  0.
         25    2    3    3    0    0 -0.27708436439E+02  0.13833909085E+02 -0.13541474786E+03  0.18014450841E+03  0.11469854176E+03 0.  0.
          5    1    4    4  502    0 -0.27547536792E+02 -0.17643517486E+02 -0.49597024020E+02  0.59599624866E+02  0.47000000000E+01 0. -1.
         -5    1    4    4    0  502  0.55255973231E+02  0.38096084008E+01  0.41690643394E+02  0.69483346497E+02  0.47000000000E+01 0. -1.
          5    1    5    5  503    0 -0.71574644920E+02  0.33872176488E+00 -0.93228402738E+02  0.11762937390E+03  0.47000000000E+01 0.  1.
         -5    1    5    5    0  503  0.43866208481E+02  0.13495187320E+02 -0.42186345123E+02  0.62515134505E+02  0.47000000000E+01 0.  1.
<mgrwt>
<rscale>  0 0.27400856E+03</rscale>
<asrwt>0</asrwt>
<pdfrwt beam="1">  1        2 0.12762027E-01 0.27400856E+03</pdfrwt>
<pdfrwt beam="2">  1       -2 0.34811431E-01 0.27400856E+03</pdfrwt>
<totfact> 0.36577640E+03</totfact>
</mgrwt>
</event>
<event>
 9    1  0.2051157E-002  0.2753038E+03  0.7818608E-02  0.1098282E+00
          1   -1    0    0  501    0  0.00000000000E+00  0.00000000000E+00  0.16373584572E+04  0.16373584572E+04  0.00000000000E+00 0. -1.
         -1   -1    0    0    0  501 -0.00000000000E+00 -0.00000000000E+00 -0.11572325860E+02  0.11572325860E+02  0.00000000000E+00 0. -1.
         36    2    1    2    0    0  0.00000000000E+00 -0.71054273576E-14  0.16257861314E+04  0.16489307831E+04  0.27530380032E+03 0.  0.
         25    2    3    3    0    0 -0.19445342503E+02  0.51081117367E+02  0.73342019837E+03  0.74625182088E+03  0.12648790809E+03 0.  0.
         25    2    3    3    0    0  0.19445342503E+02 -0.51081117367E+02  0.89236593301E+03  0.90267896222E+03  0.12459915145E+03 0.  0.
          5    1    4    4  502    0 -0.55641473108E+02  0.19452432123E+01  0.55122821000E+03  0.55405269334E+03  0.47000000000E+01 0.  1.
         -5    1    4    4    0  502  0.36196130605E+02  0.49135874155E+02  0.18219198837E+03  0.19219912754E+03  0.47000000000E+01 0.  1.
          5    1    5    5  503    0 -0.25269150533E+02 -0.65736053265E+02  0.73447082762E+03  0.73785448789E+03  0.47000000000E+01 0. -1.
         -5    1    5    5    0  503  0.44714493036E+02  0.14654935898E+02  0.15789510539E+03  0.16482447433E+03  0.47000000000E+01 0. -1.
<mgrwt>
<rscale>  0 0.27530380E+03</rscale>
<asrwt>0</asrwt>
<pdfrwt beam="1">  1        1 0.25190112E+00 0.27530380E+03</pdfrwt>
<pdfrwt beam="2">  1       -1 0.17803591E-02 0.27530380E+03</pdfrwt>
<totfact> 0.47227164E+03</totfact>
</mgrwt>
</event>
<event>
 9    1  0.2051157E-002  0.2728294E+03  0.7818608E-02  0.1099671E+00
         -4   -1    0    0    0  501 -0.00000000000E+00  0.00000000000E+00  0.16151897107E+04  0.16151897107E+04  0.00000000000E+00 0.  1.
          4   -1    0    0  501    0  0.00000000000E+00 -0.00000000000E+00 -0.11521229624E+02  0.11521229624E+02  0.00000000000E+00 0.  1.
         36    2    1    2    0    0  0.00000000000E+00  0.71054273576E-14  0.16036684811E+04  0.16267109403E+04  0.27282940856E+03 0.  0.
         25    2    3    3    0    0  0.39958699053E+02 -0.40695029221E+02  0.65597436265E+03  0.66789262091E+03  0.11191695839E+03 0.  0.
         25    2    3    3    0    0 -0.39958699053E+02  0.40695029221E+02  0.94769411843E+03  0.95881831942E+03  0.13399867356E+03 0.  0.
          5    1    4    4  502    0  0.23163261922E+02 -0.75608899303E+02  0.53353005972E+03  0.53937895489E+03  0.47000000000E+01 0. -1.
         -5    1    4    4    0  502  0.16795437131E+02  0.34913870082E+02  0.12244430293E+03  0.12851366602E+03  0.47000000000E+01 0. -1.
          5    1    5    5  503    0  0.35340533350E+02  0.33541785924E+02  0.64226739340E+03  0.64413003293E+03  0.47000000000E+01 0.  1.
         -5    1    5    5    0  503 -0.75299232403E+02  0.71532432967E+01  0.30542672503E+03  0.31468828649E+03  0.47000000000E+01 0.  1.
<mgrwt>
<rscale>  0 0.27282941E+03</rscale>
<asrwt>0</asrwt>
<pdfrwt beam="1">  1        4 0.17724981E-02 0.27282941E+03</pdfrwt>
<pdfrwt beam="2">  1       -4 0.24849054E+00 0.27282941E+03</pdfrwt>
<totfact> 0.16703955E+02</totfact>
</mgrwt>
</event>
<event>
 9    1  0.2051157E-002  0.2743041E+03  0.7818608E-02  0.1098841E+00
          2   -1    0    0  501    0  0.00000000000E+00  0.00000000000E+00  0.38409022296E+03  0.38409022296E+03  0.00000000000E+00 0.  1.
         -2   -1    0    0    0  501 -0.00000000000E+00 -0.00000000000E+00 -0.48974646044E+02  0.48974646044E+02  0.00000000000E+00 0.  1.
         36    2    1    2    0    0  0.00000000000E+00  0.00000000000E+00  0.33511557692E+03  0.43306486901E+03  0.27430408468E+03 0.  0.
         25    2    3    3    0    0 -0.18533249289E+02 -0.14468672522E+02  0.25012913100E+03  0.28089351550E+03  0.12563343928E+03 0.  0.
         25    2    3    3    0    0  0.18533249289E+02  0.14468672522E+02  0.84986445925E+02  0.15217135350E+03  0.12401855112E+03 0.  0.
          5    1    4    4  502    0 -0.24721979369E+02  0.34467478116E+02  0.23113880696E+02  0.48533749005E+02  0.47000000000E+01 0. -1.
         -5    1    4    4    0  502  0.61887300807E+01 -0.48936150639E+02  0.22701525030E+03  0.23235976650E+03  0.47000000000E+01 0. -1.
          5    1    5    5  503    0  0.28797063862E+02 -0.40271114651E+02 -0.85492483877E+00  0.49737857400E+02  0.47000000000E+01 0. -1.
         -5    1    5    5    0  503 -0.10263814573E+02  0.54739787173E+02  0.85841370763E+02  0.10243349610E+03  0.47000000000E+01 0. -1.
<mgrwt>
<rscale>  0 0.27430408E+03</rscale>
<asrwt>0</asrwt>
<pdfrwt beam="1">  1        2 0.59090802E-01 0.27430408E+03</pdfrwt>
<pdfrwt beam="2">  1       -2 0.75345612E-02 0.27430408E+03</pdfrwt>
<totfact> 0.86106631E+03</totfact>
</mgrwt>
</event>
<event>
 9    1  0.2051157E-002  0.2753836E+03  0.7818608E-02  0.1098237E+00
         -2   -1    0    0    0  501 -0.00000000000E+00  0.00000000000E+00  0.77955972056E+01  0.77955972056E+01  0.00000000000E+00 0.  1.
          2   -1    0    0  501    0  0.00000000000E+00 -0.00000000000E+00 -0.24320179809E+04  0.24320179809E+04  0.00000000000E+00 0.  1.
         36    2    1    2    0    0 -0.71054273576E-14 -0.71054273576E-14 -0.24242223837E+04  0.24398135781E+04  0.27538360573E+03 0.  0.
         25    2    3    3    0    0  0.33956589310E+02 -0.39433112191E+02 -0.11357893117E+04  0.11443287120E+04  0.12947130979E+03 0.  0.
         25    2    3    3    0    0 -0.33956589310E+02  0.39433112191E+02 -0.12884330719E+04  0.12954848661E+04  0.12455214656E+03 0.  0.
          5    1    4    4  502    0 -0.39557658897E+02 -0.65215798160E+01 -0.69804090392E+03  0.69920707443E+03  0.47000000000E+01 0.  1.
         -5    1    4    4    0  502  0.73514248207E+02 -0.32911532375E+02 -0.43774840782E+03  0.44512163754E+03  0.47000000000E+01 0.  1.
          5    1    5    5  503    0 -0.21041684523E+02 -0.41801315489E+02 -0.66005943298E+03  0.66173306366E+03  0.47000000000E+01 0. -1.
         -5    1    5    5    0  503 -0.12914904787E+02  0.81234427680E+02 -0.62837363896E+03  0.63375180248E+03  0.47000000000E+01 0. -1.
<mgrwt>
<rscale>  0 0.27538361E+03</rscale>
<asrwt>0</asrwt>
<pdfrwt beam="1">  1        2 0.37415674E+00 0.27538361E+03</pdfrwt>
<pdfrwt beam="2">  1       -2 0.11993222E-02 0.27538361E+03</pdfrwt>
<totfact> 0.71480855E+03</totfact>
</mgrwt>
</event>
<event>
 9    1  0.2051157E-002  0.2766598E+03  0.7818608E-02  0.1097527E+00
         -2   -1    0    0    0  501 -0.00000000000E+00  0.00000000000E+00  0.65828964576E+01  0.65828964576E+01  0.00000000000E+00 0. -1.
          2   -1    0    0  501    0  0.00000000000E+00 -0.00000000000E+00 -0.29068000794E+04  0.29068000794E+04  0.00000000000E+00 0. -1.
         36    2    1    2    0    0  0.00000000000E+00  0.00000000000E+00 -0.29002171829E+04  0.29133829758E+04  0.27665981960E+03 0.  0.
         25    2    3    3    0    0  0.42002472452E+02  0.43185584454E+02 -0.13434639411E+04  0.13506117613E+04  0.12501026556E+03 0.  0.
         25    2    3    3    0    0 -0.42002472452E+02 -0.43185584454E+02 -0.15567532419E+04  0.15627712145E+04  0.12306100306E+03 0.  0.
          5    1    4    4  502    0 -0.41983270945E+02 -0.29759241439E+01 -0.46423681051E+03  0.46616451752E+03  0.47000000000E+01 0. -1.
         -5    1    4    4    0  502  0.83985743397E+02  0.46161508598E+02 -0.87922713054E+03  0.88444724379E+03  0.47000000000E+01 0. -1.
          5    1    5    5  503    0 -0.79761905130E+02 -0.49775503291E+02 -0.12607505057E+04  0.12642600562E+04  0.47000000000E+01 0.  1.
         -5    1    5    5    0  503  0.37759432678E+02  0.65899188369E+01 -0.29600273619E+03  0.29851115828E+03  0.47000000000E+01 0.  1.
<mgrwt>
<rscale>  0 0.27665982E+03</rscale>
<asrwt>0</asrwt>
<pdfrwt beam="1">  1        2 0.44720005E+00 0.27665982E+03</pdfrwt>
<pdfrwt beam="2">  1       -2 0.10127532E-02 0.27665982E+03</pdfrwt>
<totfact> 0.49472513E+03</totfact>
</mgrwt>
</event>
<event>
 9    1  0.2051157E-002  0.2780658E+03  0.7818608E-02  0.1096750E+00
          1   -1    0    0  501    0  0.00000000000E+00  0.00000000000E+00  0.18784769982E+04  0.18784769982E+04  0.00000000000E+00 0.  1.
         -1   -1    0    0    0  501 -0.00000000000E+00 -0.00000000000E+00 -0.10290331551E+02  0.10290331551E+02  0.00000000000E+00 0.  1.
         36    2    1    2    0    0  0.00000000000E+00  0.00000000000E+00  0.18681866667E+04  0.18887673298E+04  0.27806582762E+03 0.  0.
         25    2    3    3    0    0 -0.32291183095E+02 -0.46023108684E+02  0.11223824676E+04  0.11307269594E+04  0.12506080940E+03 0.  0.
         25    2    3    3    0    0  0.32291183095E+02  0.46023108684E+02  0.74580419909E+03  0.75804037041E+03  0.12345222866E+03 0.  0.
          5    1    4    4  502    0 -0.74015059425E+01 -0.19154083733E+02  0.10426079389E+04  0.10428207255E+04  0.47000000000E+01 0. -1.
         -5    1    4    4    0  502 -0.24889677152E+02 -0.26869024951E+02  0.79774528717E+02  0.87906233924E+02  0.47000000000E+01 0. -1.
          5    1    5    5  503    0 -0.46985389514E+02  0.18972712330E+02  0.24126646624E+03  0.24657491432E+03  0.47000000000E+01 0. -1.
         -5    1    5    5    0  503  0.79276572609E+02  0.27050396354E+02  0.50453773284E+03  0.51146545609E+03  0.47000000000E+01 0. -1.
<mgrwt>
<rscale>  0 0.27806583E+03</rscale>
<asrwt>0</asrwt>
<pdfrwt beam="1">  1        1 0.28899619E+00 0.27806583E+03</pdfrwt>
<pdfrwt beam="2">  1       -1 0.15831294E-02 0.27806583E+03</pdfrwt>
<totfact> 0.39037706E+03</totfact>
</mgrwt>
</event>
<event>
 9    1  0.2051157E-002  0.2750469E+03  0.7818608E-02  0.1098425E+00
         -2   -1    0    0    0  501 -0.00000000000E+00  0.00000000000E+00  0.42495213286E+03  0.42495213286E+03  0.00000000000E+00 0.  1.
          2   -1    0    0  501    0  0.00000000000E+00 -0.00000000000E+00 -0.44505476962E+02  0.44505476962E+02  0.00000000000E+00 0.  1.
         36    2    1    2    0    0 -0.71054273576E-14  0.00000000000E+00  0.38044665590E+03  0.46945760983E+03  0.27504688589E+03 0.  0.
         25    2    3    3    0    0  0.43451401372E+02 -0.26631029874E+01  0.26165668142E+03  0.29303870266E+03  0.12454856854E+03 0.  0.
         25    2    3    3    0    0 -0.43451401372E+02  0.26631029874E+01  0.11878997448E+03  0.17641890717E+03  0.12295306572E+03 0.  0.
          5    1    4    4  502    0  0.13786170448E+02  0.53660443051E+02  0.18557970920E+03  0.19373027670E+03  0.47000000000E+01 0.  1.
         -5    1    4    4    0  502  0.29665230924E+02 -0.56323546039E+02  0.76076972219E+02  0.99308425958E+02  0.47000000000E+01 0.  1.
          5    1    5    5  503    0 -0.34123683469E+02  0.51108117290E+02  0.10999676037E+03  0.12608664767E+03  0.47000000000E+01 0. -1.
         -5    1    5    5    0  503 -0.93277179034E+01 -0.48445014303E+02  0.87932141060E+01  0.50332259500E+02  0.47000000000E+01 0. -1.
<mgrwt>
<rscale>  0 0.27504689E+03</rscale>
<asrwt>0</asrwt>
<pdfrwt beam="1">  1        2 0.68469968E-02 0.27504689E+03</pdfrwt>
<pdfrwt beam="2">  1       -2 0.65377248E-01 0.27504689E+03</pdfrwt>
<totfact> 0.22890988E+03</totfact>
</mgrwt>
</event>
<event>
 9    1  0.2051157E-002  0.2745975E+03  0.7818608E-02  0.1098677E+00
          2   -1    0    0  501    0  0.00000000000E+00  0.00000000000E+00  0.32044120859E+04  0.32044120859E+04  0.00000000000E+00 0.  1.
         -2   -1    0    0    0  501 -0.00000000000E+00 -0.00000000000E+00 -0.58828086255E+01  0.58828086255E+01  0.00000000000E+00 0.  1.
         36    2    1    2    0    0 -0.35527136788E-14  0.71054273576E-14  0.31985292772E+04  0.32102948945E+04  0.27459747310E+03 0.  0.
         25    2    3    3    0    0  0.96767625521E+01 -0.17743714841E+02  0.22077025618E+04  0.22112015681E+04  0.12269186707E+03 0.  0.
         25    2    3    3    0    0 -0.96767625521E+01  0.17743714841E+02  0.99082671546E+03  0.99909332641E+03  0.12665471036E+03 0.  0.
          5    1    4    4  502    0 -0.46110367075E+00 -0.56117006645E+02  0.52267509276E+03  0.52570017467E+03  0.47000000000E+01 0.  1.
         -5    1    4    4    0  502  0.10137866223E+02  0.38373291804E+02  0.16850274690E+04  0.16855013934E+04  0.47000000000E+01 0.  1.
          5    1    5    5  503    0 -0.30090913069E+02  0.51672177949E+02  0.24624204661E+03  0.25344173402E+03  0.47000000000E+01 0.  1.
         -5    1    5    5    0  503  0.20414150517E+02 -0.33928463108E+02  0.74458466884E+03  0.74565159239E+03  0.47000000000E+01 0.  1.
<mgrwt>
<rscale>  0 0.27459747E+03</rscale>
<asrwt>0</asrwt>
<pdfrwt beam="1">  1        2 0.49298508E+00 0.27459747E+03</pdfrwt>
<pdfrwt beam="2">  1       -2 0.90505004E-03 0.27459747E+03</pdfrwt>
<totfact> 0.38625246E+03</totfact>
</mgrwt>
</event>
<event>
 9    1  0.2051157E-002  0.2754764E+03  0.7818608E-02  0.1098186E+00
         -2   -1    0    0    0  501 -0.00000000000E+00  0.00000000000E+00  0.54780637501E+01  0.54780637501E+01  0.00000000000E+00 0. -1.
          2   -1    0    0  501    0  0.00000000000E+00 -0.00000000000E+00 -0.34632341348E+04  0.34632341348E+04  0.00000000000E+00 0. -1.
         36    2    1    2    0    0  0.14210854715E-13  0.71054273576E-14 -0.34577560710E+04  0.34687121985E+04  0.27547644089E+03 0.  0.
         25    2    3    3    0    0 -0.62383857652E+02  0.43752148167E+02 -0.20456210948E+04  0.20502254359E+04  0.11424831886E+03 0.  0.
         25    2    3    3    0    0  0.62383857652E+02 -0.43752148167E+02 -0.14121349762E+04  0.14184867626E+04  0.11033362359E+03 0.  0.
          5    1    4    4  502    0  0.34837512936E+01  0.30370445860E+02 -0.13836636551E+03  0.14178096350E+03  0.47000000000E+01 0.  1.
         -5    1    4    4    0  502 -0.65867608945E+02  0.13381702307E+02 -0.19072547293E+04  0.19084444724E+04  0.47000000000E+01 0.  1.
          5    1    5    5  503    0  0.41593158646E+02 -0.76081540320E+02 -0.71097641398E+03  0.71625968954E+03  0.47000000000E+01 0. -1.
         -5    1    5    5    0  503  0.20790699006E+02  0.32329392154E+02 -0.70115856219E+03  0.70222707303E+03  0.47000000000E+01 0. -1.
<mgrwt>
<rscale>  0 0.27547644E+03</rscale>
<asrwt>0</asrwt>
<pdfrwt beam="1">  1        2 0.53280777E+00 0.27547644E+03</pdfrwt>
<pdfrwt beam="2">  1       -2 0.84277505E-03 0.27547644E+03</pdfrwt>
<totfact> 0.29305963E+03</totfact>
</mgrwt>
</event>
<event>
 9    1  0.2051157E-002  0.2750056E+03  0.7818608E-02  0.1098448E+00
          2   -1    0    0  501    0  0.00000000000E+00  0.00000000000E+00  0.12998908217E+03  0.12998908217E+03  0.00000000000E+00 0.  1.
         -2   -1    0    0    0  501 -0.00000000000E+00 -0.00000000000E+00 -0.14545083794E+03  0.14545083794E+03  0.00000000000E+00 0.  1.
         36    2    1    2    0    0  0.00000000000E+00 -0.71054273576E-14 -0.15461755770E+02  0.27543992012E+03  0.27500560668E+03 0.  0.
         25    2    3    3    0    0  0.34952839191E+02  0.43407591703E+02  0.68841923068E+01  0.13392484767E+03  0.12158352164E+03 0.  0.
         25    2    3    3    0    0 -0.34952839191E+02 -0.43407591703E+02 -0.22345948077E+02  0.14151507245E+03  0.12814544218E+03 0.  0.
          5    1    4    4  502    0  0.54798941680E+02  0.20606473378E+02  0.52649092727E+02  0.78876914996E+02  0.47000000000E+01 0.  1.
         -5    1    4    4    0  502 -0.19846102489E+02  0.22801118325E+02 -0.45764900420E+02  0.55047932671E+02  0.47000000000E+01 0.  1.
          5    1    5    5  503    0 -0.82793236758E+02 -0.30862705391E+02 -0.24419296634E+02  0.91791168883E+02  0.47000000000E+01 0. -1.
         -5    1    5    5    0  503  0.47840397567E+02 -0.12544886312E+02  0.20733485569E+01  0.49723903569E+02  0.47000000000E+01 0. -1.
<mgrwt>
<rscale>  0 0.27500561E+03</rscale>
<asrwt>0</asrwt>
<pdfrwt beam="1">  1        2 0.19998320E-01 0.27500561E+03</pdfrwt>
<pdfrwt beam="2">  1       -2 0.22377052E-01 0.27500561E+03</pdfrwt>
<totfact> 0.47698619E+03</totfact>
</mgrwt>
</event>
<event>
 9    1  0.2051157E-002  0.2753976E+03  0.7818608E-02  0.1098230E+00
          3   -1    0    0  501    0  0.00000000000E+00  0.00000000000E+00  0.94244942400E+02  0.94244942400E+02  0.00000000000E+00 0.  1.
         -3   -1    0    0    0  501 -0.00000000000E+00 -0.00000000000E+00 -0.20118814981E+03  0.20118814981E+03  0.00000000000E+00 0.  1.
         36    2    1    2    0    0 -0.71054273576E-14  0.35527136788E-14 -0.10694320741E+03  0.29543309221E+03  0.27539764407E+03 0.  0.
         25    2    3    3    0    0  0.33403717628E+02 -0.20858612014E+02 -0.59301224421E+01  0.13042621931E+03  0.12419719113E+03 0.  0.
         25    2    3    3    0    0 -0.33403717628E+02  0.20858612014E+02 -0.10101308496E+03  0.16500687290E+03  0.12438944780E+03 0.  0.
          5    1    4    4  502    0 -0.51593418921E+01  0.17429499706E+02 -0.54342994367E+02  0.57494845904E+02  0.47000000000E+01 0. -1.
         -5    1    4    4    0  502  0.38563059520E+02 -0.38288111720E+02  0.48412871925E+02  0.72931373405E+02  0.47000000000E+01 0. -1.
          5    1    5    5  503    0 -0.15553073000E+02 -0.23217239537E+01 -0.12549858521E+03  0.12656726817E+03  0.47000000000E+01 0. -1.
         -5    1    5    5    0  503 -0.17850644628E+02  0.23180335968E+02  0.24485500248E+02  0.38439604727E+02  0.47000000000E+01 0. -1.
<mgrwt>
<rscale>  0 0.27539764E+03</rscale>
<asrwt>0</asrwt>
<pdfrwt beam="1">  1        3 0.14499222E-01 0.27539764E+03</pdfrwt>
<pdfrwt beam="2">  1       -3 0.30952022E-01 0.27539764E+03</pdfrwt>
<totfact> 0.10136779E+03</totfact>
</mgrwt>
</event>
<event>
 9    1  0.2051157E-002  0.2748994E+03  0.7818608E-02  0.1098508E+00
         -1   -1    0    0    0  501 -0.00000000000E+00  0.00000000000E+00  0.40787413531E+02  0.40787413531E+02  0.00000000000E+00 0.  1.
          1   -1    0    0  501    0  0.00000000000E+00 -0.00000000000E+00 -0.46319236605E+03  0.46319236605E+03  0.00000000000E+00 0.  1.
         36    2    1    2    0    0  0.35527136788E-14  0.35527136788E-14 -0.42240495252E+03  0.50397977958E+03  0.27489938944E+03 0.  0.
         25    2    3    3    0    0 -0.29709915462E+02  0.22204594041E+02 -0.13745183901E+03  0.19101054198E+03  0.12734322137E+03 0.  0.
         25    2    3    3    0    0  0.29709915462E+02 -0.22204594041E+02 -0.28495311351E+03  0.31296923759E+03  0.12399896656E+03 0.  0.
          5    1    4    4  502    0  0.68298001901E+01  0.54025262908E+02 -0.11329689241E+02  0.55819593883E+02  0.47000000000E+01 0. -1.
         -5    1    4    4    0  502 -0.36539715652E+02 -0.31820668867E+02 -0.12612214976E+03  0.13519094810E+03  0.47000000000E+01 0. -1.
          5    1    5    5  503    0  0.72381699862E+02 -0.84484894530E+01 -0.23304666528E+03  0.24421983058E+03  0.47000000000E+01 0.  1.
         -5    1    5    5    0  503 -0.42671784400E+02 -0.13756104588E+02 -0.51906448230E+02  0.68749407016E+02  0.47000000000E+01 0.  1.
<mgrwt>
<rscale>  0 0.27489939E+03</rscale>
<asrwt>0</asrwt>
<pdfrwt beam="1">  1        1 0.71260365E-01 0.27489939E+03</pdfrwt>
<pdfrwt beam="2">  1       -1 0.62749866E-02 0.27489939E+03</pdfrwt>
<totfact> 0.62090776E+03</totfact>
</mgrwt>
</event>
<event>
 9    1  0.2051157E-002  0.2758217E+03  0.7818608E-02  0.1097993E+00
         -2   -1    0    0    0  501 -0.00000000000E+00  0.00000000000E+00  0.41214145974E+02  0.41214145974E+02  0.00000000000E+00 0. -1.
          2   -1    0    0  501    0  0.00000000000E+00 -0.00000000000E+00 -0.46147739919E+03  0.46147739919E+03  0.00000000000E+00 0. -1.
         36    2    1    2    0    0 -0.35527136788E-14 -0.71054273576E-14 -0.42026325322E+03  0.50269154517E+03  0.27582165901E+03 0.  0.
         25    2    3    3    0    0 -0.13613517419E+02  0.55723998544E+02 -0.18309726532E+03  0.22934167629E+03  0.12562843645E+03 0.  0.
         25    2    3    3    0    0  0.13613517419E+02 -0.55723998544E+02 -0.23716598790E+03  0.27334986888E+03  0.12321506859E+03 0.  0.
          5    1    4    4  502    0 -0.22950757280E+02  0.11311028848E+02 -0.18184655165E+03  0.18369794496E+03  0.47000000000E+01 0.  1.
         -5    1    4    4    0  502  0.93372398610E+01  0.44412969697E+02 -0.12507136685E+01  0.45643731335E+02  0.47000000000E+01 0.  1.
          5    1    5    5  503    0 -0.15502765419E+02 -0.88985714696E+02 -0.14275766818E+03  0.16899892005E+03  0.47000000000E+01 0.  1.
         -5    1    5    5    0  503  0.29116282838E+02  0.33261716152E+02 -0.94408319723E+02  0.10435094882E+03  0.47000000000E+01 0.  1.
<mgrwt>
<rscale>  0 0.27582166E+03</rscale>
<asrwt>0</asrwt>
<pdfrwt beam="1">  1        2 0.70996527E-01 0.27582166E+03</pdfrwt>
<pdfrwt beam="2">  1       -2 0.63406375E-02 0.27582166E+03</pdfrwt>
<totfact> 0.92032558E+03</totfact>
</mgrwt>
</event>
<event>
 9    1  0.2051157E-002  0.2752200E+03  0.7818608E-02  0.1098329E+00
         -1   -1    0    0    0  501 -0.00000000000E+00  0.00000000000E+00  0.32966353089E+02  0.32966353089E+02  0.00000000000E+00 0.  1.
          1   -1    0    0  501    0  0.00000000000E+00 -0.00000000000E+00 -0.57441919491E+03  0.57441919491E+03  0.00000000000E+00 0.  1.
         36    2    1    2    0    0  0.00000000000E+00  0.00000000000E+00 -0.54145284182E+03  0.60738554799E+03  0.27521995567E+03 0.  0.
         25    2    3    3    0    0 -0.30029183725E+02 -0.47495357785E+02 -0.23832734276E+03  0.27437459480E+03  0.12378988278E+03 0.  0.
         25    2    3    3    0    0  0.30029183725E+02  0.47495357785E+02 -0.30312549906E+03  0.33301095319E+03  0.12591134136E+03 0.  0.
          5    1    4    4  502    0 -0.23189854018E+02 -0.84695484101E+02 -0.11185574259E+03  0.14228454416E+03  0.47000000000E+01 0. -1.
         -5    1    4    4    0  502 -0.68393297072E+01  0.37200126316E+02 -0.12647160017E+03  0.13209005064E+03  0.47000000000E+01 0. -1.
          5    1    5    5  503    0  0.72485397322E+02  0.27804230313E+02 -0.11317788989E+03  0.13732637332E+03  0.47000000000E+01 0.  1.
         -5    1    5    5    0  503 -0.42456213596E+02  0.19691127471E+02 -0.18994760916E+03  0.19568457987E+03  0.47000000000E+01 0.  1.
<mgrwt>
<rscale>  0 0.27521996E+03</rscale>
<asrwt>0</asrwt>
<pdfrwt beam="1">  1        1 0.88372177E-01 0.27521996E+03</pdfrwt>
<pdfrwt beam="2">  1       -1 0.50717470E-02 0.27521996E+03</pdfrwt>
<totfact> 0.64128047E+03</totfact>
</mgrwt>
</event>
<event>
 9    1  0.2051157E-002  0.2751657E+03  0.7818608E-02  0.1098359E+00
         -2   -1    0    0    0  501 -0.00000000000E+00  0.00000000000E+00  0.21259990855E+02  0.21259990855E+02  0.00000000000E+00 0. -1.
          2   -1    0    0  501    0  0.00000000000E+00 -0.00000000000E+00 -0.89035955806E+03  0.89035955806E+03  0.00000000000E+00 0. -1.
         36    2    1    2    0    0 -0.35527136788E-14 -0.35527136788E-14 -0.86909956721E+03  0.91161954891E+03  0.27516566691E+03 0.  0.
         25    2    3    3    0    0 -0.14702067408E+02  0.24660975876E+02 -0.50779925198E+03  0.52289270034E+03  0.12137702103E+03 0.  0.
         25    2    3    3    0    0  0.14702067408E+02 -0.24660975876E+02 -0.36130031522E+03  0.38872684858E+03  0.14052163715E+03 0.  0.
          5    1    4    4  502    0 -0.41038160351E+02 -0.32281689483E+02 -0.33331450941E+03  0.33741204819E+03  0.47000000000E+01 0.  1.
         -5    1    4    4    0  502  0.26336092943E+02  0.56942665360E+02 -0.17448474257E+03  0.18548065214E+03  0.47000000000E+01 0.  1.
          5    1    5    5  503    0  0.30592252034E+02 -0.54112992047E+02 -0.63394291553E+02  0.88910224352E+02  0.47000000000E+01 0. -1.
         -5    1    5    5    0  503 -0.15890184626E+02  0.29452016171E+02 -0.29790602367E+03  0.29981662423E+03  0.47000000000E+01 0. -1.
<mgrwt>
<rscale>  0 0.27516567E+03</rscale>
<asrwt>0</asrwt>
<pdfrwt beam="1">  1        2 0.13697843E+00 0.27516567E+03</pdfrwt>
<pdfrwt beam="2">  1       -2 0.32707669E-02 0.27516567E+03</pdfrwt>
<totfact> 0.11437207E+04</totfact>
</mgrwt>
</event>
<event>
 9    1  0.2051157E-002  0.2746986E+03  0.7818608E-02  0.1098620E+00
         -2   -1    0    0    0  501 -0.00000000000E+00  0.00000000000E+00  0.11077304558E+03  0.11077304558E+03  0.00000000000E+00 0.  1.
          2   -1    0    0  501    0  0.00000000000E+00 -0.00000000000E+00 -0.17030159961E+03  0.17030159961E+03  0.00000000000E+00 0.  1.
         36    2    1    2    0    0  0.00000000000E+00 -0.35527136788E-14 -0.59528554034E+02  0.28107464519E+03  0.27469857558E+03 0.  0.
         25    2    3    3    0    0 -0.34231698005E+02 -0.16090671452E+02 -0.10030634612E+03  0.14409160139E+03  0.96282436933E+02 0.  0.
         25    2    3    3    0    0  0.34231698005E+02  0.16090671452E+02  0.40777792088E+02  0.13698304381E+03  0.12518309433E+03 0.  0.
          5    1    4    4  502    0  0.25286476057E+02 -0.21634023468E+00 -0.71388582402E+02  0.75880645568E+02  0.47000000000E+01 0.  1.
         -5    1    4    4    0  502 -0.59518174061E+02 -0.15874331217E+02 -0.28917763720E+02  0.68210955819E+02  0.47000000000E+01 0.  1.
          5    1    5    5  503    0  0.44559914247E+02  0.20955678820E+02  0.80999509353E+02  0.94909098341E+02  0.47000000000E+01 0.  1.
         -5    1    5    5    0  503 -0.10328216242E+02 -0.48650073681E+01 -0.40221717264E+02  0.42073945467E+02  0.47000000000E+01 0.  1.
<mgrwt>
<rscale>  0 0.27469858E+03</rscale>
<asrwt>0</asrwt>
<pdfrwt beam="1">  1        2 0.26200246E-01 0.27469858E+03</pdfrwt>
<pdfrwt beam="2">  1       -2 0.17042007E-01 0.27469858E+03</pdfrwt>
<totfact> 0.55959472E+03</totfact>
</mgrwt>
</event>
<event>
 9    1  0.2051157E-002  0.2752287E+03  0.7818608E-02  0.1098324E+00
         -1   -1    0    0    0  501 -0.00000000000E+00  0.00000000000E+00  0.98772006318E+01  0.98772006318E+01  0.00000000000E+00 0.  1.
          1   -1    0    0  501    0  0.00000000000E+00 -0.00000000000E+00 -0.19173151768E+04  0.19173151768E+04  0.00000000000E+00 0.  1.
         36    2    1    2    0    0  0.71054273576E-14  0.35527136788E-14 -0.19074379762E+04  0.19271923774E+04  0.27522868074E+03 0.  0.
         25    2    3    3    0    0  0.11008437066E+02  0.23459728552E+02 -0.91698729001E+03  0.92855622331E+03  0.14380342574E+03 0.  0.
         25    2    3    3    0    0 -0.11008437066E+02 -0.23459728552E+02 -0.99045068615E+03  0.99863615411E+03  0.12494023396E+03 0.  0.
          5    1    4    4  502    0  0.11201457264E+02  0.41242035007E+02 -0.90622659308E+03  0.90724589065E+03  0.47000000000E+01 0.  1.
         -5    1    4    4    0  502 -0.19302019868E+00 -0.17782306455E+02 -0.10760696934E+02  0.21310332662E+02  0.47000000000E+01 0.  1.
          5    1    5    5  503    0 -0.64288365988E+02 -0.30181017901E+02 -0.46315946592E+03  0.46859648816E+03  0.47000000000E+01 0. -1.
         -5    1    5    5    0  503  0.53279928922E+02  0.67212893488E+01 -0.52729122023E+03  0.53003966596E+03  0.47000000000E+01 0. -1.
<mgrwt>
<rscale>  0 0.27522868E+03</rscale>
<asrwt>0</asrwt>
<pdfrwt beam="1">  1        1 0.29497175E+00 0.27522868E+03</pdfrwt>
<pdfrwt beam="2">  1       -1 0.15195684E-02 0.27522868E+03</pdfrwt>
<totfact> 0.39101793E+03</totfact>
</mgrwt>
</event>
<event>
 9    1  0.2051157E-002  0.2760090E+03  0.7818608E-02  0.1097889E+00
         -2   -1    0    0    0  501 -0.00000000000E+00  0.00000000000E+00  0.46260795103E+03  0.46260795103E+03  0.00000000000E+00 0. -1.
          2   -1    0    0  501    0  0.00000000000E+00 -0.00000000000E+00 -0.41169285212E+02  0.41169285212E+02  0.00000000000E+00 0. -1.
         36    2    1    2    0    0  0.00000000000E+00  0.00000000000E+00  0.42143866582E+03  0.50377723624E+03  0.27600897578E+03 0.  0.
         25    2    3    3    0    0  0.27386216685E+02  0.26218384986E+02  0.13374186840E+03  0.18481244723E+03  0.12178400844E+03 0.  0.
         25    2    3    3    0    0 -0.27386216685E+02 -0.26218384986E+02  0.28769679742E+03  0.31896478902E+03  0.13240725361E+03 0.  0.
          5    1    4    4  502    0 -0.29705164583E+02  0.43903021671E+02  0.21171767281E+02  0.57273081325E+02  0.47000000000E+01 0. -1.
         -5    1    4    4    0  502  0.57091381268E+02 -0.17684636684E+02  0.11257010112E+03  0.12753936590E+03  0.47000000000E+01 0. -1.
          5    1    5    5  503    0  0.24047323740E+01  0.49870613594E+02  0.67814669396E+02  0.84343228675E+02  0.47000000000E+01 0.  1.
         -5    1    5    5    0  503 -0.29790949059E+02 -0.76088998580E+02  0.21988212803E+03  0.23462156034E+03  0.47000000000E+01 0.  1.
<mgrwt>
<rscale>  0 0.27600898E+03</rscale>
<asrwt>0</asrwt>
<pdfrwt beam="1">  1        2 0.63337365E-02 0.27600898E+03</pdfrwt>
<pdfrwt beam="2">  1       -2 0.71170450E-01 0.27600898E+03</pdfrwt>
<totfact> 0.21133870E+03</totfact>
</mgrwt>
</event>
<event>
 9    1  0.2051157E-002  0.2757601E+03  0.7818608E-02  0.1098027E+00
         -1   -1    0    0    0  501 -0.00000000000E+00  0.00000000000E+00  0.41003832016E+02  0.41003832016E+02  0.00000000000E+00 0.  1.
          1   -1    0    0  501    0  0.00000000000E+00 -0.00000000000E+00 -0.46363731938E+03  0.46363731938E+03  0.00000000000E+00 0.  1.
         36    2    1    2    0    0  0.35527136788E-14 -0.71054273576E-14 -0.42263348737E+03  0.50464115140E+03  0.27576008965E+03 0.  0.
         25    2    3    3    0    0  0.82447506220E+01  0.39376678839E+02 -0.29268205935E+03  0.31876864503E+03  0.11971700980E+03 0.  0.
         25    2    3    3    0    0 -0.82447506220E+01 -0.39376678839E+02 -0.12995142801E+03  0.18587250637E+03  0.12665984460E+03 0.  0.
          5    1    4    4  502    0 -0.27765501913E+02  0.63613976428E+02 -0.10415428152E+03  0.12525120938E+03  0.47000000000E+01 0.  1.
         -5    1    4    4    0  502  0.36010252535E+02 -0.24237297589E+02 -0.18852777784E+03  0.19351743564E+03  0.47000000000E+01 0.  1.
          5    1    5    5  503    0 -0.30240384891E+02  0.13952252400E+02 -0.12307427329E+03  0.12758727590E+03  0.47000000000E+01 0. -1.
         -5    1    5    5    0  503  0.21995634270E+02 -0.53328931239E+02 -0.68771547187E+01  0.58285230471E+02  0.47000000000E+01 0. -1.
<mgrwt>
<rscale>  0 0.27576009E+03</rscale>
<asrwt>0</asrwt>
<pdfrwt beam="1">  1        1 0.71328816E-01 0.27576009E+03</pdfrwt>
<pdfrwt beam="2">  1       -1 0.63082820E-02 0.27576009E+03</pdfrwt>
<totfact> 0.61524663E+03</totfact>
</mgrwt>
</event>
<event>
 9    1  0.2051157E-002  0.2753870E+03  0.7818608E-02  0.1098235E+00
         -1   -1    0    0    0  501 -0.00000000000E+00  0.00000000000E+00  0.59056501267E+02  0.59056501267E+02  0.00000000000E+00 0. -1.
          1   -1    0    0  501    0  0.00000000000E+00 -0.00000000000E+00 -0.32103994951E+03  0.32103994951E+03  0.00000000000E+00 0. -1.
         36    2    1    2    0    0  0.00000000000E+00  0.35527136788E-14 -0.26198344824E+03  0.38009645078E+03  0.27538697271E+03 0.  0.
         25    2    3    3    0    0  0.51223983107E+02 -0.22877919905E+02 -0.14110001647E+03  0.19705104111E+03  0.12558902217E+03 0.  0.
         25    2    3    3    0    0 -0.51223983107E+02  0.22877919905E+02 -0.12088343177E+03  0.18304540966E+03  0.12548116296E+03 0.  0.
          5    1    4    4  502    0  0.68087387997E+00 -0.40681063978E+02 -0.13712579371E+03  0.14311179496E+03  0.47000000000E+01 0.  1.
         -5    1    4    4    0  502  0.50543109227E+02  0.17803144073E+02 -0.39742227653E+01  0.53939246156E+02  0.47000000000E+01 0.  1.
          5    1    5    5  503    0 -0.53464294286E+02 -0.43873258205E+02 -0.49527118256E+02  0.85195768626E+02  0.47000000000E+01 0. -1.
         -5    1    5    5    0  503  0.22403111782E+01  0.66751178110E+02 -0.71356313513E+02  0.97849641039E+02  0.47000000000E+01 0. -1.
<mgrwt>
<rscale>  0 0.27538697E+03</rscale>
<asrwt>0</asrwt>
<pdfrwt beam="1">  1        1 0.49390761E-01 0.27538697E+03</pdfrwt>
<pdfrwt beam="2">  1       -1 0.90856157E-02 0.27538697E+03</pdfrwt>
<totfact> 0.56497088E+03</totfact>
</mgrwt>
</event>
<event>
 9    1  0.2051157E-002  0.2747924E+03  0.7818608E-02  0.1098568E+00
         -2   -1    0    0    0  501 -0.00000000000E+00  0.00000000000E+00  0.19668350656E+02  0.19668350656E+02  0.00000000000E+00 0.  1.
          2   -1    0    0  501    0  0.00000000000E+00 -0.00000000000E+00 -0.95980168798E+03  0.95980168798E+03  0.00000000000E+00 0.  1.
         36    2    1    2    0    0  0.71054273576E-14  0.00000000000E+00 -0.94013333733E+03  0.97947003864E+03  0.27479240280E+03 0.  0.
         25    2    3    3    0    0 -0.46719215580E+02  0.24630016960E+02 -0.50789826622E+03  0.52582772658E+03  0.12547839007E+03 0.  0.
         25    2    3    3    0    0  0.46719215580E+02 -0.24630016960E+02 -0.43223507111E+03  0.45364231206E+03  0.12718045350E+03 0.  0.
          5    1    4    4  502    0 -0.82652394374E+02 -0.10832546332E+02 -0.35721302446E+03  0.36684056101E+03  0.47000000000E+01 0.  1.
         -5    1    4    4    0  502  0.35933178794E+02  0.35462563292E+02 -0.15068524175E+03  0.15898716557E+03  0.47000000000E+01 0.  1.
          5    1    5    5  503    0 -0.42032594320E+02 -0.18143399815E+02 -0.19123211260E+03  0.19669197449E+03  0.47000000000E+01 0. -1.
         -5    1    5    5    0  503  0.88751809900E+02 -0.64866171455E+01 -0.24100295851E+03  0.25695033757E+03  0.47000000000E+01 0. -1.
<mgrwt>
<rscale>  0 0.27479240E+03</rscale>
<asrwt>0</asrwt>
<pdfrwt beam="1">  1        2 0.14766181E+00 0.27479240E+03</pdfrwt>
<pdfrwt beam="2">  1       -2 0.30258999E-02 0.27479240E+03</pdfrwt>
<totfact> 0.11599841E+04</totfact>
</mgrwt>
</event>
<event>
 9    1  0.2051157E-002  0.2772337E+03  0.7818608E-02  0.1097209E+00
         -1   -1    0    0    0  501 -0.00000000000E+00  0.00000000000E+00  0.35918854582E+02  0.35918854582E+02  0.00000000000E+00 0.  1.
          1   -1    0    0  501    0  0.00000000000E+00 -0.00000000000E+00 -0.53494555382E+03  0.53494555382E+03  0.00000000000E+00 0.  1.
         36    2    1    2    0    0  0.00000000000E+00  0.00000000000E+00 -0.49902669924E+03  0.57086440840E+03  0.27723370327E+03 0.  0.
         25    2    3    3    0    0 -0.25003013738E+02  0.46945869726E+02 -0.20455338554E+03  0.24577993234E+03  0.12544569433E+03 0.  0.
         25    2    3    3    0    0  0.25003013738E+02 -0.46945869726E+02 -0.29447331370E+03  0.32508447606E+03  0.12702881056E+03 0.  0.
          5    1    4    4  502    0 -0.16816642317E+02  0.90112287481E+02 -0.13054212517E+03  0.15958182935E+03  0.47000000000E+01 0.  1.
         -5    1    4    4    0  502 -0.81863714212E+01 -0.43166417754E+02 -0.74011260371E+02  0.86198102998E+02  0.47000000000E+01 0.  1.
          5    1    5    5  503    0 -0.85270149867E+01 -0.24559319790E+02 -0.28111440930E+03  0.28235309683E+03  0.47000000000E+01 0.  1.
         -5    1    5    5    0  503  0.33530028725E+02 -0.22386549937E+02 -0.13358904403E+02  0.42731379234E+02  0.47000000000E+01 0.  1.
<mgrwt>
<rscale>  0 0.27723370E+03</rscale>
<asrwt>0</asrwt>
<pdfrwt beam="1">  1        1 0.82299313E-01 0.27723370E+03</pdfrwt>
<pdfrwt beam="2">  1       -1 0.55259778E-02 0.27723370E+03</pdfrwt>
<totfact> 0.62126537E+03</totfact>
</mgrwt>
</event>
<event>
 9    1  0.2051157E-002  0.2751309E+03  0.7818608E-02  0.1098378E+00
         -2   -1    0    0    0  501 -0.00000000000E+00  0.00000000000E+00  0.90330486340E+01  0.90330486340E+01  0.00000000000E+00 0.  1.
          2   -1    0    0  501    0  0.00000000000E+00 -0.00000000000E+00 -0.20950011022E+04  0.20950011022E+04  0.00000000000E+00 0.  1.
         36    2    1    2    0    0  0.00000000000E+00  0.00000000000E+00 -0.20859680536E+04  0.21040341509E+04  0.27513085501E+03 0.  0.
         25    2    3    3    0    0 -0.21591465120E+02 -0.34741585460E+02 -0.12885228148E+04  0.12956036583E+04  0.12893651948E+03 0.  0.
         25    2    3    3    0    0  0.21591465120E+02  0.34741585460E+02 -0.79744523886E+03  0.80843049261E+03  0.12636369446E+03 0.  0.
          5    1    4    4  502    0  0.32760240802E+02  0.74056908555E+01 -0.11101993230E+03  0.11608442188E+03  0.47000000000E+01 0. -1.
         -5    1    4    4    0  502 -0.54351705922E+02 -0.42147276316E+02 -0.11775028824E+04  0.11795192364E+04  0.47000000000E+01 0. -1.
          5    1    5    5  503    0  0.36022033432E+02  0.33497891901E+02 -0.10745680389E+03  0.11827404769E+03  0.47000000000E+01 0. -1.
         -5    1    5    5    0  503 -0.14430568312E+02  0.12436935590E+01 -0.68998843497E+03  0.69015644492E+03  0.47000000000E+01 0. -1.
<mgrwt>
<rscale>  0 0.27513086E+03</rscale>
<asrwt>0</asrwt>
<pdfrwt beam="1">  1        2 0.32230817E+00 0.27513086E+03</pdfrwt>
<pdfrwt beam="2">  1       -2 0.13896984E-02 0.27513086E+03</pdfrwt>
<totfact> 0.87336333E+03</totfact>
</mgrwt>
</event>
<event>
 9    1  0.2051157E-002  0.2748442E+03  0.7818608E-02  0.1098539E+00
         -1   -1    0    0    0  501 -0.00000000000E+00  0.00000000000E+00  0.24037961127E+02  0.24037961127E+02  0.00000000000E+00 0. -1.
          1   -1    0    0  501    0  0.00000000000E+00 -0.00000000000E+00 -0.78562549963E+03  0.78562549963E+03  0.00000000000E+00 0. -1.
         36    2    1    2    0    0  0.35527136788E-14 -0.71054273576E-14 -0.76158753850E+03  0.80966346076E+03  0.27484421202E+03 0.  0.
         25    2    3    3    0    0 -0.10939062517E+02  0.50478610472E+02 -0.31909672343E+03  0.34567191863E+03  0.12246878471E+03 0.  0.
         25    2    3    3    0    0  0.10939062517E+02 -0.50478610472E+02 -0.44249081508E+03  0.46399154212E+03  0.12970071908E+03 0.  0.
          5    1    4    4  502    0  0.59636354883E+01  0.88744612319E+02 -0.24134105197E+03  0.25725233630E+03  0.47000000000E+01 0.  1.
         -5    1    4    4    0  502 -0.16902698005E+02 -0.38266001847E+02 -0.77755671452E+02  0.88419582334E+02  0.47000000000E+01 0.  1.
          5    1    5    5  503    0 -0.28971117006E+02 -0.79622468986E+02 -0.21486098819E+03  0.23101168246E+03  0.47000000000E+01 0.  1.
         -5    1    5    5    0  503  0.39910179523E+02  0.29143858514E+02 -0.22762982688E+03  0.23297985966E+03  0.47000000000E+01 0.  1.
<mgrwt>
<rscale>  0 0.27484421E+03</rscale>
<asrwt>0</asrwt>
<pdfrwt beam="1">  1        1 0.12086543E+00 0.27484421E+03</pdfrwt>
<pdfrwt beam="2">  1       -1 0.36981488E-02 0.27484421E+03</pdfrwt>
<totfact> 0.65377542E+03</totfact>
</mgrwt>
</event>
<event>
 9    1  0.2051157E-002  0.2748216E+03  0.7818608E-02  0.1098551E+00
          2   -1    0    0  501    0  0.00000000000E+00  0.00000000000E+00  0.89449265514E+03  0.89449265514E+03  0.00000000000E+00 0. -1.
         -2   -1    0    0    0  501 -0.00000000000E+00 -0.00000000000E+00 -0.21108872312E+02  0.21108872312E+02  0.00000000000E+00 0. -1.
         36    2    1    2    0    0  0.00000000000E+00  0.00000000000E+00  0.87338378283E+03  0.91560152746E+03  0.27482162391E+03 0.  0.
         25    2    3    3    0    0  0.45276661290E+02  0.34487652245E+02  0.49303845189E+03  0.51098185514E+03  0.12155725824E+03 0.  0.
         25    2    3    3    0    0 -0.45276661290E+02 -0.34487652245E+02  0.38034533095E+03  0.40461967231E+03  0.12575823725E+03 0.  0.
          5    1    4    4  502    0  0.58962786829E+02 -0.24786950170E+02  0.34417440454E+03  0.35009872018E+03  0.47000000000E+01 0. -1.
         -5    1    4    4    0  502 -0.13686125539E+02  0.59274602415E+02  0.14886404734E+03  0.16088313496E+03  0.47000000000E+01 0. -1.
          5    1    5    5  503    0  0.17643010815E+02 -0.17197967796E+02  0.29982667056E+03  0.30087400736E+03  0.47000000000E+01 0.  1.
         -5    1    5    5    0  503 -0.62919672105E+02 -0.17289684450E+02  0.80518660389E+02  0.10374566495E+03  0.47000000000E+01 0.  1.
<mgrwt>
<rscale>  0 0.27482162E+03</rscale>
<asrwt>0</asrwt>
<pdfrwt beam="1">  1        2 0.13761423E+00 0.27482162E+03</pdfrwt>
<pdfrwt beam="2">  1       -2 0.32475195E-02 0.27482162E+03</pdfrwt>
<totfact> 0.11487974E+04</totfact>
</mgrwt>
</event>
<event>
 9    1  0.2051157E-002  0.2776376E+03  0.7818608E-02  0.1096986E+00
          2   -1    0    0  501    0  0.00000000000E+00  0.00000000000E+00  0.20571317934E+02  0.20571317934E+02  0.00000000000E+00 0.  1.
         -2   -1    0    0    0  501 -0.00000000000E+00 -0.00000000000E+00 -0.93677316520E+03  0.93677316520E+03  0.00000000000E+00 0.  1.
         36    2    1    2    0    0  0.71054273576E-14 -0.88817841970E-15 -0.91620184727E+03  0.95734448314E+03  0.27763759553E+03 0.  0.
         25    2    3    3    0    0 -0.26911286764E+02  0.46367922064E+01 -0.62905283488E+03  0.64239354606E+03  0.12734316531E+03 0.  0.
         25    2    3    3    0    0  0.26911286764E+02 -0.46367922064E+01 -0.28714901239E+03  0.31495093708E+03  0.12646667645E+03 0.  0.
          5    1    4    4  502    0  0.16172243330E+02  0.64479934580E-01 -0.60907710584E+01  0.17909022979E+02  0.47000000000E+01 0.  1.
         -5    1    4    4    0  502 -0.43083530094E+02  0.45723122719E+01 -0.62296206382E+03  0.62448452308E+03  0.47000000000E+01 0.  1.
          5    1    5    5  503    0  0.57471810731E+02 -0.17915484305E+02 -0.59304961973E+02  0.84635347942E+02  0.47000000000E+01 0.  1.
         -5    1    5    5    0  503 -0.30560523967E+02  0.13278692098E+02 -0.22784405042E+03  0.23031558914E+03  0.47000000000E+01 0.  1.
<mgrwt>
<rscale>  0 0.27763760E+03</rscale>
<asrwt>0</asrwt>
<pdfrwt beam="1">  1        2 0.31648188E-02 0.27763760E+03</pdfrwt>
<pdfrwt beam="2">  1       -2 0.14411892E+00 0.27763760E+03</pdfrwt>
<totfact> 0.10242343E+03</totfact>
</mgrwt>
</event>
<event>
 9    1  0.2051157E-002  0.2757670E+03  0.7818608E-02  0.1098024E+00
         -2   -1    0    0    0  501 -0.00000000000E+00  0.00000000000E+00  0.30168859414E+02  0.30168859414E+02  0.00000000000E+00 0. -1.
          2   -1    0    0  501    0  0.00000000000E+00 -0.00000000000E+00 -0.63018164822E+03  0.63018164822E+03  0.00000000000E+00 0. -1.
         36    2    1    2    0    0  0.14210854715E-13 -0.35527136788E-14 -0.60001278881E+03  0.66035050764E+03  0.27576701435E+03 0.  0.
         25    2    3    3    0    0  0.45872125030E+02 -0.16564906707E+02 -0.23445025678E+03  0.27092040466E+03  0.12669765100E+03 0.  0.
         25    2    3    3    0    0 -0.45872125030E+02  0.16564906707E+02 -0.36556253203E+03  0.38943010298E+03  0.12506475240E+03 0.  0.
          5    1    4    4  502    0  0.52727359593E+02 -0.66513638789E+02 -0.15232370722E+03  0.17443864358E+03  0.47000000000E+01 0.  1.
         -5    1    4    4    0  502 -0.68552345631E+01  0.49948732083E+02 -0.82126549562E+02  0.96481761077E+02  0.47000000000E+01 0.  1.
          5    1    5    5  503    0  0.30770760190E+02 -0.19715388441E+02 -0.19989987070E+03  0.20326727363E+03  0.47000000000E+01 0. -1.
         -5    1    5    5    0  503 -0.76642885221E+02  0.36280295148E+02 -0.16566266133E+03  0.18616282934E+03  0.47000000000E+01 0. -1.
<mgrwt>
<rscale>  0 0.27576701E+03</rscale>
<asrwt>0</asrwt>
<pdfrwt beam="1">  1        2 0.96951021E-01 0.27576701E+03</pdfrwt>
<pdfrwt beam="2">  1       -2 0.46413631E-02 0.27576701E+03</pdfrwt>
<totfact> 0.10397643E+04</totfact>
</mgrwt>
</event>
<event>
 9    1  0.2051157E-002  0.2738978E+03  0.7818608E-02  0.1099069E+00
         -2   -1    0    0    0  501 -0.00000000000E+00  0.00000000000E+00  0.14739520403E+02  0.14739520403E+02  0.00000000000E+00 0.  1.
          2   -1    0    0  501    0  0.00000000000E+00 -0.00000000000E+00 -0.12724298033E+04  0.12724298033E+04  0.00000000000E+00 0.  1.
         36    2    1    2    0    0  0.88817841970E-15  0.00000000000E+00 -0.12576902829E+04  0.12871693237E+04  0.27389782800E+03 0.  0.
         25    2    3    3    0    0 -0.37115945330E+01  0.66919139206E+02 -0.49111847000E+03  0.51145103407E+03  0.12606689313E+03 0.  0.
         25    2    3    3    0    0  0.37115945330E+01 -0.66919139206E+02 -0.76657181288E+03  0.77571828962E+03  0.98053931202E+02 0.  0.
          5    1    4    4  502    0 -0.36597028840E+00  0.73200866539E+02 -0.12284345529E+03  0.14307727040E+03  0.47000000000E+01 0.  1.
         -5    1    4    4    0  502 -0.33456242446E+01 -0.62817273334E+01 -0.36827501471E+03  0.36837376367E+03  0.47000000000E+01 0.  1.
          5    1    5    5  503    0  0.21513496118E+02 -0.11079868749E+02 -0.41521356245E+02  0.48287752393E+02  0.47000000000E+01 0.  1.
         -5    1    5    5    0  503 -0.17801901585E+02 -0.55839270457E+02 -0.72505045663E+03  0.72743053722E+03  0.47000000000E+01 0.  1.
<mgrwt>
<rscale>  0 0.27389783E+03</rscale>
<asrwt>0</asrwt>
<pdfrwt beam="1">  1        2 0.19575845E+00 0.27389783E+03</pdfrwt>
<pdfrwt beam="2">  1       -2 0.22676184E-02 0.27389783E+03</pdfrwt>
<totfact> 0.11662639E+04</totfact>
</mgrwt>
</event>
<event>
 9    1  0.2051157E-002  0.2748559E+03  0.7818608E-02  0.1098532E+00
          4   -1    0    0  501    0  0.00000000000E+00  0.00000000000E+00  0.16317363568E+03  0.16317363568E+03  0.00000000000E+00 0. -1.
         -4   -1    0    0    0  501 -0.00000000000E+00 -0.00000000000E+00 -0.11574447750E+03  0.11574447750E+03  0.00000000000E+00 0. -1.
         36    2    1    2    0    0  0.35527136788E-14  0.71054273576E-14  0.47429158180E+02  0.27891811317E+03  0.27485594192E+03 0.  0.
         25    2    3    3    0    0  0.49851855175E+01 -0.23725784842E+02  0.80330768068E+02  0.14697103147E+03  0.12066352743E+03 0.  0.
         25    2    3    3    0    0 -0.49851855175E+01  0.23725784842E+02 -0.32901609887E+02  0.13194708171E+03  0.12545816632E+03 0.  0.
          5    1    4    4  502    0  0.34783813641E+02  0.11833864792E+02 -0.15689057648E+02  0.40226739580E+02  0.47000000000E+01 0. -1.
         -5    1    4    4    0  502 -0.29798628124E+02 -0.35559649633E+02  0.96019825715E+02  0.10674429189E+03  0.47000000000E+01 0. -1.
          5    1    5    5  503    0 -0.46969914743E+02  0.51763737056E+02 -0.40122016027E+02  0.80731180687E+02  0.47000000000E+01 0.  1.
         -5    1    5    5    0  503  0.41984729226E+02 -0.28037952215E+02  0.72204061400E+01  0.51215901021E+02  0.47000000000E+01 0.  1.
<mgrwt>
<rscale>  0 0.27485594E+03</rscale>
<asrwt>0</asrwt>
<pdfrwt beam="1">  1        4 0.25103636E-01 0.27485594E+03</pdfrwt>
<pdfrwt beam="2">  1       -4 0.17806843E-01 0.27485594E+03</pdfrwt>
<totfact> 0.77529323E+02</totfact>
</mgrwt>
</event>
<event>
 9    1  0.2051157E-002  0.2748632E+03  0.7818608E-02  0.1098528E+00
          2   -1    0    0  501    0  0.00000000000E+00  0.00000000000E+00  0.18209883573E+02  0.18209883573E+02  0.00000000000E+00 0. -1.
         -2   -1    0    0    0  501 -0.00000000000E+00 -0.00000000000E+00 -0.10372083030E+04  0.10372083030E+04  0.00000000000E+00 0. -1.
         36    2    1    2    0    0  0.17763568394E-14  0.00000000000E+00 -0.10189984195E+04  0.10554181866E+04  0.27486318371E+03 0.  0.
         25    2    3    3    0    0 -0.12407253454E+02 -0.52537132556E+02 -0.65995934496E+03  0.67429857112E+03  0.12735044473E+03 0.  0.
         25    2    3    3    0    0  0.12407253454E+02  0.52537132556E+02 -0.35903907450E+03  0.38111961549E+03  0.11588362291E+03 0.  0.
          5    1    4    4  502    0  0.50452661237E+01 -0.46418660679E+02 -0.65189618202E+03  0.65358310022E+03  0.47000000000E+01 0. -1.
         -5    1    4    4    0  502 -0.17452519578E+02 -0.61184718779E+01 -0.80631629467E+01  0.20715470896E+02  0.47000000000E+01 0. -1.
          5    1    5    5  503    0 -0.21821772584E+02  0.62829548081E+02 -0.32420026916E+03  0.33098587038E+03  0.47000000000E+01 0. -1.
         -5    1    5    5    0  503  0.34229026038E+02 -0.10292415525E+02 -0.34838805343E+02  0.50133745109E+02  0.47000000000E+01 0. -1.
<mgrwt>
<rscale>  0 0.27486318E+03</rscale>
<asrwt>0</asrwt>
<pdfrwt beam="1">  1        2 0.28015203E-02 0.27486318E+03</pdfrwt>
<pdfrwt beam="2">  1       -2 0.15957052E+00 0.27486318E+03</pdfrwt>
<totfact> 0.92810180E+02</totfact>
</mgrwt>
</event>
<event>
 9    1  0.2051157E-002  0.2748752E+03  0.7818608E-02  0.1098521E+00
          1   -1    0    0  501    0  0.00000000000E+00  0.00000000000E+00  0.47770455245E+03  0.47770455245E+03  0.00000000000E+00 0. -1.
         -1   -1    0    0    0  501 -0.00000000000E+00 -0.00000000000E+00 -0.39541365714E+02  0.39541365714E+02  0.00000000000E+00 0. -1.
         36    2    1    2    0    0  0.00000000000E+00  0.88817841970E-15  0.43816318674E+03  0.51724591817E+03  0.27487517466E+03 0.  0.
         25    2    3    3    0    0  0.59276975110E+01  0.42281889205E+01  0.83079490855E+02  0.15110726995E+03  0.12600869039E+03 0.  0.
         25    2    3    3    0    0 -0.59276975110E+01 -0.42281889205E+01  0.35508369588E+03  0.36613864821E+03  0.88994738345E+02 0.  0.
          5    1    4    4  502    0  0.60396870957E+02  0.97975221434E+01  0.14193862632E+02  0.62986738270E+02  0.47000000000E+01 0. -1.
         -5    1    4    4    0  502 -0.54469173446E+02 -0.55693332229E+01  0.68885628224E+02  0.88120531683E+02  0.47000000000E+01 0. -1.
          5    1    5    5  503    0  0.37247683717E+02 -0.20042860555E+02  0.18989556801E+03  0.19460607121E+03  0.47000000000E+01 0.  1.
         -5    1    5    5    0  503 -0.43175381228E+02  0.15814671634E+02  0.16518812787E+03  0.17153257700E+03  0.47000000000E+01 0.  1.
<mgrwt>
<rscale>  0 0.27487517E+03</rscale>
<asrwt>0</asrwt>
<pdfrwt beam="1">  1        1 0.73493004E-01 0.27487517E+03</pdfrwt>
<pdfrwt beam="2">  1       -1 0.60832874E-02 0.27487517E+03</pdfrwt>
<totfact> 0.62485315E+03</totfact>
</mgrwt>
</event>
<event>
 9    1  0.2051157E-002  0.2751726E+03  0.7818608E-02  0.1098355E+00
          1   -1    0    0  501    0  0.00000000000E+00  0.00000000000E+00  0.91317987929E+02  0.91317987929E+02  0.00000000000E+00 0.  1.
         -1   -1    0    0    0  501 -0.00000000000E+00 -0.00000000000E+00 -0.20729744303E+03  0.20729744303E+03  0.00000000000E+00 0.  1.
         36    2    1    2    0    0  0.00000000000E+00  0.71054273576E-14 -0.11597945510E+03  0.29861543096E+03  0.27517256695E+03 0.  0.
         25    2    3    3    0    0  0.41388761785E+02 -0.19902761054E+02 -0.98994327272E+01  0.13146626730E+03  0.12278530518E+03 0.  0.
         25    2    3    3    0    0 -0.41388761785E+02  0.19902761054E+02 -0.10608002238E+03  0.16714916366E+03  0.12073409736E+03 0.  0.
          5    1    4    4  502    0  0.54182593943E+02  0.41339797489E+02 -0.35797982586E+01  0.68407874535E+02  0.47000000000E+01 0.  1.
         -5    1    4    4    0  502 -0.12793832157E+02 -0.61242558543E+02 -0.63196344686E+01  0.63058392764E+02  0.47000000000E+01 0.  1.
          5    1    5    5  503    0  0.10333084439E+02 -0.25358493702E+02 -0.92957341452E+02  0.97020529614E+02  0.47000000000E+01 0. -1.
         -5    1    5    5    0  503 -0.51721846224E+02  0.45261254756E+02 -0.13122680925E+02  0.70128634049E+02  0.47000000000E+01 0. -1.
<mgrwt>
<rscale>  0 0.27517257E+03</rscale>
<asrwt>0</asrwt>
<pdfrwt beam="1">  1        1 0.14048921E-01 0.27517257E+03</pdfrwt>
<pdfrwt beam="2">  1       -1 0.31891914E-01 0.27517257E+03</pdfrwt>
<totfact> 0.37182675E+03</totfact>
</mgrwt>
</event>
<event>
 9    1  0.2051157E-002  0.2762258E+03  0.7818608E-02  0.1097768E+00
         -1   -1    0    0    0  501 -0.00000000000E+00  0.00000000000E+00  0.12631649914E+02  0.12631649914E+02  0.00000000000E+00 0.  1.
          1   -1    0    0  501    0  0.00000000000E+00 -0.00000000000E+00 -0.15101093525E+04  0.15101093525E+04  0.00000000000E+00 0.  1.
         36    2    1    2    0    0  0.00000000000E+00  0.00000000000E+00 -0.14974777026E+04  0.15227410024E+04  0.27622579656E+03 0.  0.
         25    2    3    3    0    0 -0.19959858433E+01  0.34025482023E+02 -0.48045177336E+03  0.49807045663E+03  0.12680124547E+03 0.  0.
         25    2    3    3    0    0  0.19959858433E+01 -0.34025482023E+02 -0.10170259292E+04  0.10246705458E+04  0.12019263413E+03 0.  0.
          5    1    4    4  502    0  0.44753515494E+02  0.52572287385E+02 -0.17014937114E+03  0.18368348061E+03  0.47000000000E+01 0.  1.
         -5    1    4    4    0  502 -0.46749501337E+02 -0.18546805362E+02 -0.31030240222E+03  0.31438697602E+03  0.47000000000E+01 0.  1.
          5    1    5    5  503    0  0.41395078978E+02 -0.63177021886E+02 -0.62486329107E+03  0.62942919474E+03  0.47000000000E+01 0. -1.
         -5    1    5    5    0  503 -0.39399093134E+02  0.29151539863E+02 -0.39216263813E+03  0.39524135103E+03  0.47000000000E+01 0. -1.
<mgrwt>
<rscale>  0 0.27622580E+03</rscale>
<asrwt>0</asrwt>
<pdfrwt beam="1">  1        1 0.23232437E+00 0.27622580E+03</pdfrwt>
<pdfrwt beam="2">  1       -1 0.19433320E-02 0.27622580E+03</pdfrwt>
<totfact> 0.50398587E+03</totfact>
</mgrwt>
</event>
<event>
 9    1  0.2051157E-002  0.2749005E+03  0.7818608E-02  0.1098507E+00
         -2   -1    0    0    0  501 -0.00000000000E+00  0.00000000000E+00  0.26953929861E+02  0.26953929861E+02  0.00000000000E+00 0. -1.
          2   -1    0    0  501    0  0.00000000000E+00 -0.00000000000E+00 -0.70092103780E+03  0.70092103780E+03  0.00000000000E+00 0. -1.
         36    2    1    2    0    0 -0.71054273576E-14  0.00000000000E+00 -0.67396710793E+03  0.72787496766E+03  0.27490053831E+03 0.  0.
         25    2    3    3    0    0  0.42604661149E+02  0.35989481722E+02 -0.29138784207E+03  0.32138318882E+03  0.12357135429E+03 0.  0.
         25    2    3    3    0    0 -0.42604661149E+02 -0.35989481722E+02 -0.38257926586E+03  0.40649177884E+03  0.12553195469E+03 0.  0.
          5    1    4    4  502    0  0.73914245637E+02  0.60120209567E+02 -0.21612623341E+03  0.23624223600E+03  0.47000000000E+01 0. -1.
         -5    1    4    4    0  502 -0.31309584488E+02 -0.24130727845E+02 -0.75261608664E+02  0.85140952813E+02  0.47000000000E+01 0. -1.
          5    1    5    5  503    0 -0.81656171887E+02 -0.34580153372E+02 -0.18728627654E+03  0.20727218047E+03  0.47000000000E+01 0.  1.
         -5    1    5    5    0  503  0.39051510738E+02 -0.14093283502E+01 -0.19529298932E+03  0.19921959837E+03  0.47000000000E+01 0.  1.
<mgrwt>
<rscale>  0 0.27490054E+03</rscale>
<asrwt>0</asrwt>
<pdfrwt beam="1">  1        2 0.10783400E+00 0.27490054E+03</pdfrwt>
<pdfrwt beam="2">  1       -2 0.41467586E-02 0.27490054E+03</pdfrwt>
<totfact> 0.10854321E+04</totfact>
</mgrwt>
</event>
<event>
 9    1  0.2051157E-002  0.2733587E+03  0.7818608E-02  0.1099373E+00
         -2   -1    0    0    0  501 -0.00000000000E+00  0.00000000000E+00  0.29799136913E+02  0.29799136913E+02  0.00000000000E+00 0. -1.
          2   -1    0    0  501    0  0.00000000000E+00 -0.00000000000E+00 -0.62690539640E+03  0.62690539640E+03  0.00000000000E+00 0. -1.
         36    2    1    2    0    0 -0.35527136788E-14  0.00000000000E+00 -0.59710625949E+03  0.65670453331E+03  0.27335866358E+03 0.  0.
         25    2    3    3    0    0 -0.19827435813E+02 -0.68116316240E+01 -0.22704287728E+03  0.26098196108E+03  0.12697870039E+03 0.  0.
         25    2    3    3    0    0  0.19827435813E+02  0.68116316240E+01 -0.37006338221E+03  0.39572257223E+03  0.13859986213E+03 0.  0.
          5    1    4    4  502    0  0.38672134072E+01 -0.60021863443E+02 -0.16532228722E+03  0.17598615878E+03  0.47000000000E+01 0.  1.
         -5    1    4    4    0  502 -0.23694649220E+02  0.53210231819E+02 -0.61720590053E+02  0.84995802298E+02  0.47000000000E+01 0.  1.
          5    1    5    5  503    0  0.32945393291E+02 -0.61354423379E+02 -0.16418808319E+03  0.17840846636E+03  0.47000000000E+01 0. -1.
         -5    1    5    5    0  503 -0.13117957478E+02  0.68166055003E+02 -0.20587529902E+03  0.21731410587E+03  0.47000000000E+01 0. -1.
<mgrwt>
<rscale>  0 0.27335866E+03</rscale>
<asrwt>0</asrwt>
<pdfrwt beam="1">  1        2 0.96446978E-01 0.27335866E+03</pdfrwt>
<pdfrwt beam="2">  1       -2 0.45844829E-02 0.27335866E+03</pdfrwt>
<totfact> 0.10655153E+04</totfact>
</mgrwt>
</event>
<event>
 9    1  0.2051157E-002  0.2753136E+03  0.7818608E-02  0.1098276E+00
         -2   -1    0    0    0  501 -0.00000000000E+00  0.00000000000E+00  0.96124805788E+02  0.96124805788E+02  0.00000000000E+00 0. -1.
          2   -1    0    0  501    0  0.00000000000E+00 -0.00000000000E+00 -0.19713324978E+03  0.19713324978E+03  0.00000000000E+00 0. -1.
         36    2    1    2    0    0  0.00000000000E+00 -0.71054273576E-14 -0.10100844399E+03  0.29325805557E+03  0.27531360555E+03 0.  0.
         25    2    3    3    0    0 -0.43607871984E+02 -0.21829517084E+02 -0.71046537927E+02  0.15541250075E+03  0.12933391095E+03 0.  0.
         25    2    3    3    0    0  0.43607871984E+02  0.21829517084E+02 -0.29961906067E+02  0.13784555482E+03  0.12540138298E+03 0.  0.
          5    1    4    4  502    0  0.26624294838E+02 -0.52992743298E+02 -0.43320589843E+02  0.73592441339E+02  0.47000000000E+01 0. -1.
         -5    1    4    4    0  502 -0.70232166823E+02  0.31163226214E+02 -0.27725948084E+02  0.81820059410E+02  0.47000000000E+01 0. -1.
          5    1    5    5  503    0 -0.18428692945E+02  0.34626800304E+02 -0.56554567525E+02  0.68986528619E+02  0.47000000000E+01 0. -1.
         -5    1    5    5    0  503  0.62036564929E+02 -0.12797283220E+02  0.26592661459E+02  0.68859026202E+02  0.47000000000E+01 0. -1.
<mgrwt>
<rscale>  0 0.27531361E+03</rscale>
<asrwt>0</asrwt>
<pdfrwt beam="1">  1        2 0.30328192E-01 0.27531361E+03</pdfrwt>
<pdfrwt beam="2">  1       -2 0.14788432E-01 0.27531361E+03</pdfrwt>
<totfact> 0.60281186E+03</totfact>
</mgrwt>
</event>
<event>
 9    1  0.2051157E-002  0.2747882E+03  0.7818608E-02  0.1098570E+00
         -2   -1    0    0    0  501 -0.00000000000E+00  0.00000000000E+00  0.79864524961E+01  0.79864524961E+01  0.00000000000E+00 0.  1.
          2   -1    0    0  501    0  0.00000000000E+00 -0.00000000000E+00 -0.23636446604E+04  0.23636446604E+04  0.00000000000E+00 0.  1.
         36    2    1    2    0    0 -0.71054273576E-14  0.00000000000E+00 -0.23556582079E+04  0.23716311129E+04  0.27478817877E+03 0.  0.
         25    2    3    3    0    0 -0.52120662899E+02  0.14987828450E+02 -0.11412514934E+04  0.11495442017E+04  0.12671109622E+03 0.  0.
         25    2    3    3    0    0  0.52120662899E+02 -0.14987828450E+02 -0.12144067146E+04  0.12220869113E+04  0.12558483927E+03 0.  0.
          5    1    4    4  502    0 -0.40645228608E+02 -0.41245747938E+02 -0.88487755615E+03  0.88678273873E+03  0.47000000000E+01 0.  1.
         -5    1    4    4    0  502 -0.11475434291E+02  0.56233576388E+02 -0.25637393724E+03  0.26276146293E+03  0.47000000000E+01 0.  1.
          5    1    5    5  503    0 -0.10213551659E+02 -0.57853996324E+02 -0.42861624571E+03  0.43264925473E+03  0.47000000000E+01 0. -1.
         -5    1    5    5    0  503  0.62334214558E+02  0.42866167873E+02 -0.78579046885E+03  0.78943765655E+03  0.47000000000E+01 0. -1.
<mgrwt>
<rscale>  0 0.27478818E+03</rscale>
<asrwt>0</asrwt>
<pdfrwt beam="1">  1        2 0.36363776E+00 0.27478818E+03</pdfrwt>
<pdfrwt beam="2">  1       -2 0.12286846E-02 0.27478818E+03</pdfrwt>
<totfact> 0.75148495E+03</totfact>
</mgrwt>
</event>
<event>
 9    1  0.2051157E-002  0.2748238E+03  0.7818608E-02  0.1098550E+00
         -1   -1    0    0    0  501 -0.00000000000E+00  0.00000000000E+00  0.41094273890E+02  0.41094273890E+02  0.00000000000E+00 0.  1.
          1   -1    0    0  501    0  0.00000000000E+00 -0.00000000000E+00 -0.45948075023E+03  0.45948075023E+03  0.00000000000E+00 0.  1.
         36    2    1    2    0    0  0.00000000000E+00  0.00000000000E+00 -0.41838647634E+03  0.50057502412E+03  0.27482378206E+03 0.  0.
         25    2    3    3    0    0  0.18902472038E+02 -0.26548506258E+02 -0.10336626829E+03  0.16040838260E+03  0.11825454390E+03 0.  0.
         25    2    3    3    0    0 -0.18902472038E+02  0.26548506258E+02 -0.31502020804E+03  0.34016664152E+03  0.12415106078E+03 0.  0.
          5    1    4    4  502    0  0.13216145617E+02  0.33143113960E+02  0.51331266924E+01  0.36353424839E+02  0.47000000000E+01 0.  1.
         -5    1    4    4    0  502  0.56863264216E+01 -0.59691620218E+02 -0.10849939499E+03  0.12405495776E+03  0.47000000000E+01 0.  1.
          5    1    5    5  503    0 -0.14941851293E+02  0.21998192572E+02 -0.20280068481E+01  0.27081030414E+02  0.47000000000E+01 0. -1.
         -5    1    5    5    0  503 -0.39606207455E+01  0.45503136856E+01 -0.31299220120E+03  0.31308561110E+03  0.47000000000E+01 0. -1.
<mgrwt>
<rscale>  0 0.27482378E+03</rscale>
<asrwt>0</asrwt>
<pdfrwt beam="1">  1        1 0.70689351E-01 0.27482378E+03</pdfrwt>
<pdfrwt beam="2">  1       -1 0.63221956E-02 0.27482378E+03</pdfrwt>
<totfact> 0.62040755E+03</totfact>
</mgrwt>
</event>
<event>
 9    1  0.2051157E-002  0.2785662E+03  0.7818608E-02  0.1096475E+00
         -1   -1    0    0    0  501 -0.00000000000E+00  0.00000000000E+00  0.14511902777E+03  0.14511902777E+03  0.00000000000E+00 0. -1.
          1   -1    0    0  501    0  0.00000000000E+00 -0.00000000000E+00 -0.13368187425E+03  0.13368187425E+03  0.00000000000E+00 0. -1.
         36    2    1    2    0    0  0.00000000000E+00  0.00000000000E+00  0.11437153522E+02  0.27880090202E+03  0.27856621203E+03 0.  0.
         25    2    3    3    0    0 -0.44461102048E+02  0.22697277136E+02 -0.23114786688E+02  0.13766628777E+03  0.12619729569E+03 0.  0.
         25    2    3    3    0    0  0.44461102048E+02 -0.22697277136E+02  0.34551940209E+02  0.14113461425E+03  0.12740952391E+03 0.  0.
          5    1    4    4  502    0  0.24015653840E+02  0.53018271105E+02  0.23104759040E+01  0.58439002380E+02  0.47000000000E+01 0. -1.
         -5    1    4    4    0  502 -0.68476755887E+02 -0.30320993968E+02 -0.25425262592E+02  0.79227285388E+02  0.47000000000E+01 0. -1.
          5    1    5    5  503    0 -0.23268116487E+02 -0.47583049431E+02 -0.12807831414E+02  0.54696273945E+02  0.47000000000E+01 0. -1.
         -5    1    5    5    0  503  0.67729218535E+02  0.24885772295E+02  0.47359771623E+02  0.86438340302E+02  0.47000000000E+01 0. -1.
<mgrwt>
<rscale>  0 0.27856621E+03</rscale>
<asrwt>0</asrwt>
<pdfrwt beam="1">  1        1 0.20566442E-01 0.27856621E+03</pdfrwt>
<pdfrwt beam="2">  1       -1 0.22326004E-01 0.27856621E+03</pdfrwt>
<totfact> 0.41186341E+03</totfact>
</mgrwt>
</event>
<event>
 9    1  0.2051157E-002  0.2751756E+03  0.7818608E-02  0.1098354E+00
         -1   -1    0    0    0  501 -0.00000000000E+00  0.00000000000E+00  0.23186172590E+02  0.23186172590E+02  0.00000000000E+00 0.  1.
          1   -1    0    0  501    0  0.00000000000E+00 -0.00000000000E+00 -0.81645197487E+03  0.81645197487E+03  0.00000000000E+00 0.  1.
         36    2    1    2    0    0  0.00000000000E+00 -0.35527136788E-14 -0.79326580228E+03  0.83963814746E+03  0.27517555415E+03 0.  0.
         25    2    3    3    0    0  0.45145745210E+02 -0.54829404529E+01 -0.31191607685E+03  0.33963501402E+03  0.12645988613E+03 0.  0.
         25    2    3    3    0    0 -0.45145745210E+02  0.54829404529E+01 -0.48134972543E+03  0.50000313344E+03  0.12742595629E+03 0.  0.
          5    1    4    4  502    0  0.48849848545E+02  0.54395797492E+02 -0.19109348793E+03  0.20465586143E+03  0.47000000000E+01 0.  1.
         -5    1    4    4    0  502 -0.37041033352E+01 -0.59878737945E+02 -0.12082258892E+03  0.13497915259E+03  0.47000000000E+01 0.  1.
          5    1    5    5  503    0  0.34933389762E+02 -0.16347345216E+02 -0.27182909073E+03  0.27459191901E+03  0.47000000000E+01 0. -1.
         -5    1    5    5    0  503 -0.80079134972E+02  0.21830285669E+02 -0.20952063469E+03  0.22541121443E+03  0.47000000000E+01 0. -1.
<mgrwt>
<rscale>  0 0.27517555E+03</rscale>
<asrwt>0</asrwt>
<pdfrwt beam="1">  1        1 0.12560802E+00 0.27517555E+03</pdfrwt>
<pdfrwt beam="2">  1       -1 0.35671027E-02 0.27517555E+03</pdfrwt>
<totfact> 0.65001363E+03</totfact>
</mgrwt>
</event>
