<event>
 9    1  0.4369420E-036  0.1001193E+04  0.7818608E-02  0.8679902E-01
         -3   -1    0    0    0  501 -0.00000000000E+00  0.00000000000E+00  0.90545149960E+03  0.90545149960E+03  0.00000000000E+00 0.  1.
          3   -1    0    0  501    0  0.00000000000E+00 -0.00000000000E+00 -0.27676472204E+03  0.27676472204E+03  0.00000000000E+00 0.  1.
         36    2    1    2    0    0  0.71054273576E-14 -0.28421709430E-13  0.62868677756E+03  0.11822162216E+04  0.10011933532E+04 0.  0.
         25    2    3    3    0    0 -0.19668198103E+02  0.13528764746E+03  0.72632775576E+02  0.19844268649E+03  0.12415471865E+03 0.  0.
         35    2    3    3    0    0  0.19668198103E+02 -0.13528764746E+03  0.55605400198E+03  0.98377353515E+03  0.79995295473E+03 0.  0.
         22    1    5    5    0    0 -0.86941340193E+02  0.20989081075E+03  0.57880163919E+03  0.62179119213E+03  0.00000000000E+00 0. -1.
         22    1    5    5    0    0  0.10660953830E+03 -0.34517845820E+03 -0.22747637213E+02  0.36198234303E+03  0.00000000000E+00 0. -1.
          5    1    4    4  502    0 -0.38640191877E+02  0.13708129587E+03  0.22064371131E+02  0.14419872599E+03  0.47000000000E+01 0.  1.
         -5    1    4    4    0  502  0.18971993773E+02 -0.17936484104E+01  0.50568404445E+02  0.54243960498E+02  0.47000000000E+01 0.  1.
<mgrwt>
<rscale>  0 0.10011934E+04</rscale>
<asrwt>0</asrwt>
<pdfrwt beam="1">  1        3 0.42579188E-01 0.10011934E+04</pdfrwt>
<pdfrwt beam="2">  1       -3 0.13930023E+00 0.10011934E+04</pdfrwt>
<totfact> 0.70895352E+00</totfact>
</mgrwt>
</event>
<event>
 9    1  0.4369420E-036  0.9996986E+03  0.7818608E-02  0.8681325E-01
          2   -1    0    0  501    0  0.00000000000E+00  0.00000000000E+00  0.16821118308E+04  0.16821118308E+04  0.00000000000E+00 0.  1.
         -2   -1    0    0    0  501 -0.00000000000E+00 -0.00000000000E+00 -0.14853312692E+03  0.14853312692E+03  0.00000000000E+00 0.  1.
         36    2    1    2    0    0  0.28421709430E-13  0.28421709430E-13  0.15335787038E+04  0.18306449577E+04  0.99969861468E+03 0.  0.
         25    2    3    3    0    0  0.25108255541E+02  0.11927228694E+03  0.16320085160E+03  0.23908104693E+03  0.12517558113E+03 0.  0.
         35    2    3    3    0    0 -0.25108255541E+02 -0.11927228694E+03  0.13703778522E+04  0.15915639108E+04  0.80017743104E+03 0.  0.
         22    1    5    5    0    0 -0.32861217706E+03  0.15011609433E+03  0.39590269031E+03  0.53596617886E+03  0.00000000000E+00 0. -1.
         22    1    5    5    0    0  0.30350392152E+03 -0.26938838127E+03  0.97447516194E+03  0.10555977319E+04  0.00000000000E+00 0. -1.
          5    1    4    4  502    0 -0.35715375036E+02 -0.18890782672E-01  0.59899400816E+02  0.69897185844E+02  0.47000000000E+01 0.  1.
         -5    1    4    4    0  502  0.60823630577E+02  0.11929117772E+03  0.10330145078E+03  0.16918386109E+03  0.47000000000E+01 0.  1.
<mgrwt>
<rscale>  0 0.99969861E+03</rscale>
<asrwt>0</asrwt>
<pdfrwt beam="1">  1        2 0.25878642E+00 0.99969861E+03</pdfrwt>
<pdfrwt beam="2">  1       -2 0.22851251E-01 0.99969861E+03</pdfrwt>
<totfact> 0.20101981E+02</totfact>
</mgrwt>
</event>
<event>
 9    1  0.4369420E-036  0.1000364E+04  0.7818608E-02  0.8680691E-01
          2   -1    0    0  501    0  0.00000000000E+00  0.00000000000E+00  0.24017169925E+04  0.24017169925E+04  0.00000000000E+00 0.  1.
         -2   -1    0    0    0  501 -0.00000000000E+00 -0.00000000000E+00 -0.10416809269E+03  0.10416809269E+03  0.00000000000E+00 0.  1.
         36    2    1    2    0    0  0.35527136788E-14 -0.14210854715E-13  0.22975488998E+04  0.25058850852E+04  0.10003644902E+04 0.  0.
         25    2    3    3    0    0 -0.15902647733E+02 -0.12301313124E+03  0.59384957359E+03  0.61952151585E+03  0.12555663221E+03 0.  0.
         35    2    3    3    0    0  0.15902647733E+02  0.12301313124E+03  0.17036993262E+04  0.18863635694E+04  0.80024433577E+03 0.  0.
         22    1    5    5    0    0  0.38651925056E+03  0.18860586606E+03  0.99353717724E+03  0.10826289421E+04  0.00000000000E+00 0.  1.
         22    1    5    5    0    0 -0.37061660283E+03 -0.65592734826E+02  0.71016214898E+03  0.80373462722E+03  0.00000000000E+00 0.  1.
          5    1    4    4  502    0 -0.44520467483E+02 -0.12095623484E+02  0.75174931984E+02  0.88327439288E+02  0.47000000000E+01 0.  1.
         -5    1    4    4    0  502  0.28617819750E+02 -0.11091750775E+03  0.51867464161E+03  0.53119407657E+03  0.47000000000E+01 0.  1.
<mgrwt>
<rscale>  0 0.10003645E+04</rscale>
<asrwt>0</asrwt>
<pdfrwt beam="1">  1        2 0.36949488E+00 0.10003645E+04</pdfrwt>
<pdfrwt beam="2">  1       -2 0.16025862E-01 0.10003645E+04</pdfrwt>
<totfact> 0.14281811E+02</totfact>
</mgrwt>
</event>
<event>
 9    1  0.4369420E-036  0.9999324E+03  0.7818608E-02  0.8681102E-01
         -2   -1    0    0    0  501 -0.00000000000E+00  0.00000000000E+00  0.28681716105E+03  0.28681716105E+03  0.00000000000E+00 0. -1.
          2   -1    0    0  501    0  0.00000000000E+00 -0.00000000000E+00 -0.87151767314E+03  0.87151767314E+03  0.00000000000E+00 0. -1.
         36    2    1    2    0    0 -0.35527136788E-14  0.28421709430E-13 -0.58470051209E+03  0.11583348342E+04  0.99993244736E+03 0.  0.
         25    2    3    3    0    0  0.26848500213E+02  0.64483647165E+02  0.31575518070E+02  0.14595423648E+03  0.12420403814E+03 0.  0.
         35    2    3    3    0    0 -0.26848500213E+02 -0.64483647165E+02 -0.61627603016E+03  0.10123805977E+04  0.80014957762E+03 0.  0.
         22    1    5    5    0    0 -0.12392995833E+03 -0.14982407508E+03 -0.77995029990E+03  0.80382109848E+03  0.00000000000E+00 0.  1.
         22    1    5    5    0    0  0.97081458116E+02  0.85340427915E+02  0.16367426974E+03  0.20855949924E+03  0.00000000000E+00 0.  1.
          5    1    4    4  502    0  0.35743797705E+02 -0.13775218029E+02  0.51708625138E+02  0.64523233178E+02  0.47000000000E+01 0.  1.
         -5    1    4    4    0  502 -0.88952974914E+01  0.78258865194E+02 -0.20133107069E+02  0.81431003304E+02  0.47000000000E+01 0.  1.
<mgrwt>
<rscale>  0 0.99993245E+03</rscale>
<asrwt>0</asrwt>
<pdfrwt beam="1">  1        2 0.13407964E+00 0.99993245E+03</pdfrwt>
<pdfrwt beam="2">  1       -2 0.44125717E-01 0.99993245E+03</pdfrwt>
<totfact> 0.18072034E+02</totfact>
</mgrwt>
</event>
<event>
 9    1  0.4369420E-036  0.1000632E+04  0.7818608E-02  0.8680437E-01
          1   -1    0    0  501    0  0.00000000000E+00  0.00000000000E+00  0.89534039267E+03  0.89534039267E+03  0.00000000000E+00 0.  1.
         -1   -1    0    0    0  501 -0.00000000000E+00 -0.00000000000E+00 -0.27957631422E+03  0.27957631422E+03  0.00000000000E+00 0.  1.
         36    2    1    2    0    0  0.71054273576E-14 -0.14210854715E-13  0.61576407845E+03  0.11749167069E+04  0.10006317344E+04 0.  0.
         25    2    3    3    0    0  0.57597568763E+01  0.11584109752E+03  0.31403472111E+02  0.17663604366E+03  0.12946729001E+03 0.  0.
         35    2    3    3    0    0 -0.57597568763E+01 -0.11584109752E+03  0.58436060634E+03  0.99828066323E+03  0.80102099202E+03 0.  0.
         22    1    5    5    0    0 -0.40054391441E+03 -0.82762196837E+02  0.24600146295E+03  0.47728579318E+03  0.00000000000E+00 0.  1.
         22    1    5    5    0    0  0.39478415753E+03 -0.33078900687E+02  0.33835914339E+03  0.52099487005E+03  0.00000000000E+00 0.  1.
          5    1    4    4  502    0 -0.39205620984E+02  0.12143488002E+03  0.16778867592E+02  0.12879103696E+03  0.47000000000E+01 0.  1.
         -5    1    4    4    0  502  0.44965377861E+02 -0.55937824994E+01  0.14624604519E+02  0.47845006700E+02  0.47000000000E+01 0.  1.
<mgrwt>
<rscale>  0 0.10006317E+04</rscale>
<asrwt>0</asrwt>
<pdfrwt beam="1">  1        1 0.13774467E+00 0.10006317E+04</pdfrwt>
<pdfrwt beam="2">  1       -1 0.43011741E-01 0.10006317E+04</pdfrwt>
<totfact> 0.11042313E+02</totfact>
</mgrwt>
</event>
<event>
 9    1  0.4369420E-036  0.1001207E+04  0.7818608E-02  0.8679889E-01
         -2   -1    0    0    0  501 -0.00000000000E+00  0.00000000000E+00  0.75991280965E+03  0.75991280965E+03  0.00000000000E+00 0.  1.
          2   -1    0    0  501    0  0.00000000000E+00 -0.00000000000E+00 -0.32977974441E+03  0.32977974441E+03  0.00000000000E+00 0.  1.
         36    2    1    2    0    0  0.14210854715E-13  0.14210854715E-13  0.43013306524E+03  0.10896925541E+04  0.10012069759E+04 0.  0.
         25    2    3    3    0    0  0.68250310680E+02  0.88894710217E+02 -0.13995475336E+02  0.16808168984E+03  0.12447974420E+03 0.  0.
         35    2    3    3    0    0 -0.68250310680E+02 -0.88894710217E+02  0.44412854057E+03  0.92161086422E+03  0.79972248316E+03 0.  0.
         22    1    5    5    0    0  0.37423297205E+02 -0.17869763090E+03 -0.19528137484E+03  0.26733529850E+03  0.00000000000E+00 0.  1.
         22    1    5    5    0    0 -0.10567360788E+03  0.89802920687E+02  0.63940991541E+03  0.65427556572E+03  0.00000000000E+00 0.  1.
          5    1    4    4  502    0  0.81919661270E+02  0.94555540719E+01 -0.25679393191E+02  0.86497165503E+02  0.47000000000E+01 0.  1.
         -5    1    4    4    0  502 -0.13669350590E+02  0.79439156145E+02  0.11683917854E+02  0.81584524335E+02  0.47000000000E+01 0.  1.
<mgrwt>
<rscale>  0 0.10012070E+04</rscale>
<asrwt>0</asrwt>
<pdfrwt beam="1">  1        2 0.50735345E-01 0.10012070E+04</pdfrwt>
<pdfrwt beam="2">  1       -2 0.11690966E+00 0.10012070E+04</pdfrwt>
<totfact> 0.65445803E+01</totfact>
</mgrwt>
</event>
<event>
 9    1  0.4369420E-036  0.1001339E+04  0.7818608E-02  0.8679764E-01
         -1   -1    0    0    0  501 -0.00000000000E+00  0.00000000000E+00  0.14722296812E+03  0.14722296812E+03  0.00000000000E+00 0.  1.
          1   -1    0    0  501    0  0.00000000000E+00 -0.00000000000E+00 -0.17026554309E+04  0.17026554309E+04  0.00000000000E+00 0.  1.
         36    2    1    2    0    0  0.28421709430E-13 -0.14210854715E-13 -0.15554324628E+04  0.18498783990E+04  0.10013390759E+04 0.  0.
         25    2    3    3    0    0  0.66468634551E+02  0.62903743819E+02 -0.94165443882E+02  0.18168712176E+03  0.12557117116E+03 0.  0.
         35    2    3    3    0    0 -0.66468634551E+02 -0.62903743819E+02 -0.14612670189E+04  0.16681912773E+04  0.79949101097E+03 0.  0.
         22    1    5    5    0    0 -0.40794176998E+03 -0.14771248902E+03 -0.98259752493E+03  0.10741198085E+04  0.00000000000E+00 0. -1.
         22    1    5    5    0    0  0.34147313543E+03  0.84808745202E+02 -0.47866949398E+03  0.59407146873E+03  0.00000000000E+00 0. -1.
          5    1    4    4  502    0  0.88594616547E+02  0.75543711484E+02 -0.10174111177E+03  0.15469066633E+03  0.47000000000E+01 0. -1.
         -5    1    4    4    0  502 -0.22125981996E+02 -0.12639967665E+02  0.75756678865E+01  0.26996455430E+02  0.47000000000E+01 0. -1.
<mgrwt>
<rscale>  0 0.10013391E+04</rscale>
<asrwt>0</asrwt>
<pdfrwt beam="1">  1        1 0.26194698E+00 0.10013391E+04</pdfrwt>
<pdfrwt beam="2">  1       -1 0.22649688E-01 0.10013391E+04</pdfrwt>
<totfact> 0.83771932E+01</totfact>
</mgrwt>
</event>
<event>
 9    1  0.4369420E-036  0.1000906E+04  0.7818608E-02  0.8680176E-01
         -2   -1    0    0    0  501 -0.00000000000E+00  0.00000000000E+00  0.20091006770E+03  0.20091006770E+03  0.00000000000E+00 0. -1.
          2   -1    0    0  501    0  0.00000000000E+00 -0.00000000000E+00 -0.12465933132E+04  0.12465933132E+04  0.00000000000E+00 0. -1.
         36    2    1    2    0    0 -0.35527136788E-14  0.00000000000E+00 -0.10456832454E+04  0.14475033809E+04  0.10009058836E+04 0.  0.
         25    2    3    3    0    0 -0.31992581225E+02  0.15103494984E+02  0.10419401965E+01  0.12966199453E+03  0.12473775039E+03 0.  0.
         35    2    3    3    0    0  0.31992581225E+02 -0.15103494984E+02 -0.10467251856E+04  0.13178413863E+04  0.79988790743E+03 0.  0.
         22    1    5    5    0    0  0.37024393288E+02 -0.14325483336E+02 -0.11819020853E+04  0.11825686299E+04  0.00000000000E+00 0. -1.
         22    1    5    5    0    0 -0.50318120626E+01 -0.77801164835E+00  0.13517689965E+03  0.13527275644E+03  0.00000000000E+00 0. -1.
          5    1    4    4  502    0  0.31411807592E+02  0.30701613867E+02  0.34587143410E+02  0.56103932477E+02  0.47000000000E+01 0. -1.
         -5    1    4    4    0  502 -0.63404388816E+02 -0.15598118883E+02 -0.33545203213E+02  0.73558062049E+02  0.47000000000E+01 0. -1.
<mgrwt>
<rscale>  0 0.10009059E+04</rscale>
<asrwt>0</asrwt>
<pdfrwt beam="1">  1        2 0.19178359E+00 0.10009059E+04</pdfrwt>
<pdfrwt beam="2">  1       -2 0.30909241E-01 0.10009059E+04</pdfrwt>
<totfact> 0.20730233E+02</totfact>
</mgrwt>
</event>
<event>
 9    1  0.4369420E-036  0.9998120E+03  0.7818608E-02  0.8681217E-01
          2   -1    0    0  501    0  0.00000000000E+00  0.00000000000E+00  0.12305404554E+04  0.12305404554E+04  0.00000000000E+00 0. -1.
         -2   -1    0    0    0  501 -0.00000000000E+00 -0.00000000000E+00 -0.20308637176E+03  0.20308637176E+03  0.00000000000E+00 0. -1.
         36    2    1    2    0    0  0.00000000000E+00  0.71054273576E-14  0.10274540837E+04  0.14336268272E+04  0.99981197510E+03 0.  0.
         25    2    3    3    0    0 -0.98627940970E+02 -0.53888320886E+02  0.80527617227E+02  0.18696901226E+03  0.12586219664E+03 0.  0.
         35    2    3    3    0    0  0.98627940970E+02  0.53888320886E+02  0.94692646643E+03  0.12466578149E+04  0.80302836361E+03 0.  0.
         22    1    5    5    0    0  0.15875006666E+03 -0.76183381183E+02 -0.91467601925E+02  0.19842331878E+03  0.00000000000E+00 0.  1.
         22    1    5    5    0    0 -0.60122125690E+02  0.13007170207E+03  0.10383940684E+04  0.10482344961E+04  0.00000000000E+00 0.  1.
          5    1    4    4  502    0  0.13892184173E+02 -0.11755507300E+02  0.62646242051E+02  0.65405094420E+02  0.47000000000E+01 0.  1.
         -5    1    4    4    0  502 -0.11252012514E+03 -0.42132813586E+02  0.17881375175E+02  0.12156391784E+03  0.47000000000E+01 0.  1.
<mgrwt>
<rscale>  0 0.99981198E+03</rscale>
<asrwt>0</asrwt>
<pdfrwt beam="1">  1        2 0.18931391E+00 0.99981198E+03</pdfrwt>
<pdfrwt beam="2">  1       -2 0.31244058E-01 0.99981198E+03</pdfrwt>
<totfact> 0.20770160E+02</totfact>
</mgrwt>
</event>
<event>
 9    1  0.4369420E-036  0.1000240E+04  0.7818608E-02  0.8680809E-01
         -2   -1    0    0    0  501 -0.00000000000E+00  0.00000000000E+00  0.77167882481E+03  0.77167882481E+03  0.00000000000E+00 0.  1.
          2   -1    0    0  501    0  0.00000000000E+00 -0.00000000000E+00 -0.32412479569E+03  0.32412479569E+03  0.00000000000E+00 0.  1.
         36    2    1    2    0    0 -0.14210854715E-13  0.71054273576E-14  0.44755402912E+03  0.10958036205E+04  0.10002404540E+04 0.  0.
         25    2    3    3    0    0 -0.80411976598E+02 -0.38752207844E+01  0.21333410658E+03  0.25966667467E+03  0.12423460706E+03 0.  0.
         35    2    3    3    0    0  0.80411976598E+02  0.38752207844E+01  0.23421992254E+03  0.83613694583E+03  0.79861437299E+03 0.  0.
         22    1    5    5    0    0 -0.27613940076E+03 -0.69281418250E+02  0.35278616435E+03  0.45333316812E+03  0.00000000000E+00 0. -1.
         22    1    5    5    0    0  0.35655137736E+03  0.73156639035E+02 -0.11856624180E+03  0.38280377770E+03  0.00000000000E+00 0. -1.
          5    1    4    4  502    0 -0.63716028784E+02 -0.56288254565E+02  0.86693399167E+02  0.12151516525E+03  0.47000000000E+01 0. -1.
         -5    1    4    4    0  502 -0.16695947813E+02  0.52413033780E+02  0.12664070741E+03  0.13815150943E+03  0.47000000000E+01 0. -1.
<mgrwt>
<rscale>  0 0.10002405E+04</rscale>
<asrwt>0</asrwt>
<pdfrwt beam="1">  1        2 0.49865353E-01 0.10002405E+04</pdfrwt>
<pdfrwt beam="2">  1       -2 0.11871982E+00 0.10002405E+04</pdfrwt>
<totfact> 0.64118542E+01</totfact>
</mgrwt>
</event>
<event>
 9    1  0.4369420E-036  0.1000151E+04  0.7818608E-02  0.8680894E-01
          1   -1    0    0  501    0  0.00000000000E+00  0.00000000000E+00  0.10392977782E+04  0.10392977782E+04  0.00000000000E+00 0. -1.
         -1   -1    0    0    0  501 -0.00000000000E+00 -0.00000000000E+00 -0.24061980376E+03  0.24061980376E+03  0.00000000000E+00 0. -1.
         36    2    1    2    0    0  0.00000000000E+00  0.21316282073E-13  0.79867797440E+03  0.12799175819E+04  0.10001512434E+04 0.  0.
         25    2    3    3    0    0  0.12450453272E+03 -0.25530439334E+02  0.63014584604E+02  0.19048866393E+03  0.12712950568E+03 0.  0.
         35    2    3    3    0    0 -0.12450453272E+03  0.25530439334E+02  0.73566338979E+03  0.10894289180E+04  0.79341134492E+03 0.  0.
         22    1    5    5    0    0  0.84447712832E+02 -0.32117985059E+03  0.12102669980E+03  0.35346198479E+03  0.00000000000E+00 0. -1.
         22    1    5    5    0    0 -0.20895224555E+03  0.34671028993E+03  0.61463669000E+03  0.73596693319E+03  0.00000000000E+00 0. -1.
          5    1    4    4  502    0 -0.13864424108E+02  0.18729464225E+02  0.35238622308E+02  0.42507241597E+02  0.47000000000E+01 0.  1.
         -5    1    4    4    0  502  0.13836895682E+03 -0.44259903558E+02  0.27775962296E+02  0.14798142234E+03  0.47000000000E+01 0.  1.
<mgrwt>
<rscale>  0 0.10001512E+04</rscale>
<asrwt>0</asrwt>
<pdfrwt beam="1">  1        1 0.15989196E+00 0.10001512E+04</pdfrwt>
<pdfrwt beam="2">  1       -1 0.37018432E-01 0.10001512E+04</pdfrwt>
<totfact> 0.11039193E+02</totfact>
</mgrwt>
</event>
<event>
 9    1  0.4369420E-036  0.1000163E+04  0.7818608E-02  0.8680883E-01
          1   -1    0    0  501    0  0.00000000000E+00  0.00000000000E+00  0.17099521448E+04  0.17099521448E+04  0.00000000000E+00 0. -1.
         -1   -1    0    0    0  501 -0.00000000000E+00 -0.00000000000E+00 -0.14625046987E+03  0.14625046987E+03  0.00000000000E+00 0. -1.
         36    2    1    2    0    0  0.56843418861E-13  0.14210854715E-13  0.15637016749E+04  0.18562026147E+04  0.10001625960E+04 0.  0.
         25    2    3    3    0    0  0.10150022569E+03  0.10444413966E+03  0.28873839450E+03  0.34465675951E+03  0.11919541642E+03 0.  0.
         35    2    3    3    0    0 -0.10150022569E+03 -0.10444413966E+03  0.12749632804E+04  0.15115458551E+04  0.79876694451E+03 0.  0.
         22    1    5    5    0    0 -0.39455825893E+03 -0.78255575202E+02  0.10952452141E+04  0.11667742856E+04  0.00000000000E+00 0.  1.
         22    1    5    5    0    0  0.29305803324E+03 -0.26188564462E+02  0.17971806637E+03  0.34477156950E+03  0.00000000000E+00 0.  1.
          5    1    4    4  502    0  0.71031084249E+02 -0.79696384559E+01  0.10912072709E+03  0.13053104285E+03  0.47000000000E+01 0. -1.
         -5    1    4    4    0  502  0.30469141445E+02  0.11241377812E+03  0.17961766740E+03  0.21412571666E+03  0.47000000000E+01 0. -1.
<mgrwt>
<rscale>  0 0.10001626E+04</rscale>
<asrwt>0</asrwt>
<pdfrwt beam="1">  1        1 0.26306955E+00 0.10001626E+04</pdfrwt>
<pdfrwt beam="2">  1       -1 0.22500073E-01 0.10001626E+04</pdfrwt>
<totfact> 0.83712601E+01</totfact>
</mgrwt>
</event>
<event>
 9    1  0.4369420E-036  0.9987707E+03  0.7818608E-02  0.8682209E-01
         -1   -1    0    0    0  501 -0.00000000000E+00  0.00000000000E+00  0.16982218714E+03  0.16982218714E+03  0.00000000000E+00 0.  1.
          1   -1    0    0  501    0  0.00000000000E+00 -0.00000000000E+00 -0.14685109728E+04  0.14685109728E+04  0.00000000000E+00 0.  1.
         36    2    1    2    0    0 -0.28421709430E-13 -0.71054273576E-14 -0.12986887856E+04  0.16383331599E+04  0.99877073493E+03 0.  0.
         25    2    3    3    0    0  0.52978766679E+02  0.17477990109E+02 -0.45540639293E+03  0.47554501563E+03  0.12504338972E+03 0.  0.
         35    2    3    3    0    0 -0.52978766679E+02 -0.17477990109E+02 -0.84328239272E+03  0.11627881443E+04  0.79864813578E+03 0.  0.
         22    1    5    5    0    0 -0.39448138434E+03  0.63153610356E+02 -0.24338257611E+03  0.46780232945E+03  0.00000000000E+00 0.  1.
         22    1    5    5    0    0  0.34150261766E+03 -0.80631600466E+02 -0.59989981661E+03  0.69498581484E+03  0.00000000000E+00 0.  1.
          5    1    4    4  502    0  0.29753877425E+02 -0.34204771890E+02 -0.37091614931E+03  0.37370595320E+03  0.47000000000E+01 0. -1.
         -5    1    4    4    0  502  0.23224889255E+02  0.51682761999E+02 -0.84490243620E+02  0.10183906243E+03  0.47000000000E+01 0. -1.
<mgrwt>
<rscale>  0 0.99877073E+03</rscale>
<asrwt>0</asrwt>
<pdfrwt beam="1">  1        1 0.22592476E+00 0.99877073E+03</pdfrwt>
<pdfrwt beam="2">  1       -1 0.26126491E-01 0.99877073E+03</pdfrwt>
<totfact> 0.96642237E+01</totfact>
</mgrwt>
</event>
<event>
 9    1  0.4369420E-036  0.1001124E+04  0.7818608E-02  0.8679968E-01
         -2   -1    0    0    0  501 -0.00000000000E+00  0.00000000000E+00  0.11232179513E+04  0.11232179513E+04  0.00000000000E+00 0. -1.
          2   -1    0    0  501    0  0.00000000000E+00 -0.00000000000E+00 -0.22307546013E+03  0.22307546013E+03  0.00000000000E+00 0. -1.
         36    2    1    2    0    0  0.14210854715E-13 -0.21316282073E-13  0.90014249115E+03  0.13462934114E+04  0.10011240908E+04 0.  0.
         25    2    3    3    0    0  0.81290016140E+02  0.20030623212E+02  0.32345685190E+03  0.35638483968E+03  0.12400212224E+03 0.  0.
         35    2    3    3    0    0 -0.81290016140E+02 -0.20030623212E+02  0.57668563924E+03  0.98990857172E+03  0.80021457202E+03 0.  0.
         22    1    5    5    0    0 -0.48060657451E+02  0.28410805375E+03 -0.50072744362E+02  0.29246280571E+03  0.00000000000E+00 0. -1.
         22    1    5    5    0    0 -0.33229358689E+02 -0.30413867696E+03  0.62675838360E+03  0.69744576601E+03  0.00000000000E+00 0. -1.
          5    1    4    4  502    0  0.16765988039E+02  0.38403379360E+02  0.26170934627E+03  0.26508449563E+03  0.47000000000E+01 0. -1.
         -5    1    4    4    0  502  0.64524028101E+02 -0.18372756148E+02  0.61747505639E+02  0.91300344049E+02  0.47000000000E+01 0. -1.
<mgrwt>
<rscale>  0 0.10011241E+04</rscale>
<asrwt>0</asrwt>
<pdfrwt beam="1">  1        2 0.34319302E-01 0.10011241E+04</pdfrwt>
<pdfrwt beam="2">  1       -2 0.17280276E+00 0.10011241E+04</pdfrwt>
<totfact> 0.34562698E+01</totfact>
</mgrwt>
</event>
<event>
 9    1  0.4369420E-036  0.9996184E+03  0.7818608E-02  0.8681401E-01
         -2   -1    0    0    0  501 -0.00000000000E+00  0.00000000000E+00  0.45691734348E+03  0.45691734348E+03  0.00000000000E+00 0. -1.
          2   -1    0    0  501    0  0.00000000000E+00 -0.00000000000E+00 -0.54672738241E+03  0.54672738241E+03  0.00000000000E+00 0. -1.
         36    2    1    2    0    0 -0.71054273576E-14  0.28421709430E-13 -0.89810038931E+02  0.10036447259E+04  0.99961837353E+03 0.  0.
         25    2    3    3    0    0 -0.75504890743E+01  0.13305926972E+03  0.25649091742E+02  0.18447959500E+03  0.12495225457E+03 0.  0.
         35    2    3    3    0    0  0.75504890743E+01 -0.13305926972E+03 -0.11545913067E+03  0.81916513088E+03  0.79996182512E+03 0.  0.
         22    1    5    5    0    0  0.18001497903E+03 -0.29459869694E+03 -0.34617613256E+03  0.48890868234E+03  0.00000000000E+00 0.  1.
         22    1    5    5    0    0 -0.17246448996E+03  0.16153942723E+03  0.23071700188E+03  0.33025644854E+03  0.00000000000E+00 0.  1.
          5    1    4    4  502    0  0.39119917019E+02  0.12425608980E+03  0.11644111931E+00  0.13035354740E+03  0.47000000000E+01 0.  1.
         -5    1    4    4    0  502 -0.46670406093E+02  0.88031799114E+01  0.25532650623E+02  0.54126047605E+02  0.47000000000E+01 0.  1.
<mgrwt>
<rscale>  0 0.99961837E+03</rscale>
<asrwt>0</asrwt>
<pdfrwt beam="1">  1        2 0.84111905E-01 0.99961837E+03</pdfrwt>
<pdfrwt beam="2">  1       -2 0.70294976E-01 0.99961837E+03</pdfrwt>
<totfact> 0.12350894E+02</totfact>
</mgrwt>
</event>
<event>
 9    1  0.4369420E-036  0.9996398E+03  0.7818608E-02  0.8681381E-01
          1   -1    0    0  501    0  0.00000000000E+00  0.00000000000E+00  0.31570767110E+03  0.31570767110E+03  0.00000000000E+00 0.  1.
         -1   -1    0    0    0  501 -0.00000000000E+00 -0.00000000000E+00 -0.79130136440E+03  0.79130136440E+03  0.00000000000E+00 0.  1.
         36    2    1    2    0    0  0.14210854715E-13  0.00000000000E+00 -0.47559369330E+03  0.11070090355E+04  0.99963975690E+03 0.  0.
         25    2    3    3    0    0  0.32751399869E+02 -0.41625880890E+02  0.55337359525E+02  0.14578613864E+03  0.12404034307E+03 0.  0.
         35    2    3    3    0    0 -0.32751399869E+02  0.41625880890E+02 -0.53093105282E+03  0.96122289686E+03  0.79953505642E+03 0.  0.
         22    1    5    5    0    0  0.16298286756E+03  0.64709590044E+02  0.16326186673E+03  0.23959378809E+03  0.00000000000E+00 0. -1.
         22    1    5    5    0    0 -0.19573426743E+03 -0.23083709154E+02 -0.69419291955E+03  0.72162910877E+03  0.00000000000E+00 0. -1.
          5    1    4    4  502    0 -0.39819621796E+02  0.27829740491E+00 -0.76852303570E+01  0.40826859971E+02  0.47000000000E+01 0.  1.
         -5    1    4    4    0  502  0.72571021665E+02 -0.41904178295E+02  0.63022589882E+02  0.10495927867E+03  0.47000000000E+01 0.  1.
<mgrwt>
<rscale>  0 0.99963976E+03</rscale>
<asrwt>0</asrwt>
<pdfrwt beam="1">  1        1 0.48570412E-01 0.99963976E+03</pdfrwt>
<pdfrwt beam="2">  1       -1 0.12173867E+00 0.99963976E+03</pdfrwt>
<totfact> 0.58884401E+01</totfact>
</mgrwt>
</event>
<event>
 9    1  0.4369420E-036  0.9963281E+03  0.7818608E-02  0.8684543E-01
         -2   -1    0    0    0  501 -0.00000000000E+00  0.00000000000E+00  0.17496253656E+03  0.17496253656E+03  0.00000000000E+00 0. -1.
          2   -1    0    0  501    0  0.00000000000E+00 -0.00000000000E+00 -0.14184030589E+04  0.14184030589E+04  0.00000000000E+00 0. -1.
         36    2    1    2    0    0  0.71054273576E-14  0.00000000000E+00 -0.12434405223E+04  0.15933655954E+04  0.99632805248E+03 0.  0.
         25    2    3    3    0    0  0.17324815659E+02 -0.10116263478E+03 -0.37199052332E+03  0.40571792209E+03  0.12528389741E+03 0.  0.
         35    2    3    3    0    0 -0.17324815659E+02  0.10116263478E+03 -0.87144999902E+03  0.11876476734E+04  0.80034234383E+03 0.  0.
         22    1    5    5    0    0  0.20831005749E+03 -0.17496932100E+03 -0.77038589126E+03  0.81700781195E+03  0.00000000000E+00 0. -1.
         22    1    5    5    0    0 -0.22563487315E+03  0.27613195578E+03 -0.10106410776E+03  0.37063986141E+03  0.00000000000E+00 0. -1.
          5    1    4    4  502    0 -0.24428424082E+02  0.10597343836E+02 -0.18909531243E+02  0.32995635641E+02  0.47000000000E+01 0.  1.
         -5    1    4    4    0  502  0.41753239741E+02 -0.11175997862E+03 -0.35308099207E+03  0.37272228645E+03  0.47000000000E+01 0.  1.
<mgrwt>
<rscale>  0 0.99632805E+03</rscale>
<asrwt>0</asrwt>
<pdfrwt beam="1">  1        2 0.21821586E+00 0.99632805E+03</pdfrwt>
<pdfrwt beam="2">  1       -2 0.26917312E-01 0.99632805E+03</pdfrwt>
<totfact> 0.21197091E+02</totfact>
</mgrwt>
</event>
<event>
 9    1  0.4369420E-036  0.9991337E+03  0.7818608E-02  0.8681863E-01
         -2   -1    0    0    0  501 -0.00000000000E+00  0.00000000000E+00  0.19854144684E+03  0.19854144684E+03  0.00000000000E+00 0. -1.
          2   -1    0    0  501    0  0.00000000000E+00 -0.00000000000E+00 -0.12570023362E+04  0.12570023362E+04  0.00000000000E+00 0. -1.
         36    2    1    2    0    0  0.14210854715E-13  0.00000000000E+00 -0.10584608893E+04  0.14555437830E+04  0.99913374982E+03 0.  0.
         25    2    3    3    0    0 -0.57698400339E+02 -0.50918537888E+02 -0.36631919957E+03  0.39461271003E+03  0.12493050886E+03 0.  0.
         35    2    3    3    0    0  0.57698400339E+02  0.50918537888E+02 -0.69214168978E+03  0.10609310730E+04  0.80037042675E+03 0.  0.
         22    1    5    5    0    0 -0.27581322231E+03  0.14109108738E+03 -0.26457615814E+02  0.31093348803E+03  0.00000000000E+00 0.  1.
         22    1    5    5    0    0  0.33351162265E+03 -0.90172549495E+02 -0.66568407396E+03  0.74999758497E+03  0.00000000000E+00 0.  1.
          5    1    4    4  502    0  0.70427454226E+01  0.22822755103E+02 -0.19977239836E+03  0.20125004239E+03  0.47000000000E+01 0.  1.
         -5    1    4    4    0  502 -0.64741145762E+02 -0.73741292991E+02 -0.16654680121E+03  0.19336266764E+03  0.47000000000E+01 0.  1.
<mgrwt>
<rscale>  0 0.99913375E+03</rscale>
<asrwt>0</asrwt>
<pdfrwt beam="1">  1        2 0.19338498E+00 0.99913375E+03</pdfrwt>
<pdfrwt beam="2">  1       -2 0.30544838E-01 0.99913375E+03</pdfrwt>
<totfact> 0.20890232E+02</totfact>
</mgrwt>
</event>
<event>
 9    1  0.4369420E-036  0.9993361E+03  0.7818608E-02  0.8681670E-01
          1   -1    0    0  501    0  0.00000000000E+00  0.00000000000E+00  0.22305989690E+04  0.22305989690E+04  0.00000000000E+00 0. -1.
         -1   -1    0    0    0  501 -0.00000000000E+00 -0.00000000000E+00 -0.11192874553E+03  0.11192874553E+03  0.00000000000E+00 0. -1.
         36    2    1    2    0    0  0.14210854715E-13  0.00000000000E+00  0.21186702234E+04  0.23425277145E+04  0.99933606835E+03 0.  0.
         25    2    3    3    0    0  0.60798075137E+02 -0.96203675916E+02  0.22447559078E+03  0.28074999666E+03  0.12441750908E+03 0.  0.
         35    2    3    3    0    0 -0.60798075137E+02  0.96203675916E+02  0.18941946326E+04  0.20617777178E+04  0.80622732416E+03 0.  0.
         22    1    5    5    0    0  0.12791306136E+03  0.10156987647E+03  0.18633406425E+04  0.18704856431E+04  0.00000000000E+00 0.  1.
         22    1    5    5    0    0 -0.18871113650E+03 -0.53662005513E+01  0.30853990145E+02  0.19129207473E+03  0.00000000000E+00 0.  1.
          5    1    4    4  502    0 -0.29751860964E+02 -0.27451286660E+01  0.14181905673E+02  0.33405469773E+02  0.47000000000E+01 0.  1.
         -5    1    4    4    0  502  0.90549936101E+02 -0.93458547250E+02  0.21029368511E+03  0.24734452688E+03  0.47000000000E+01 0.  1.
<mgrwt>
<rscale>  0 0.99933607E+03</rscale>
<asrwt>0</asrwt>
<pdfrwt beam="1">  1        1 0.34316904E+00 0.99933607E+03</pdfrwt>
<pdfrwt beam="2">  1       -1 0.17219809E-01 0.99933607E+03</pdfrwt>
<totfact> 0.56117875E+01</totfact>
</mgrwt>
</event>
<event>
 9    1  0.4369420E-036  0.9994497E+03  0.7818608E-02  0.8681562E-01
         -2   -1    0    0    0  501 -0.00000000000E+00  0.00000000000E+00  0.16727855127E+03  0.16727855127E+03  0.00000000000E+00 0. -1.
          2   -1    0    0  501    0  0.00000000000E+00 -0.00000000000E+00 -0.14928687045E+04  0.14928687045E+04  0.00000000000E+00 0. -1.
         36    2    1    2    0    0 -0.71054273576E-14  0.00000000000E+00 -0.13255901532E+04  0.16601472557E+04  0.99944967681E+03 0.  0.
         25    2    3    3    0    0  0.60170874966E+02  0.12119529116E+03 -0.17865413571E+03  0.25539656876E+03  0.12247968949E+03 0.  0.
         35    2    3    3    0    0 -0.60170874966E+02 -0.12119529116E+03 -0.11469360175E+04  0.14047506870E+04  0.79972084601E+03 0.  0.
         22    1    5    5    0    0  0.79563161925E+01 -0.18931163418E+03  0.56298426546E+02  0.19766565365E+03  0.00000000000E+00 0. -1.
         22    1    5    5    0    0 -0.68127191158E+02  0.68116343018E+02 -0.12032344440E+04  0.12070850333E+04  0.00000000000E+00 0. -1.
          5    1    4    4  502    0 -0.12091792528E+02 -0.19993708966E+02 -0.23316304615E+02  0.33342164082E+02  0.47000000000E+01 0. -1.
         -5    1    4    4    0  502  0.72262667494E+02  0.14118900012E+03 -0.15533783109E+03  0.22205440468E+03  0.47000000000E+01 0. -1.
<mgrwt>
<rscale>  0 0.99944968E+03</rscale>
<asrwt>0</asrwt>
<pdfrwt beam="1">  1        2 0.22967212E+00 0.99944968E+03</pdfrwt>
<pdfrwt beam="2">  1       -2 0.25735161E-01 0.99944968E+03</pdfrwt>
<totfact> 0.20835644E+02</totfact>
</mgrwt>
</event>
<event>
 9    1  0.4369420E-036  0.9998463E+03  0.7818608E-02  0.8681184E-01
          2   -1    0    0  501    0  0.00000000000E+00  0.00000000000E+00  0.10192818572E+04  0.10192818572E+04  0.00000000000E+00 0. -1.
         -2   -1    0    0    0  501 -0.00000000000E+00 -0.00000000000E+00 -0.24519532357E+03  0.24519532357E+03  0.00000000000E+00 0. -1.
         36    2    1    2    0    0 -0.14210854715E-13 -0.14210854715E-13  0.77408653361E+03  0.12644771807E+04  0.99984627774E+03 0.  0.
         25    2    3    3    0    0  0.11192547794E+03  0.87909993071E+02  0.13342742181E+03  0.23103603385E+03  0.12377112971E+03 0.  0.
         35    2    3    3    0    0 -0.11192547794E+03 -0.87909993071E+02  0.64065911179E+03  0.10334411469E+04  0.79831135974E+03 0.  0.
         22    1    5    5    0    0 -0.34311990818E+03 -0.16128326379E+03  0.34677985378E+02  0.38071790769E+03  0.00000000000E+00 0.  1.
         22    1    5    5    0    0  0.23119443024E+03  0.73373270722E+02  0.60598112641E+03  0.65272323921E+03  0.00000000000E+00 0.  1.
          5    1    4    4  502    0  0.86253297839E+02  0.35780062612E+01  0.10960765658E+03  0.13960072313E+03  0.47000000000E+01 0.  1.
         -5    1    4    4    0  502  0.25672180101E+02  0.84331986810E+02  0.23819765233E+02  0.91435310719E+02  0.47000000000E+01 0.  1.
<mgrwt>
<rscale>  0 0.99984628E+03</rscale>
<asrwt>0</asrwt>
<pdfrwt beam="1">  1        2 0.15681259E+00 0.99984628E+03</pdfrwt>
<pdfrwt beam="2">  1       -2 0.37722358E-01 0.99984628E+03</pdfrwt>
<totfact> 0.19615499E+02</totfact>
</mgrwt>
</event>
<event>
 9    1  0.4369420E-036  0.1000979E+04  0.7818608E-02  0.8680106E-01
          3   -1    0    0  501    0  0.00000000000E+00  0.00000000000E+00  0.56174635798E+03  0.56174635798E+03  0.00000000000E+00 0.  1.
         -3   -1    0    0    0  501 -0.00000000000E+00 -0.00000000000E+00 -0.44591257487E+03  0.44591257487E+03  0.00000000000E+00 0.  1.
         36    2    1    2    0    0  0.00000000000E+00 -0.28421709430E-13  0.11583378311E+03  0.10076589329E+04  0.10009790506E+04 0.  0.
         25    2    3    3    0    0 -0.11112434994E+03  0.80193691313E+02  0.61932852707E+02  0.19497651635E+03  0.12409880905E+03 0.  0.
         35    2    3    3    0    0  0.11112434994E+03 -0.80193691313E+02  0.53900930399E+02  0.81268241650E+03  0.79922947301E+03 0.  0.
         22    1    5    5    0    0 -0.27653195574E+03  0.19055663752E+03  0.52005660456E+02  0.33983281679E+03  0.00000000000E+00 0. -1.
         22    1    5    5    0    0  0.38765630568E+03 -0.27075032883E+03  0.18952699424E+01  0.47284959971E+03  0.00000000000E+00 0. -1.
          5    1    4    4  502    0 -0.69947053876E+01  0.43660229171E+01 -0.33356214360E+02  0.34680183045E+02  0.47000000000E+01 0.  1.
         -5    1    4    4    0  502 -0.10412964455E+03  0.75827668396E+02  0.95289067067E+02  0.16029633330E+03  0.47000000000E+01 0.  1.
<mgrwt>
<rscale>  0 0.10009791E+04</rscale>
<asrwt>0</asrwt>
<pdfrwt beam="1">  1        3 0.86422517E-01 0.10009791E+04</pdfrwt>
<pdfrwt beam="2">  1       -3 0.68601935E-01 0.10009791E+04</pdfrwt>
<totfact> 0.10107050E+01</totfact>
</mgrwt>
</event>
<event>
 9    1  0.4369420E-036  0.9995281E+03  0.7818608E-02  0.8681487E-01
         -3   -1    0    0    0  501 -0.00000000000E+00  0.00000000000E+00  0.11635044107E+04  0.11635044107E+04  0.00000000000E+00 0. -1.
          3   -1    0    0  501    0  0.00000000000E+00 -0.00000000000E+00 -0.21466539216E+03  0.21466539216E+03  0.00000000000E+00 0. -1.
         36    2    1    2    0    0  0.00000000000E+00  0.56843418861E-13  0.94883901858E+03  0.13781698029E+04  0.99952814990E+03 0.  0.
         25    2    3    3    0    0  0.81604781172E+02 -0.98156370049E+02  0.25522100106E+03  0.31159571411E+03  0.12514038668E+03 0.  0.
         35    2    3    3    0    0 -0.81604781172E+02  0.98156370049E+02  0.69361801752E+03  0.10665740888E+04  0.80011269167E+03 0.  0.
         22    1    5    5    0    0 -0.11505804819E+03 -0.34606748643E+03  0.30597995104E+03  0.47605124730E+03  0.00000000000E+00 0.  1.
         22    1    5    5    0    0  0.33453267021E+02  0.44422385648E+03  0.38763806648E+03  0.59052284149E+03  0.00000000000E+00 0.  1.
          5    1    4    4  502    0  0.60370565588E+02 -0.12761190150E+03  0.21454509036E+03  0.25686784227E+03  0.47000000000E+01 0. -1.
         -5    1    4    4    0  502  0.21234215584E+02  0.29455531454E+02  0.40675910694E+02  0.54727871834E+02  0.47000000000E+01 0. -1.
<mgrwt>
<rscale>  0 0.99952815E+03</rscale>
<asrwt>0</asrwt>
<pdfrwt beam="1">  1        3 0.33025446E-01 0.99952815E+03</pdfrwt>
<pdfrwt beam="2">  1       -3 0.17900067E+00 0.99952815E+03</pdfrwt>
<totfact> 0.53385926E+00</totfact>
</mgrwt>
</event>
<event>
 9    1  0.4369420E-036  0.9991239E+03  0.7818608E-02  0.8681873E-01
          3   -1    0    0  501    0  0.00000000000E+00  0.00000000000E+00  0.64959358240E+03  0.64959358240E+03  0.00000000000E+00 0.  1.
         -3   -1    0    0    0  501 -0.00000000000E+00 -0.00000000000E+00 -0.38418198976E+03  0.38418198976E+03  0.00000000000E+00 0.  1.
         36    2    1    2    0    0  0.00000000000E+00  0.00000000000E+00  0.26541159265E+03  0.10337755722E+04  0.99912392629E+03 0.  0.
         25    2    3    3    0    0 -0.10021042559E+03  0.52910899994E+02  0.13334035998E+03  0.21516162260E+03  0.12519256968E+03 0.  0.
         35    2    3    3    0    0  0.10021042559E+03 -0.52910899994E+02  0.13207123267E+03  0.81861394957E+03  0.79990267857E+03 0.  0.
         22    1    5    5    0    0  0.42274670888E+01 -0.24576854432E+03 -0.26835687450E+03  0.36391683246E+03  0.00000000000E+00 0.  1.
         22    1    5    5    0    0  0.95982958505E+02  0.19285764432E+03  0.40042810717E+03  0.45469711711E+03  0.00000000000E+00 0.  1.
          5    1    4    4  502    0 -0.48892504137E+02 -0.14506327711E+02 -0.64621176477E+01  0.51621308284E+02  0.47000000000E+01 0. -1.
         -5    1    4    4    0  502 -0.51317921456E+02  0.67417227705E+02  0.13980247763E+03  0.16354031431E+03  0.47000000000E+01 0. -1.
<mgrwt>
<rscale>  0 0.99912393E+03</rscale>
<asrwt>0</asrwt>
<pdfrwt beam="1">  1        3 0.99937474E-01 0.99912393E+03</pdfrwt>
<pdfrwt beam="2">  1       -3 0.59104922E-01 0.99912393E+03</pdfrwt>
<totfact> 0.10153644E+01</totfact>
</mgrwt>
</event>
<event>
 9    1  0.4369420E-036  0.9929159E+03  0.7818608E-02  0.8687814E-01
         -2   -1    0    0    0  501 -0.00000000000E+00  0.00000000000E+00  0.19721599498E+03  0.19721599498E+03  0.00000000000E+00 0.  1.
          2   -1    0    0  501    0  0.00000000000E+00 -0.00000000000E+00 -0.12497490471E+04  0.12497490471E+04  0.00000000000E+00 0.  1.
         36    2    1    2    0    0 -0.17763568394E-13  0.28421709430E-13 -0.10525330521E+04  0.14469650421E+04  0.99291591146E+03 0.  0.
         25    2    3    3    0    0 -0.12006184662E+02 -0.12321011194E+03 -0.25901226209E+03  0.31270603682E+03  0.12398723078E+03 0.  0.
         35    2    3    3    0    0  0.12006184662E+02  0.12321011194E+03 -0.79352079006E+03  0.11342590053E+04  0.80096402333E+03 0.  0.
         22    1    5    5    0    0 -0.25872548079E+03 -0.52482128133E+02 -0.76614947979E+03  0.81035688037E+03  0.00000000000E+00 0. -1.
         22    1    5    5    0    0  0.27073166545E+03  0.17569224007E+03 -0.27371310273E+02  0.32390212492E+03  0.00000000000E+00 0. -1.
          5    1    4    4  502    0 -0.37754085038E+02 -0.12648166598E+03 -0.14696094372E+03  0.19759198299E+03  0.47000000000E+01 0.  1.
         -5    1    4    4    0  502  0.25747900376E+02  0.32715540342E+01 -0.11205131837E+03  0.11511405383E+03  0.47000000000E+01 0.  1.
<mgrwt>
<rscale>  0 0.99291591E+03</rscale>
<asrwt>0</asrwt>
<pdfrwt beam="1">  1        2 0.19226909E+00 0.99291591E+03</pdfrwt>
<pdfrwt beam="2">  1       -2 0.30340922E-01 0.99291591E+03</pdfrwt>
<totfact> 0.21354986E+02</totfact>
</mgrwt>
</event>
<event>
 9    1  0.4369420E-036  0.9998602E+03  0.7818608E-02  0.8681171E-01
          2   -1    0    0  501    0  0.00000000000E+00  0.00000000000E+00  0.90658152147E+03  0.90658152147E+03  0.00000000000E+00 0. -1.
         -2   -1    0    0    0  501 -0.00000000000E+00 -0.00000000000E+00 -0.27568407985E+03  0.27568407985E+03  0.00000000000E+00 0. -1.
         36    2    1    2    0    0  0.00000000000E+00  0.14210854715E-13  0.63089744162E+03  0.11822656013E+04  0.99986017534E+03 0.  0.
         25    2    3    3    0    0 -0.47427209177E+02 -0.68705733457E+02  0.25255752524E+03  0.29363342519E+03  0.12436023019E+03 0.  0.
         35    2    3    3    0    0  0.47427209177E+02  0.68705733457E+02  0.37833991638E+03  0.88863217613E+03  0.79972259825E+03 0.  0.
         22    1    5    5    0    0  0.25655378788E+02 -0.17603787708E+03 -0.19554517623E+03  0.26435856062E+03  0.00000000000E+00 0. -1.
         22    1    5    5    0    0  0.21771830389E+02  0.24474361054E+03  0.57388509261E+03  0.62427361551E+03  0.00000000000E+00 0. -1.
          5    1    4    4  502    0 -0.83011534852E+02 -0.47460886922E+02  0.11365338438E+03  0.14860226272E+03  0.47000000000E+01 0.  1.
         -5    1    4    4    0  502  0.35584325675E+02 -0.21244846535E+02  0.13890414086E+03  0.14503116246E+03  0.47000000000E+01 0.  1.
<mgrwt>
<rscale>  0 0.99986018E+03</rscale>
<asrwt>0</asrwt>
<pdfrwt beam="1">  1        2 0.13947408E+00 0.99986018E+03</pdfrwt>
<pdfrwt beam="2">  1       -2 0.42412936E-01 0.99986018E+03</pdfrwt>
<totfact> 0.18500218E+02</totfact>
</mgrwt>
</event>
<event>
 9    1  0.4369420E-036  0.9989017E+03  0.7818608E-02  0.8682085E-01
         -1   -1    0    0    0  501 -0.00000000000E+00  0.00000000000E+00  0.75018787193E+03  0.75018787193E+03  0.00000000000E+00 0. -1.
          1   -1    0    0  501    0  0.00000000000E+00 -0.00000000000E+00 -0.33251820923E+03  0.33251820923E+03  0.00000000000E+00 0. -1.
         36    2    1    2    0    0 -0.14210854715E-13  0.00000000000E+00  0.41766966270E+03  0.10827060812E+04  0.99890165233E+03 0.  0.
         25    2    3    3    0    0  0.68837032798E+02 -0.10774831742E+03  0.63074741651E+02  0.19110169921E+03  0.12725250259E+03 0.  0.
         35    2    3    3    0    0 -0.68837032798E+02  0.10774831742E+03  0.35459492105E+03  0.89160438195E+03  0.80800530869E+03 0.  0.
         22    1    5    5    0    0 -0.64836152411E+02  0.30417111655E+03 -0.15351909667E+03  0.34683123827E+03  0.00000000000E+00 0. -1.
         22    1    5    5    0    0 -0.40008803866E+01 -0.19642279912E+03  0.50811401772E+03  0.54477314367E+03  0.00000000000E+00 0. -1.
          5    1    4    4  502    0  0.50808758763E+02 -0.44174396005E+01  0.69007701096E+02  0.85937166292E+02  0.47000000000E+01 0. -1.
         -5    1    4    4    0  502  0.18028274035E+02 -0.10333087782E+03 -0.59329594454E+01  0.10516453292E+03  0.47000000000E+01 0. -1.
<mgrwt>
<rscale>  0 0.99890165E+03</rscale>
<asrwt>0</asrwt>
<pdfrwt beam="1">  1        1 0.51156648E-01 0.99890165E+03</pdfrwt>
<pdfrwt beam="2">  1       -1 0.11541352E+00 0.99890165E+03</pdfrwt>
<totfact> 0.62725594E+01</totfact>
</mgrwt>
</event>
<event>
 9    1  0.4369420E-036  0.9999577E+03  0.7818608E-02  0.8681078E-01
          2   -1    0    0  501    0  0.00000000000E+00  0.00000000000E+00  0.72798413167E+03  0.72798413167E+03  0.00000000000E+00 0.  1.
         -2   -1    0    0    0  501 -0.00000000000E+00 -0.00000000000E+00 -0.34338503162E+03  0.34338503162E+03  0.00000000000E+00 0.  1.
         36    2    1    2    0    0 -0.28421709430E-13  0.00000000000E+00  0.38459910005E+03  0.10713691633E+04  0.99995770724E+03 0.  0.
         25    2    3    3    0    0  0.86565687305E+02  0.42026229323E+02  0.18338001235E+03  0.24285140462E+03  0.12684145074E+03 0.  0.
         35    2    3    3    0    0 -0.86565687305E+02 -0.42026229323E+02  0.20121908770E+03  0.82851775867E+03  0.79793028079E+03 0.  0.
         22    1    5    5    0    0  0.12120061489E+03 -0.13893846605E+03  0.45234931128E+03  0.48848069135E+03  0.00000000000E+00 0.  1.
         22    1    5    5    0    0 -0.20776630220E+03  0.96912236727E+02 -0.25113022358E+03  0.34003706732E+03  0.00000000000E+00 0.  1.
          5    1    4    4  502    0  0.86979529095E+02 -0.89776016414E+01  0.52009838755E+02  0.10184865802E+03  0.47000000000E+01 0. -1.
         -5    1    4    4    0  502 -0.41384179023E+00  0.51003830965E+02  0.13137017359E+03  0.14100274660E+03  0.47000000000E+01 0. -1.
<mgrwt>
<rscale>  0 0.99995771E+03</rscale>
<asrwt>0</asrwt>
<pdfrwt beam="1">  1        2 0.11199756E+00 0.99995771E+03</pdfrwt>
<pdfrwt beam="2">  1       -2 0.52828466E-01 0.99995771E+03</pdfrwt>
<totfact> 0.15942769E+02</totfact>
</mgrwt>
</event>
<event>
 9    1  0.4369420E-036  0.9994434E+03  0.7818608E-02  0.8681568E-01
          2   -1    0    0  501    0  0.00000000000E+00  0.00000000000E+00  0.73350834921E+03  0.73350834921E+03  0.00000000000E+00 0.  1.
         -2   -1    0    0    0  501 -0.00000000000E+00 -0.00000000000E+00 -0.34044847004E+03  0.34044847004E+03  0.00000000000E+00 0.  1.
         36    2    1    2    0    0 -0.14210854715E-13  0.00000000000E+00  0.39305987918E+03  0.10739568193E+04  0.99944343562E+03 0.  0.
         25    2    3    3    0    0  0.35223238293E+02  0.11337528873E+03 -0.65734239714E+01  0.17238299701E+03  0.12481207931E+03 0.  0.
         35    2    3    3    0    0 -0.35223238293E+02 -0.11337528873E+03  0.39963330315E+03  0.90157382225E+03  0.79939598908E+03 0.  0.
         22    1    5    5    0    0 -0.26581509272E+03  0.64690122463E+02  0.51903068551E+03  0.58671571307E+03  0.00000000000E+00 0.  1.
         22    1    5    5    0    0  0.23059185443E+03 -0.17806541120E+03 -0.11939738237E+03  0.31485810917E+03  0.00000000000E+00 0.  1.
          5    1    4    4  502    0  0.76465124090E+02  0.45007343342E+02  0.13623046388E+02  0.89890230558E+02  0.47000000000E+01 0. -1.
         -5    1    4    4    0  502 -0.41241885797E+02  0.68367945393E+02 -0.20196470360E+02  0.82492766449E+02  0.47000000000E+01 0. -1.
<mgrwt>
<rscale>  0 0.99944344E+03</rscale>
<asrwt>0</asrwt>
<pdfrwt beam="1">  1        2 0.11284744E+00 0.99944344E+03</pdfrwt>
<pdfrwt beam="2">  1       -2 0.52376688E-01 0.99944344E+03</pdfrwt>
<totfact> 0.16070421E+02</totfact>
</mgrwt>
</event>
<event>
 9    1  0.4369420E-036  0.9995397E+03  0.7818608E-02  0.8681476E-01
         -1   -1    0    0    0  501 -0.00000000000E+00  0.00000000000E+00  0.30068589944E+03  0.30068589944E+03  0.00000000000E+00 0.  1.
          1   -1    0    0  501    0  0.00000000000E+00 -0.00000000000E+00 -0.83066722854E+03  0.83066722854E+03  0.00000000000E+00 0.  1.
         36    2    1    2    0    0  0.00000000000E+00  0.00000000000E+00 -0.52998132909E+03  0.11313531280E+04  0.99953973958E+03 0.  0.
         25    2    3    3    0    0  0.73763854212E+02 -0.83090150400E+02 -0.19550753256E+03  0.25759496033E+03  0.12564588740E+03 0.  0.
         35    2    3    3    0    0 -0.73763854212E+02  0.83090150400E+02 -0.33447379654E+03  0.87375816764E+03  0.79952206703E+03 0.  0.
         22    1    5    5    0    0 -0.40449437963E+03 -0.46715490714E+02 -0.32050739085E+03  0.51819207618E+03  0.00000000000E+00 0. -1.
         22    1    5    5    0    0  0.33073052542E+03  0.12980564111E+03 -0.13966405689E+02  0.35556609146E+03  0.00000000000E+00 0. -1.
          5    1    4    4  502    0  0.37157415952E+02 -0.25129523672E+01  0.54788078517E+01  0.37935416503E+02  0.47000000000E+01 0. -1.
         -5    1    4    4    0  502  0.36606438261E+02 -0.80577198033E+02 -0.20098634041E+03  0.21965954383E+03  0.47000000000E+01 0. -1.
<mgrwt>
<rscale>  0 0.99953974E+03</rscale>
<asrwt>0</asrwt>
<pdfrwt beam="1">  1        1 0.12779496E+00 0.99953974E+03</pdfrwt>
<pdfrwt beam="2">  1       -1 0.46259369E-01 0.99953974E+03</pdfrwt>
<totfact> 0.10984185E+02</totfact>
</mgrwt>
</event>
<event>
 9    1  0.4369420E-036  0.1002359E+04  0.7818608E-02  0.8678795E-01
          2   -1    0    0  501    0  0.00000000000E+00  0.00000000000E+00  0.11510921863E+04  0.11510921863E+04  0.00000000000E+00 0.  1.
         -2   -1    0    0    0  501 -0.00000000000E+00 -0.00000000000E+00 -0.21821084858E+03  0.21821084858E+03  0.00000000000E+00 0.  1.
         36    2    1    2    0    0 -0.42632564146E-13  0.14210854715E-13  0.93288133770E+03  0.13693030349E+04  0.10023588235E+04 0.  0.
         25    2    3    3    0    0  0.10797205601E+03  0.34073747720E+02  0.51538862626E+02  0.17652578152E+03  0.12524420952E+03 0.  0.
         35    2    3    3    0    0 -0.10797205601E+03 -0.34073747720E+02  0.88134247507E+03  0.11927772533E+04  0.79569719903E+03 0.  0.
         22    1    5    5    0    0  0.15267036249E+03 -0.22957394813E+03  0.81487548914E+03  0.86025257921E+03  0.00000000000E+00 0.  1.
         22    1    5    5    0    0 -0.26064241850E+03  0.19550020041E+03  0.66466985938E+02  0.33252467412E+03  0.00000000000E+00 0.  1.
          5    1    4    4  502    0  0.32583720994E+02  0.16733201719E+01  0.82387141635E+02  0.88736858075E+02  0.47000000000E+01 0.  1.
         -5    1    4    4    0  502  0.75388335014E+02  0.32400427548E+02 -0.30848279009E+02  0.87788923443E+02  0.47000000000E+01 0.  1.
<mgrwt>
<rscale>  0 0.10023588E+04</rscale>
<asrwt>0</asrwt>
<pdfrwt beam="1">  1        2 0.17709110E+00 0.10023588E+04</pdfrwt>
<pdfrwt beam="2">  1       -2 0.33570900E-01 0.10023588E+04</pdfrwt>
<totfact> 0.20277324E+02</totfact>
</mgrwt>
</event>
<event>
 9    1  0.4369420E-036  0.9994619E+03  0.7818608E-02  0.8681551E-01
         -2   -1    0    0    0  501 -0.00000000000E+00  0.00000000000E+00  0.38175616164E+03  0.38175616164E+03  0.00000000000E+00 0.  1.
          2   -1    0    0  501    0  0.00000000000E+00 -0.00000000000E+00 -0.65416375508E+03  0.65416375508E+03  0.00000000000E+00 0.  1.
         36    2    1    2    0    0  0.00000000000E+00 -0.42632564146E-13 -0.27240759344E+03  0.10359199167E+04  0.99946194369E+03 0.  0.
         25    2    3    3    0    0 -0.14366373849E+02 -0.10436280322E+03 -0.14518857363E+03  0.21941963213E+03  0.12636164631E+03 0.  0.
         35    2    3    3    0    0  0.14366373849E+02  0.10436280322E+03 -0.12721901981E+03  0.81650028459E+03  0.79961868934E+03 0.  0.
         22    1    5    5    0    0  0.12619888586E+03  0.42894632607E+03  0.88408474105E+01  0.44721277936E+03  0.00000000000E+00 0.  1.
         22    1    5    5    0    0 -0.11183251201E+03 -0.32458352285E+03 -0.13605986722E+03  0.36928750523E+03  0.00000000000E+00 0.  1.
          5    1    4    4  502    0  0.15971145063E+02 -0.12051591244E+03 -0.80092526464E+02  0.14565735622E+03  0.47000000000E+01 0.  1.
         -5    1    4    4    0  502 -0.30337518913E+02  0.16153109217E+02 -0.65096047166E+02  0.73762275912E+02  0.47000000000E+01 0.  1.
<mgrwt>
<rscale>  0 0.99946194E+03</rscale>
<asrwt>0</asrwt>
<pdfrwt beam="1">  1        2 0.10064058E+00 0.99946194E+03</pdfrwt>
<pdfrwt beam="2">  1       -2 0.58731718E-01 0.99946194E+03</pdfrwt>
<totfact> 0.14623782E+02</totfact>
</mgrwt>
</event>
<event>
 9    1  0.4369420E-036  0.1000492E+04  0.7818608E-02  0.8680569E-01
         -2   -1    0    0    0  501 -0.00000000000E+00  0.00000000000E+00  0.88692908436E+02  0.88692908436E+02  0.00000000000E+00 0.  1.
          2   -1    0    0  501    0  0.00000000000E+00 -0.00000000000E+00 -0.28214910104E+04  0.28214910104E+04  0.00000000000E+00 0.  1.
         36    2    1    2    0    0  0.14210854715E-13  0.00000000000E+00 -0.27327981020E+04  0.29101839188E+04  0.10004923665E+04 0.  0.
         25    2    3    3    0    0  0.78646007615E+02  0.86075964039E+02 -0.28753106573E+03  0.33460027206E+03  0.12525558753E+03 0.  0.
         35    2    3    3    0    0 -0.78646007615E+02 -0.86075964039E+02 -0.24452670362E+04  0.25755836468E+04  0.80044111396E+03 0.  0.
         22    1    5    5    0    0  0.76877884263E+02 -0.64216405053E+02 -0.24132158438E+04  0.24152939085E+04  0.00000000000E+00 0.  1.
         22    1    5    5    0    0 -0.15552389188E+03 -0.21859558987E+02 -0.32051192482E+02  0.16028973830E+03  0.00000000000E+00 0.  1.
          5    1    4    4  502    0 -0.28484890843E+01  0.82263269037E+02 -0.97131527135E+02  0.12740479931E+03  0.47000000000E+01 0. -1.
         -5    1    4    4    0  502  0.81494496699E+02  0.38126950028E+01 -0.19039953859E+03  0.20719547276E+03  0.47000000000E+01 0. -1.
<mgrwt>
<rscale>  0 0.10004924E+04</rscale>
<asrwt>0</asrwt>
<pdfrwt beam="1">  1        2 0.43407554E+00 0.10004924E+04</pdfrwt>
<pdfrwt beam="2">  1       -2 0.13645063E-01 0.10004924E+04</pdfrwt>
<totfact> 0.10262098E+02</totfact>
</mgrwt>
</event>
<event>
 9    1  0.4369420E-036  0.9998730E+03  0.7818608E-02  0.8681159E-01
          2   -1    0    0  501    0  0.00000000000E+00  0.00000000000E+00  0.70276742648E+03  0.70276742648E+03  0.00000000000E+00 0.  1.
         -2   -1    0    0    0  501 -0.00000000000E+00 -0.00000000000E+00 -0.35564610196E+03  0.35564610196E+03  0.00000000000E+00 0.  1.
         36    2    1    2    0    0  0.00000000000E+00  0.00000000000E+00  0.34712132452E+03  0.10584135284E+04  0.99987298357E+03 0.  0.
         25    2    3    3    0    0 -0.24707994662E+02  0.13610725030E+03  0.85187070284E+02  0.20529623573E+03  0.12551509423E+03 0.  0.
         35    2    3    3    0    0  0.24707994662E+02 -0.13610725030E+03  0.26193425424E+03  0.85311729271E+03  0.80003993213E+03 0.  0.
         22    1    5    5    0    0  0.16530415850E+03 -0.22057035373E+03  0.49591848509E+03  0.56737279598E+03  0.00000000000E+00 0. -1.
         22    1    5    5    0    0 -0.14059616383E+03  0.84463103433E+02 -0.23398423085E+03  0.28574449674E+03  0.00000000000E+00 0. -1.
          5    1    4    4  502    0 -0.75852255702E+02  0.84105974507E+02  0.57836268103E+02  0.12725762669E+03  0.47000000000E+01 0. -1.
         -5    1    4    4    0  502  0.51144261040E+02  0.52001275793E+02  0.27350802181E+02  0.78038609043E+02  0.47000000000E+01 0. -1.
<mgrwt>
<rscale>  0 0.99987298E+03</rscale>
<asrwt>0</asrwt>
<pdfrwt beam="1">  1        2 0.10811807E+00 0.99987298E+03</pdfrwt>
<pdfrwt beam="2">  1       -2 0.54714785E-01 0.99987298E+03</pdfrwt>
<totfact> 0.15506409E+02</totfact>
</mgrwt>
</event>
<event>
 9    1  0.4369420E-036  0.9999100E+03  0.7818608E-02  0.8681124E-01
          2   -1    0    0  501    0  0.00000000000E+00  0.00000000000E+00  0.16620975806E+04  0.16620975806E+04  0.00000000000E+00 0. -1.
         -2   -1    0    0    0  501 -0.00000000000E+00 -0.00000000000E+00 -0.15038528339E+03  0.15038528339E+03  0.00000000000E+00 0. -1.
         36    2    1    2    0    0  0.14210854715E-13  0.00000000000E+00  0.15117122972E+04  0.18124828640E+04  0.99991002730E+03 0.  0.
         25    2    3    3    0    0 -0.63487867215E+02 -0.73245447293E+02  0.45769197024E+03  0.48411266321E+03  0.12444889002E+03 0.  0.
         35    2    3    3    0    0  0.63487867215E+02  0.73245447293E+02  0.10540203270E+04  0.13283702008E+04  0.80262876587E+03 0.  0.
         22    1    5    5    0    0 -0.10081868163E+03  0.17547803319E+03 -0.49227343332E+02  0.20827932694E+03  0.00000000000E+00 0.  1.
         22    1    5    5    0    0  0.16430654885E+03 -0.10223258590E+03  0.11032476703E+04  0.11200908738E+04  0.00000000000E+00 0.  1.
          5    1    4    4  502    0 -0.43127783557E+02 -0.80508213147E+02  0.45215167935E+03  0.46130771643E+03  0.47000000000E+01 0. -1.
         -5    1    4    4    0  502 -0.20360083658E+02  0.72627658537E+01  0.55402908855E+01  0.22804946777E+02  0.47000000000E+01 0. -1.
<mgrwt>
<rscale>  0 0.99991003E+03</rscale>
<asrwt>0</asrwt>
<pdfrwt beam="1">  1        2 0.25570731E+00 0.99991003E+03</pdfrwt>
<pdfrwt beam="2">  1       -2 0.23136199E-01 0.99991003E+03</pdfrwt>
<totfact> 0.20186696E+02</totfact>
</mgrwt>
</event>
<event>
 9    1  0.4369420E-036  0.9996545E+03  0.7818608E-02  0.8681367E-01
         -2   -1    0    0    0  501 -0.00000000000E+00  0.00000000000E+00  0.13946695954E+03  0.13946695954E+03  0.00000000000E+00 0.  1.
          2   -1    0    0  501    0  0.00000000000E+00 -0.00000000000E+00 -0.17913008995E+04  0.17913008995E+04  0.00000000000E+00 0.  1.
         36    2    1    2    0    0 -0.88817841970E-14  0.00000000000E+00 -0.16518339399E+04  0.19307678590E+04  0.99965452045E+03 0.  0.
         25    2    3    3    0    0  0.42687550025E-01  0.12569849816E+03 -0.18023790629E+03  0.25133118433E+03  0.12198994668E+03 0.  0.
         35    2    3    3    0    0 -0.42687550025E-01 -0.12569849816E+03 -0.14715960337E+04  0.16794366747E+04  0.79944514743E+03 0.  0.
         22    1    5    5    0    0 -0.37309434439E+03 -0.87064493640E+02 -0.44902191021E+03  0.59025442965E+03  0.00000000000E+00 0. -1.
         22    1    5    5    0    0  0.37305165684E+03 -0.38634004523E+02 -0.10225741234E+04  0.10891822450E+04  0.00000000000E+00 0. -1.
          5    1    4    4  502    0  0.11243808480E+02  0.13876247725E+03 -0.18618595645E+03  0.23252687737E+03  0.47000000000E+01 0. -1.
         -5    1    4    4    0  502 -0.11201120930E+02 -0.13063979089E+02  0.59480501522E+01  0.18804306962E+02  0.47000000000E+01 0. -1.
<mgrwt>
<rscale>  0 0.99965452E+03</rscale>
<asrwt>0</asrwt>
<pdfrwt beam="1">  1        2 0.27558476E+00 0.99965452E+03</pdfrwt>
<pdfrwt beam="2">  1       -2 0.21456455E-01 0.99965452E+03</pdfrwt>
<totfact> 0.19478602E+02</totfact>
</mgrwt>
</event>
<event>
 9    1  0.4369420E-036  0.9994901E+03  0.7818608E-02  0.8681524E-01
          3   -1    0    0  501    0  0.00000000000E+00  0.00000000000E+00  0.24974138047E+04  0.24974138047E+04  0.00000000000E+00 0. -1.
         -3   -1    0    0    0  501 -0.00000000000E+00 -0.00000000000E+00 -0.10000149510E+03  0.10000149510E+03  0.00000000000E+00 0. -1.
         36    2    1    2    0    0  0.28421709430E-13  0.00000000000E+00  0.23974123096E+04  0.25974152998E+04  0.99949009868E+03 0.  0.
         25    2    3    3    0    0 -0.32427295929E+02  0.13367968809E+03  0.52142421538E+03  0.55362456200E+03  0.12528030466E+03 0.  0.
         35    2    3    3    0    0  0.32427295929E+02 -0.13367968809E+03  0.18759880942E+04  0.20437907378E+04  0.79926682759E+03 0.  0.
         22    1    5    5    0    0  0.32211941211E+03 -0.15174183889E+03  0.16139166699E+04  0.16527291123E+04  0.00000000000E+00 0. -1.
         22    1    5    5    0    0 -0.28969211619E+03  0.18062150803E+02  0.26207142433E+03  0.39106162548E+03  0.00000000000E+00 0. -1.
          5    1    4    4  502    0  0.45422741235E+02  0.44568475657E+02  0.23914720510E+03  0.24751373730E+03  0.47000000000E+01 0.  1.
         -5    1    4    4    0  502 -0.77850037163E+02  0.89111212433E+02  0.28227701027E+03  0.30611082470E+03  0.47000000000E+01 0.  1.
<mgrwt>
<rscale>  0 0.99949010E+03</rscale>
<asrwt>0</asrwt>
<pdfrwt beam="1">  1        3 0.38421746E+00 0.99949010E+03</pdfrwt>
<pdfrwt beam="2">  1       -3 0.15384847E-01 0.99949010E+03</pdfrwt>
<totfact> 0.35092000E+00</totfact>
</mgrwt>
</event>
<event>
 9    1  0.4369420E-036  0.9997358E+03  0.7818608E-02  0.8681290E-01
          2   -1    0    0  501    0  0.00000000000E+00  0.00000000000E+00  0.20156791116E+04  0.20156791116E+04  0.00000000000E+00 0. -1.
         -2   -1    0    0    0  501 -0.00000000000E+00 -0.00000000000E+00 -0.12396214680E+03  0.12396214680E+03  0.00000000000E+00 0. -1.
         36    2    1    2    0    0  0.28421709430E-13  0.00000000000E+00  0.18917169648E+04  0.21396412584E+04  0.99973578496E+03 0.  0.
         25    2    3    3    0    0 -0.10371616653E+03 -0.89741614988E+02  0.39881417951E+03  0.44026974171E+03  0.12638866654E+03 0.  0.
         35    2    3    3    0    0  0.10371616653E+03  0.89741614988E+02  0.14929027853E+04  0.16993715167E+04  0.80018386933E+03 0.  0.
         22    1    5    5    0    0 -0.18113703403E+03  0.14100329275E+03  0.59629333377E+02  0.23716705307E+03  0.00000000000E+00 0.  1.
         22    1    5    5    0    0  0.28485320056E+03 -0.51261677758E+02  0.14332734519E+04  0.14622044636E+04  0.00000000000E+00 0.  1.
          5    1    4    4  502    0 -0.48933162985E+02 -0.77552370713E+02  0.98258256397E+02  0.13448271113E+03  0.47000000000E+01 0. -1.
         -5    1    4    4    0  502 -0.54783003541E+02 -0.12189244275E+02  0.30055592311E+03  0.30578703058E+03  0.47000000000E+01 0. -1.
<mgrwt>
<rscale>  0 0.99973578E+03</rscale>
<asrwt>0</asrwt>
<pdfrwt beam="1">  1        2 0.31010445E+00 0.99973578E+03</pdfrwt>
<pdfrwt beam="2">  1       -2 0.19071101E-01 0.99973578E+03</pdfrwt>
<totfact> 0.17826219E+02</totfact>
</mgrwt>
</event>
<event>
 9    1  0.4369420E-036  0.9999445E+03  0.7818608E-02  0.8681091E-01
          2   -1    0    0  501    0  0.00000000000E+00  0.00000000000E+00  0.14216868218E+04  0.14216868218E+04  0.00000000000E+00 0. -1.
         -2   -1    0    0    0  501 -0.00000000000E+00 -0.00000000000E+00 -0.17582793615E+03  0.17582793615E+03  0.00000000000E+00 0. -1.
         36    2    1    2    0    0  0.00000000000E+00  0.28421709430E-13  0.12458588856E+04  0.15975147579E+04  0.99994451791E+03 0.  0.
         25    2    3    3    0    0  0.33742348209E+02 -0.13480704741E+03  0.26797736491E+03  0.32560203995E+03  0.12203824901E+03 0.  0.
         35    2    3    3    0    0 -0.33742348209E+02  0.13480704741E+03  0.97788152070E+03  0.12719127180E+04  0.80137270199E+03 0.  0.
         22    1    5    5    0    0  0.25754032229E+03  0.29437631581E+03  0.81061356871E+03  0.90004377154E+03  0.00000000000E+00 0.  1.
         22    1    5    5    0    0 -0.29128267050E+03 -0.15956926840E+03  0.16726795199E+03  0.37186894642E+03  0.00000000000E+00 0.  1.
          5    1    4    4  502    0  0.57421012209E+02 -0.16044472372E+02  0.58900593140E+02  0.83940262146E+02  0.47000000000E+01 0.  1.
         -5    1    4    4    0  502 -0.23678664001E+02 -0.11876257504E+03  0.20907677177E+03  0.24166177780E+03  0.47000000000E+01 0.  1.
<mgrwt>
<rscale>  0 0.99994452E+03</rscale>
<asrwt>0</asrwt>
<pdfrwt beam="1">  1        2 0.21872104E+00 0.99994452E+03</pdfrwt>
<pdfrwt beam="2">  1       -2 0.27050453E-01 0.99994452E+03</pdfrwt>
<totfact> 0.20919456E+02</totfact>
</mgrwt>
</event>
<event>
 9    1  0.4369420E-036  0.9998018E+03  0.7818608E-02  0.8681227E-01
          2   -1    0    0  501    0  0.00000000000E+00  0.00000000000E+00  0.21669737031E+04  0.21669737031E+04  0.00000000000E+00 0. -1.
         -2   -1    0    0    0  501 -0.00000000000E+00 -0.00000000000E+00 -0.11532254769E+03  0.11532254769E+03  0.00000000000E+00 0. -1.
         36    2    1    2    0    0  0.00000000000E+00  0.00000000000E+00  0.20516511554E+04  0.22822962508E+04  0.99980183678E+03 0.  0.
         25    2    3    3    0    0 -0.68021963803E+02  0.87779618032E+02  0.19157700295E+03  0.25432370877E+03  0.12508617782E+03 0.  0.
         35    2    3    3    0    0  0.68021963803E+02 -0.87779618032E+02  0.18600741525E+04  0.20279725420E+04  0.80029027834E+03 0.  0.
         22    1    5    5    0    0  0.27445420784E+03 -0.32623121626E+03  0.14455432917E+04  0.15070989772E+04  0.00000000000E+00 0.  1.
         22    1    5    5    0    0 -0.20643224404E+03  0.23845159823E+03  0.41453086074E+03  0.52087356487E+03  0.00000000000E+00 0.  1.
          5    1    4    4  502    0 -0.91113130764E+02  0.58475710351E+02  0.18741731797E+03  0.21649099837E+03  0.47000000000E+01 0. -1.
         -5    1    4    4    0  502  0.23091166962E+02  0.29303907682E+02  0.41596849757E+01  0.37832710399E+02  0.47000000000E+01 0. -1.
<mgrwt>
<rscale>  0 0.99980184E+03</rscale>
<asrwt>0</asrwt>
<pdfrwt beam="1">  1        2 0.33338054E+00 0.99980184E+03</pdfrwt>
<pdfrwt beam="2">  1       -2 0.17741932E-01 0.99980184E+03</pdfrwt>
<totfact> 0.16516558E+02</totfact>
</mgrwt>
</event>
<event>
 9    1  0.4369420E-036  0.1002710E+04  0.7818608E-02  0.8678462E-01
          4   -1    0    0  501    0  0.00000000000E+00  0.00000000000E+00  0.10102735082E+04  0.10102735082E+04  0.00000000000E+00 0.  1.
         -4   -1    0    0    0  501 -0.00000000000E+00 -0.00000000000E+00 -0.24880072207E+03  0.24880072207E+03  0.00000000000E+00 0.  1.
         36    2    1    2    0    0  0.00000000000E+00 -0.28421709430E-13  0.76147278608E+03  0.12590742302E+04  0.10027098849E+04 0.  0.
         25    2    3    3    0    0 -0.13393263606E+03 -0.30796978369E+02  0.19674666096E+03  0.27052887948E+03  0.12486080713E+03 0.  0.
         35    2    3    3    0    0  0.13393263606E+03  0.30796978369E+02  0.56472612512E+03  0.98854535074E+03  0.79963736106E+03 0.  0.
         22    1    5    5    0    0 -0.27963991402E+03 -0.14735357090E+03  0.78221829606E+02  0.32562280478E+03  0.00000000000E+00 0.  1.
         22    1    5    5    0    0  0.41357255008E+03  0.17815054927E+03  0.48650429552E+03  0.66292254596E+03  0.00000000000E+00 0.  1.
          5    1    4    4  502    0 -0.11647080735E+03  0.27197099628E+02  0.15896533120E+03  0.19899044630E+03  0.47000000000E+01 0. -1.
         -5    1    4    4    0  502 -0.17461828710E+02 -0.57994077997E+02  0.37781329756E+02  0.71538433186E+02  0.47000000000E+01 0. -1.
<mgrwt>
<rscale>  0 0.10027099E+04</rscale>
<asrwt>0</asrwt>
<pdfrwt beam="1">  1        4 0.15542669E+00 0.10027099E+04</pdfrwt>
<pdfrwt beam="2">  1       -4 0.38277035E-01 0.10027099E+04</pdfrwt>
<totfact> 0.35473835E+00</totfact>
</mgrwt>
</event>
<event>
 9    1  0.4369420E-036  0.9996733E+03  0.7818608E-02  0.8681349E-01
          2   -1    0    0  501    0  0.00000000000E+00  0.00000000000E+00  0.24202354814E+03  0.24202354814E+03  0.00000000000E+00 0. -1.
         -2   -1    0    0    0  501 -0.00000000000E+00 -0.00000000000E+00 -0.10322825861E+04  0.10322825861E+04  0.00000000000E+00 0. -1.
         36    2    1    2    0    0  0.00000000000E+00  0.17763568394E-13 -0.79025903801E+03  0.12743061343E+04  0.99967333500E+03 0.  0.
         25    2    3    3    0    0  0.13959096091E+03 -0.27584288865E+02 -0.17037203616E+03  0.25294037606E+03  0.12126695252E+03 0.  0.
         35    2    3    3    0    0 -0.13959096091E+03  0.27584288865E+02 -0.61988700184E+03  0.10213657582E+04  0.79917556748E+03 0.  0.
         22    1    5    5    0    0 -0.15772050750E+02  0.28160352455E+03 -0.67669713820E+03  0.73312230867E+03  0.00000000000E+00 0.  1.
         22    1    5    5    0    0 -0.12381891016E+03 -0.25401923569E+03  0.56810136358E+02  0.28824344955E+03  0.00000000000E+00 0.  1.
          5    1    4    4  502    0  0.12916796295E+03  0.21489560220E+02 -0.14840944028E+03  0.19797377558E+03  0.47000000000E+01 0.  1.
         -5    1    4    4    0  502  0.10422997961E+02 -0.49073849085E+02 -0.21962595882E+02  0.54966600481E+02  0.47000000000E+01 0.  1.
<mgrwt>
<rscale>  0 0.99967334E+03</rscale>
<asrwt>0</asrwt>
<pdfrwt beam="1">  1        2 0.37234392E-01 0.99967334E+03</pdfrwt>
<pdfrwt beam="2">  1       -2 0.15881271E+00 0.99967334E+03</pdfrwt>
<totfact> 0.40294020E+01</totfact>
</mgrwt>
</event>
<event>
 9    1  0.4369420E-036  0.1000203E+04  0.7818608E-02  0.8680845E-01
          1   -1    0    0  501    0  0.00000000000E+00  0.00000000000E+00  0.30249789652E+03  0.30249789652E+03  0.00000000000E+00 0.  1.
         -1   -1    0    0    0  501 -0.00000000000E+00 -0.00000000000E+00 -0.82678706211E+03  0.82678706211E+03  0.00000000000E+00 0.  1.
         36    2    1    2    0    0  0.00000000000E+00 -0.53290705182E-14 -0.52428916559E+03  0.11292849586E+04  0.10002026738E+04 0.  0.
         25    2    3    3    0    0  0.13030836855E+03 -0.10937051441E+02 -0.16317350398E+03  0.24359439064E+03  0.12495096934E+03 0.  0.
         35    2    3    3    0    0 -0.13030836855E+03  0.10937051441E+02 -0.36111566161E+03  0.88569056800E+03  0.79808732052E+03 0.  0.
         22    1    5    5    0    0  0.22201577161E+02  0.39134266308E+03 -0.11881399711E+03  0.40958363723E+03  0.00000000000E+00 0. -1.
         22    1    5    5    0    0 -0.15250994571E+03 -0.38040561164E+03 -0.24230166451E+03  0.47610693077E+03  0.00000000000E+00 0. -1.
          5    1    4    4  502    0  0.12491157035E+03  0.51142315804E+01 -0.18003821725E+03  0.21923709869E+03  0.47000000000E+01 0. -1.
         -5    1    4    4    0  502  0.53967982048E+01 -0.16051283022E+02  0.16864713267E+02  0.24357291949E+02  0.47000000000E+01 0. -1.
<mgrwt>
<rscale>  0 0.10002027E+04</rscale>
<asrwt>0</asrwt>
<pdfrwt beam="1">  1        1 0.46538138E-01 0.10002027E+04</pdfrwt>
<pdfrwt beam="2">  1       -1 0.12719801E+00 0.10002027E+04</pdfrwt>
<totfact> 0.55723385E+01</totfact>
</mgrwt>
</event>
<event>
 9    1  0.4369420E-036  0.9997139E+03  0.7818608E-02  0.8681310E-01
         -2   -1    0    0    0  501 -0.00000000000E+00  0.00000000000E+00  0.23248843937E+03  0.23248843937E+03  0.00000000000E+00 0.  1.
          2   -1    0    0  501    0  0.00000000000E+00 -0.00000000000E+00 -0.10747069746E+04  0.10747069746E+04  0.00000000000E+00 0.  1.
         36    2    1    2    0    0  0.00000000000E+00  0.00000000000E+00 -0.84221853519E+03  0.13071954139E+04  0.99971385365E+03 0.  0.
         25    2    3    3    0    0 -0.23317587458E+02 -0.12649697594E+03 -0.84358068507E+02  0.19723856398E+03  0.12345676406E+03 0.  0.
         35    2    3    3    0    0  0.23317587458E+02  0.12649697594E+03 -0.75786046668E+03  0.11099568499E+04  0.80069128069E+03 0.  0.
         22    1    5    5    0    0  0.22675614382E+03  0.27019018733E+03 -0.45925023806E+02  0.35571082905E+03  0.00000000000E+00 0.  1.
         22    1    5    5    0    0 -0.20343855636E+03 -0.14369321139E+03 -0.71193544287E+03  0.75424602089E+03  0.00000000000E+00 0.  1.
          5    1    4    4  502    0 -0.64997117793E+02 -0.11808395853E+03 -0.71020425361E+02  0.15242846651E+03  0.47000000000E+01 0. -1.
         -5    1    4    4    0  502  0.41679530335E+02 -0.84130174060E+01 -0.13337643147E+02  0.44810097473E+02  0.47000000000E+01 0. -1.
<mgrwt>
<rscale>  0 0.99971385E+03</rscale>
<asrwt>0</asrwt>
<pdfrwt beam="1">  1        2 0.16533953E+00 0.99971385E+03</pdfrwt>
<pdfrwt beam="2">  1       -2 0.35767453E-01 0.99971385E+03</pdfrwt>
<totfact> 0.20039517E+02</totfact>
</mgrwt>
</event>
<event>
 9    1  0.4369420E-036  0.9995308E+03  0.7818608E-02  0.8681485E-01
         -2   -1    0    0    0  501 -0.00000000000E+00  0.00000000000E+00  0.11212287664E+03  0.11212287664E+03  0.00000000000E+00 0.  1.
          2   -1    0    0  501    0  0.00000000000E+00 -0.00000000000E+00 -0.22276048709E+04  0.22276048709E+04  0.00000000000E+00 0.  1.
         36    2    1    2    0    0  0.35527136788E-13 -0.56843418861E-13 -0.21154819942E+04  0.23397277475E+04  0.99953082220E+03 0.  0.
         25    2    3    3    0    0  0.16128792644E+02 -0.13558315101E+03 -0.33442794843E+03  0.38220501736E+03  0.12488272024E+03 0.  0.
         35    2    3    3    0    0 -0.16128792644E+02  0.13558315101E+03 -0.17810540458E+04  0.19575227301E+04  0.80068645310E+03 0.  0.
         22    1    5    5    0    0 -0.29745872335E+03  0.32517041157E+03 -0.12684407583E+04  0.13428177262E+04  0.00000000000E+00 0.  1.
         22    1    5    5    0    0  0.28132993070E+03 -0.18958726057E+03 -0.51261328753E+03  0.61470500391E+03  0.00000000000E+00 0.  1.
          5    1    4    4  502    0  0.40964100189E+02 -0.38117058696E+02 -0.34682214690E+02  0.65999346086E+02  0.47000000000E+01 0.  1.
         -5    1    4    4    0  502 -0.24835307545E+02 -0.97466092310E+02 -0.29974573374E+03  0.31620567127E+03  0.47000000000E+01 0.  1.
<mgrwt>
<rscale>  0 0.99953082E+03</rscale>
<asrwt>0</asrwt>
<pdfrwt beam="1">  1        2 0.34270844E+00 0.99953082E+03</pdfrwt>
<pdfrwt beam="2">  1       -2 0.17249673E-01 0.99953082E+03</pdfrwt>
<totfact> 0.15977560E+02</totfact>
</mgrwt>
</event>
<event>
 9    1  0.4369420E-036  0.9995459E+03  0.7818608E-02  0.8681471E-01
          1   -1    0    0  501    0  0.00000000000E+00  0.00000000000E+00  0.63989166799E+03  0.63989166799E+03  0.00000000000E+00 0.  1.
         -1   -1    0    0    0  501 -0.00000000000E+00 -0.00000000000E+00 -0.39033637785E+03  0.39033637785E+03  0.00000000000E+00 0.  1.
         36    2    1    2    0    0 -0.71054273576E-14 -0.14210854715E-13  0.24955529013E+03  0.10302280458E+04  0.99954588869E+03 0.  0.
         25    2    3    3    0    0  0.13643965850E+02  0.43130041179E+02  0.18271637311E+03  0.22595514856E+03  0.12499639157E+03 0.  0.
         35    2    3    3    0    0 -0.13643965850E+02 -0.43130041179E+02  0.66838917026E+02  0.80427289728E+03  0.80021315548E+03 0.  0.
         22    1    5    5    0    0 -0.17137212728E+03  0.27599909625E+03 -0.17969430915E+03  0.37125995189E+03  0.00000000000E+00 0.  1.
         22    1    5    5    0    0  0.15772816143E+03 -0.31912913743E+03  0.24653322617E+03  0.43301294538E+03  0.00000000000E+00 0.  1.
          5    1    4    4  502    0 -0.43338234588E+02  0.35119798797E+02  0.31819841074E+02  0.64390955348E+02  0.47000000000E+01 0. -1.
         -5    1    4    4    0  502  0.56982200437E+02  0.80102423822E+01  0.15089653203E+03  0.16156419322E+03  0.47000000000E+01 0. -1.
<mgrwt>
<rscale>  0 0.99954589E+03</rscale>
<asrwt>0</asrwt>
<pdfrwt beam="1">  1        1 0.98444871E-01 0.99954589E+03</pdfrwt>
<pdfrwt beam="2">  1       -1 0.60051751E-01 0.99954589E+03</pdfrwt>
<totfact> 0.10147610E+02</totfact>
</mgrwt>
</event>
<event>
 9    1  0.4369420E-036  0.1000281E+04  0.7818608E-02  0.8680771E-01
          2   -1    0    0  501    0  0.00000000000E+00  0.00000000000E+00  0.11620322542E+04  0.11620322542E+04  0.00000000000E+00 0.  1.
         -2   -1    0    0    0  501 -0.00000000000E+00 -0.00000000000E+00 -0.21526120001E+03  0.21526120001E+03  0.00000000000E+00 0.  1.
         36    2    1    2    0    0  0.14210854715E-13  0.42632564146E-13  0.94677105420E+03  0.13772934542E+04  0.10002808755E+04 0.  0.
         25    2    3    3    0    0  0.83808331415E+02 -0.85375739052E+02  0.21976239452E+03  0.27918935949E+03  0.12384803259E+03 0.  0.
         35    2    3    3    0    0 -0.83808331415E+02  0.85375739052E+02  0.72700865969E+03  0.10981040947E+04  0.81423470719E+03 0.  0.
         22    1    5    5    0    0  0.12125415991E+03  0.37649160073E+03  0.15605146146E+03  0.42520648554E+03  0.00000000000E+00 0.  1.
         22    1    5    5    0    0 -0.20506249133E+03 -0.29111586168E+03  0.57095719822E+03  0.67289760920E+03  0.00000000000E+00 0.  1.
          5    1    4    4  502    0  0.12202446999E+02 -0.23002792229E+02 -0.11721761397E+02  0.28939900714E+02  0.47000000000E+01 0. -1.
         -5    1    4    4    0  502  0.71605884416E+02 -0.62372946823E+02  0.23148415591E+03  0.25024945878E+03  0.47000000000E+01 0. -1.
<mgrwt>
<rscale>  0 0.10002809E+04</rscale>
<asrwt>0</asrwt>
<pdfrwt beam="1">  1        2 0.17877419E+00 0.10002809E+04</pdfrwt>
<pdfrwt beam="2">  1       -2 0.33117108E-01 0.10002809E+04</pdfrwt>
<totfact> 0.20484496E+02</totfact>
</mgrwt>
</event>
<event>
 9    1  0.4369420E-036  0.9994362E+03  0.7818608E-02  0.8681575E-01
          2   -1    0    0  501    0  0.00000000000E+00  0.00000000000E+00  0.14249888118E+04  0.14249888118E+04  0.00000000000E+00 0.  1.
         -2   -1    0    0    0  501 -0.00000000000E+00 -0.00000000000E+00 -0.17524218624E+03  0.17524218624E+03  0.00000000000E+00 0.  1.
         36    2    1    2    0    0  0.28421709430E-13 -0.71054273576E-14  0.12497466255E+04  0.16002309980E+04  0.99943615053E+03 0.  0.
         25    2    3    3    0    0 -0.98937153002E+02  0.49882207455E+02  0.37462908031E+03  0.40988737206E+03  0.12403191160E+03 0.  0.
         35    2    3    3    0    0  0.98937153002E+02 -0.49882207455E+02  0.87511754522E+03  0.11903436260E+04  0.79925617610E+03 0.  0.
         22    1    5    5    0    0 -0.18490788881E+03 -0.32735236855E+03  0.25578108771E+03  0.45472460387E+03  0.00000000000E+00 0.  1.
         22    1    5    5    0    0  0.28384504181E+03  0.27747016109E+03  0.61933645751E+03  0.73561902209E+03  0.00000000000E+00 0.  1.
          5    1    4    4  502    0 -0.44000978927E+02  0.92147002685E+01  0.21283071287E+02  0.49960544142E+02  0.47000000000E+01 0. -1.
         -5    1    4    4    0  502 -0.54936174075E+02  0.40667507187E+02  0.35334600902E+03  0.35992682792E+03  0.47000000000E+01 0. -1.
<mgrwt>
<rscale>  0 0.99943615E+03</rscale>
<asrwt>0</asrwt>
<pdfrwt beam="1">  1        2 0.21922904E+00 0.99943615E+03</pdfrwt>
<pdfrwt beam="2">  1       -2 0.26960337E-01 0.99943615E+03</pdfrwt>
<totfact> 0.20954084E+02</totfact>
</mgrwt>
</event>
<event>
 9    1  0.4369420E-036  0.9959405E+03  0.7818608E-02  0.8684913E-01
          2   -1    0    0  501    0  0.00000000000E+00  0.00000000000E+00  0.81286478989E+03  0.81286478989E+03  0.00000000000E+00 0. -1.
         -2   -1    0    0    0  501 -0.00000000000E+00 -0.00000000000E+00 -0.30506228056E+03  0.30506228056E+03  0.00000000000E+00 0. -1.
         36    2    1    2    0    0 -0.71054273576E-14  0.00000000000E+00  0.50780250933E+03  0.11179270705E+04  0.99594053355E+03 0.  0.
         25    2    3    3    0    0 -0.46496121744E+02  0.11552978417E+03  0.34142308062E+02  0.17962571319E+03  0.12486264161E+03 0.  0.
         35    2    3    3    0    0  0.46496121744E+02 -0.11552978417E+03  0.47366020126E+03  0.93830135726E+03  0.80034144614E+03 0.  0.
         22    1    5    5    0    0  0.87517805094E+02  0.33870155696E+03  0.25246615972E+03  0.43141311141E+03  0.00000000000E+00 0.  1.
         22    1    5    5    0    0 -0.41021683350E+02 -0.45423134113E+03  0.22119404155E+03  0.50688824585E+03  0.00000000000E+00 0.  1.
          5    1    4    4  502    0 -0.38025315366E+02  0.14142821331E+03  0.18052336039E+02  0.14763414567E+03  0.47000000000E+01 0.  1.
         -5    1    4    4    0  502 -0.84708063776E+01 -0.25898429144E+02  0.16089972023E+02  0.31991567522E+02  0.47000000000E+01 0.  1.
<mgrwt>
<rscale>  0 0.99594053E+03</rscale>
<asrwt>0</asrwt>
<pdfrwt beam="1">  1        2 0.12505612E+00 0.99594053E+03</pdfrwt>
<pdfrwt beam="2">  1       -2 0.46932659E-01 0.99594053E+03</pdfrwt>
<totfact> 0.17557162E+02</totfact>
</mgrwt>
</event>
<event>
 9    1  0.4369420E-036  0.1000004E+04  0.7818608E-02  0.8681034E-01
          2   -1    0    0  501    0  0.00000000000E+00  0.00000000000E+00  0.24430025097E+04  0.24430025097E+04  0.00000000000E+00 0.  1.
         -2   -1    0    0    0  501 -0.00000000000E+00 -0.00000000000E+00 -0.10233397731E+03  0.10233397731E+03  0.00000000000E+00 0.  1.
         36    2    1    2    0    0  0.71054273576E-14  0.28421709430E-13  0.23406685324E+04  0.25453364871E+04  0.10000043268E+04 0.  0.
         25    2    3    3    0    0 -0.46257051171E+02  0.12452228657E+03  0.55544851183E+03  0.58455927964E+03  0.12466349700E+03 0.  0.
         35    2    3    3    0    0  0.46257051171E+02 -0.12452228657E+03  0.17852200206E+04  0.19607772074E+04  0.79999451281E+03 0.  0.
         22    1    5    5    0    0  0.50727143291E+02 -0.46502868588E+03  0.11100653263E+04  0.12046036487E+04  0.00000000000E+00 0.  1.
         22    1    5    5    0    0 -0.44700921198E+01  0.34050639931E+03  0.67515469426E+03  0.75617355870E+03  0.00000000000E+00 0.  1.
          5    1    4    4  502    0 -0.79047237688E+02  0.74336699536E+02  0.45234690971E+03  0.46520342584E+03  0.47000000000E+01 0.  1.
         -5    1    4    4    0  502  0.32790186517E+02  0.50185587037E+02  0.10310160212E+03  0.11935585381E+03  0.47000000000E+01 0.  1.
<mgrwt>
<rscale>  0 0.10000043E+04</rscale>
<asrwt>0</asrwt>
<pdfrwt beam="1">  1        2 0.37584650E+00 0.10000043E+04</pdfrwt>
<pdfrwt beam="2">  1       -2 0.15743691E-01 0.10000043E+04</pdfrwt>
<totfact> 0.13899747E+02</totfact>
</mgrwt>
</event>
<event>
 9    1  0.4369420E-036  0.1000190E+04  0.7818608E-02  0.8680857E-01
          2   -1    0    0  501    0  0.00000000000E+00  0.00000000000E+00  0.28485080744E+03  0.28485080744E+03  0.00000000000E+00 0. -1.
         -2   -1    0    0    0  501 -0.00000000000E+00 -0.00000000000E+00 -0.87798582017E+03  0.87798582017E+03  0.00000000000E+00 0. -1.
         36    2    1    2    0    0  0.00000000000E+00  0.21316282073E-13 -0.59313501273E+03  0.11628366276E+04  0.10001899216E+04 0.  0.
         25    2    3    3    0    0  0.89175276652E+02 -0.46185555976E+02  0.50925674535E+01  0.15886651710E+03  0.12299309113E+03 0.  0.
         35    2    3    3    0    0 -0.89175276652E+02  0.46185555976E+02 -0.59822758018E+03  0.10039701105E+04  0.79999650597E+03 0.  0.
         22    1    5    5    0    0  0.35173073046E+02 -0.30051543816E+03 -0.13201665923E+01  0.30256968863E+03  0.00000000000E+00 0.  1.
         22    1    5    5    0    0 -0.12434834970E+03  0.34670099414E+03 -0.59690741359E+03  0.70140042188E+03  0.00000000000E+00 0.  1.
          5    1    4    4  502    0  0.93252852889E+02 -0.84878760646E+01 -0.38098231751E+02  0.10120130372E+03  0.47000000000E+01 0.  1.
         -5    1    4    4    0  502 -0.40775762366E+01 -0.37697679911E+02  0.43190799205E+02  0.57665213384E+02  0.47000000000E+01 0.  1.
<mgrwt>
<rscale>  0 0.10001899E+04</rscale>
<asrwt>0</asrwt>
<pdfrwt beam="1">  1        2 0.43823201E-01 0.10001899E+04</pdfrwt>
<pdfrwt beam="2">  1       -2 0.13507474E+00 0.10001899E+04</pdfrwt>
<totfact> 0.52636364E+01</totfact>
</mgrwt>
</event>
<event>
 9    1  0.4369420E-036  0.9990437E+03  0.7818608E-02  0.8681949E-01
         -2   -1    0    0    0  501 -0.00000000000E+00  0.00000000000E+00  0.72875331984E+03  0.72875331984E+03  0.00000000000E+00 0.  1.
          2   -1    0    0  501    0  0.00000000000E+00 -0.00000000000E+00 -0.34239583289E+03  0.34239583289E+03  0.00000000000E+00 0.  1.
         36    2    1    2    0    0 -0.71054273576E-14 -0.28421709430E-13  0.38635748695E+03  0.10711491527E+04  0.99904374262E+03 0.  0.
         25    2    3    3    0    0  0.28171272449E+02 -0.11219713931E+03  0.15405075785E+03  0.23031105376E+03  0.12621302162E+03 0.  0.
         35    2    3    3    0    0 -0.28171272449E+02  0.11219713931E+03  0.23230672910E+03  0.84083809897E+03  0.79978776787E+03 0.  0.
         22    1    5    5    0    0 -0.19156686776E+03 -0.21212835812E+03 -0.14213349132E+03  0.31921502862E+03  0.00000000000E+00 0.  1.
         22    1    5    5    0    0  0.16339559531E+03  0.32432549743E+03  0.37444022042E+03  0.52162307035E+03  0.00000000000E+00 0.  1.
          5    1    4    4  502    0  0.60280639413E+02 -0.12281704770E+03  0.11913364633E+03  0.18147368510E+03  0.47000000000E+01 0. -1.
         -5    1    4    4    0  502 -0.32109366964E+02  0.10619908387E+02  0.34917111519E+02  0.48837368662E+02  0.47000000000E+01 0. -1.
<mgrwt>
<rscale>  0 0.99904374E+03</rscale>
<asrwt>0</asrwt>
<pdfrwt beam="1">  1        2 0.52676282E-01 0.99904374E+03</pdfrwt>
<pdfrwt beam="2">  1       -2 0.11211590E+00 0.99904374E+03</pdfrwt>
<totfact> 0.69880292E+01</totfact>
</mgrwt>
</event>
<event>
 9    1  0.4369420E-036  0.9981983E+03  0.7818608E-02  0.8682756E-01
          1   -1    0    0  501    0  0.00000000000E+00  0.00000000000E+00  0.46654609943E+03  0.46654609943E+03  0.00000000000E+00 0. -1.
         -1   -1    0    0    0  501 -0.00000000000E+00 -0.00000000000E+00 -0.53392352863E+03  0.53392352863E+03  0.00000000000E+00 0. -1.
         36    2    1    2    0    0  0.00000000000E+00 -0.37303493627E-13 -0.67377429195E+02  0.10004696281E+04  0.99819825622E+03 0.  0.
         25    2    3    3    0    0 -0.71642333178E+02  0.13955746848E+02 -0.12384870520E+03  0.19506638441E+03  0.13185221187E+03 0.  0.
         35    2    3    3    0    0  0.71642333178E+02 -0.13955746848E+02  0.56471276005E+02  0.80540324365E+03  0.80009873959E+03 0.  0.
         22    1    5    5    0    0  0.16870225032E+03 -0.38140566079E+03 -0.20825618837E+02  0.41756967532E+03  0.00000000000E+00 0. -1.
         22    1    5    5    0    0 -0.97059917142E+02  0.36744991394E+03  0.77296894841E+02  0.38783356833E+03  0.00000000000E+00 0. -1.
          5    1    4    4  502    0  0.24144806287E+02  0.27618639636E+02 -0.81193666230E+02  0.89220302408E+02  0.47000000000E+01 0.  1.
         -5    1    4    4    0  502 -0.95787139465E+02 -0.13662892788E+02 -0.42655038969E+02  0.10584608200E+03  0.47000000000E+01 0.  1.
<mgrwt>
<rscale>  0 0.99819826E+03</rscale>
<asrwt>0</asrwt>
<pdfrwt beam="1">  1        1 0.71776323E-01 0.99819826E+03</pdfrwt>
<pdfrwt beam="2">  1       -1 0.82142081E-01 0.99819826E+03</pdfrwt>
<totfact> 0.85129897E+01</totfact>
</mgrwt>
</event>
<event>
 9    1  0.4369420E-036  0.1003184E+04  0.7818608E-02  0.8678012E-01
         -2   -1    0    0    0  501 -0.00000000000E+00  0.00000000000E+00  0.47236938399E+03  0.47236938399E+03  0.00000000000E+00 0. -1.
          2   -1    0    0  501    0  0.00000000000E+00 -0.00000000000E+00 -0.53262227720E+03  0.53262227720E+03  0.00000000000E+00 0. -1.
         36    2    1    2    0    0 -0.71054273576E-14  0.00000000000E+00 -0.60252893213E+02  0.10049916612E+04  0.10031838455E+04 0.  0.
         25    2    3    3    0    0  0.93190949790E+01  0.43978238021E+01  0.13385723382E+03  0.18190206751E+03  0.12273718561E+03 0.  0.
         35    2    3    3    0    0 -0.93190949790E+01 -0.43978238021E+01 -0.19411012703E+03  0.82308959368E+03  0.79980719640E+03 0.  0.
         22    1    5    5    0    0 -0.12314107201E+03  0.28087469023E+03  0.16685648811E+03  0.34913522144E+03  0.00000000000E+00 0.  1.
         22    1    5    5    0    0  0.11382197703E+03 -0.28527251403E+03 -0.36096661514E+03  0.47395437224E+03  0.00000000000E+00 0.  1.
          5    1    4    4  502    0 -0.32501753506E+02  0.46268168637E+02  0.35227201058E+02  0.66784377697E+02  0.47000000000E+01 0.  1.
         -5    1    4    4    0  502  0.41820848485E+02 -0.41870344835E+02  0.98630032763E+02  0.11511768981E+03  0.47000000000E+01 0.  1.
<mgrwt>
<rscale>  0 0.10031838E+04</rscale>
<asrwt>0</asrwt>
<pdfrwt beam="1">  1        2 0.81941889E-01 0.10031838E+04</pdfrwt>
<pdfrwt beam="2">  1       -2 0.72672213E-01 0.10031838E+04</pdfrwt>
<totfact> 0.11836312E+02</totfact>
</mgrwt>
</event>
<event>
 9    1  0.4369420E-036  0.1000033E+04  0.7818608E-02  0.8681006E-01
         -2   -1    0    0    0  501 -0.00000000000E+00  0.00000000000E+00  0.20362622504E+03  0.20362622504E+03  0.00000000000E+00 0. -1.
          2   -1    0    0  501    0  0.00000000000E+00 -0.00000000000E+00 -0.12278214779E+04  0.12278214779E+04  0.00000000000E+00 0. -1.
         36    2    1    2    0    0 -0.35527136788E-14  0.28421709430E-13 -0.10241952528E+04  0.14314477029E+04  0.10000333046E+04 0.  0.
         25    2    3    3    0    0  0.19047042843E+02  0.13964314356E+03 -0.16145980568E+03  0.24719492570E+03  0.12317899600E+03 0.  0.
         35    2    3    3    0    0 -0.19047042843E+02 -0.13964314356E+03 -0.86273544716E+03  0.11842527772E+04  0.79892377058E+03 0.  0.
         22    1    5    5    0    0 -0.11228675196E+03  0.38570208004E+02  0.12725377703E+03  0.17403878700E+03  0.00000000000E+00 0. -1.
         22    1    5    5    0    0  0.93239709119E+02 -0.17821335157E+03 -0.98998922419E+03  0.10102139902E+04  0.00000000000E+00 0. -1.
          5    1    4    4  502    0  0.72982361519E+01  0.90517126914E+02 -0.14952750566E+02  0.92153617755E+02  0.47000000000E+01 0. -1.
         -5    1    4    4    0  502  0.11748806691E+02  0.49126016650E+02 -0.14650705511E+03  0.15504130794E+03  0.47000000000E+01 0. -1.
<mgrwt>
<rscale>  0 0.10000333E+04</rscale>
<asrwt>0</asrwt>
<pdfrwt beam="1">  1        2 0.18889561E+00 0.10000333E+04</pdfrwt>
<pdfrwt beam="2">  1       -2 0.31327112E-01 0.10000333E+04</pdfrwt>
<totfact> 0.20745415E+02</totfact>
</mgrwt>
</event>
<event>
 9    1  0.4369420E-036  0.9993767E+03  0.7818608E-02  0.8681632E-01
         -2   -1    0    0    0  501 -0.00000000000E+00  0.00000000000E+00  0.44642611142E+03  0.44642611142E+03  0.00000000000E+00 0. -1.
          2   -1    0    0  501    0  0.00000000000E+00 -0.00000000000E+00 -0.55930516914E+03  0.55930516914E+03  0.00000000000E+00 0. -1.
         36    2    1    2    0    0 -0.14210854715E-13 -0.71054273576E-14 -0.11287905772E+03  0.10057312806E+04  0.99937666924E+03 0.  0.
         25    2    3    3    0    0  0.17078121522E+02  0.60837589554E+02  0.10465568822E+03  0.17485818997E+03  0.12501879453E+03 0.  0.
         35    2    3    3    0    0 -0.17078121522E+02 -0.60837589554E+02 -0.21753474594E+03  0.83087309059E+03  0.79939718065E+03 0.  0.
         22    1    5    5    0    0 -0.14547510087E+03 -0.40405250312E+03 -0.16782565198E+03  0.46107144751E+03  0.00000000000E+00 0.  1.
         22    1    5    5    0    0  0.12839697935E+03  0.34321491357E+03 -0.49709093962E+02  0.36980164308E+03  0.00000000000E+00 0.  1.
          5    1    4    4  502    0 -0.95616226081E+01 -0.78491817862E+00  0.10698717011E+03  0.10751923219E+03  0.47000000000E+01 0.  1.
         -5    1    4    4    0  502  0.26639744130E+02  0.61622507733E+02 -0.23314818909E+01  0.67338957776E+02  0.47000000000E+01 0.  1.
<mgrwt>
<rscale>  0 0.99937667E+03</rscale>
<asrwt>0</asrwt>
<pdfrwt beam="1">  1        2 0.86046949E-01 0.99937667E+03</pdfrwt>
<pdfrwt beam="2">  1       -2 0.68680940E-01 0.99937667E+03</pdfrwt>
<totfact> 0.12649028E+02</totfact>
</mgrwt>
</event>
<event>
 9    1  0.4369420E-036  0.1003309E+04  0.7818608E-02  0.8677893E-01
          2   -1    0    0  501    0  0.00000000000E+00  0.00000000000E+00  0.49598806346E+03  0.49598806346E+03  0.00000000000E+00 0. -1.
         -2   -1    0    0    0  501 -0.00000000000E+00 -0.00000000000E+00 -0.50738537043E+03  0.50738537043E+03  0.00000000000E+00 0. -1.
         36    2    1    2    0    0  0.17763568394E-13  0.00000000000E+00 -0.11397306970E+02  0.10033734339E+04  0.10033087009E+04 0.  0.
         25    2    3    3    0    0  0.31225073885E+02  0.14054538786E+03 -0.26280997492E+02  0.19236138406E+03  0.12483669317E+03 0.  0.
         35    2    3    3    0    0 -0.31225073885E+02 -0.14054538786E+03  0.14883690522E+02  0.81101204982E+03  0.79799186050E+03 0.  0.
         22    1    5    5    0    0  0.13376483910E+03 -0.10008932273E+03  0.37626886391E+03  0.41169061521E+03  0.00000000000E+00 0. -1.
         22    1    5    5    0    0 -0.16498991299E+03 -0.40456065131E+02 -0.36138517339E+03  0.39932143461E+03  0.00000000000E+00 0. -1.
          5    1    4    4  502    0  0.46749882819E+01  0.10818484664E+03  0.38558076975E+02  0.11504187003E+03  0.47000000000E+01 0.  1.
         -5    1    4    4    0  502  0.26550085603E+02  0.32360541214E+02 -0.64839074467E+02  0.77319514037E+02  0.47000000000E+01 0.  1.
<mgrwt>
<rscale>  0 0.10033087E+04</rscale>
<asrwt>0</asrwt>
<pdfrwt beam="1">  1        2 0.76305856E-01 0.10033087E+04</pdfrwt>
<pdfrwt beam="2">  1       -2 0.78059287E-01 0.10033087E+04</pdfrwt>
<totfact> 0.10952306E+02</totfact>
</mgrwt>
</event>
<event>
 9    1  0.4369420E-036  0.1000178E+04  0.7818608E-02  0.8680869E-01
         -3   -1    0    0    0  501 -0.00000000000E+00  0.00000000000E+00  0.50514000460E+03  0.50514000460E+03  0.00000000000E+00 0. -1.
          3   -1    0    0  501    0  0.00000000000E+00 -0.00000000000E+00 -0.49508834576E+03  0.49508834576E+03  0.00000000000E+00 0. -1.
         36    2    1    2    0    0  0.14210854715E-13  0.21316282073E-13  0.10051658845E+02  0.10002283504E+04  0.10001778427E+04 0.  0.
         25    2    3    3    0    0 -0.11184360164E+03  0.29463525051E+02  0.83130839962E+02  0.18885024910E+03  0.12400237697E+03 0.  0.
         35    2    3    3    0    0  0.11184360164E+03 -0.29463525051E+02 -0.73079181117E+02  0.81137810126E+03  0.79976044286E+03 0.  0.
         22    1    5    5    0    0 -0.29426891193E+03 -0.18418364359E+03  0.69411309250E+02  0.35402787594E+03  0.00000000000E+00 0. -1.
         22    1    5    5    0    0  0.40611251357E+03  0.15472011854E+03 -0.14249049037E+03  0.45735022532E+03  0.00000000000E+00 0. -1.
          5    1    4    4  502    0 -0.74856199809E+02  0.35656927843E+01  0.11215354104E+03  0.13496915048E+03  0.47000000000E+01 0.  1.
         -5    1    4    4    0  502 -0.36987401830E+02  0.25897832267E+02 -0.29022701074E+02  0.53881098614E+02  0.47000000000E+01 0.  1.
<mgrwt>
<rscale>  0 0.10001778E+04</rscale>
<asrwt>0</asrwt>
<pdfrwt beam="1">  1        3 0.76167438E-01 0.10001778E+04</pdfrwt>
<pdfrwt beam="2">  1       -3 0.77713847E-01 0.10001778E+04</pdfrwt>
<totfact> 0.99908258E+00</totfact>
</mgrwt>
</event>
<event>
 9    1  0.4369420E-036  0.1001181E+04  0.7818608E-02  0.8679915E-01
          1   -1    0    0  501    0  0.00000000000E+00  0.00000000000E+00  0.11672743185E+04  0.11672743185E+04  0.00000000000E+00 0. -1.
         -1   -1    0    0    0  501 -0.00000000000E+00 -0.00000000000E+00 -0.21468013974E+03  0.21468013974E+03  0.00000000000E+00 0. -1.
         36    2    1    2    0    0  0.00000000000E+00  0.35527136788E-14  0.95259417875E+03  0.13819544582E+04  0.10011805308E+04 0.  0.
         25    2    3    3    0    0 -0.13722080291E+03 -0.24187016995E+02  0.14792207681E+03  0.23855076906E+03  0.12494385967E+03 0.  0.
         35    2    3    3    0    0  0.13722080291E+03  0.24187016995E+02  0.80467210194E+03  0.11434036892E+04  0.80028760095E+03 0.  0.
         22    1    5    5    0    0  0.36746362031E+03  0.28438305838E+03  0.47395445687E+03  0.66372890802E+03  0.00000000000E+00 0.  1.
         22    1    5    5    0    0 -0.23024281741E+03 -0.26019604139E+03  0.33071764506E+03  0.47967478115E+03  0.00000000000E+00 0.  1.
          5    1    4    4  502    0 -0.14195359893E+03 -0.10106767801E+02  0.16329909844E+03  0.21666023298E+03  0.47000000000E+01 0. -1.
         -5    1    4    4    0  502  0.47327960198E+01 -0.14080249194E+02 -0.15377021631E+02  0.21890536078E+02  0.47000000000E+01 0. -1.
<mgrwt>
<rscale>  0 0.10011805E+04</rscale>
<asrwt>0</asrwt>
<pdfrwt beam="1">  1        1 0.17958066E+00 0.10011805E+04</pdfrwt>
<pdfrwt beam="2">  1       -1 0.33027715E-01 0.10011805E+04</pdfrwt>
<totfact> 0.10744002E+02</totfact>
</mgrwt>
</event>
<event>
 9    1  0.4369420E-036  0.9994136E+03  0.7818608E-02  0.8681597E-01
         -2   -1    0    0    0  501 -0.00000000000E+00  0.00000000000E+00  0.52094797895E+03  0.52094797895E+03  0.00000000000E+00 0.  1.
          2   -1    0    0  501    0  0.00000000000E+00 -0.00000000000E+00 -0.47933172089E+03  0.47933172089E+03  0.00000000000E+00 0.  1.
         36    2    1    2    0    0 -0.28421709430E-13  0.00000000000E+00  0.41616258061E+02  0.10002796998E+04  0.99941361056E+03 0.  0.
         25    2    3    3    0    0  0.67928274784E+02  0.10608749204E+03  0.69459152468E+02  0.19057939199E+03  0.12500849694E+03 0.  0.
         35    2    3    3    0    0 -0.67928274784E+02 -0.10608749204E+03 -0.27842894407E+02  0.80970030786E+03  0.79935633812E+03 0.  0.
         22    1    5    5    0    0 -0.30028486919E+03  0.14935601711E+03 -0.23269403105E+03  0.40819693114E+03  0.00000000000E+00 0.  1.
         22    1    5    5    0    0  0.23235659440E+03 -0.25544350914E+03  0.20485113665E+03  0.40150337671E+03  0.00000000000E+00 0.  1.
          5    1    4    4  502    0  0.10327969725E+03  0.63911728951E+02  0.39856270586E+02  0.12791410113E+03  0.47000000000E+01 0.  1.
         -5    1    4    4    0  502 -0.35351422470E+02  0.42175763087E+02  0.29602881883E+02  0.62665290858E+02  0.47000000000E+01 0.  1.
<mgrwt>
<rscale>  0 0.99941361E+03</rscale>
<asrwt>0</asrwt>
<pdfrwt beam="1">  1        2 0.73743342E-01 0.99941361E+03</pdfrwt>
<pdfrwt beam="2">  1       -2 0.80145843E-01 0.99941361E+03</pdfrwt>
<totfact> 0.10724852E+02</totfact>
</mgrwt>
</event>
<event>
 9    1  0.4369420E-036  0.1000466E+04  0.7818608E-02  0.8680594E-01
          2   -1    0    0  501    0  0.00000000000E+00  0.00000000000E+00  0.57280911320E+03  0.57280911320E+03  0.00000000000E+00 0. -1.
         -2   -1    0    0    0  501 -0.00000000000E+00 -0.00000000000E+00 -0.43685274961E+03  0.43685274961E+03  0.00000000000E+00 0. -1.
         36    2    1    2    0    0  0.71054273576E-14  0.00000000000E+00  0.13595636359E+03  0.10096618628E+04  0.10004663635E+04 0.  0.
         25    2    3    3    0    0 -0.34870089412E+02  0.12072267606E+03 -0.38518323697E+02  0.18128726814E+03  0.12486602692E+03 0.  0.
         35    2    3    3    0    0  0.34870089412E+02 -0.12072267606E+03  0.17447468728E+03  0.82837459467E+03  0.79998322791E+03 0.  0.
         22    1    5    5    0    0 -0.32406948614E+03 -0.19959277229E+03  0.24707868674E+03  0.45376886632E+03  0.00000000000E+00 0. -1.
         22    1    5    5    0    0  0.35893957556E+03  0.78870096225E+02 -0.72603999452E+02  0.37460572835E+03  0.00000000000E+00 0. -1.
          5    1    4    4  502    0 -0.39438081230E+02  0.32272563961E+02  0.38325375818E+02  0.63935945034E+02  0.47000000000E+01 0. -1.
         -5    1    4    4    0  502  0.45679918184E+01  0.88450112100E+02 -0.76843699515E+02  0.11735132311E+03  0.47000000000E+01 0. -1.
<mgrwt>
<rscale>  0 0.10004664E+04</rscale>
<asrwt>0</asrwt>
<pdfrwt beam="1">  1        2 0.88124479E-01 0.10004664E+04</pdfrwt>
<pdfrwt beam="2">  1       -2 0.67208116E-01 0.10004664E+04</pdfrwt>
<totfact> 0.12888052E+02</totfact>
</mgrwt>
</event>
<event>
 9    1  0.4369420E-036  0.9997406E+03  0.7818608E-02  0.8681285E-01
          2   -1    0    0  501    0  0.00000000000E+00  0.00000000000E+00  0.20330627879E+03  0.20330627879E+03  0.00000000000E+00 0. -1.
         -2   -1    0    0    0  501 -0.00000000000E+00 -0.00000000000E+00 -0.12290340158E+04  0.12290340158E+04  0.00000000000E+00 0. -1.
         36    2    1    2    0    0 -0.14210854715E-13 -0.14210854715E-13 -0.10257277370E+04  0.14323402946E+04  0.99974063089E+03 0.  0.
         25    2    3    3    0    0  0.93877000438E+02  0.44272514593E+02 -0.32927275143E+03  0.36732570407E+03  0.12543795786E+03 0.  0.
         35    2    3    3    0    0 -0.93877000438E+02 -0.44272514593E+02 -0.69645498559E+03  0.10650145905E+04  0.79902039044E+03 0.  0.
         22    1    5    5    0    0 -0.17056004780E+03 -0.40298305316E+03 -0.40919578341E+03  0.59910538322E+03  0.00000000000E+00 0. -1.
         22    1    5    5    0    0  0.76683047362E+02  0.35871053856E+03 -0.28725920218E+03  0.46590920732E+03  0.00000000000E+00 0. -1.
          5    1    4    4  502    0  0.99222580887E+02 -0.17298394384E+02 -0.20306621972E+03  0.22672082965E+03  0.47000000000E+01 0. -1.
         -5    1    4    4    0  502 -0.53455804489E+01  0.61570908977E+02 -0.12620653171E+03  0.14060487442E+03  0.47000000000E+01 0. -1.
<mgrwt>
<rscale>  0 0.99974063E+03</rscale>
<asrwt>0</asrwt>
<pdfrwt beam="1">  1        2 0.31277889E-01 0.99974063E+03</pdfrwt>
<pdfrwt beam="2">  1       -2 0.18908216E+00 0.99974063E+03</pdfrwt>
<totfact> 0.29288771E+01</totfact>
</mgrwt>
</event>
<event>
 9    1  0.4369420E-036  0.1002707E+04  0.7818608E-02  0.8678464E-01
         -2   -1    0    0    0  501 -0.00000000000E+00  0.00000000000E+00  0.34258723863E+03  0.34258723863E+03  0.00000000000E+00 0. -1.
          2   -1    0    0  501    0  0.00000000000E+00 -0.00000000000E+00 -0.73369792899E+03  0.73369792899E+03  0.00000000000E+00 0. -1.
         36    2    1    2    0    0 -0.28421709430E-13  0.00000000000E+00 -0.39111069036E+03  0.10762851676E+04  0.10027074299E+04 0.  0.
         25    2    3    3    0    0  0.22184047527E+02  0.13211207663E+03 -0.84290022151E+01  0.17840477970E+03  0.11752227273E+03 0.  0.
         35    2    3    3    0    0 -0.22184047527E+02 -0.13211207663E+03 -0.38268168814E+03  0.89788038791E+03  0.80112307656E+03 0.  0.
         22    1    5    5    0    0 -0.32881377622E+03 -0.31001371525E+03 -0.16081610031E+03  0.47967574589E+03  0.00000000000E+00 0.  1.
         22    1    5    5    0    0  0.30662972869E+03  0.17790163862E+03 -0.22186558783E+03  0.41820464202E+03  0.00000000000E+00 0.  1.
          5    1    4    4  502    0  0.59740483064E+02  0.28983198058E+02  0.90136035215E+01  0.67173552346E+02  0.47000000000E+01 0.  1.
         -5    1    4    4    0  502 -0.37556435537E+02  0.10312887857E+03 -0.17442605737E+02  0.11123122736E+03  0.47000000000E+01 0.  1.
<mgrwt>
<rscale>  0 0.10027074E+04</rscale>
<asrwt>0</asrwt>
<pdfrwt beam="1">  1        2 0.11287660E+00 0.10027074E+04</pdfrwt>
<pdfrwt beam="2">  1       -2 0.52705729E-01 0.10027074E+04</pdfrwt>
<totfact> 0.15861565E+02</totfact>
</mgrwt>
</event>
<event>
 9    1  0.4369420E-036  0.9987321E+03  0.7818608E-02  0.8682246E-01
         -2   -1    0    0    0  501 -0.00000000000E+00  0.00000000000E+00  0.21606082115E+03  0.21606082115E+03  0.00000000000E+00 0. -1.
          2   -1    0    0  501    0  0.00000000000E+00 -0.00000000000E+00 -0.11541492577E+04  0.11541492577E+04  0.00000000000E+00 0. -1.
         36    2    1    2    0    0 -0.14210854715E-13 -0.14210854715E-13 -0.93808843653E+03  0.13702100788E+04  0.99873206887E+03 0.  0.
         25    2    3    3    0    0 -0.71258576273E+02 -0.11731637795E+03 -0.19694849268E+03  0.27075687882E+03  0.12521845484E+03 0.  0.
         35    2    3    3    0    0  0.71258576273E+02  0.11731637795E+03 -0.74113994385E+03  0.10994532000E+04  0.80041739450E+03 0.  0.
         22    1    5    5    0    0 -0.32641274605E+03 -0.11441613372E+03 -0.25298176770E+03  0.42852783717E+03  0.00000000000E+00 0. -1.
         22    1    5    5    0    0  0.39767132233E+03  0.23173251167E+03 -0.48815817615E+03  0.67092536284E+03  0.00000000000E+00 0. -1.
          5    1    4    4  502    0  0.11065506724E+02 -0.78658444857E+02 -0.14632725284E+03  0.16656335525E+03  0.47000000000E+01 0.  1.
         -5    1    4    4    0  502 -0.82324082997E+02 -0.38657933098E+02 -0.50621239836E+02  0.10419352358E+03  0.47000000000E+01 0.  1.
<mgrwt>
<rscale>  0 0.99873207E+03</rscale>
<asrwt>0</asrwt>
<pdfrwt beam="1">  1        2 0.17756142E+00 0.99873207E+03</pdfrwt>
<pdfrwt beam="2">  1       -2 0.33240126E-01 0.99873207E+03</pdfrwt>
<totfact> 0.20566318E+02</totfact>
</mgrwt>
</event>
<event>
 9    1  0.4369420E-036  0.1000511E+04  0.7818608E-02  0.8680552E-01
         -2   -1    0    0    0  501 -0.00000000000E+00  0.00000000000E+00  0.70816667708E+02  0.70816667708E+02  0.00000000000E+00 0. -1.
          2   -1    0    0  501    0  0.00000000000E+00 -0.00000000000E+00 -0.35338508084E+04  0.35338508084E+04  0.00000000000E+00 0. -1.
         36    2    1    2    0    0 -0.28421709430E-13  0.00000000000E+00 -0.34630341407E+04  0.36046674761E+04  0.10005109463E+04 0.  0.
         25    2    3    3    0    0  0.79679129621E+02  0.10258792267E+03 -0.46226744819E+03  0.49597319144E+03  0.12419809741E+03 0.  0.
         35    2    3    3    0    0 -0.79679129621E+02 -0.10258792267E+03 -0.30007666925E+04  0.31086942847E+04  0.80156494877E+03 0.  0.
         22    1    5    5    0    0  0.19791533217E+03 -0.59687669016E+02 -0.18037716475E+03  0.27435199672E+03  0.00000000000E+00 0. -1.
         22    1    5    5    0    0 -0.27759446179E+03 -0.42900253656E+02 -0.28203895277E+04  0.28343422879E+04  0.00000000000E+00 0. -1.
          5    1    4    4  502    0 -0.28603601020E+02  0.51292337334E+02 -0.12988945513E+03  0.14262689233E+03  0.47000000000E+01 0. -1.
         -5    1    4    4    0  502  0.10828273064E+03  0.51295585338E+02 -0.33237799306E+03  0.35334629912E+03  0.47000000000E+01 0. -1.
<mgrwt>
<rscale>  0 0.10005109E+04</rscale>
<asrwt>0</asrwt>
<pdfrwt beam="1">  1        2 0.54366932E+00 0.10005109E+04</pdfrwt>
<pdfrwt beam="2">  1       -2 0.10894873E-01 0.10005109E+04</pdfrwt>
<totfact> 0.47305129E+01</totfact>
</mgrwt>
</event>
<event>
 9    1  0.4369420E-036  0.1000045E+04  0.7818608E-02  0.8680995E-01
          2   -1    0    0  501    0  0.00000000000E+00  0.00000000000E+00  0.32611061923E+03  0.32611061923E+03  0.00000000000E+00 0.  1.
         -2   -1    0    0    0  501 -0.00000000000E+00 -0.00000000000E+00 -0.76667976153E+03  0.76667976153E+03  0.00000000000E+00 0.  1.
         36    2    1    2    0    0  0.71054273576E-14  0.00000000000E+00 -0.44056914230E+03  0.10927903808E+04  0.10000448226E+04 0.  0.
         25    2    3    3    0    0  0.60715380750E+02  0.12487479268E+03 -0.10578818168E+03  0.21481180145E+03  0.12519145080E+03 0.  0.
         35    2    3    3    0    0 -0.60715380750E+02 -0.12487479268E+03 -0.33478096063E+03  0.87797857932E+03  0.79967995026E+03 0.  0.
         22    1    5    5    0    0  0.86165525961E+02  0.86355418321E+02 -0.53703668504E+03  0.55071785627E+03  0.00000000000E+00 0.  1.
         22    1    5    5    0    0 -0.14688090671E+03 -0.21123021100E+03  0.20225572441E+03  0.32726072305E+03  0.00000000000E+00 0.  1.
          5    1    4    4  502    0  0.95986265824E+02  0.81791962643E+02 -0.94868103942E+02  0.15787759665E+03  0.47000000000E+01 0. -1.
         -5    1    4    4    0  502 -0.35270885074E+02  0.43082830033E+02 -0.10920077736E+02  0.56934204792E+02  0.47000000000E+01 0. -1.
<mgrwt>
<rscale>  0 0.10000448E+04</rscale>
<asrwt>0</asrwt>
<pdfrwt beam="1">  1        2 0.50170865E-01 0.10000448E+04</pdfrwt>
<pdfrwt beam="2">  1       -2 0.11795073E+00 0.10000448E+04</pdfrwt>
<totfact> 0.64768693E+01</totfact>
</mgrwt>
</event>
<event>
 9    1  0.4369420E-036  0.9995767E+03  0.7818608E-02  0.8681441E-01
          2   -1    0    0  501    0  0.00000000000E+00  0.00000000000E+00  0.29533524129E+04  0.29533524129E+04  0.00000000000E+00 0. -1.
         -2   -1    0    0    0  501 -0.00000000000E+00 -0.00000000000E+00 -0.84577924066E+02  0.84577924066E+02  0.00000000000E+00 0. -1.
         36    2    1    2    0    0  0.00000000000E+00  0.42632564146E-13  0.28687744888E+04  0.30379303369E+04  0.99957674266E+03 0.  0.
         25    2    3    3    0    0  0.67654503455E+02 -0.65029039983E+02  0.79446235612E+03  0.80976812020E+03  0.12549129581E+03 0.  0.
         35    2    3    3    0    0 -0.67654503455E+02  0.65029039983E+02  0.20743121327E+04  0.22281622167E+04  0.80816466912E+03 0.  0.
         22    1    5    5    0    0 -0.80930749840E+02  0.39942118473E+03  0.15764668538E+04  0.16282919917E+04  0.00000000000E+00 0. -1.
         22    1    5    5    0    0  0.13276246385E+02 -0.33439214475E+03  0.49784527890E+03  0.59987022506E+03  0.00000000000E+00 0. -1.
          5    1    4    4  502    0  0.47970903432E+02 -0.31125919644E+02  0.74145491152E+03  0.74367163874E+03  0.47000000000E+01 0.  1.
         -5    1    4    4    0  502  0.19683600023E+02 -0.33903120339E+02  0.53007444605E+02  0.66096481466E+02  0.47000000000E+01 0.  1.
<mgrwt>
<rscale>  0 0.99957674E+03</rscale>
<asrwt>0</asrwt>
<pdfrwt beam="1">  1        2 0.45436183E+00 0.99957674E+03</pdfrwt>
<pdfrwt beam="2">  1       -2 0.13011991E-01 0.99957674E+03</pdfrwt>
<totfact> 0.91084309E+01</totfact>
</mgrwt>
</event>
<event>
 9    1  0.4369420E-036  0.1000890E+04  0.7818608E-02  0.8680191E-01
         -2   -1    0    0    0  501 -0.00000000000E+00  0.00000000000E+00  0.16009547251E+03  0.16009547251E+03  0.00000000000E+00 0.  1.
          2   -1    0    0  501    0  0.00000000000E+00 -0.00000000000E+00 -0.15643475462E+04  0.15643475462E+04  0.00000000000E+00 0.  1.
         36    2    1    2    0    0  0.00000000000E+00  0.14210854715E-13 -0.14042520736E+04  0.17244430187E+04  0.10008895235E+04 0.  0.
         25    2    3    3    0    0  0.58085361411E+02 -0.39908336031E+02 -0.53927404542E+02  0.15323145789E+03  0.12492049564E+03 0.  0.
         35    2    3    3    0    0 -0.58085361411E+02  0.39908336031E+02 -0.13503246691E+04  0.15712115608E+04  0.80022651307E+03 0.  0.
         22    1    5    5    0    0 -0.21351850017E+03 -0.13636949733E+03 -0.60931714851E+02  0.26057525514E+03  0.00000000000E+00 0.  1.
         22    1    5    5    0    0  0.15543313876E+03  0.17627783336E+03 -0.12893929543E+04  0.13106363056E+04  0.00000000000E+00 0.  1.
          5    1    4    4  502    0  0.33421000616E+02  0.44001162040E+02 -0.26433867747E+02  0.61432116251E+02  0.47000000000E+01 0. -1.
         -5    1    4    4    0  502  0.24664360795E+02 -0.83909498070E+02 -0.27493536795E+02  0.91799341639E+02  0.47000000000E+01 0. -1.
<mgrwt>
<rscale>  0 0.10008895E+04</rscale>
<asrwt>0</asrwt>
<pdfrwt beam="1">  1        2 0.24066885E+00 0.10008895E+04</pdfrwt>
<pdfrwt beam="2">  1       -2 0.24630073E-01 0.10008895E+04</pdfrwt>
<totfact> 0.20522364E+02</totfact>
</mgrwt>
</event>
<event>
 9    1  0.4369420E-036  0.1000426E+04  0.7818608E-02  0.8680632E-01
          1   -1    0    0  501    0  0.00000000000E+00  0.00000000000E+00  0.20105814908E+03  0.20105814908E+03  0.00000000000E+00 0.  1.
         -1   -1    0    0    0  501 -0.00000000000E+00 -0.00000000000E+00 -0.12444812390E+04  0.12444812390E+04  0.00000000000E+00 0.  1.
         36    2    1    2    0    0  0.14210854715E-13  0.00000000000E+00 -0.10434230900E+04  0.14455393881E+04  0.10004260982E+04 0.  0.
         25    2    3    3    0    0 -0.10223334945E+03  0.49137771087E+02 -0.30285936683E+03  0.34952508050E+03  0.13258132423E+03 0.  0.
         35    2    3    3    0    0  0.10223334945E+03 -0.49137771087E+02 -0.74056372313E+03  0.10960143076E+04  0.79996659694E+03 0.  0.
         22    1    5    5    0    0  0.73529341884E+02 -0.18965722456E+03 -0.87566561106E+03  0.89898091712E+03  0.00000000000E+00 0. -1.
         22    1    5    5    0    0  0.28704007570E+02  0.14051945347E+03  0.13510188793E+03  0.19703339051E+03  0.00000000000E+00 0. -1.
          5    1    4    4  502    0  0.46725449273E+01  0.65553908402E+02 -0.12519341357E+03  0.14147306593E+03  0.47000000000E+01 0.  1.
         -5    1    4    4    0  502 -0.10690589438E+03 -0.16416137315E+02 -0.17766595326E+03  0.20805201457E+03  0.47000000000E+01 0.  1.
<mgrwt>
<rscale>  0 0.10004261E+04</rscale>
<asrwt>0</asrwt>
<pdfrwt beam="1">  1        1 0.30932022E-01 0.10004261E+04</pdfrwt>
<pdfrwt beam="2">  1       -1 0.19145866E+00 0.10004261E+04</pdfrwt>
<totfact> 0.27171404E+01</totfact>
</mgrwt>
</event>
<event>
 9    1  0.4369420E-036  0.1001436E+04  0.7818608E-02  0.8679672E-01
          2   -1    0    0  501    0  0.00000000000E+00  0.00000000000E+00  0.47176835221E+03  0.47176835221E+03  0.00000000000E+00 0. -1.
         -2   -1    0    0    0  501 -0.00000000000E+00 -0.00000000000E+00 -0.53144412192E+03  0.53144412192E+03  0.00000000000E+00 0. -1.
         36    2    1    2    0    0 -0.14210854715E-13 -0.28421709430E-13 -0.59675769703E+02  0.10032124741E+04  0.10014360043E+04 0.  0.
         25    2    3    3    0    0 -0.75932931347E+02 -0.11355198268E+03 -0.48403386558E+02  0.19144125786E+03  0.12508798723E+03 0.  0.
         35    2    3    3    0    0  0.75932931347E+02  0.11355198268E+03 -0.11272383145E+02  0.81177121627E+03  0.80011597791E+03 0.  0.
         22    1    5    5    0    0 -0.13897286052E+03  0.36606577171E+03  0.17783769381E+03  0.43005098595E+03  0.00000000000E+00 0. -1.
         22    1    5    5    0    0  0.21490579186E+03 -0.25251378904E+03 -0.18911007695E+03  0.38172023032E+03  0.00000000000E+00 0. -1.
          5    1    4    4  502    0  0.74678908065E+00  0.20810337797E+02 -0.28177482660E+02  0.35350931843E+02  0.47000000000E+01 0. -1.
         -5    1    4    4    0  502 -0.76679720427E+02 -0.13436232047E+03 -0.20225903899E+02  0.15609032602E+03  0.47000000000E+01 0. -1.
<mgrwt>
<rscale>  0 0.10014360E+04</rscale>
<asrwt>0</asrwt>
<pdfrwt beam="1">  1        2 0.72579747E-01 0.10014360E+04</pdfrwt>
<pdfrwt beam="2">  1       -2 0.81760634E-01 0.10014360E+04</pdfrwt>
<totfact> 0.10428694E+02</totfact>
</mgrwt>
</event>
<event>
 9    1  0.4369420E-036  0.1000044E+04  0.7818608E-02  0.8680996E-01
         -1   -1    0    0    0  501 -0.00000000000E+00  0.00000000000E+00  0.35284720149E+03  0.35284720149E+03  0.00000000000E+00 0.  1.
          1   -1    0    0  501    0  0.00000000000E+00 -0.00000000000E+00 -0.70858447098E+03  0.70858447098E+03  0.00000000000E+00 0.  1.
         36    2    1    2    0    0  0.00000000000E+00 -0.28421709430E-13 -0.35573726949E+03  0.10614316725E+04  0.10000440942E+04 0.  0.
         25    2    3    3    0    0  0.76856399605E+02  0.66415898198E+02  0.42085165940E+02  0.16631325928E+03  0.12478365809E+03 0.  0.
         35    2    3    3    0    0 -0.76856399605E+02 -0.66415898198E+02 -0.39782243543E+03  0.89511841319E+03  0.79539694858E+03 0.  0.
         22    1    5    5    0    0 -0.36344466127E+03  0.18708457988E+03 -0.27736692546E+03  0.49398894034E+03  0.00000000000E+00 0. -1.
         22    1    5    5    0    0  0.28658826167E+03 -0.25350047808E+03 -0.12045550997E+03  0.40112947286E+03  0.00000000000E+00 0. -1.
          5    1    4    4  502    0  0.52607841721E+02  0.66607299551E+02  0.82815362982E+02  0.11867852253E+03  0.47000000000E+01 0. -1.
         -5    1    4    4    0  502  0.24248557883E+02 -0.19140135294E+00 -0.40730197042E+02  0.47634736747E+02  0.47000000000E+01 0. -1.
<mgrwt>
<rscale>  0 0.10000441E+04</rscale>
<asrwt>0</asrwt>
<pdfrwt beam="1">  1        1 0.10901300E+00 0.10000441E+04</pdfrwt>
<pdfrwt beam="2">  1       -1 0.54284185E-01 0.10000441E+04</pdfrwt>
<totfact> 0.10532141E+02</totfact>
</mgrwt>
</event>
<event>
 9    1  0.4369420E-036  0.9993086E+03  0.7818608E-02  0.8681697E-01
          3   -1    0    0  501    0  0.00000000000E+00  0.00000000000E+00  0.39250952288E+03  0.39250952288E+03  0.00000000000E+00 0.  1.
         -3   -1    0    0    0  501 -0.00000000000E+00 -0.00000000000E+00 -0.63604674770E+03  0.63604674770E+03  0.00000000000E+00 0.  1.
         36    2    1    2    0    0  0.00000000000E+00  0.71054273576E-14 -0.24353722483E+03  0.10285562706E+04  0.99930857190E+03 0.  0.
         25    2    3    3    0    0  0.16892003830E+02 -0.47020063902E+02 -0.18189979264E+03  0.22638175943E+03  0.12515965899E+03 0.  0.
         35    2    3    3    0    0 -0.16892003830E+02  0.47020063902E+02 -0.61637432183E+02  0.80217451115E+03  0.79824090792E+03 0.  0.
         22    1    5    5    0    0 -0.25890027588E+02 -0.63636335704E+02  0.35983001914E+03  0.36632979599E+03  0.00000000000E+00 0.  1.
         22    1    5    5    0    0  0.89980237582E+01  0.11065639961E+03 -0.42146745133E+03  0.43584471516E+03  0.00000000000E+00 0.  1.
          5    1    4    4  502    0  0.64775133778E+01  0.35604192609E+02 -0.11121469008E+03  0.11704876761E+03  0.47000000000E+01 0.  1.
         -5    1    4    4    0  502  0.10414490452E+02 -0.82624256511E+02 -0.70685102565E+02  0.10933299182E+03  0.47000000000E+01 0.  1.
<mgrwt>
<rscale>  0 0.99930857E+03</rscale>
<asrwt>0</asrwt>
<pdfrwt beam="1">  1        3 0.60386081E-01 0.99930857E+03</pdfrwt>
<pdfrwt beam="2">  1       -3 0.97853345E-01 0.99930857E+03</pdfrwt>
<totfact> 0.91782359E+00</totfact>
</mgrwt>
</event>
<event>
 9    1  0.4369420E-036  0.9995193E+03  0.7818608E-02  0.8681496E-01
         -1   -1    0    0    0  501 -0.00000000000E+00  0.00000000000E+00  0.38295391180E+03  0.38295391180E+03  0.00000000000E+00 0.  1.
          1   -1    0    0  501    0  0.00000000000E+00 -0.00000000000E+00 -0.65219260755E+03  0.65219260755E+03  0.00000000000E+00 0.  1.
         36    2    1    2    0    0  0.00000000000E+00 -0.71054273576E-14 -0.26923869576E+03  0.10351465193E+04  0.99951930508E+03 0.  0.
         25    2    3    3    0    0 -0.58215117666E+01 -0.52702160688E+02  0.86605708435E+02  0.15815864375E+03  0.12125262933E+03 0.  0.
         35    2    3    3    0    0  0.58215117666E+01  0.52702160688E+02 -0.35584440419E+03  0.87698787560E+03  0.79979440246E+03 0.  0.
         22    1    5    5    0    0 -0.34559661186E+02 -0.22752238414E+02 -0.60866790802E+03  0.61007266517E+03  0.00000000000E+00 0. -1.
         22    1    5    5    0    0  0.40381172953E+02  0.75454399102E+02  0.25282350382E+03  0.26691521043E+03  0.00000000000E+00 0. -1.
          5    1    4    4  502    0 -0.42452498813E+02 -0.12677070679E+02  0.93198809155E+02  0.10330068153E+03  0.47000000000E+01 0. -1.
         -5    1    4    4    0  502  0.36630987046E+02 -0.40025090009E+02 -0.65931007200E+01  0.54857962224E+02  0.47000000000E+01 0. -1.
<mgrwt>
<rscale>  0 0.99951931E+03</rscale>
<asrwt>0</asrwt>
<pdfrwt beam="1">  1        1 0.10033732E+00 0.99951931E+03</pdfrwt>
<pdfrwt beam="2">  1       -1 0.58915986E-01 0.99951931E+03</pdfrwt>
<totfact> 0.10230154E+02</totfact>
</mgrwt>
</event>
<event>
 9    1  0.4369420E-036  0.9856682E+03  0.7818608E-02  0.8694807E-01
         -1   -1    0    0    0  501 -0.00000000000E+00  0.00000000000E+00  0.30372891510E+03  0.30372891510E+03  0.00000000000E+00 0.  1.
          1   -1    0    0  501    0  0.00000000000E+00 -0.00000000000E+00 -0.79967842237E+03  0.79967842237E+03  0.00000000000E+00 0.  1.
         36    2    1    2    0    0  0.71054273576E-14 -0.28421709430E-13 -0.49594950727E+03  0.11034073375E+04  0.98566821935E+03 0.  0.
         25    2    3    3    0    0 -0.47509444666E+02  0.81988665457E+02  0.19262056940E+01  0.15628881152E+03  0.12427064715E+03 0.  0.
         35    2    3    3    0    0  0.47509444666E+02 -0.81988665457E+02 -0.49787571296E+03  0.94711852595E+03  0.80010873514E+03 0.  0.
         22    1    5    5    0    0 -0.76611644582E+02  0.31717807127E+03 -0.40287589016E+03  0.51844021435E+03  0.00000000000E+00 0. -1.
         22    1    5    5    0    0  0.12412108925E+03 -0.39916673673E+03 -0.94999822799E+02  0.42867831160E+03  0.00000000000E+00 0. -1.
          5    1    4    4  502    0 -0.53492475574E+02  0.93783337903E+02 -0.37538297922E+02  0.11440268014E+03  0.47000000000E+01 0. -1.
         -5    1    4    4    0  502  0.59830309075E+01 -0.11794672446E+02  0.39464503616E+02  0.41886131388E+02  0.47000000000E+01 0. -1.
<mgrwt>
<rscale>  0 0.98566822E+03</rscale>
<asrwt>0</asrwt>
<pdfrwt beam="1">  1        1 0.12302745E+00 0.98566822E+03</pdfrwt>
<pdfrwt beam="2">  1       -1 0.46727526E-01 0.98566822E+03</pdfrwt>
<totfact> 0.11492921E+02</totfact>
</mgrwt>
</event>
<event>
 9    1  0.4369420E-036  0.9995628E+03  0.7818608E-02  0.8681454E-01
          1   -1    0    0  501    0  0.00000000000E+00  0.00000000000E+00  0.75002094785E+03  0.75002094785E+03  0.00000000000E+00 0.  1.
         -1   -1    0    0    0  501 -0.00000000000E+00 -0.00000000000E+00 -0.33303260499E+03  0.33303260499E+03  0.00000000000E+00 0.  1.
         36    2    1    2    0    0  0.28421709430E-13 -0.14210854715E-13  0.41698834286E+03  0.10830535528E+04  0.99956276454E+03 0.  0.
         25    2    3    3    0    0 -0.11644869831E+03 -0.26331517283E+02 -0.68882804561E+01  0.17261453555E+03  0.12447763387E+03 0.  0.
         35    2    3    3    0    0  0.11644869831E+03  0.26331517283E+02  0.42387662331E+03  0.91043901729E+03  0.79685266159E+03 0.  0.
         22    1    5    5    0    0  0.44383551094E+03 -0.99714306158E+02  0.23510293577E+03  0.51206083040E+03  0.00000000000E+00 0. -1.
         22    1    5    5    0    0 -0.32738681262E+03  0.12604582344E+03  0.18877368754E+03  0.39837818690E+03  0.00000000000E+00 0. -1.
          5    1    4    4  502    0 -0.76447673832E+02 -0.72748227724E+02 -0.24988271452E+02  0.10854978204E+03  0.47000000000E+01 0. -1.
         -5    1    4    4    0  502 -0.40001024480E+02  0.46416710441E+02  0.18099990996E+02  0.64064753505E+02  0.47000000000E+01 0. -1.
<mgrwt>
<rscale>  0 0.99956276E+03</rscale>
<asrwt>0</asrwt>
<pdfrwt beam="1">  1        1 0.11538784E+00 0.99956276E+03</pdfrwt>
<pdfrwt beam="2">  1       -1 0.51235786E-01 0.99956276E+03</pdfrwt>
<totfact> 0.10736780E+02</totfact>
</mgrwt>
</event>
<event>
 9    1  0.4369420E-036  0.9980454E+03  0.7818608E-02  0.8682902E-01
          1   -1    0    0  501    0  0.00000000000E+00  0.00000000000E+00  0.17586162914E+04  0.17586162914E+04  0.00000000000E+00 0. -1.
         -1   -1    0    0    0  501 -0.00000000000E+00 -0.00000000000E+00 -0.14160203096E+03  0.14160203096E+03  0.00000000000E+00 0. -1.
         36    2    1    2    0    0  0.00000000000E+00  0.00000000000E+00  0.16170142604E+04  0.19002183223E+04  0.99804536677E+03 0.  0.
         25    2    3    3    0    0 -0.65125436526E+02 -0.77831130970E+02  0.50528183153E+03  0.53024977624E+03  0.12472404942E+03 0.  0.
         35    2    3    3    0    0  0.65125436526E+02  0.77831130970E+02  0.11117324289E+04  0.13699685461E+04  0.79408174416E+03 0.  0.
         22    1    5    5    0    0 -0.34661795316E+03 -0.73643774132E+02  0.59062551842E+03  0.68877130742E+03  0.00000000000E+00 0.  1.
         22    1    5    5    0    0  0.41174338969E+03  0.15147490510E+03  0.52110691048E+03  0.68119723868E+03  0.00000000000E+00 0.  1.
          5    1    4    4  502    0 -0.61364013721E+02 -0.55174517478E+02  0.12880895942E+03  0.15304772977E+03  0.47000000000E+01 0.  1.
         -5    1    4    4    0  502 -0.37614228049E+01 -0.22656613492E+02  0.37647287210E+03  0.37720204647E+03  0.47000000000E+01 0.  1.
<mgrwt>
<rscale>  0 0.99804537E+03</rscale>
<asrwt>0</asrwt>
<pdfrwt beam="1">  1        1 0.27055634E+00 0.99804537E+03</pdfrwt>
<pdfrwt beam="2">  1       -1 0.21784929E-01 0.99804537E+03</pdfrwt>
<totfact> 0.81652227E+01</totfact>
</mgrwt>
</event>
<event>
 9    1  0.4369420E-036  0.9994525E+03  0.7818608E-02  0.8681560E-01
          2   -1    0    0  501    0  0.00000000000E+00  0.00000000000E+00  0.94110817719E+03  0.94110817719E+03  0.00000000000E+00 0.  1.
         -2   -1    0    0    0  501 -0.00000000000E+00 -0.00000000000E+00 -0.26535346446E+03  0.26535346446E+03  0.00000000000E+00 0.  1.
         36    2    1    2    0    0  0.00000000000E+00  0.21316282073E-13  0.67575471273E+03  0.12064616416E+04  0.99945248061E+03 0.  0.
         25    2    3    3    0    0 -0.20678386661E+01  0.52623756419E+01  0.29757910295E+03  0.32237577150E+03  0.12385817287E+03 0.  0.
         35    2    3    3    0    0  0.20678386661E+01 -0.52623756419E+01  0.37817560978E+03  0.88408587015E+03  0.79909890840E+03 0.  0.
         22    1    5    5    0    0 -0.12157838444E+03  0.35163633948E+03  0.34906206490E+02  0.37369487828E+03  0.00000000000E+00 0. -1.
         22    1    5    5    0    0  0.12364622311E+03 -0.35689871512E+03  0.34326940329E+03  0.51039099186E+03  0.00000000000E+00 0. -1.
          5    1    4    4  502    0  0.54030746749E+02  0.77900423173E+01  0.75673706383E+02  0.93427009967E+02  0.47000000000E+01 0.  1.
         -5    1    4    4    0  502 -0.56098585415E+02 -0.25276666754E+01  0.22190539656E+03  0.22894876153E+03  0.47000000000E+01 0.  1.
<mgrwt>
<rscale>  0 0.99945248E+03</rscale>
<asrwt>0</asrwt>
<pdfrwt beam="1">  1        2 0.14478587E+00 0.99945248E+03</pdfrwt>
<pdfrwt beam="2">  1       -2 0.40823610E-01 0.99945248E+03</pdfrwt>
<totfact> 0.18910536E+02</totfact>
</mgrwt>
</event>
<event>
 9    1  0.4369420E-036  0.1000027E+04  0.7818608E-02  0.8681012E-01
          1   -1    0    0  501    0  0.00000000000E+00  0.00000000000E+00  0.64871469658E+03  0.64871469658E+03  0.00000000000E+00 0.  1.
         -1   -1    0    0    0  501 -0.00000000000E+00 -0.00000000000E+00 -0.38539805862E+03  0.38539805862E+03  0.00000000000E+00 0.  1.
         36    2    1    2    0    0  0.28421709430E-13  0.00000000000E+00  0.26331663796E+03  0.10341127552E+04  0.10000267690E+04 0.  0.
         25    2    3    3    0    0 -0.63185613499E+01 -0.72117627927E+02 -0.67516323209E+02  0.15949543820E+03  0.12505784434E+03 0.  0.
         35    2    3    3    0    0  0.63185613499E+01  0.72117627927E+02  0.33083296117E+03  0.87461731699E+03  0.80638956250E+03 0.  0.
         22    1    5    5    0    0  0.34612573131E+03 -0.11148510961E+03 -0.36857973604E+01  0.36365579418E+03  0.00000000000E+00 0. -1.
         22    1    5    5    0    0 -0.33980716996E+03  0.18360273754E+03  0.33451875853E+03  0.51096152281E+03  0.00000000000E+00 0. -1.
          5    1    4    4  502    0  0.43301611273E+02 -0.61359425021E+02 -0.76965391009E+02  0.10763721471E+03  0.47000000000E+01 0. -1.
         -5    1    4    4    0  502 -0.49620172623E+02 -0.10758202906E+02  0.94490677995E+01  0.51858223487E+02  0.47000000000E+01 0. -1.
<mgrwt>
<rscale>  0 0.10000268E+04</rscale>
<asrwt>0</asrwt>
<pdfrwt beam="1">  1        1 0.99802261E-01 0.10000268E+04</pdfrwt>
<pdfrwt beam="2">  1       -1 0.59292009E-01 0.10000268E+04</pdfrwt>
<totfact> 0.10187242E+02</totfact>
</mgrwt>
</event>
<event>
 9    1  0.4369420E-036  0.1000755E+04  0.7818608E-02  0.8680319E-01
          1   -1    0    0  501    0  0.00000000000E+00  0.00000000000E+00  0.14508087054E+04  0.14508087054E+04  0.00000000000E+00 0. -1.
         -1   -1    0    0    0  501 -0.00000000000E+00 -0.00000000000E+00 -0.17257799956E+03  0.17257799956E+03  0.00000000000E+00 0. -1.
         36    2    1    2    0    0  0.00000000000E+00  0.21316282073E-13  0.12782307058E+04  0.16233867050E+04  0.10007550432E+04 0.  0.
         25    2    3    3    0    0 -0.13415987868E+03 -0.61097760233E+01  0.16871088687E+03  0.24903220241E+03  0.12456914577E+03 0.  0.
         35    2    3    3    0    0  0.13415987868E+03  0.61097760233E+01  0.11095198190E+04  0.13743545025E+04  0.79986240542E+03 0.  0.
         22    1    5    5    0    0 -0.11111628214E+02  0.14495630557E+03 -0.81387034372E+02  0.16661226896E+03  0.00000000000E+00 0.  1.
         22    1    5    5    0    0  0.14527150689E+03 -0.13884652954E+03  0.11909068533E+04  0.12077422336E+04  0.00000000000E+00 0.  1.
          5    1    4    4  502    0 -0.72257571608E+02  0.17234670953E+02  0.76202054180E+01  0.74822109487E+02  0.47000000000E+01 0. -1.
         -5    1    4    4    0  502 -0.61902307068E+02 -0.23344446976E+02  0.16109068145E+03  0.17421009292E+03  0.47000000000E+01 0. -1.
<mgrwt>
<rscale>  0 0.10007550E+04</rscale>
<asrwt>0</asrwt>
<pdfrwt beam="1">  1        1 0.22320133E+00 0.10007550E+04</pdfrwt>
<pdfrwt beam="2">  1       -1 0.26550462E-01 0.10007550E+04</pdfrwt>
<totfact> 0.96815920E+01</totfact>
</mgrwt>
</event>
<event>
 9    1  0.4369420E-036  0.1000474E+04  0.7818608E-02  0.8680587E-01
          2   -1    0    0  501    0  0.00000000000E+00  0.00000000000E+00  0.65225487316E+03  0.65225487316E+03  0.00000000000E+00 0. -1.
         -2   -1    0    0    0  501 -0.00000000000E+00 -0.00000000000E+00 -0.38364905693E+03  0.38364905693E+03  0.00000000000E+00 0. -1.
         36    2    1    2    0    0 -0.14210854715E-13 -0.71054273576E-14  0.26860581623E+03  0.10359039301E+04  0.10004738217E+04 0.  0.
         25    2    3    3    0    0  0.83407448641E+02 -0.13784945456E+02 -0.65459971083E+02  0.16503935011E+03  0.12572252010E+03 0.  0.
         35    2    3    3    0    0 -0.83407448641E+02  0.13784945456E+02  0.33406578731E+03  0.87086457998E+03  0.79978643350E+03 0.  0.
         22    1    5    5    0    0  0.19324294031E+02  0.22604283524E+03 -0.19017283807E+03  0.29603124842E+03  0.00000000000E+00 0. -1.
         22    1    5    5    0    0 -0.10273174267E+03 -0.21225788978E+03  0.52423862538E+03  0.57483333156E+03  0.00000000000E+00 0. -1.
          5    1    4    4  502    0  0.52784738162E+02 -0.32332344403E+02 -0.98279930556E+02  0.11624389802E+03  0.47000000000E+01 0. -1.
         -5    1    4    4    0  502  0.30622710479E+02  0.18547398947E+02  0.32819959473E+02  0.48795452089E+02  0.47000000000E+01 0. -1.
<mgrwt>
<rscale>  0 0.10004738E+04</rscale>
<asrwt>0</asrwt>
<pdfrwt beam="1">  1        2 0.10034690E+00 0.10004738E+04</pdfrwt>
<pdfrwt beam="2">  1       -2 0.59022932E-01 0.10004738E+04</pdfrwt>
<totfact> 0.14525089E+02</totfact>
</mgrwt>
</event>
<event>
 9    1  0.4369420E-036  0.9996300E+03  0.7818608E-02  0.8681390E-01
         -1   -1    0    0    0  501 -0.00000000000E+00  0.00000000000E+00  0.20587884020E+03  0.20587884020E+03  0.00000000000E+00 0. -1.
          1   -1    0    0  501    0  0.00000000000E+00 -0.00000000000E+00 -0.12134079574E+04  0.12134079574E+04  0.00000000000E+00 0. -1.
         36    2    1    2    0    0 -0.17763568394E-13  0.00000000000E+00 -0.10075291172E+04  0.14192867976E+04  0.99962997744E+03 0.  0.
         25    2    3    3    0    0  0.19558544276E+01  0.13281755997E+03 -0.25739164501E+03  0.31482931139E+03  0.12338033388E+03 0.  0.
         35    2    3    3    0    0 -0.19558544276E+01 -0.13281755997E+03 -0.75013747215E+03  0.11044574862E+04  0.79967229664E+03 0.  0.
         22    1    5    5    0    0  0.19905713858E+03 -0.29833193076E+03 -0.55874051129E+02  0.36297051523E+03  0.00000000000E+00 0.  1.
         22    1    5    5    0    0 -0.20101299301E+03  0.16551437080E+03 -0.69426342102E+03  0.74148697094E+03  0.00000000000E+00 0.  1.
          5    1    4    4  502    0 -0.10488704444E+02 -0.42749509167E+01  0.88137902463E+01  0.15101689467E+02  0.47000000000E+01 0.  1.
         -5    1    4    4    0  502  0.12444558871E+02  0.13709251088E+03 -0.26620543525E+03  0.29972762192E+03  0.47000000000E+01 0.  1.
<mgrwt>
<rscale>  0 0.99962998E+03</rscale>
<asrwt>0</asrwt>
<pdfrwt beam="1">  1        1 0.18667814E+00 0.99962998E+03</pdfrwt>
<pdfrwt beam="2">  1       -1 0.31673668E-01 0.99962998E+03</pdfrwt>
<totfact> 0.10667517E+02</totfact>
</mgrwt>
</event>
<event>
 9    1  0.4369420E-036  0.1000504E+04  0.7818608E-02  0.8680558E-01
         -2   -1    0    0    0  501 -0.00000000000E+00  0.00000000000E+00  0.36314930991E+03  0.36314930991E+03  0.00000000000E+00 0. -1.
          2   -1    0    0  501    0  0.00000000000E+00 -0.00000000000E+00 -0.68911669595E+03  0.68911669595E+03  0.00000000000E+00 0. -1.
         36    2    1    2    0    0  0.00000000000E+00 -0.14210854715E-13 -0.32596738604E+03  0.10522660059E+04  0.10005043780E+04 0.  0.
         25    2    3    3    0    0  0.86742253501E+02 -0.42547723273E+02 -0.16826945770E+03  0.23097418978E+03  0.12529939605E+03 0.  0.
         35    2    3    3    0    0 -0.86742253501E+02  0.42547723273E+02 -0.15769792834E+03  0.82129181609E+03  0.80019815251E+03 0.  0.
         22    1    5    5    0    0  0.13552050860E+03 -0.30274574498E+03  0.87464074999E+02  0.34303171686E+03  0.00000000000E+00 0. -1.
         22    1    5    5    0    0 -0.22226276211E+03  0.34529346825E+03 -0.24516200334E+03  0.47826009923E+03  0.00000000000E+00 0. -1.
          5    1    4    4  502    0 -0.38844227937E+01 -0.64155757294E+02 -0.77798359554E+02  0.10102338681E+03  0.47000000000E+01 0.  1.
         -5    1    4    4    0  502  0.90626676295E+02  0.21608034021E+02 -0.90471098144E+02  0.12995080296E+03  0.47000000000E+01 0.  1.
<mgrwt>
<rscale>  0 0.10005044E+04</rscale>
<asrwt>0</asrwt>
<pdfrwt beam="1">  1        2 0.10601795E+00 0.10005044E+04</pdfrwt>
<pdfrwt beam="2">  1       -2 0.55869125E-01 0.10005044E+04</pdfrwt>
<totfact> 0.15218950E+02</totfact>
</mgrwt>
</event>
<event>
 9    1  0.4369420E-036  0.9998033E+03  0.7818608E-02  0.8681225E-01
          1   -1    0    0  501    0  0.00000000000E+00  0.00000000000E+00  0.34931746793E+03  0.34931746793E+03  0.00000000000E+00 0.  1.
         -1   -1    0    0    0  501 -0.00000000000E+00 -0.00000000000E+00 -0.71539990735E+03  0.71539990735E+03  0.00000000000E+00 0.  1.
         36    2    1    2    0    0  0.00000000000E+00  0.00000000000E+00 -0.36608243943E+03  0.10647173753E+04  0.99980334905E+03 0.  0.
         25    2    3    3    0    0 -0.36312785444E+02 -0.11538774652E+03  0.77152704227E+01  0.17388689743E+03  0.12467628992E+03 0.  0.
         35    2    3    3    0    0  0.36312785444E+02  0.11538774652E+03 -0.37379770985E+03  0.89083047785E+03  0.79951314057E+03 0.  0.
         22    1    5    5    0    0  0.11859606400E+03 -0.69015323092E+01 -0.60504837240E+03  0.61660051126E+03  0.00000000000E+00 0.  1.
         22    1    5    5    0    0 -0.82283278555E+02  0.12228927883E+03  0.23125066255E+03  0.27422996659E+03  0.00000000000E+00 0.  1.
          5    1    4    4  502    0  0.22718834721E+01  0.24510790014E+02  0.13709148644E+02  0.28565206776E+02  0.47000000000E+01 0.  1.
         -5    1    4    4    0  502 -0.38584668916E+02 -0.13989853653E+03 -0.59938782210E+01  0.14532169066E+03  0.47000000000E+01 0.  1.
<mgrwt>
<rscale>  0 0.99980335E+03</rscale>
<asrwt>0</asrwt>
<pdfrwt beam="1">  1        1 0.53741149E-01 0.99980335E+03</pdfrwt>
<pdfrwt beam="2">  1       -1 0.11006152E+00 0.99980335E+03</pdfrwt>
<totfact> 0.65818669E+01</totfact>
</mgrwt>
</event>
<event>
 9    1  0.4369420E-036  0.1000236E+04  0.7818608E-02  0.8680813E-01
          2   -1    0    0  501    0  0.00000000000E+00  0.00000000000E+00  0.14864216565E+04  0.14864216565E+04  0.00000000000E+00 0. -1.
         -2   -1    0    0    0  501 -0.00000000000E+00 -0.00000000000E+00 -0.16826856428E+03  0.16826856428E+03  0.00000000000E+00 0. -1.
         36    2    1    2    0    0  0.21316282073E-13  0.71054273576E-14  0.13181530922E+04  0.16546902208E+04  0.10002360482E+04 0.  0.
         25    2    3    3    0    0  0.54959075760E+02 -0.69948902715E+01  0.46042267432E+03  0.48016183997E+03  0.12448664601E+03 0.  0.
         35    2    3    3    0    0 -0.54959075760E+02  0.69948902715E+01  0.85773041788E+03  0.11745283808E+04  0.80046612610E+03 0.  0.
         22    1    5    5    0    0  0.22966015002E+03 -0.24439045904E+03  0.67367387872E+03  0.75253370413E+03  0.00000000000E+00 0. -1.
         22    1    5    5    0    0 -0.28461922578E+03  0.25138534931E+03  0.18405653916E+03  0.42199467667E+03  0.00000000000E+00 0. -1.
          5    1    4    4  502    0  0.46377241544E+02  0.25911952294E+02  0.68864764694E+02  0.87101800334E+02  0.47000000000E+01 0. -1.
         -5    1    4    4    0  502  0.85818342155E+01 -0.32906842566E+02  0.39155790963E+03  0.39306003964E+03  0.47000000000E+01 0. -1.
<mgrwt>
<rscale>  0 0.10002360E+04</rscale>
<asrwt>0</asrwt>
<pdfrwt beam="1">  1        2 0.22868025E+00 0.10002360E+04</pdfrwt>
<pdfrwt beam="2">  1       -2 0.25887472E-01 0.10002360E+04</pdfrwt>
<totfact> 0.20791665E+02</totfact>
</mgrwt>
</event>
<event>
 9    1  0.4369420E-036  0.1000327E+04  0.7818608E-02  0.8680727E-01
         -2   -1    0    0    0  501 -0.00000000000E+00  0.00000000000E+00  0.18334653686E+03  0.18334653686E+03  0.00000000000E+00 0. -1.
          2   -1    0    0  501    0  0.00000000000E+00 -0.00000000000E+00 -0.13644297937E+04  0.13644297937E+04  0.00000000000E+00 0. -1.
         36    2    1    2    0    0  0.00000000000E+00  0.28421709430E-13 -0.11810832568E+04  0.15477763305E+04  0.10003269015E+04 0.  0.
         25    2    3    3    0    0 -0.71078601103E+02 -0.47882903382E+02 -0.40413007120E+03  0.43170255347E+03  0.12530379187E+03 0.  0.
         35    2    3    3    0    0  0.71078601103E+02  0.47882903382E+02 -0.77695318563E+03  0.11160737771E+04  0.79663007930E+03 0.  0.
         22    1    5    5    0    0 -0.16583695573E+03 -0.32179860012E+03 -0.36102506386E+03  0.51126835581E+03  0.00000000000E+00 0.  1.
         22    1    5    5    0    0  0.23691555683E+03  0.36968150350E+03 -0.41592812178E+03  0.60480542126E+03  0.00000000000E+00 0.  1.
          5    1    4    4  502    0 -0.44881541596E+02 -0.77815869111E+02 -0.15369031509E+03  0.17807994051E+03  0.47000000000E+01 0.  1.
         -5    1    4    4    0  502 -0.26197059507E+02  0.29932965729E+02 -0.25043975611E+03  0.25362261296E+03  0.47000000000E+01 0.  1.
<mgrwt>
<rscale>  0 0.10003269E+04</rscale>
<asrwt>0</asrwt>
<pdfrwt beam="1">  1        2 0.20991227E+00 0.10003269E+04</pdfrwt>
<pdfrwt beam="2">  1       -2 0.28207160E-01 0.10003269E+04</pdfrwt>
<totfact> 0.20919885E+02</totfact>
</mgrwt>
</event>
<event>
 9    1  0.4369420E-036  0.9971610E+03  0.7818608E-02  0.8683746E-01
          2   -1    0    0  501    0  0.00000000000E+00  0.00000000000E+00  0.11101940025E+04  0.11101940025E+04  0.00000000000E+00 0.  1.
         -2   -1    0    0    0  501 -0.00000000000E+00 -0.00000000000E+00 -0.22390906509E+03  0.22390906509E+03  0.00000000000E+00 0.  1.
         36    2    1    2    0    0  0.00000000000E+00  0.00000000000E+00  0.88628493742E+03  0.13341030676E+04  0.99716097230E+03 0.  0.
         25    2    3    3    0    0 -0.25854617664E+02 -0.11481524547E+03  0.70446600081E+02  0.18530111368E+03  0.12459043872E+03 0.  0.
         35    2    3    3    0    0  0.25854617664E+02  0.11481524547E+03  0.81583833734E+03  0.11488019539E+04  0.80018918689E+03 0.  0.
         22    1    5    5    0    0 -0.63795370878E+02  0.22791224454E+03 -0.73505570971E+02  0.24782435215E+03  0.00000000000E+00 0. -1.
         22    1    5    5    0    0  0.89649988543E+02 -0.11309699907E+03  0.88934390831E+03  0.90097760177E+03  0.00000000000E+00 0. -1.
          5    1    4    4  502    0 -0.23723425617E+02 -0.12824063423E+03  0.91800314393E+02  0.15955515947E+03  0.47000000000E+01 0. -1.
         -5    1    4    4    0  502 -0.21311920471E+01  0.13425388765E+02 -0.21353714312E+02  0.25745954205E+02  0.47000000000E+01 0. -1.
<mgrwt>
<rscale>  0 0.99716097E+03</rscale>
<asrwt>0</asrwt>
<pdfrwt beam="1">  1        2 0.17079907E+00 0.99716097E+03</pdfrwt>
<pdfrwt beam="2">  1       -2 0.34447549E-01 0.99716097E+03</pdfrwt>
<totfact> 0.20455499E+02</totfact>
</mgrwt>
</event>
<event>
 9    1  0.4369420E-036  0.9986685E+03  0.7818608E-02  0.8682307E-01
          1   -1    0    0  501    0  0.00000000000E+00  0.00000000000E+00  0.48396495262E+03  0.48396495262E+03  0.00000000000E+00 0. -1.
         -1   -1    0    0    0  501 -0.00000000000E+00 -0.00000000000E+00 -0.51519161605E+03  0.51519161605E+03  0.00000000000E+00 0. -1.
         36    2    1    2    0    0  0.00000000000E+00  0.00000000000E+00 -0.31226663432E+02  0.99915656867E+03  0.99866848564E+03 0.  0.
         25    2    3    3    0    0 -0.99319726479E+00 -0.13624286166E+03 -0.12631866977E+02  0.18622888688E+03  0.12632707727E+03 0.  0.
         35    2    3    3    0    0  0.99319726479E+00  0.13624286166E+03 -0.18594796455E+02  0.81292768178E+03  0.80121317111E+03 0.  0.
         22    1    5    5    0    0 -0.26848935768E+03 -0.22259561519E+02 -0.29221885372E+03  0.39745928312E+03  0.00000000000E+00 0.  1.
         22    1    5    5    0    0  0.26948255495E+03  0.15850242318E+03  0.27362405726E+03  0.41546839867E+03  0.00000000000E+00 0.  1.
          5    1    4    4  502    0 -0.57088876252E+02 -0.85640836156E+02 -0.32384116937E+02  0.10800145202E+03  0.47000000000E+01 0. -1.
         -5    1    4    4    0  502  0.56095678988E+02 -0.50602025507E+02  0.19752249960E+02  0.78227434862E+02  0.47000000000E+01 0. -1.
<mgrwt>
<rscale>  0 0.99866849E+03</rscale>
<asrwt>0</asrwt>
<pdfrwt beam="1">  1        1 0.74456147E-01 0.99866849E+03</pdfrwt>
<pdfrwt beam="2">  1       -1 0.79260249E-01 0.99866849E+03</pdfrwt>
<totfact> 0.87229016E+01</totfact>
</mgrwt>
</event>
<event>
 9    1  0.4369420E-036  0.1003165E+04  0.7818608E-02  0.8678030E-01
         -1   -1    0    0    0  501 -0.00000000000E+00  0.00000000000E+00  0.34485012414E+03  0.34485012414E+03  0.00000000000E+00 0. -1.
          1   -1    0    0  501    0  0.00000000000E+00 -0.00000000000E+00 -0.72954899033E+03  0.72954899033E+03  0.00000000000E+00 0. -1.
         36    2    1    2    0    0  0.71054273576E-14 -0.14210854715E-13 -0.38469886619E+03  0.10743991145E+04  0.10031651108E+04 0.  0.
         25    2    3    3    0    0  0.32613545912E+02 -0.35505805090E+02  0.72092861693E+02  0.15278734032E+03  0.12578666496E+03 0.  0.
         35    2    3    3    0    0 -0.32613545912E+02  0.35505805090E+02 -0.45679172788E+03  0.92161177416E+03  0.79899015891E+03 0.  0.
         22    1    5    5    0    0  0.60736361002E+02  0.21106993142E+03  0.16118509728E+03  0.27243358289E+03  0.00000000000E+00 0.  1.
         22    1    5    5    0    0 -0.93349906914E+02 -0.17556412634E+03 -0.61797682516E+03  0.64917819127E+03  0.00000000000E+00 0.  1.
          5    1    4    4  502    0  0.29593845941E+02 -0.78209843748E+02  0.21741569109E+02  0.86529539488E+02  0.47000000000E+01 0. -1.
         -5    1    4    4    0  502  0.30196999702E+01  0.42704038658E+02  0.50351292583E+02  0.66257800827E+02  0.47000000000E+01 0. -1.
<mgrwt>
<rscale>  0 0.10031651E+04</rscale>
<asrwt>0</asrwt>
<pdfrwt beam="1">  1        1 0.11223830E+00 0.10031651E+04</pdfrwt>
<pdfrwt beam="2">  1       -1 0.53053866E-01 0.10031651E+04</pdfrwt>
<totfact> 0.10504906E+02</totfact>
</mgrwt>
</event>
<event>
 9    1  0.4369420E-036  0.1000027E+04  0.7818608E-02  0.8681012E-01
         -1   -1    0    0    0  501 -0.00000000000E+00  0.00000000000E+00  0.69135993688E+03  0.69135993688E+03  0.00000000000E+00 0. -1.
          1   -1    0    0  501    0  0.00000000000E+00 -0.00000000000E+00 -0.36162570035E+03  0.36162570035E+03  0.00000000000E+00 0. -1.
         36    2    1    2    0    0  0.71054273576E-14  0.00000000000E+00  0.32973423654E+03  0.10529856372E+04  0.10000270424E+04 0.  0.
         25    2    3    3    0    0 -0.35355157123E+02 -0.58290444227E+01 -0.79858022259E+02  0.15264855563E+03  0.12506123670E+03 0.  0.
         35    2    3    3    0    0  0.35355157123E+02  0.58290444227E+01  0.40959225880E+03  0.90033708160E+03  0.80097258201E+03 0.  0.
         22    1    5    5    0    0  0.38481052117E+03  0.63238075850E+02  0.38075508395E+03  0.54502534381E+03  0.00000000000E+00 0.  1.
         22    1    5    5    0    0 -0.34945536405E+03 -0.57409031428E+02  0.28837174845E+02  0.35531173778E+03  0.00000000000E+00 0.  1.
          5    1    4    4  502    0  0.11512106197E+02 -0.53292853831E+02 -0.94271723036E+01  0.55530337980E+02  0.47000000000E+01 0. -1.
         -5    1    4    4    0  502 -0.46867263320E+02  0.47463809409E+02 -0.70430849955E+02  0.97118217653E+02  0.47000000000E+01 0. -1.
<mgrwt>
<rscale>  0 0.10000270E+04</rscale>
<asrwt>0</asrwt>
<pdfrwt beam="1">  1        1 0.55634723E-01 0.10000270E+04</pdfrwt>
<pdfrwt beam="2">  1       -1 0.10636307E+00 0.10000270E+04</pdfrwt>
<totfact> 0.68081020E+01</totfact>
</mgrwt>
</event>
<event>
 9    1  0.4369420E-036  0.1001710E+04  0.7818608E-02  0.8679411E-01
         -2   -1    0    0    0  501 -0.00000000000E+00  0.00000000000E+00  0.27976142751E+03  0.27976142751E+03  0.00000000000E+00 0. -1.
          2   -1    0    0  501    0  0.00000000000E+00 -0.00000000000E+00 -0.89667800154E+03  0.89667800154E+03  0.00000000000E+00 0. -1.
         36    2    1    2    0    0  0.14210854715E-13  0.00000000000E+00 -0.61691657403E+03  0.11764394291E+04  0.10017103728E+04 0.  0.
         25    2    3    3    0    0 -0.47427299163E+02 -0.24936383319E+02  0.37517357937E+02  0.14111630240E+03  0.12504034044E+03 0.  0.
         35    2    3    3    0    0  0.47427299163E+02  0.24936383319E+02 -0.65443393196E+03  0.10353231267E+04  0.80046176259E+03 0.  0.
         22    1    5    5    0    0  0.25366937477E+03  0.18151291060E+03  0.20326058589E+02  0.31258316824E+03  0.00000000000E+00 0.  1.
         22    1    5    5    0    0 -0.20624207560E+03 -0.15657652728E+03 -0.67475999055E+03  0.72273995842E+03  0.00000000000E+00 0.  1.
          5    1    4    4  502    0 -0.76064972736E+02 -0.35501606819E+02  0.59680780753E+02  0.10310252061E+03  0.47000000000E+01 0.  1.
         -5    1    4    4    0  502  0.28637673573E+02  0.10565223500E+02 -0.22163422816E+02  0.38013781793E+02  0.47000000000E+01 0.  1.
<mgrwt>
<rscale>  0 0.10017104E+04</rscale>
<asrwt>0</asrwt>
<pdfrwt beam="1">  1        2 0.13795047E+00 0.10017104E+04</pdfrwt>
<pdfrwt beam="2">  1       -2 0.43040218E-01 0.10017104E+04</pdfrwt>
<totfact> 0.18252596E+02</totfact>
</mgrwt>
</event>
<event>
 9    1  0.4369420E-036  0.9999688E+03  0.7818608E-02  0.8681068E-01
          2   -1    0    0  501    0  0.00000000000E+00  0.00000000000E+00  0.10317063896E+04  0.10317063896E+04  0.00000000000E+00 0.  1.
         -2   -1    0    0    0  501 -0.00000000000E+00 -0.00000000000E+00 -0.24230187751E+03  0.24230187751E+03  0.00000000000E+00 0.  1.
         36    2    1    2    0    0  0.00000000000E+00  0.28421709430E-13  0.78940451210E+03  0.12740082671E+04  0.99996878999E+03 0.  0.
         25    2    3    3    0    0 -0.41646244272E+02  0.69941128482E+01 -0.21669911977E+02  0.13534643552E+03  0.12675072089E+03 0.  0.
         35    2    3    3    0    0  0.41646244272E+02 -0.69941128482E+01  0.81107442407E+03  0.11386618316E+04  0.79807626080E+03 0.  0.
         22    1    5    5    0    0  0.54758267881E+02 -0.32896652340E+03  0.84793091847E+02  0.34410363242E+03  0.00000000000E+00 0. -1.
         22    1    5    5    0    0 -0.13112023609E+02  0.32197241056E+03  0.72628133223E+03  0.79455819917E+03  0.00000000000E+00 0. -1.
          5    1    4    4  502    0 -0.38272549893E+02 -0.56468490797E+02 -0.11135007269E+01  0.68387194796E+02  0.47000000000E+01 0. -1.
         -5    1    4    4    0  502 -0.33736943789E+01  0.63462603646E+02 -0.20556411250E+02  0.66959240727E+02  0.47000000000E+01 0. -1.
<mgrwt>
<rscale>  0 0.99996879E+03</rscale>
<asrwt>0</asrwt>
<pdfrwt beam="1">  1        2 0.15872406E+00 0.99996879E+03</pdfrwt>
<pdfrwt beam="2">  1       -2 0.37277212E-01 0.99996879E+03</pdfrwt>
<totfact> 0.19706681E+02</totfact>
</mgrwt>
</event>
<event>
 9    1  0.4369420E-036  0.9961709E+03  0.7818608E-02  0.8684693E-01
          2   -1    0    0  501    0  0.00000000000E+00  0.00000000000E+00  0.98378348337E+03  0.98378348337E+03  0.00000000000E+00 0.  1.
         -2   -1    0    0    0  501 -0.00000000000E+00 -0.00000000000E+00 -0.25217856433E+03  0.25217856433E+03  0.00000000000E+00 0.  1.
         36    2    1    2    0    0 -0.28421709430E-13 -0.71054273576E-14  0.73160491905E+03  0.12359620477E+04  0.99617088182E+03 0.  0.
         25    2    3    3    0    0 -0.13314804196E+03 -0.26906118947E+02  0.12019536784E+03  0.22030622896E+03  0.12504226386E+03 0.  0.
         35    2    3    3    0    0  0.13314804196E+03  0.26906118947E+02  0.61140955121E+03  0.10156558187E+04  0.79955160092E+03 0.  0.
         22    1    5    5    0    0  0.61313549919E+02 -0.61489258198E+02  0.79493135231E+03  0.79966001224E+03  0.00000000000E+00 0. -1.
         22    1    5    5    0    0  0.71834492045E+02  0.88395377145E+02 -0.18352180111E+03  0.21599580651E+03  0.00000000000E+00 0. -1.
          5    1    4    4  502    0 -0.99378888040E+02 -0.57557951426E+02  0.12989185632E+03  0.17344470444E+03  0.47000000000E+01 0.  1.
         -5    1    4    4    0  502 -0.33769153924E+02  0.30651832479E+02 -0.96964884793E+01  0.46861524516E+02  0.47000000000E+01 0.  1.
<mgrwt>
<rscale>  0 0.99617088E+03</rscale>
<asrwt>0</asrwt>
<pdfrwt beam="1">  1        2 0.15135130E+00 0.99617088E+03</pdfrwt>
<pdfrwt beam="2">  1       -2 0.38796703E-01 0.99617088E+03</pdfrwt>
<totfact> 0.19577519E+02</totfact>
</mgrwt>
</event>
<event>
 9    1  0.4369420E-036  0.1001611E+04  0.7818608E-02  0.8679505E-01
         -1   -1    0    0    0  501 -0.00000000000E+00  0.00000000000E+00  0.12571375175E+03  0.12571375175E+03  0.00000000000E+00 0.  1.
          1   -1    0    0  501    0  0.00000000000E+00 -0.00000000000E+00 -0.19950578867E+04  0.19950578867E+04  0.00000000000E+00 0.  1.
         36    2    1    2    0    0  0.71054273576E-14  0.14210854715E-13 -0.18693441349E+04  0.21207716384E+04  0.10016111259E+04 0.  0.
         25    2    3    3    0    0 -0.43377412662E+02 -0.11963736616E+03 -0.47872606095E+03  0.51091528583E+03  0.12514427094E+03 0.  0.
         35    2    3    3    0    0  0.43377412662E+02  0.11963736616E+03 -0.13906180740E+04  0.16098563526E+04  0.80101444995E+03 0.  0.
         22    1    5    5    0    0  0.17742823691E+03 -0.36393829957E+01 -0.14150255761E+04  0.14261105866E+04  0.00000000000E+00 0.  1.
         22    1    5    5    0    0 -0.13405082425E+03  0.12327674916E+03  0.24407502066E+02  0.18374576600E+03  0.00000000000E+00 0.  1.
          5    1    4    4  502    0  0.10086872784E+02 -0.30502914881E+02 -0.15192214421E+02  0.35847819987E+02  0.47000000000E+01 0. -1.
         -5    1    4    4    0  502 -0.53464285446E+02 -0.89134451281E+02 -0.46353384653E+03  0.47506746584E+03  0.47000000000E+01 0. -1.
<mgrwt>
<rscale>  0 0.10016111E+04</rscale>
<asrwt>0</asrwt>
<pdfrwt beam="1">  1        1 0.30693197E+00 0.10016111E+04</pdfrwt>
<pdfrwt beam="2">  1       -1 0.19340578E-01 0.10016111E+04</pdfrwt>
<totfact> 0.67851247E+01</totfact>
</mgrwt>
</event>
<event>
 9    1  0.4369420E-036  0.9999793E+03  0.7818608E-02  0.8681058E-01
         -1   -1    0    0    0  501 -0.00000000000E+00  0.00000000000E+00  0.75983290490E+03  0.75983290490E+03  0.00000000000E+00 0. -1.
          1   -1    0    0  501    0  0.00000000000E+00 -0.00000000000E+00 -0.32900609475E+03  0.32900609475E+03  0.00000000000E+00 0. -1.
         36    2    1    2    0    0  0.42632564146E-13  0.14210854715E-13  0.43082681015E+03  0.10888389996E+04  0.99997931318E+03 0.  0.
         25    2    3    3    0    0  0.10803912560E+03 -0.84095003413E+02  0.10153316365E+03  0.21157079740E+03  0.12533473874E+03 0.  0.
         35    2    3    3    0    0 -0.10803912560E+03  0.84095003413E+02  0.32929364651E+03  0.87726820224E+03  0.80151155373E+03 0.  0.
         22    1    5    5    0    0 -0.14770636583E+03 -0.17943048529E+03 -0.18564961917E+03  0.29745293855E+03  0.00000000000E+00 0.  1.
         22    1    5    5    0    0  0.39667240227E+02  0.26352548870E+03  0.51494326567E+03  0.57981526369E+03  0.00000000000E+00 0.  1.
          5    1    4    4  502    0 -0.24706350753E+02 -0.10905521730E+02  0.38670050035E+02  0.47400389677E+02  0.47000000000E+01 0.  1.
         -5    1    4    4    0  502  0.13274547635E+03 -0.73189481683E+02  0.62863113611E+02  0.16417040773E+03  0.47000000000E+01 0.  1.
<mgrwt>
<rscale>  0 0.99997931E+03</rscale>
<asrwt>0</asrwt>
<pdfrwt beam="1">  1        1 0.50616322E-01 0.99997931E+03</pdfrwt>
<pdfrwt beam="2">  1       -1 0.11689737E+00 0.99997931E+03</pdfrwt>
<totfact> 0.61657233E+01</totfact>
</mgrwt>
</event>
<event>
 9    1  0.4369420E-036  0.9977553E+03  0.7818608E-02  0.8683179E-01
         -1   -1    0    0    0  501 -0.00000000000E+00  0.00000000000E+00  0.18648171295E+03  0.18648171295E+03  0.00000000000E+00 0. -1.
          1   -1    0    0  501    0  0.00000000000E+00 -0.00000000000E+00 -0.13346021937E+04  0.13346021937E+04  0.00000000000E+00 0. -1.
         36    2    1    2    0    0 -0.14210854715E-13  0.00000000000E+00 -0.11481204807E+04  0.15210839066E+04  0.99775528700E+03 0.  0.
         25    2    3    3    0    0  0.78474843002E+02  0.58552463424E+02 -0.63940733782E+02  0.17008318831E+03  0.12350377141E+03 0.  0.
         35    2    3    3    0    0 -0.78474843002E+02 -0.58552463424E+02 -0.10841797469E+04  0.13510007183E+04  0.80010657118E+03 0.  0.
         22    1    5    5    0    0 -0.16631157264E+03 -0.26521551326E+03 -0.10820623194E+04  0.11264358263E+04  0.00000000000E+00 0. -1.
         22    1    5    5    0    0  0.87836729634E+02  0.20666304983E+03 -0.21174275579E+01  0.22456489205E+03  0.00000000000E+00 0. -1.
          5    1    4    4  502    0  0.61795962232E+02 -0.14363576582E+02 -0.70367146136E+02  0.94861364821E+02  0.47000000000E+01 0. -1.
         -5    1    4    4    0  502  0.16678880770E+02  0.72916040006E+02  0.64264123549E+01  0.75221823493E+02  0.47000000000E+01 0. -1.
<mgrwt>
<rscale>  0 0.99775529E+03</rscale>
<asrwt>0</asrwt>
<pdfrwt beam="1">  1        1 0.20532342E+00 0.99775529E+03</pdfrwt>
<pdfrwt beam="2">  1       -1 0.28689493E-01 0.99775529E+03</pdfrwt>
<totfact> 0.10296344E+02</totfact>
</mgrwt>
</event>
<event>
 9    1  0.4369420E-036  0.1000790E+04  0.7818608E-02  0.8680286E-01
          2   -1    0    0  501    0  0.00000000000E+00  0.00000000000E+00  0.10175768283E+04  0.10175768283E+04  0.00000000000E+00 0.  1.
         -2   -1    0    0    0  501 -0.00000000000E+00 -0.00000000000E+00 -0.24606991950E+03  0.24606991950E+03  0.00000000000E+00 0.  1.
         36    2    1    2    0    0  0.71054273576E-14 -0.14210854715E-13  0.77150690880E+03  0.12636467478E+04  0.10007897846E+04 0.  0.
         25    2    3    3    0    0  0.26613225748E+02 -0.98078713784E+02  0.26723662460E+03  0.31246607869E+03  0.12606323384E+03 0.  0.
         35    2    3    3    0    0 -0.26613225748E+02  0.98078713784E+02  0.50427028421E+03  0.95118066911E+03  0.80008027590E+03 0.  0.
         22    1    5    5    0    0 -0.39771227680E+03 -0.34280669324E+02  0.33982313299E+03  0.52424229238E+03  0.00000000000E+00 0. -1.
         22    1    5    5    0    0  0.37109905105E+03  0.13235938311E+03  0.16444715122E+03  0.42693837674E+03  0.00000000000E+00 0. -1.
          5    1    4    4  502    0  0.64126259931E+02 -0.10466554966E+03  0.21548756840E+03  0.24804039315E+03  0.47000000000E+01 0.  1.
         -5    1    4    4    0  502 -0.37513034183E+02  0.65868358812E+01  0.51749056197E+02  0.64425685544E+02  0.47000000000E+01 0.  1.
<mgrwt>
<rscale>  0 0.10007898E+04</rscale>
<asrwt>0</asrwt>
<pdfrwt beam="1">  1        2 0.15655028E+00 0.10007898E+04</pdfrwt>
<pdfrwt beam="2">  1       -2 0.37856911E-01 0.10007898E+04</pdfrwt>
<totfact> 0.19531338E+02</totfact>
</mgrwt>
</event>
<event>
 9    1  0.4369420E-036  0.1000381E+04  0.7818608E-02  0.8680675E-01
          2   -1    0    0  501    0  0.00000000000E+00  0.00000000000E+00  0.83808413776E+03  0.83808413776E+03  0.00000000000E+00 0. -1.
         -2   -1    0    0    0  501 -0.00000000000E+00 -0.00000000000E+00 -0.29852691148E+03  0.29852691148E+03  0.00000000000E+00 0. -1.
         36    2    1    2    0    0  0.71054273576E-14  0.28421709430E-13  0.53955722629E+03  0.11366110492E+04  0.10003812657E+04 0.  0.
         25    2    3    3    0    0  0.29361792919E+02 -0.13797370463E+03  0.82310180272E+02  0.20326880653E+03  0.12101398216E+03 0.  0.
         35    2    3    3    0    0 -0.29361792919E+02  0.13797370463E+03  0.45724704602E+03  0.93334224271E+03  0.80134513344E+03 0.  0.
         22    1    5    5    0    0  0.25160140812E+03 -0.14524479344E+01  0.55120612914E+03  0.60591548501E+03  0.00000000000E+00 0. -1.
         22    1    5    5    0    0 -0.28096320104E+03  0.13942615257E+03 -0.93959083123E+02  0.32742675770E+03  0.00000000000E+00 0. -1.
          5    1    4    4  502    0  0.68994390049E+02 -0.12572997213E+03  0.70543828220E+02  0.15989613331E+03  0.47000000000E+01 0.  1.
         -5    1    4    4    0  502 -0.39632597131E+02 -0.12243732505E+02  0.11766352051E+02  0.43372673212E+02  0.47000000000E+01 0.  1.
<mgrwt>
<rscale>  0 0.10003813E+04</rscale>
<asrwt>0</asrwt>
<pdfrwt beam="1">  1        2 0.12893602E+00 0.10003813E+04</pdfrwt>
<pdfrwt beam="2">  1       -2 0.45927217E-01 0.10003813E+04</pdfrwt>
<totfact> 0.17602535E+02</totfact>
</mgrwt>
</event>
<event>
 9    1  0.4369420E-036  0.9996886E+03  0.7818608E-02  0.8681335E-01
         -4   -1    0    0    0  501 -0.00000000000E+00  0.00000000000E+00  0.21102921501E+03  0.21102921501E+03  0.00000000000E+00 0. -1.
          4   -1    0    0  501    0  0.00000000000E+00 -0.00000000000E+00 -0.11839323989E+04  0.11839323989E+04  0.00000000000E+00 0. -1.
         36    2    1    2    0    0  0.28421709430E-13 -0.21316282073E-13 -0.97290318385E+03  0.13949616139E+04  0.99968860103E+03 0.  0.
         25    2    3    3    0    0  0.13759519197E+03 -0.63914534165E+01 -0.22292611882E+03  0.28908699737E+03  0.12207354369E+03 0.  0.
         35    2    3    3    0    0 -0.13759519197E+03  0.63914534165E+01 -0.74997706503E+03  0.11058746165E+04  0.80094930040E+03 0.  0.
         22    1    5    5    0    0  0.10216631558E+03 -0.35325498930E+03 -0.44288657285E+03  0.57565229081E+03  0.00000000000E+00 0.  1.
         22    1    5    5    0    0 -0.23976150756E+03  0.35964644272E+03 -0.30709049218E+03  0.53022232568E+03  0.00000000000E+00 0.  1.
          5    1    4    4  502    0  0.15677949818E+03  0.11675292540E+02 -0.19034075545E+03  0.24691661890E+03  0.47000000000E+01 0.  1.
         -5    1    4    4    0  502 -0.19184306212E+02 -0.18066745956E+02 -0.32585363370E+02  0.42170378469E+02  0.47000000000E+01 0.  1.
<mgrwt>
<rscale>  0 0.99968860E+03</rscale>
<asrwt>0</asrwt>
<pdfrwt beam="1">  1        4 0.18214345E+00 0.99968860E+03</pdfrwt>
<pdfrwt beam="2">  1       -4 0.32466033E-01 0.99968860E+03</pdfrwt>
<totfact> 0.29488989E+00</totfact>
</mgrwt>
</event>
<event>
 9    1  0.4369420E-036  0.1000466E+04  0.7818608E-02  0.8680594E-01
         -2   -1    0    0    0  501 -0.00000000000E+00  0.00000000000E+00  0.58244405135E+03  0.58244405135E+03  0.00000000000E+00 0. -1.
          2   -1    0    0  501    0  0.00000000000E+00 -0.00000000000E+00 -0.42962616018E+03  0.42962616018E+03  0.00000000000E+00 0. -1.
         36    2    1    2    0    0 -0.14210854715E-13  0.28421709430E-13  0.15281789118E+03  0.10120702115E+04  0.10004662939E+04 0.  0.
         25    2    3    3    0    0 -0.72792846153E+02  0.11699623643E+03 -0.65682989291E+00  0.18528118130E+03  0.12386188650E+03 0.  0.
         35    2    3    3    0    0  0.72792846153E+02 -0.11699623643E+03  0.15347472107E+03  0.82678903023E+03  0.80064891976E+03 0.  0.
         22    1    5    5    0    0 -0.38754083414E+02  0.32400248142E+03  0.17712863594E+03  0.37128700572E+03  0.00000000000E+00 0.  1.
         22    1    5    5    0    0  0.11154692957E+03 -0.44099871785E+03 -0.23653914873E+02  0.45550202451E+03  0.00000000000E+00 0.  1.
          5    1    4    4  502    0 -0.31145356912E+02  0.83037092453E+01  0.48841987881E+02  0.58707875320E+02  0.47000000000E+01 0.  1.
         -5    1    4    4    0  502 -0.41647489241E+02  0.10869252718E+03 -0.49498817773E+02  0.12657330598E+03  0.47000000000E+01 0.  1.
<mgrwt>
<rscale>  0 0.10004663E+04</rscale>
<asrwt>0</asrwt>
<pdfrwt beam="1">  1        2 0.66096332E-01 0.10004663E+04</pdfrwt>
<pdfrwt beam="2">  1       -2 0.89606777E-01 0.10004663E+04</pdfrwt>
<totfact> 0.93579958E+01</totfact>
</mgrwt>
</event>
<event>
 9    1  0.4369420E-036  0.9918650E+03  0.7818608E-02  0.8688824E-01
          2   -1    0    0  501    0  0.00000000000E+00  0.00000000000E+00  0.73586264291E+03  0.73586264291E+03  0.00000000000E+00 0. -1.
         -2   -1    0    0    0  501 -0.00000000000E+00 -0.00000000000E+00 -0.33423224971E+03  0.33423224971E+03  0.00000000000E+00 0. -1.
         36    2    1    2    0    0  0.00000000000E+00 -0.71054273576E-14  0.40163039320E+03  0.10700948926E+04  0.99186496384E+03 0.  0.
         25    2    3    3    0    0  0.12258198578E+03 -0.43803953250E+02  0.89819944054E+02  0.20169633502E+03  0.12517451679E+03 0.  0.
         35    2    3    3    0    0 -0.12258198578E+03  0.43803953250E+02  0.31181044915E+03  0.86839855760E+03  0.79996572995E+03 0.  0.
         22    1    5    5    0    0  0.80874875679E+02  0.66340847402E+02  0.54682186546E+03  0.55673692719E+03  0.00000000000E+00 0.  1.
         22    1    5    5    0    0 -0.20345686146E+03 -0.22536894152E+02 -0.23501141632E+03  0.31166163041E+03  0.00000000000E+00 0.  1.
          5    1    4    4  502    0  0.13711805245E+03 -0.14821392547E+02  0.42979217368E+02  0.14453489929E+03  0.47000000000E+01 0.  1.
         -5    1    4    4    0  502 -0.14536066673E+02 -0.28982560703E+02  0.46840726686E+02  0.57161435738E+02  0.47000000000E+01 0.  1.
<mgrwt>
<rscale>  0 0.99186496E+03</rscale>
<asrwt>0</asrwt>
<pdfrwt beam="1">  1        2 0.11320964E+00 0.99186496E+03</pdfrwt>
<pdfrwt beam="2">  1       -2 0.51420346E-01 0.99186496E+03</pdfrwt>
<totfact> 0.16615783E+02</totfact>
</mgrwt>
</event>
<event>
 9    1  0.4369420E-036  0.1000276E+04  0.7818608E-02  0.8680775E-01
         -2   -1    0    0    0  501 -0.00000000000E+00  0.00000000000E+00  0.10737760171E+03  0.10737760171E+03  0.00000000000E+00 0. -1.
          2   -1    0    0  501    0  0.00000000000E+00 -0.00000000000E+00 -0.23295191244E+04  0.23295191244E+04  0.00000000000E+00 0. -1.
         36    2    1    2    0    0  0.00000000000E+00 -0.28421709430E-13 -0.22221415227E+04  0.24368967261E+04  0.10002763152E+04 0.  0.
         25    2    3    3    0    0 -0.54808570951E+02 -0.85858869125E+02 -0.18966745362E+03  0.24929071674E+03  0.12568370472E+03 0.  0.
         35    2    3    3    0    0  0.54808570951E+02  0.85858869125E+02 -0.20324740691E+04  0.21876060094E+04  0.80267894324E+03 0.  0.
         22    1    5    5    0    0 -0.81269648884E+02 -0.32742266824E+03 -0.57593755624E+03  0.66746867207E+03  0.00000000000E+00 0.  1.
         22    1    5    5    0    0  0.13607821984E+03  0.41328153736E+03 -0.14565365129E+04  0.15201373373E+04  0.00000000000E+00 0.  1.
          5    1    4    4  502    0 -0.53765829737E+02 -0.67318960373E+02 -0.20649354126E+03  0.22379517299E+03  0.47000000000E+01 0. -1.
         -5    1    4    4    0  502 -0.10427412148E+01 -0.18539908752E+02  0.16826087636E+02  0.25495543746E+02  0.47000000000E+01 0. -1.
<mgrwt>
<rscale>  0 0.10002763E+04</rscale>
<asrwt>0</asrwt>
<pdfrwt beam="1">  1        2 0.35838752E+00 0.10002763E+04</pdfrwt>
<pdfrwt beam="2">  1       -2 0.16519633E-01 0.10002763E+04</pdfrwt>
<totfact> 0.14979186E+02</totfact>
</mgrwt>
</event>
<event>
 9    1  0.4369420E-036  0.9999590E+03  0.7818608E-02  0.8681077E-01
         -1   -1    0    0    0  501 -0.00000000000E+00  0.00000000000E+00  0.26706244104E+03  0.26706244104E+03  0.00000000000E+00 0. -1.
          1   -1    0    0  501    0  0.00000000000E+00 -0.00000000000E+00 -0.93603398325E+03  0.93603398325E+03  0.00000000000E+00 0. -1.
         36    2    1    2    0    0 -0.71054273576E-14  0.00000000000E+00 -0.66897154221E+03  0.12030964243E+04  0.99995904009E+03 0.  0.
         25    2    3    3    0    0 -0.36297131395E+02  0.76917878443E+02  0.80229872142E+01  0.15046919454E+03  0.12386592917E+03 0.  0.
         35    2    3    3    0    0  0.36297131395E+02 -0.76917878443E+02 -0.67699452942E+03  0.10526272298E+04  0.80154142138E+03 0.  0.
         22    1    5    5    0    0  0.23073968318E+03  0.30127652816E+03 -0.28941569226E+03  0.47725233445E+03  0.00000000000E+00 0.  1.
         22    1    5    5    0    0 -0.19444255178E+03 -0.37819440661E+03 -0.38757883716E+03  0.57537489531E+03  0.00000000000E+00 0.  1.
          5    1    4    4  502    0  0.26093966942E+02  0.74237748331E+02 -0.20801682016E+02  0.81528757888E+02  0.47000000000E+01 0. -1.
         -5    1    4    4    0  502 -0.62391098337E+02  0.26801301119E+01  0.28824669230E+02  0.68940436649E+02  0.47000000000E+01 0. -1.
<mgrwt>
<rscale>  0 0.99995904E+03</rscale>
<asrwt>0</asrwt>
<pdfrwt beam="1">  1        1 0.14400523E+00 0.99995904E+03</pdfrwt>
<pdfrwt beam="2">  1       -1 0.41086529E-01 0.99995904E+03</pdfrwt>
<totfact> 0.11095926E+02</totfact>
</mgrwt>
</event>
<event>
 9    1  0.4369420E-036  0.1000378E+04  0.7818608E-02  0.8680678E-01
          1   -1    0    0  501    0  0.00000000000E+00  0.00000000000E+00  0.17639410882E+04  0.17639410882E+04  0.00000000000E+00 0. -1.
         -1   -1    0    0    0  501 -0.00000000000E+00 -0.00000000000E+00 -0.14183513906E+03  0.14183513906E+03  0.00000000000E+00 0. -1.
         36    2    1    2    0    0  0.00000000000E+00 -0.17763568394E-13  0.16221059491E+04  0.19057762272E+04  0.10003775878E+04 0.  0.
         25    2    3    3    0    0  0.12815119268E+03  0.11436282282E+02  0.42272995140E+03  0.45840077995E+03  0.12197190870E+03 0.  0.
         35    2    3    3    0    0 -0.12815119268E+03 -0.11436282282E+02  0.11993759977E+04  0.14473754473E+04  0.79989960919E+03 0.  0.
         22    1    5    5    0    0 -0.64873439588E+02 -0.18805106669E+03  0.12396363380E+04  0.12554959249E+04  0.00000000000E+00 0.  1.
         22    1    5    5    0    0 -0.63277753090E+02  0.17661478440E+03 -0.40260340331E+02  0.19187952238E+03  0.00000000000E+00 0.  1.
          5    1    4    4  502    0  0.86265510154E+01  0.80324663986E+01  0.23775203517E+03  0.23809044107E+03  0.47000000000E+01 0. -1.
         -5    1    4    4    0  502  0.11952464166E+03  0.34038158834E+01  0.18497791623E+03  0.22031033889E+03  0.47000000000E+01 0. -1.
<mgrwt>
<rscale>  0 0.10003776E+04</rscale>
<asrwt>0</asrwt>
<pdfrwt beam="1">  1        1 0.27137554E+00 0.10003776E+04</pdfrwt>
<pdfrwt beam="2">  1       -1 0.21820792E-01 0.10003776E+04</pdfrwt>
<totfact> 0.80717846E+01</totfact>
</mgrwt>
</event>
<event>
 9    1  0.4369420E-036  0.9994382E+03  0.7818608E-02  0.8681573E-01
         -1   -1    0    0    0  501 -0.00000000000E+00  0.00000000000E+00  0.24211329369E+03  0.24211329369E+03  0.00000000000E+00 0.  1.
          1   -1    0    0  501    0  0.00000000000E+00 -0.00000000000E+00 -0.10314145312E+04  0.10314145312E+04  0.00000000000E+00 0.  1.
         36    2    1    2    0    0 -0.14210854715E-13  0.00000000000E+00 -0.78930123751E+03  0.12735278249E+04  0.99943818078E+03 0.  0.
         25    2    3    3    0    0 -0.10522956570E+03  0.15431561880E+02 -0.26199712310E+03  0.30952391404E+03  0.12590141481E+03 0.  0.
         35    2    3    3    0    0  0.10522956570E+03 -0.15431561880E+02 -0.52730411441E+03  0.96400391084E+03  0.79996407196E+03 0.  0.
         22    1    5    5    0    0  0.21732578612E+03 -0.37317213217E+03 -0.26984503964E+03  0.50921928770E+03  0.00000000000E+00 0.  1.
         22    1    5    5    0    0 -0.11209622041E+03  0.35774057029E+03 -0.25745907477E+03  0.45478462314E+03  0.00000000000E+00 0.  1.
          5    1    4    4  502    0 -0.60314405075E+02  0.70893960714E+02 -0.14315750485E+03  0.17082137548E+03  0.47000000000E+01 0.  1.
         -5    1    4    4    0  502 -0.44915160629E+02 -0.55462398835E+02 -0.11883961825E+03  0.13870253856E+03  0.47000000000E+01 0.  1.
<mgrwt>
<rscale>  0 0.99943818E+03</rscale>
<asrwt>0</asrwt>
<pdfrwt beam="1">  1        1 0.15867916E+00 0.99943818E+03</pdfrwt>
<pdfrwt beam="2">  1       -1 0.37248199E-01 0.99943818E+03</pdfrwt>
<totfact> 0.11076900E+02</totfact>
</mgrwt>
</event>
<event>
 9    1  0.4369420E-036  0.9988720E+03  0.7818608E-02  0.8682113E-01
          2   -1    0    0  501    0  0.00000000000E+00  0.00000000000E+00  0.46569751287E+03  0.46569751287E+03  0.00000000000E+00 0. -1.
         -2   -1    0    0    0  501 -0.00000000000E+00 -0.00000000000E+00 -0.53561872568E+03  0.53561872568E+03  0.00000000000E+00 0. -1.
         36    2    1    2    0    0  0.42632564146E-13  0.00000000000E+00 -0.69921212806E+02  0.10013162385E+04  0.99887198058E+03 0.  0.
         25    2    3    3    0    0 -0.83242254732E+02  0.37914854590E+02 -0.11704544196E+03  0.19530975574E+03  0.12680479499E+03 0.  0.
         35    2    3    3    0    0  0.83242254732E+02 -0.37914854590E+02  0.47124229154E+02  0.80600648281E+03  0.79941162625E+03 0.  0.
         22    1    5    5    0    0 -0.30028648179E+03 -0.18771712424E+03  0.14519521700E+03  0.38274187244E+03  0.00000000000E+00 0. -1.
         22    1    5    5    0    0  0.38352873653E+03  0.14980226965E+03 -0.98070987843E+02  0.42326461037E+03  0.00000000000E+00 0. -1.
          5    1    4    4  502    0  0.23829406588E+02  0.41971973460E+02 -0.28639308531E+02  0.56318621854E+02  0.47000000000E+01 0. -1.
         -5    1    4    4    0  502 -0.10707166132E+03 -0.40571188702E+01 -0.88406133429E+02  0.13899113389E+03  0.47000000000E+01 0. -1.
<mgrwt>
<rscale>  0 0.99887198E+03</rscale>
<asrwt>0</asrwt>
<pdfrwt beam="1">  1        2 0.71645771E-01 0.99887198E+03</pdfrwt>
<pdfrwt beam="2">  1       -2 0.82402881E-01 0.99887198E+03</pdfrwt>
<totfact> 0.10393883E+02</totfact>
</mgrwt>
</event>
<event>
 9    1  0.4369420E-036  0.1000076E+04  0.7818608E-02  0.8680966E-01
         -2   -1    0    0    0  501 -0.00000000000E+00  0.00000000000E+00  0.39320493179E+03  0.39320493179E+03  0.00000000000E+00 0. -1.
          2   -1    0    0  501    0  0.00000000000E+00 -0.00000000000E+00 -0.63589679221E+03  0.63589679221E+03  0.00000000000E+00 0. -1.
         36    2    1    2    0    0 -0.28421709430E-13  0.00000000000E+00 -0.24269186042E+03  0.10291017240E+04  0.10000755068E+04 0.  0.
         25    2    3    3    0    0  0.94697077054E+02 -0.99341814695E+02 -0.63723711247E+02  0.19789793508E+03  0.12754038100E+03 0.  0.
         35    2    3    3    0    0 -0.94697077054E+02  0.99341814695E+02 -0.17896814917E+03  0.83120378892E+03  0.80002112957E+03 0.  0.
         22    1    5    5    0    0 -0.19722102643E+03  0.15303803623E+03 -0.46216305566E+03  0.52527275183E+03  0.00000000000E+00 0.  1.
         22    1    5    5    0    0  0.10252394937E+03 -0.53696221531E+02  0.28319490648E+03  0.30593103710E+03  0.00000000000E+00 0.  1.
          5    1    4    4  502    0  0.82082308659E+02 -0.16296164396E+02 -0.75674322680E+02  0.11292370647E+03  0.47000000000E+01 0. -1.
         -5    1    4    4    0  502  0.12614768395E+02 -0.83045650298E+02  0.11950611433E+02  0.84974228615E+02  0.47000000000E+01 0. -1.
<mgrwt>
<rscale>  0 0.10000755E+04</rscale>
<asrwt>0</asrwt>
<pdfrwt beam="1">  1        2 0.97830276E-01 0.10000755E+04</pdfrwt>
<pdfrwt beam="2">  1       -2 0.60493066E-01 0.10000755E+04</pdfrwt>
<totfact> 0.14228016E+02</totfact>
</mgrwt>
</event>
<event>
 9    1  0.4369420E-036  0.1002302E+04  0.7818608E-02  0.8678849E-01
         -2   -1    0    0    0  501 -0.00000000000E+00  0.00000000000E+00  0.34190631122E+03  0.34190631122E+03  0.00000000000E+00 0. -1.
          2   -1    0    0  501    0  0.00000000000E+00 -0.00000000000E+00 -0.73456409603E+03  0.73456409603E+03  0.00000000000E+00 0. -1.
         36    2    1    2    0    0 -0.14210854715E-13  0.56843418861E-13 -0.39265778481E+03  0.10764704072E+04  0.10023015523E+04 0.  0.
         25    2    3    3    0    0  0.47822598302E+02 -0.12475834830E+03 -0.75025577024E+02  0.19805835085E+03  0.12548556393E+03 0.  0.
         35    2    3    3    0    0 -0.47822598302E+02  0.12475834830E+03 -0.31763220778E+03  0.87841205640E+03  0.80800116029E+03 0.  0.
         22    1    5    5    0    0  0.16689278590E+03  0.40730316845E+03 -0.27970048407E+03  0.52151839258E+03  0.00000000000E+00 0. -1.
         22    1    5    5    0    0 -0.21471538420E+03 -0.28254482015E+03 -0.37931723718E+02  0.35689366382E+03  0.00000000000E+00 0. -1.
          5    1    4    4  502    0 -0.37050868041E+02 -0.29417048972E+02 -0.47879109619E+02  0.67473170452E+02  0.47000000000E+01 0. -1.
         -5    1    4    4    0  502  0.84873466343E+02 -0.95341299325E+02 -0.27146467405E+02  0.13058518039E+03  0.47000000000E+01 0. -1.
<mgrwt>
<rscale>  0 0.10023016E+04</rscale>
<asrwt>0</asrwt>
<pdfrwt beam="1">  1        2 0.11300986E+00 0.10023016E+04</pdfrwt>
<pdfrwt beam="2">  1       -2 0.52600971E-01 0.10023016E+04</pdfrwt>
<totfact> 0.15902317E+02</totfact>
</mgrwt>
</event>
<event>
 9    1  0.4369420E-036  0.1007985E+04  0.7818608E-02  0.8673471E-01
         -1   -1    0    0    0  501 -0.00000000000E+00  0.00000000000E+00  0.40183903961E+03  0.40183903961E+03  0.00000000000E+00 0.  1.
          1   -1    0    0  501    0  0.00000000000E+00 -0.00000000000E+00 -0.63211466571E+03  0.63211466571E+03  0.00000000000E+00 0.  1.
         36    2    1    2    0    0  0.14210854715E-13 -0.28421709430E-13 -0.23027562610E+03  0.10339537053E+04  0.10079848217E+04 0.  0.
         25    2    3    3    0    0 -0.65004393240E+02 -0.13082958523E+03 -0.77901533835E+02  0.20780468635E+03  0.12558736872E+03 0.  0.
         35    2    3    3    0    0  0.65004393240E+02  0.13082958523E+03 -0.15237409226E+03  0.82614901898E+03  0.79872547602E+03 0.  0.
         22    1    5    5    0    0 -0.24395618810E+02 -0.14479449429E+02 -0.46720368211E+03  0.46806418496E+03  0.00000000000E+00 0. -1.
         22    1    5    5    0    0  0.89400012050E+02  0.14530903466E+03  0.31482958984E+03  0.35808483401E+03  0.00000000000E+00 0. -1.
          5    1    4    4  502    0 -0.53192052482E+02 -0.11017616639E+03 -0.11201778650E+03  0.16594654736E+03  0.47000000000E+01 0. -1.
         -5    1    4    4    0  502 -0.11812340758E+02 -0.20653418839E+02  0.34116252664E+02  0.41858138991E+02  0.47000000000E+01 0. -1.
<mgrwt>
<rscale>  0 0.10079848E+04</rscale>
<asrwt>0</asrwt>
<pdfrwt beam="1">  1        1 0.97248410E-01 0.10079848E+04</pdfrwt>
<pdfrwt beam="2">  1       -1 0.61821391E-01 0.10079848E+04</pdfrwt>
<totfact> 0.97651084E+01</totfact>
</mgrwt>
</event>
<event>
 9    1  0.4369420E-036  0.9995799E+03  0.7818608E-02  0.8681438E-01
         -2   -1    0    0    0  501 -0.00000000000E+00  0.00000000000E+00  0.24727607941E+03  0.24727607941E+03  0.00000000000E+00 0. -1.
          2   -1    0    0  501    0  0.00000000000E+00 -0.00000000000E+00 -0.10101664970E+04  0.10101664970E+04  0.00000000000E+00 0. -1.
         36    2    1    2    0    0  0.00000000000E+00 -0.28421709430E-13 -0.76289041758E+03  0.12574425764E+04  0.99957993363E+03 0.  0.
         25    2    3    3    0    0  0.88158788099E+02 -0.98393429844E+02 -0.16588118075E+03  0.24762598851E+03  0.12786252423E+03 0.  0.
         35    2    3    3    0    0 -0.88158788099E+02  0.98393429844E+02 -0.59700923683E+03  0.10098165879E+04  0.80365183591E+03 0.  0.
         22    1    5    5    0    0  0.20319456436E+03 -0.26883469478E+03 -0.17815522631E+03  0.38118159552E+03  0.00000000000E+00 0. -1.
         22    1    5    5    0    0 -0.29135335246E+03  0.36722812462E+03 -0.41885401052E+03  0.62863499237E+03  0.00000000000E+00 0. -1.
          5    1    4    4  502    0  0.19705397307E+02 -0.11080744029E+03 -0.11739434178E+03  0.16269638284E+03  0.47000000000E+01 0.  1.
         -5    1    4    4    0  502  0.68453390792E+02  0.12414010447E+02 -0.48486838977E+02  0.84929605676E+02  0.47000000000E+01 0.  1.
<mgrwt>
<rscale>  0 0.99957993E+03</rscale>
<asrwt>0</asrwt>
<pdfrwt beam="1">  1        2 0.15541023E+00 0.99957993E+03</pdfrwt>
<pdfrwt beam="2">  1       -2 0.38042474E-01 0.99957993E+03</pdfrwt>
<totfact> 0.19558829E+02</totfact>
</mgrwt>
</event>
<event>
 9    1  0.4369420E-036  0.9959571E+03  0.7818608E-02  0.8684898E-01
          2   -1    0    0  501    0  0.00000000000E+00  0.00000000000E+00  0.80769609947E+03  0.80769609947E+03  0.00000000000E+00 0. -1.
         -2   -1    0    0    0  501 -0.00000000000E+00 -0.00000000000E+00 -0.30702468966E+03  0.30702468966E+03  0.00000000000E+00 0. -1.
         36    2    1    2    0    0  0.00000000000E+00 -0.42632564146E-13  0.50067140981E+03  0.11147207891E+04  0.99595711610E+03 0.  0.
         25    2    3    3    0    0 -0.55716096559E+02  0.81158959327E+02 -0.11595210667E+02  0.15948278956E+03  0.12493698876E+03 0.  0.
         35    2    3    3    0    0  0.55716096559E+02 -0.81158959327E+02  0.51226662048E+03  0.95523799957E+03  0.80023214461E+03 0.  0.
         22    1    5    5    0    0  0.35421836417E+02 -0.37495109132E+03  0.54117750417E+03  0.65933005271E+03  0.00000000000E+00 0.  1.
         22    1    5    5    0    0  0.20294260142E+02  0.29379213200E+03 -0.28910883694E+02  0.29590794686E+03  0.00000000000E+00 0.  1.
          5    1    4    4  502    0  0.51795875884E+01  0.14459599225E+02  0.48371928904E+02  0.50969026312E+02  0.47000000000E+01 0.  1.
         -5    1    4    4    0  502 -0.60895684147E+02  0.66699360102E+02 -0.59967139571E+02  0.10851376325E+03  0.47000000000E+01 0.  1.
<mgrwt>
<rscale>  0 0.99595712E+03</rscale>
<asrwt>0</asrwt>
<pdfrwt beam="1">  1        2 0.12426094E+00 0.99595712E+03</pdfrwt>
<pdfrwt beam="2">  1       -2 0.47234568E-01 0.99595712E+03</pdfrwt>
<totfact> 0.17480349E+02</totfact>
</mgrwt>
</event>
<event>
 9    1  0.4369420E-036  0.9976351E+03  0.7818608E-02  0.8683293E-01
         -2   -1    0    0    0  501 -0.00000000000E+00  0.00000000000E+00  0.45415157313E+03  0.45415157313E+03  0.00000000000E+00 0.  1.
          2   -1    0    0  501    0  0.00000000000E+00 -0.00000000000E+00 -0.54787648082E+03  0.54787648082E+03  0.00000000000E+00 0.  1.
         36    2    1    2    0    0  0.14210854715E-13  0.14210854715E-13 -0.93724907686E+02  0.10020280540E+04  0.99763513500E+03 0.  0.
         25    2    3    3    0    0  0.97002853898E+02 -0.64665227716E+02  0.57349076565E+02  0.17932528999E+03  0.12360217517E+03 0.  0.
         35    2    3    3    0    0 -0.97002853898E+02  0.64665227716E+02 -0.15107398425E+03  0.82270276396E+03  0.80026579570E+03 0.  0.
         22    1    5    5    0    0 -0.38626722325E+02  0.68046712466E+02 -0.48115842791E+03  0.48747903699E+03  0.00000000000E+00 0. -1.
         22    1    5    5    0    0 -0.58376131573E+02 -0.33814847498E+01  0.33008444366E+03  0.33522372697E+03  0.00000000000E+00 0. -1.
          5    1    4    4  502    0  0.11140688396E+03 -0.72088597723E+02  0.76947870420E+02  0.15346440785E+03  0.47000000000E+01 0. -1.
         -5    1    4    4    0  502 -0.14404030061E+02  0.74233700073E+01 -0.19598793855E+02  0.25860882136E+02  0.47000000000E+01 0. -1.
<mgrwt>
<rscale>  0 0.99763513E+03</rscale>
<asrwt>0</asrwt>
<pdfrwt beam="1">  1        2 0.84288689E-01 0.99763513E+03</pdfrwt>
<pdfrwt beam="2">  1       -2 0.69869473E-01 0.99763513E+03</pdfrwt>
<totfact> 0.12485252E+02</totfact>
</mgrwt>
</event>
<event>
 9    1  0.4369420E-036  0.1001262E+04  0.7818608E-02  0.8679837E-01
          2   -1    0    0  501    0  0.00000000000E+00  0.00000000000E+00  0.28627887050E+04  0.28627887050E+04  0.00000000000E+00 0. -1.
         -2   -1    0    0    0  501 -0.00000000000E+00 -0.00000000000E+00 -0.87548056547E+02  0.87548056547E+02  0.00000000000E+00 0. -1.
         36    2    1    2    0    0  0.00000000000E+00  0.00000000000E+00  0.27752406484E+04  0.29503367615E+04  0.10012623781E+04 0.  0.
         25    2    3    3    0    0  0.55728870695E+02 -0.12988596202E+03  0.53253304096E+03  0.56517130789E+03  0.12590114131E+03 0.  0.
         35    2    3    3    0    0 -0.55728870695E+02  0.12988596202E+03  0.22427076075E+04  0.23851654536E+04  0.79956285462E+03 0.  0.
         22    1    5    5    0    0  0.42483735230E+02  0.11461733511E+02  0.22303883873E+04  0.22308224038E+04  0.00000000000E+00 0.  1.
         22    1    5    5    0    0 -0.98212605924E+02  0.11842422851E+03  0.12319220207E+02  0.15434304988E+03  0.00000000000E+00 0.  1.
          5    1    4    4  502    0  0.14975277061E+02 -0.13275644370E+03  0.48105335852E+03  0.49928244112E+03  0.47000000000E+01 0.  1.
         -5    1    4    4    0  502  0.40753593634E+02  0.28704816880E+01  0.51479682445E+02  0.65888866767E+02  0.47000000000E+01 0.  1.
<mgrwt>
<rscale>  0 0.10012624E+04</rscale>
<asrwt>0</asrwt>
<pdfrwt beam="1">  1        2 0.44042896E+00 0.10012624E+04</pdfrwt>
<pdfrwt beam="2">  1       -2 0.13468934E-01 0.10012624E+04</pdfrwt>
<totfact> 0.98602273E+01</totfact>
</mgrwt>
</event>
<event>
 9    1  0.4369420E-036  0.1000529E+04  0.7818608E-02  0.8680534E-01
          2   -1    0    0  501    0  0.00000000000E+00  0.00000000000E+00  0.13954325917E+04  0.13954325917E+04  0.00000000000E+00 0. -1.
         -2   -1    0    0    0  501 -0.00000000000E+00 -0.00000000000E+00 -0.17934566257E+03  0.17934566257E+03  0.00000000000E+00 0. -1.
         36    2    1    2    0    0  0.71054273576E-14  0.14210854715E-13  0.12160869291E+04  0.15747782542E+04  0.10005294253E+04 0.  0.
         25    2    3    3    0    0 -0.32577364079E+02  0.93422629272E+02  0.74593482581E+02  0.17705764983E+03  0.12647589260E+03 0.  0.
         35    2    3    3    0    0  0.32577364079E+02 -0.93422629272E+02  0.11414934465E+04  0.13977206044E+04  0.80051641285E+03 0.  0.
         22    1    5    5    0    0 -0.56397056393E+02 -0.12542832775E+03 -0.88862958186E+02  0.16373612524E+03  0.00000000000E+00 0. -1.
         22    1    5    5    0    0  0.88974420472E+02  0.32005698476E+02  0.12303564047E+04  0.12339844792E+04  0.00000000000E+00 0. -1.
          5    1    4    4  502    0  0.44039057964E+02  0.56095614360E+02  0.53098817718E+02  0.89037806688E+02  0.47000000000E+01 0.  1.
         -5    1    4    4    0  502 -0.76616422043E+02  0.37327014912E+02  0.21494664863E+02  0.88019843141E+02  0.47000000000E+01 0.  1.
<mgrwt>
<rscale>  0 0.10005294E+04</rscale>
<asrwt>0</asrwt>
<pdfrwt beam="1">  1        2 0.21468193E+00 0.10005294E+04</pdfrwt>
<pdfrwt beam="2">  1       -2 0.27591641E-01 0.10005294E+04</pdfrwt>
<totfact> 0.20896840E+02</totfact>
</mgrwt>
</event>
<event>
 9    1  0.4369420E-036  0.1000459E+04  0.7818608E-02  0.8680601E-01
          2   -1    0    0  501    0  0.00000000000E+00  0.00000000000E+00  0.68624188691E+03  0.68624188691E+03  0.00000000000E+00 0.  1.
         -2   -1    0    0    0  501 -0.00000000000E+00 -0.00000000000E+00 -0.36463782128E+03  0.36463782128E+03  0.00000000000E+00 0.  1.
         36    2    1    2    0    0 -0.14210854715E-13 -0.14210854715E-13  0.32160406563E+03  0.10508797082E+04  0.10004593875E+04 0.  0.
         25    2    3    3    0    0 -0.10739304493E+03 -0.38487665814E+02 -0.26719733743E+02  0.17050541328E+03  0.12386922648E+03 0.  0.
         35    2    3    3    0    0  0.10739304493E+03  0.38487665814E+02  0.34832379938E+03  0.88037429491E+03  0.80044666494E+03 0.  0.
         22    1    5    5    0    0  0.16674697455E+03  0.37440662788E+03  0.35042945893E+03  0.53924547490E+03  0.00000000000E+00 0.  1.
         22    1    5    5    0    0 -0.59353929618E+02 -0.33591896206E+03 -0.21056595517E+01  0.34112882001E+03  0.00000000000E+00 0.  1.
          5    1    4    4  502    0 -0.22529222912E+02 -0.37009350661E+02 -0.64206235768E+02  0.77600184490E+02  0.47000000000E+01 0.  1.
         -5    1    4    4    0  502 -0.84863822019E+02 -0.14783151526E+01  0.37486502025E+02  0.92905228795E+02  0.47000000000E+01 0.  1.
<mgrwt>
<rscale>  0 0.10004594E+04</rscale>
<asrwt>0</asrwt>
<pdfrwt beam="1">  1        2 0.10557567E+00 0.10004594E+04</pdfrwt>
<pdfrwt beam="2">  1       -2 0.56098127E-01 0.10004594E+04</pdfrwt>
<totfact> 0.15168957E+02</totfact>
</mgrwt>
</event>
<event>
 9    1  0.4369420E-036  0.9995821E+03  0.7818608E-02  0.8681436E-01
          1   -1    0    0  501    0  0.00000000000E+00  0.00000000000E+00  0.30468414701E+03  0.30468414701E+03  0.00000000000E+00 0. -1.
         -1   -1    0    0    0  501 -0.00000000000E+00 -0.00000000000E+00 -0.81983621498E+03  0.81983621498E+03  0.00000000000E+00 0. -1.
         36    2    1    2    0    0  0.00000000000E+00  0.00000000000E+00 -0.51515206796E+03  0.11245203620E+04  0.99958210838E+03 0.  0.
         25    2    3    3    0    0 -0.87096480725E+02  0.52495597956E+02  0.11117059064E+02  0.16129784024E+03  0.12470693447E+03 0.  0.
         35    2    3    3    0    0  0.87096480725E+02 -0.52495597956E+02 -0.52626912703E+03  0.96322252175E+03  0.80031046949E+03 0.  0.
         22    1    5    5    0    0  0.38133434645E+03 -0.10621651642E+03 -0.47482122773E+02  0.39868832956E+03  0.00000000000E+00 0. -1.
         22    1    5    5    0    0 -0.29423786573E+03  0.53720918462E+02 -0.47878700425E+03  0.56453419219E+03  0.00000000000E+00 0. -1.
          5    1    4    4  502    0 -0.50614680812E+02 -0.18352192138E+02  0.48988471956E+02  0.72942506500E+02  0.47000000000E+01 0. -1.
         -5    1    4    4    0  502 -0.36481799913E+02  0.70847790094E+02 -0.37871412892E+02  0.88355333741E+02  0.47000000000E+01 0. -1.
<mgrwt>
<rscale>  0 0.99958211E+03</rscale>
<asrwt>0</asrwt>
<pdfrwt beam="1">  1        1 0.46874485E-01 0.99958211E+03</pdfrwt>
<pdfrwt beam="2">  1       -1 0.12612865E+00 0.99958211E+03</pdfrwt>
<totfact> 0.56410917E+01</totfact>
</mgrwt>
</event>
<event>
 9    1  0.4369420E-036  0.1001651E+04  0.7818608E-02  0.8679468E-01
          1   -1    0    0  501    0  0.00000000000E+00  0.00000000000E+00  0.73193582403E+03  0.73193582403E+03  0.00000000000E+00 0.  1.
         -1   -1    0    0    0  501 -0.00000000000E+00 -0.00000000000E+00 -0.34268860869E+03  0.34268860869E+03  0.00000000000E+00 0.  1.
         36    2    1    2    0    0 -0.88817841970E-14  0.00000000000E+00  0.38924721534E+03  0.10746244327E+04  0.10016507758E+04 0.  0.
         25    2    3    3    0    0  0.96535380294E+01  0.13997357708E+03  0.42969183702E+02  0.19260972579E+03  0.12476523011E+03 0.  0.
         35    2    3    3    0    0 -0.96535380294E+01 -0.13997357708E+03  0.34627803164E+03  0.88201470692E+03  0.79897163589E+03 0.  0.
         22    1    5    5    0    0  0.60545261894E+02  0.10502398182E+03 -0.22549471582E+03  0.25601490651E+03  0.00000000000E+00 0.  1.
         22    1    5    5    0    0 -0.70198799923E+02 -0.24499755890E+03  0.57177274746E+03  0.62599980041E+03  0.00000000000E+00 0.  1.
          5    1    4    4  502    0  0.10675919542E+02  0.15713145303E+03  0.13459980151E+02  0.15813769271E+03  0.47000000000E+01 0. -1.
         -5    1    4    4    0  502 -0.10223815129E+01 -0.17157875946E+02  0.29509203550E+02  0.34472033086E+02  0.47000000000E+01 0. -1.
<mgrwt>
<rscale>  0 0.10016508E+04</rscale>
<asrwt>0</asrwt>
<pdfrwt beam="1">  1        1 0.11260551E+00 0.10016508E+04</pdfrwt>
<pdfrwt beam="2">  1       -1 0.52721325E-01 0.10016508E+04</pdfrwt>
<totfact> 0.10576413E+02</totfact>
</mgrwt>
</event>
<event>
 9    1  0.4369420E-036  0.9905891E+03  0.7818608E-02  0.8690052E-01
         -2   -1    0    0    0  501 -0.00000000000E+00  0.00000000000E+00  0.25515306335E+03  0.25515306335E+03  0.00000000000E+00 0. -1.
          2   -1    0    0  501    0  0.00000000000E+00 -0.00000000000E+00 -0.96144906197E+03  0.96144906197E+03  0.00000000000E+00 0. -1.
         36    2    1    2    0    0  0.00000000000E+00 -0.14210854715E-13 -0.70629599863E+03  0.12166021253E+04  0.99058906397E+03 0.  0.
         25    2    3    3    0    0  0.54815426986E+02  0.10144987157E+03 -0.19980291448E+03  0.26242264208E+03  0.12509049110E+03 0.  0.
         35    2    3    3    0    0 -0.54815426986E+02 -0.10144987157E+03 -0.50649308415E+03  0.95417948325E+03  0.80039142579E+03 0.  0.
         22    1    5    5    0    0 -0.39052702784E+03 -0.12740983446E+02 -0.46046910966E+03  0.60390851384E+03  0.00000000000E+00 0. -1.
         22    1    5    5    0    0  0.33571160086E+03 -0.88708888120E+02 -0.46023974484E+02  0.35027096941E+03  0.00000000000E+00 0. -1.
          5    1    4    4  502    0  0.39258974024E+02  0.25678059447E+02 -0.17472068915E+03  0.18096971844E+03  0.47000000000E+01 0.  1.
         -5    1    4    4    0  502  0.15556452962E+02  0.75771812119E+02 -0.25082225335E+02  0.81452923632E+02  0.47000000000E+01 0.  1.
<mgrwt>
<rscale>  0 0.99058906E+03</rscale>
<asrwt>0</asrwt>
<pdfrwt beam="1">  1        2 0.14791524E+00 0.99058906E+03</pdfrwt>
<pdfrwt beam="2">  1       -2 0.39254317E-01 0.99058906E+03</pdfrwt>
<totfact> 0.19782210E+02</totfact>
</mgrwt>
</event>
<event>
 9    1  0.4369420E-036  0.9997880E+03  0.7818608E-02  0.8681240E-01
          2   -1    0    0  501    0  0.00000000000E+00  0.00000000000E+00  0.13580529585E+04  0.13580529585E+04  0.00000000000E+00 0. -1.
         -2   -1    0    0    0  501 -0.00000000000E+00 -0.00000000000E+00 -0.18400901552E+03  0.18400901552E+03  0.00000000000E+00 0. -1.
         36    2    1    2    0    0 -0.14210854715E-13 -0.71054273576E-14  0.11740439430E+04  0.15420619740E+04  0.99978795336E+03 0.  0.
         25    2    3    3    0    0 -0.12005377744E+03  0.63241418256E+02  0.16897356718E+03  0.25033677903E+03  0.12531580136E+03 0.  0.
         35    2    3    3    0    0  0.12005377744E+03 -0.63241418256E+02  0.10050703758E+04  0.12917251950E+04  0.79998445772E+03 0.  0.
         22    1    5    5    0    0  0.32131164652E+03  0.16917250898E+02  0.10248678971E+04  0.10741887981E+04  0.00000000000E+00 0.  1.
         22    1    5    5    0    0 -0.20125786908E+03 -0.80158669154E+02 -0.19797521284E+02  0.21753639686E+03  0.00000000000E+00 0.  1.
          5    1    4    4  502    0 -0.40408114506E+02  0.87108770621E+02  0.11986810876E+03  0.15365938675E+03  0.47000000000E+01 0. -1.
         -5    1    4    4    0  502 -0.79645662935E+02 -0.23867352365E+02  0.49105458418E+02  0.96677392288E+02  0.47000000000E+01 0. -1.
<mgrwt>
<rscale>  0 0.99978795E+03</rscale>
<asrwt>0</asrwt>
<pdfrwt beam="1">  1        2 0.20893122E+00 0.99978795E+03</pdfrwt>
<pdfrwt beam="2">  1       -2 0.28309080E-01 0.99978795E+03</pdfrwt>
<totfact> 0.20959935E+02</totfact>
</mgrwt>
</event>
<event>
 9    1  0.4369420E-036  0.1000250E+04  0.7818608E-02  0.8680800E-01
          2   -1    0    0  501    0  0.00000000000E+00  0.00000000000E+00  0.73012172941E+03  0.73012172941E+03  0.00000000000E+00 0.  1.
         -2   -1    0    0    0  501 -0.00000000000E+00 -0.00000000000E+00 -0.34258015980E+03  0.34258015980E+03  0.00000000000E+00 0.  1.
         36    2    1    2    0    0 -0.71054273576E-14  0.00000000000E+00  0.38754156961E+03  0.10727018892E+04  0.10002504061E+04 0.  0.
         25    2    3    3    0    0  0.22077584700E+02 -0.50018329381E+02  0.20849118990E+03  0.24913908886E+03  0.12494981518E+03 0.  0.
         35    2    3    3    0    0 -0.22077584700E+02  0.50018329381E+02  0.17905037971E+03  0.82356280035E+03  0.80200211634E+03 0.  0.
         22    1    5    5    0    0 -0.33945446702E+03 -0.19814444927E+03  0.30748702767E+02  0.39425377700E+03  0.00000000000E+00 0. -1.
         22    1    5    5    0    0  0.31737688232E+03  0.24816277866E+03  0.14830167695E+03  0.42930902335E+03  0.00000000000E+00 0. -1.
          5    1    4    4  502    0 -0.18719009523E+02 -0.12491892729E+02  0.18869730175E+03  0.19009263633E+03  0.47000000000E+01 0.  1.
         -5    1    4    4    0  502  0.40796594223E+02 -0.37526436652E+02  0.19793888153E+02  0.59046452529E+02  0.47000000000E+01 0.  1.
<mgrwt>
<rscale>  0 0.10002504E+04</rscale>
<asrwt>0</asrwt>
<pdfrwt beam="1">  1        2 0.11232642E+00 0.10002504E+04</pdfrwt>
<pdfrwt beam="2">  1       -2 0.52704640E-01 0.10002504E+04</pdfrwt>
<totfact> 0.15960221E+02</totfact>
</mgrwt>
</event>
<event>
 9    1  0.4369420E-036  0.9996440E+03  0.7818608E-02  0.8681377E-01
          1   -1    0    0  501    0  0.00000000000E+00  0.00000000000E+00  0.64719081595E+03  0.64719081595E+03  0.00000000000E+00 0. -1.
         -1   -1    0    0    0  501 -0.00000000000E+00 -0.00000000000E+00 -0.38600984356E+03  0.38600984356E+03  0.00000000000E+00 0. -1.
         36    2    1    2    0    0 -0.42632564146E-13  0.00000000000E+00  0.26118097239E+03  0.10332006595E+04  0.99964398787E+03 0.  0.
         25    2    3    3    0    0  0.30534381243E+02  0.12414683991E+03  0.10862489855E+03  0.20885165138E+03  0.12439797989E+03 0.  0.
         35    2    3    3    0    0 -0.30534381243E+02 -0.12414683991E+03  0.15255607384E+03  0.82434900814E+03  0.79995821470E+03 0.  0.
         22    1    5    5    0    0  0.34080457028E+03 -0.24399716517E+03  0.96887588659E+02  0.43019713687E+03  0.00000000000E+00 0. -1.
         22    1    5    5    0    0 -0.37133895152E+03  0.11985032527E+03  0.55668485180E+02  0.39415187127E+03  0.00000000000E+00 0. -1.
          5    1    4    4  502    0 -0.34092205942E+02  0.71023124528E+01 -0.20830257454E+01  0.35201567357E+02  0.47000000000E+01 0.  1.
         -5    1    4    4    0  502  0.64626587185E+02  0.11704452746E+03  0.11070792430E+03  0.17365008402E+03  0.47000000000E+01 0.  1.
<mgrwt>
<rscale>  0 0.99964399E+03</rscale>
<asrwt>0</asrwt>
<pdfrwt beam="1">  1        1 0.99567818E-01 0.99964399E+03</pdfrwt>
<pdfrwt beam="2">  1       -1 0.59386130E-01 0.99964399E+03</pdfrwt>
<totfact> 0.10192515E+02</totfact>
</mgrwt>
</event>
<event>
 9    1  0.4369420E-036  0.9910174E+03  0.7818608E-02  0.8689639E-01
          1   -1    0    0  501    0  0.00000000000E+00  0.00000000000E+00  0.80545368517E+03  0.80545368517E+03  0.00000000000E+00 0. -1.
         -1   -1    0    0    0  501 -0.00000000000E+00 -0.00000000000E+00 -0.30483303784E+03  0.30483303784E+03  0.00000000000E+00 0. -1.
         36    2    1    2    0    0  0.14210854715E-13 -0.71054273576E-14  0.50062064733E+03  0.11102867230E+04  0.99101744423E+03 0.  0.
         25    2    3    3    0    0  0.93542435486E+02 -0.15460085539E+02  0.19181796331E+03  0.24777344305E+03  0.12493336844E+03 0.  0.
         35    2    3    3    0    0 -0.93542435486E+02  0.15460085539E+02  0.30880268402E+03  0.86251327997E+03  0.79973799396E+03 0.  0.
         22    1    5    5    0    0  0.11812028363E+03  0.16773200313E+02 -0.24343604918E+03  0.27109933916E+03  0.00000000000E+00 0.  1.
         22    1    5    5    0    0 -0.21166271912E+03 -0.13131147740E+01  0.55223873320E+03  0.59141394081E+03  0.00000000000E+00 0.  1.
          5    1    4    4  502    0  0.53706101072E+02 -0.64227003796E+02  0.64972240083E+02  0.10607985337E+03  0.47000000000E+01 0.  1.
         -5    1    4    4    0  502  0.39836334414E+02  0.48766918257E+02  0.12684572323E+03  0.14169358968E+03  0.47000000000E+01 0.  1.
<mgrwt>
<rscale>  0 0.99101744E+03</rscale>
<asrwt>0</asrwt>
<pdfrwt beam="1">  1        1 0.12391595E+00 0.99101744E+03</pdfrwt>
<pdfrwt beam="2">  1       -1 0.46897390E-01 0.99101744E+03</pdfrwt>
<totfact> 0.11278585E+02</totfact>
</mgrwt>
</event>
<event>
 9    1  0.4369420E-036  0.9976838E+03  0.7818608E-02  0.8683247E-01
         -2   -1    0    0    0  501 -0.00000000000E+00  0.00000000000E+00  0.24474514323E+03  0.24474514323E+03  0.00000000000E+00 0. -1.
          2   -1    0    0  501    0  0.00000000000E+00 -0.00000000000E+00 -0.10167442752E+04  0.10167442752E+04  0.00000000000E+00 0. -1.
         36    2    1    2    0    0  0.00000000000E+00  0.00000000000E+00 -0.77199913194E+03  0.12614894184E+04  0.99768376404E+03 0.  0.
         25    2    3    3    0    0 -0.53466591167E+02 -0.76078321615E+02 -0.27085352121E+03  0.31241292425E+03  0.12487440848E+03 0.  0.
         35    2    3    3    0    0  0.53466591167E+02  0.76078321615E+02 -0.50114561073E+03  0.94907649416E+03  0.80059520435E+03 0.  0.
         22    1    5    5    0    0 -0.17174337924E+03  0.38622177711E+03 -0.26453310190E+03  0.49863895899E+03  0.00000000000E+00 0.  1.
         22    1    5    5    0    0  0.22520997040E+03 -0.31014345549E+03 -0.23661250883E+03  0.45043753517E+03  0.00000000000E+00 0.  1.
          5    1    4    4  502    0  0.75510450599E+01 -0.82306086133E+01 -0.19005754309E+03  0.19044348475E+03  0.47000000000E+01 0. -1.
         -5    1    4    4    0  502 -0.61017636227E+02 -0.67847713002E+02 -0.80795978125E+02  0.12196943950E+03  0.47000000000E+01 0. -1.
<mgrwt>
<rscale>  0 0.99768376E+03</rscale>
<asrwt>0</asrwt>
<pdfrwt beam="1">  1        2 0.15642220E+00 0.99768376E+03</pdfrwt>
<pdfrwt beam="2">  1       -2 0.37653098E-01 0.99768376E+03</pdfrwt>
<totfact> 0.19756059E+02</totfact>
</mgrwt>
</event>
<event>
 9    1  0.4369420E-036  0.1000589E+04  0.7818608E-02  0.8680477E-01
         -2   -1    0    0    0  501 -0.00000000000E+00  0.00000000000E+00  0.28845592253E+03  0.28845592253E+03  0.00000000000E+00 0.  1.
          2   -1    0    0  501    0  0.00000000000E+00 -0.00000000000E+00 -0.86770480639E+03  0.86770480639E+03  0.00000000000E+00 0.  1.
         36    2    1    2    0    0  0.14210854715E-13 -0.14210854715E-13 -0.57924888386E+03  0.11561607289E+04  0.10005890074E+04 0.  0.
         25    2    3    3    0    0 -0.25987501589E+02  0.11925992385E+03 -0.27982000444E+02  0.17707348910E+03  0.12519484222E+03 0.  0.
         35    2    3    3    0    0  0.25987501589E+02 -0.11925992385E+03 -0.55126688341E+03  0.97908723982E+03  0.79988647117E+03 0.  0.
         22    1    5    5    0    0 -0.18364250853E+03  0.20108378533E+03  0.39446963984E+02  0.27516417396E+03  0.00000000000E+00 0.  1.
         22    1    5    5    0    0  0.20963001012E+03 -0.32034370918E+03 -0.59071384740E+03  0.70392306587E+03  0.00000000000E+00 0.  1.
          5    1    4    4  502    0 -0.34417496001E+02  0.42909929423E+02 -0.70190596219E+02  0.89300816747E+02  0.47000000000E+01 0.  1.
         -5    1    4    4    0  502  0.84299944116E+01  0.76349994427E+02  0.42208595775E+02  0.87772672353E+02  0.47000000000E+01 0.  1.
<mgrwt>
<rscale>  0 0.10005890E+04</rscale>
<asrwt>0</asrwt>
<pdfrwt beam="1">  1        2 0.13349305E+00 0.10005890E+04</pdfrwt>
<pdfrwt beam="2">  1       -2 0.44377834E-01 0.10005890E+04</pdfrwt>
<totfact> 0.17977459E+02</totfact>
</mgrwt>
</event>
<event>
 9    1  0.4369420E-036  0.9999734E+03  0.7818608E-02  0.8681063E-01
         -1   -1    0    0    0  501 -0.00000000000E+00  0.00000000000E+00  0.28794605788E+03  0.28794605788E+03  0.00000000000E+00 0.  1.
          1   -1    0    0  501    0  0.00000000000E+00 -0.00000000000E+00 -0.86817198276E+03  0.86817198276E+03  0.00000000000E+00 0.  1.
         36    2    1    2    0    0 -0.56843418861E-13 -0.14210854715E-13 -0.58022592488E+03  0.11561180406E+04  0.99997339964E+03 0.  0.
         25    2    3    3    0    0 -0.12560774567E+03  0.72909005954E+02 -0.11269744913E+03  0.21864821176E+03  0.11837777047E+03 0.  0.
         35    2    3    3    0    0  0.12560774567E+03 -0.72909005954E+02 -0.46752847575E+03  0.93746982888E+03  0.79948344292E+03 0.  0.
         22    1    5    5    0    0 -0.26653978347E+03  0.64308099352E+02  0.44835784072E+02  0.27782950769E+03  0.00000000000E+00 0. -1.
         22    1    5    5    0    0  0.39214752914E+03 -0.13721710531E+03 -0.51236425982E+03  0.65964032119E+03  0.00000000000E+00 0. -1.
          5    1    4    4  502    0 -0.36865735304E+02 -0.86400670161E+01 -0.87463708534E+02  0.95423914760E+02  0.47000000000E+01 0.  1.
         -5    1    4    4    0  502 -0.88742010368E+02  0.81549072970E+02 -0.25233740600E+02  0.12322429700E+03  0.47000000000E+01 0.  1.
<mgrwt>
<rscale>  0 0.99997340E+03</rscale>
<asrwt>0</asrwt>
<pdfrwt beam="1">  1        1 0.13356492E+00 0.99997340E+03</pdfrwt>
<pdfrwt beam="2">  1       -1 0.44299394E-01 0.99997340E+03</pdfrwt>
<totfact> 0.11035220E+02</totfact>
</mgrwt>
</event>
<event>
 9    1  0.4369420E-036  0.9998165E+03  0.7818608E-02  0.8681213E-01
         -1   -1    0    0    0  501 -0.00000000000E+00  0.00000000000E+00  0.71270298923E+03  0.71270298923E+03  0.00000000000E+00 0. -1.
          1   -1    0    0  501    0  0.00000000000E+00 -0.00000000000E+00 -0.35064854456E+03  0.35064854456E+03  0.00000000000E+00 0. -1.
         36    2    1    2    0    0  0.42632564146E-13 -0.17763568394E-14  0.36205444467E+03  0.10633515338E+04  0.99981651492E+03 0.  0.
         25    2    3    3    0    0  0.89134660857E+02 -0.69576860162E+01  0.18142313336E+03  0.23803066112E+03  0.12550237110E+03 0.  0.
         35    2    3    3    0    0 -0.89134660857E+02  0.69576860162E+01  0.18063131131E+03  0.82532087268E+03  0.80033335248E+03 0.  0.
         22    1    5    5    0    0 -0.38627200886E+03 -0.19140612798E+03  0.14552514473E+02  0.43133994289E+03  0.00000000000E+00 0.  1.
         22    1    5    5    0    0  0.29713734800E+03  0.19836381399E+03  0.16607879684E+03  0.39398092979E+03  0.00000000000E+00 0.  1.
          5    1    4    4  502    0  0.15752669923E+02 -0.82679478430E+01 -0.17839736741E+02  0.25629119732E+02  0.47000000000E+01 0.  1.
         -5    1    4    4    0  502  0.73381990934E+02  0.13102618268E+01  0.19926287011E+03  0.21240154138E+03  0.47000000000E+01 0.  1.
<mgrwt>
<rscale>  0 0.99981651E+03</rscale>
<asrwt>0</asrwt>
<pdfrwt beam="1">  1        1 0.53945930E-01 0.99981651E+03</pdfrwt>
<pdfrwt beam="2">  1       -1 0.10964661E+00 0.99981651E+03</pdfrwt>
<totfact> 0.66072261E+01</totfact>
</mgrwt>
</event>
<event>
 9    1  0.4369420E-036  0.1000218E+04  0.7818608E-02  0.8680831E-01
         -2   -1    0    0    0  501 -0.00000000000E+00  0.00000000000E+00  0.12541657791E+03  0.12541657791E+03  0.00000000000E+00 0.  1.
          2   -1    0    0  501    0  0.00000000000E+00 -0.00000000000E+00 -0.19942247060E+04  0.19942247060E+04  0.00000000000E+00 0.  1.
         36    2    1    2    0    0  0.31974423109E-13 -0.71054273576E-14 -0.18688081281E+04  0.21196412839E+04  0.10002176527E+04 0.  0.
         25    2    3    3    0    0 -0.11202004011E+02  0.27689801692E+02 -0.60363337643E+02  0.14168843045E+03  0.12465820784E+03 0.  0.
         35    2    3    3    0    0  0.11202004011E+02 -0.27689801692E+02 -0.18084447904E+04  0.19779528535E+04  0.80058273801E+03 0.  0.
         22    1    5    5    0    0 -0.34672070464E+03 -0.17531906081E+03 -0.11529517594E+04  0.12166551605E+04  0.00000000000E+00 0.  1.
         22    1    5    5    0    0  0.35792270866E+03  0.14762925912E+03 -0.65549303102E+03  0.76129769292E+03  0.00000000000E+00 0.  1.
          5    1    4    4  502    0  0.26411430349E+02  0.13591708880E+02  0.30129383612E+02  0.42569566126E+02  0.47000000000E+01 0.  1.
         -5    1    4    4    0  502 -0.37613434360E+02  0.14098092812E+02 -0.90492721255E+02  0.99118864327E+02  0.47000000000E+01 0.  1.
<mgrwt>
<rscale>  0 0.10002177E+04</rscale>
<asrwt>0</asrwt>
<pdfrwt beam="1">  1        2 0.30680380E+00 0.10002177E+04</pdfrwt>
<pdfrwt beam="2">  1       -2 0.19294858E-01 0.10002177E+04</pdfrwt>
<totfact> 0.17970710E+02</totfact>
</mgrwt>
</event>
<event>
 9    1  0.4369420E-036  0.9997688E+03  0.7818608E-02  0.8681258E-01
          1   -1    0    0  501    0  0.00000000000E+00  0.00000000000E+00  0.19823098241E+03  0.19823098241E+03  0.00000000000E+00 0. -1.
         -1   -1    0    0    0  501 -0.00000000000E+00 -0.00000000000E+00 -0.12605719953E+04  0.12605719953E+04  0.00000000000E+00 0. -1.
         36    2    1    2    0    0 -0.14210854715E-13 -0.35527136788E-13 -0.10623410129E+04  0.14588029778E+04  0.99976882336E+03 0.  0.
         25    2    3    3    0    0  0.12635705999E+03 -0.20545497911E+02 -0.27447707662E+03  0.32770792212E+03  0.12516625957E+03 0.  0.
         35    2    3    3    0    0 -0.12635705999E+03  0.20545497911E+02 -0.78786393630E+03  0.11310950556E+04  0.80141014384E+03 0.  0.
         22    1    5    5    0    0 -0.25689947387E+03 -0.28181535688E+03 -0.14349414235E+03  0.40744055264E+03  0.00000000000E+00 0. -1.
         22    1    5    5    0    0  0.13054241388E+03  0.30236085479E+03 -0.64436979395E+03  0.72365450299E+03  0.00000000000E+00 0. -1.
          5    1    4    4  502    0  0.30784567849E+02 -0.49745198788E+02 -0.35389865865E+02  0.68533254892E+02  0.47000000000E+01 0. -1.
         -5    1    4    4    0  502  0.95572492142E+02  0.29199700878E+02 -0.23908721076E+03  0.25917466723E+03  0.47000000000E+01 0. -1.
<mgrwt>
<rscale>  0 0.99976882E+03</rscale>
<asrwt>0</asrwt>
<pdfrwt beam="1">  1        1 0.30497073E-01 0.99976882E+03</pdfrwt>
<pdfrwt beam="2">  1       -1 0.19393416E+00 0.99976882E+03</pdfrwt>
<totfact> 0.26378904E+01</totfact>
</mgrwt>
</event>
<event>
 9    1  0.4369420E-036  0.1000370E+04  0.7818608E-02  0.8680686E-01
         -2   -1    0    0    0  501 -0.00000000000E+00  0.00000000000E+00  0.31649617592E+03  0.31649617592E+03  0.00000000000E+00 0.  1.
          2   -1    0    0  501    0  0.00000000000E+00 -0.00000000000E+00 -0.79048300863E+03  0.79048300863E+03  0.00000000000E+00 0.  1.
         36    2    1    2    0    0  0.00000000000E+00 -0.71054273576E-14 -0.47398683270E+03  0.11069791845E+04  0.10003696304E+04 0.  0.
         25    2    3    3    0    0  0.12942288134E+03  0.53603373665E+02 -0.11339107820E+03  0.21796618230E+03  0.12258921701E+03 0.  0.
         35    2    3    3    0    0 -0.12942288134E+03 -0.53603373665E+02 -0.36059575450E+03  0.88901300225E+03  0.80043189350E+03 0.  0.
         22    1    5    5    0    0  0.21446192786E+03  0.26062079909E+03 -0.86093018149E+02  0.34832330843E+03  0.00000000000E+00 0.  1.
         22    1    5    5    0    0 -0.34388480920E+03 -0.31422417275E+03 -0.27450273635E+03  0.54068969382E+03  0.00000000000E+00 0.  1.
          5    1    4    4  502    0  0.53613035412E+02  0.81711811326E+02 -0.91757930810E+02  0.13413718926E+03  0.47000000000E+01 0.  1.
         -5    1    4    4    0  502  0.75809845930E+02 -0.28108437661E+02 -0.21633147395E+02  0.83828993038E+02  0.47000000000E+01 0.  1.
<mgrwt>
<rscale>  0 0.10003696E+04</rscale>
<asrwt>0</asrwt>
<pdfrwt beam="1">  1        2 0.12161277E+00 0.10003696E+04</pdfrwt>
<pdfrwt beam="2">  1       -2 0.48691720E-01 0.10003696E+04</pdfrwt>
<totfact> 0.16920672E+02</totfact>
</mgrwt>
</event>
<event>
 9    1  0.4369420E-036  0.1001583E+04  0.7818608E-02  0.8679532E-01
         -1   -1    0    0    0  501 -0.00000000000E+00  0.00000000000E+00  0.51018179978E+03  0.51018179978E+03  0.00000000000E+00 0. -1.
          1   -1    0    0  501    0  0.00000000000E+00 -0.00000000000E+00 -0.49157383773E+03  0.49157383773E+03  0.00000000000E+00 0. -1.
         36    2    1    2    0    0  0.00000000000E+00  0.21316282073E-13  0.18607962056E+02  0.10017556375E+04  0.10015827979E+04 0.  0.
         25    2    3    3    0    0  0.30023424399E+02  0.48262632715E+02 -0.12664845255E+03  0.18650551110E+03  0.12455435523E+03 0.  0.
         35    2    3    3    0    0 -0.30023424399E+02 -0.48262632715E+02  0.14525641460E+03  0.81525012641E+03  0.80018913695E+03 0.  0.
         22    1    5    5    0    0 -0.21697582547E+03  0.22684530926E+03  0.31251251224E+03  0.44294624220E+03  0.00000000000E+00 0. -1.
         22    1    5    5    0    0  0.18695240107E+03 -0.27510794197E+03 -0.16725609764E+03  0.37230388421E+03  0.00000000000E+00 0. -1.
          5    1    4    4  502    0  0.40133414592E+02  0.77001196213E+02 -0.12901932160E+03  0.15558904374E+03  0.47000000000E+01 0.  1.
         -5    1    4    4    0  502 -0.10109990193E+02 -0.28738563499E+02  0.23708690568E+01  0.30916467356E+02  0.47000000000E+01 0.  1.
<mgrwt>
<rscale>  0 0.10015828E+04</rscale>
<asrwt>0</asrwt>
<pdfrwt beam="1">  1        1 0.75626744E-01 0.10015828E+04</pdfrwt>
<pdfrwt beam="2">  1       -1 0.78489508E-01 0.10015828E+04</pdfrwt>
<totfact> 0.87091007E+01</totfact>
</mgrwt>
</event>
<event>
 9    1  0.4369420E-036  0.9988594E+03  0.7818608E-02  0.8682125E-01
          2   -1    0    0  501    0  0.00000000000E+00  0.00000000000E+00  0.25021127580E+04  0.25021127580E+04  0.00000000000E+00 0.  1.
         -2   -1    0    0    0  501 -0.00000000000E+00 -0.00000000000E+00 -0.99687762701E+02  0.99687762701E+02  0.00000000000E+00 0.  1.
         36    2    1    2    0    0  0.00000000000E+00  0.00000000000E+00  0.24024249953E+04  0.26018005207E+04  0.99885939524E+03 0.  0.
         25    2    3    3    0    0  0.20594219661E+02  0.13567309239E+03  0.38542181760E+03  0.42776080280E+03  0.12489202156E+03 0.  0.
         35    2    3    3    0    0 -0.20594219661E+02 -0.13567309239E+03  0.20170031777E+04  0.21740397179E+04  0.79957211449E+03 0.  0.
         22    1    5    5    0    0 -0.14022677381E+03 -0.32261289077E+03  0.18812845306E+04  0.19138897853E+04  0.00000000000E+00 0.  1.
         22    1    5    5    0    0  0.11963255414E+03  0.18693979839E+03  0.13571864708E+03  0.26014993254E+03  0.00000000000E+00 0.  1.
          5    1    4    4  502    0 -0.16866366085E+02  0.13976385761E+03  0.24822426218E+03  0.28540459796E+03  0.47000000000E+01 0. -1.
         -5    1    4    4    0  502  0.37460585746E+02 -0.40907652244E+01  0.13719755542E+03  0.14235620484E+03  0.47000000000E+01 0. -1.
<mgrwt>
<rscale>  0 0.99885940E+03</rscale>
<asrwt>0</asrwt>
<pdfrwt beam="1">  1        2 0.38494038E+00 0.99885940E+03</pdfrwt>
<pdfrwt beam="2">  1       -2 0.15336581E-01 0.99885940E+03</pdfrwt>
<totfact> 0.13377089E+02</totfact>
</mgrwt>
</event>
<event>
 9    1  0.4369420E-036  0.1000335E+04  0.7818608E-02  0.8680719E-01
          2   -1    0    0  501    0  0.00000000000E+00  0.00000000000E+00  0.20475321100E+03  0.20475321100E+03  0.00000000000E+00 0. -1.
         -2   -1    0    0    0  501 -0.00000000000E+00 -0.00000000000E+00 -0.12218006162E+04  0.12218006162E+04  0.00000000000E+00 0. -1.
         36    2    1    2    0    0 -0.24868995752E-13  0.00000000000E+00 -0.10170474052E+04  0.14265538272E+04  0.10003351426E+04 0.  0.
         25    2    3    3    0    0  0.31523192121E+02  0.11069850462E+03 -0.30671779628E+03  0.35063197306E+03  0.12497641143E+03 0.  0.
         35    2    3    3    0    0 -0.31523192121E+02 -0.11069850462E+03 -0.71032960896E+03  0.10759218542E+04  0.79986987214E+03 0.  0.
         22    1    5    5    0    0 -0.23566864147E+03 -0.39130180980E+03 -0.34816931912E+03  0.57435066789E+03  0.00000000000E+00 0. -1.
         22    1    5    5    0    0  0.20414544935E+03  0.28060330519E+03 -0.36216028983E+03  0.50157118628E+03  0.00000000000E+00 0. -1.
          5    1    4    4  502    0  0.63112703323E+02  0.25562008844E+02 -0.73448313413E+02  0.10026651664E+03  0.47000000000E+01 0. -1.
         -5    1    4    4    0  502 -0.31589511202E+02  0.85136495772E+02 -0.23326948287E+03  0.25036545642E+03  0.47000000000E+01 0. -1.
<mgrwt>
<rscale>  0 0.10003351E+04</rscale>
<asrwt>0</asrwt>
<pdfrwt beam="1">  1        2 0.31500494E-01 0.10003351E+04</pdfrwt>
<pdfrwt beam="2">  1       -2 0.18796933E+00 0.10003351E+04</pdfrwt>
<totfact> 0.29582102E+01</totfact>
</mgrwt>
</event>
<event>
 9    1  0.4369420E-036  0.1000432E+04  0.7818608E-02  0.8680626E-01
         -2   -1    0    0    0  501 -0.00000000000E+00  0.00000000000E+00  0.15220234654E+04  0.15220234654E+04  0.00000000000E+00 0. -1.
          2   -1    0    0  501    0  0.00000000000E+00 -0.00000000000E+00 -0.16439710809E+03  0.16439710809E+03  0.00000000000E+00 0. -1.
         36    2    1    2    0    0  0.17763568394E-14  0.14210854715E-13  0.13576263574E+04  0.16864205735E+04  0.10004324188E+04 0.  0.
         25    2    3    3    0    0  0.87057762629E+01  0.85348582997E+02  0.45894692493E+03  0.48052052714E+03  0.11361129321E+03 0.  0.
         35    2    3    3    0    0 -0.87057762629E+01 -0.85348582997E+02  0.89867943243E+03  0.12059000464E+04  0.79950611534E+03 0.  0.
         22    1    5    5    0    0  0.11198056810E+02 -0.40776896955E+03  0.24261373821E+03  0.47461811488E+03  0.00000000000E+00 0.  1.
         22    1    5    5    0    0 -0.19903833073E+02  0.32242038655E+03  0.65606569422E+03  0.73128193152E+03  0.00000000000E+00 0.  1.
          5    1    4    4  502    0 -0.10421317822E+02  0.27277746264E+01  0.30062167359E+03  0.30085133414E+03  0.47000000000E+01 0.  1.
         -5    1    4    4    0  502  0.19127094085E+02  0.82620808371E+02  0.15832525134E+03  0.17966919300E+03  0.47000000000E+01 0.  1.
<mgrwt>
<rscale>  0 0.10004324E+04</rscale>
<asrwt>0</asrwt>
<pdfrwt beam="1">  1        2 0.25291864E-01 0.10004324E+04</pdfrwt>
<pdfrwt beam="2">  1       -2 0.23415745E+00 0.10004324E+04</pdfrwt>
<totfact> 0.18714624E+01</totfact>
</mgrwt>
</event>
<event>
 9    1  0.4369420E-036  0.9960465E+03  0.7818608E-02  0.8684812E-01
         -2   -1    0    0    0  501 -0.00000000000E+00  0.00000000000E+00  0.10232402208E+03  0.10232402208E+03  0.00000000000E+00 0.  1.
          2   -1    0    0  501    0  0.00000000000E+00 -0.00000000000E+00 -0.24239388449E+04  0.24239388449E+04  0.00000000000E+00 0.  1.
         36    2    1    2    0    0 -0.28421709430E-13  0.14210854715E-13 -0.23216148228E+04  0.25262628670E+04  0.99604652879E+03 0.  0.
         25    2    3    3    0    0  0.13137656564E+03  0.20564426138E+02 -0.37133008980E+03  0.41386916576E+03  0.12537524938E+03 0.  0.
         35    2    3    3    0    0 -0.13137656564E+03 -0.20564426138E+02 -0.19502847330E+04  0.21123937012E+04  0.80057099088E+03 0.  0.
         22    1    5    5    0    0  0.14425567614E+03  0.12305781780E+03 -0.17075163745E+04  0.17180119603E+04  0.00000000000E+00 0. -1.
         22    1    5    5    0    0 -0.27563224178E+03 -0.14362224394E+03 -0.24276835856E+03  0.39438174094E+03  0.00000000000E+00 0. -1.
          5    1    4    4  502    0 -0.28142437685E+00  0.40779244847E+02 -0.42663231523E+02  0.59205298191E+02  0.47000000000E+01 0. -1.
         -5    1    4    4    0  502  0.13165799002E+03 -0.20214818709E+02 -0.32866685827E+03  0.35466386757E+03  0.47000000000E+01 0. -1.
<mgrwt>
<rscale>  0 0.99604653E+03</rscale>
<asrwt>0</asrwt>
<pdfrwt beam="1">  1        2 0.37291363E+00 0.99604653E+03</pdfrwt>
<pdfrwt beam="2">  1       -2 0.15742159E-01 0.99604653E+03</pdfrwt>
<totfact> 0.14274767E+02</totfact>
</mgrwt>
</event>
<event>
 9    1  0.4369420E-036  0.9920998E+03  0.7818608E-02  0.8688598E-01
          1   -1    0    0  501    0  0.00000000000E+00  0.00000000000E+00  0.15399114908E+04  0.15399114908E+04  0.00000000000E+00 0. -1.
         -1   -1    0    0    0  501 -0.00000000000E+00 -0.00000000000E+00 -0.15979198547E+03  0.15979198547E+03  0.00000000000E+00 0. -1.
         36    2    1    2    0    0  0.28421709430E-13 -0.14210854715E-13  0.13801195054E+04  0.16997034763E+04  0.99209982273E+03 0.  0.
         25    2    3    3    0    0  0.21049993696E+01 -0.52179191005E+02  0.46137880655E+03  0.48093847406E+03  0.12531685324E+03 0.  0.
         35    2    3    3    0    0 -0.21049993696E+01  0.52179191005E+02  0.91874069883E+03  0.12187650022E+04  0.79910985479E+03 0.  0.
         22    1    5    5    0    0 -0.35640940267E+03 -0.13173647018E+03  0.30796882837E+03  0.48910833068E+03  0.00000000000E+00 0.  1.
         22    1    5    5    0    0  0.35430440330E+03  0.18391566118E+03  0.61077187046E+03  0.72965667157E+03  0.00000000000E+00 0.  1.
          5    1    4    4  502    0 -0.38264364888E+02  0.26749272423E+02  0.15271283766E+03  0.15975914992E+03  0.47000000000E+01 0. -1.
         -5    1    4    4    0  502  0.40369364257E+02 -0.78928463428E+02  0.30866596889E+03  0.32117932415E+03  0.47000000000E+01 0. -1.
<mgrwt>
<rscale>  0 0.99209982E+03</rscale>
<asrwt>0</asrwt>
<pdfrwt beam="1">  1        1 0.23690945E+00 0.99209982E+03</pdfrwt>
<pdfrwt beam="2">  1       -1 0.24583383E-01 0.99209982E+03</pdfrwt>
<totfact> 0.95283656E+01</totfact>
</mgrwt>
</event>
<event>
 9    1  0.4369420E-036  0.1007153E+04  0.7818608E-02  0.8674256E-01
          1   -1    0    0  501    0  0.00000000000E+00  0.00000000000E+00  0.21834696825E+04  0.21834696825E+04  0.00000000000E+00 0.  1.
         -1   -1    0    0    0  501 -0.00000000000E+00 -0.00000000000E+00 -0.11614049876E+03  0.11614049876E+03  0.00000000000E+00 0.  1.
         36    2    1    2    0    0  0.00000000000E+00 -0.28421709430E-13  0.20673291837E+04  0.22996101812E+04  0.10071529337E+04 0.  0.
         25    2    3    3    0    0 -0.89046803551E+02  0.11432176019E+03  0.33583783015E+03  0.38671870629E+03  0.12556078829E+03 0.  0.
         35    2    3    3    0    0  0.89046803551E+02 -0.11432176019E+03  0.17314913536E+04  0.19128914750E+04  0.80005792879E+03 0.  0.
         22    1    5    5    0    0  0.51746030897E+02  0.11464470832E+03  0.16675073504E+04  0.16722445469E+04  0.00000000000E+00 0.  1.
         22    1    5    5    0    0  0.37300772654E+02 -0.22896646851E+03  0.63984003162E+02  0.24064692810E+03  0.00000000000E+00 0.  1.
          5    1    4    4  502    0 -0.23953271122E+01 -0.23101443863E+02  0.18074969523E+02  0.29802832480E+02  0.47000000000E+01 0.  1.
         -5    1    4    4    0  502 -0.86651476439E+02  0.13742320406E+03  0.31776286063E+03  0.35691587381E+03  0.47000000000E+01 0.  1.
<mgrwt>
<rscale>  0 0.10071529E+04</rscale>
<asrwt>0</asrwt>
<pdfrwt beam="1">  1        1 0.33591838E+00 0.10071529E+04</pdfrwt>
<pdfrwt beam="2">  1       -1 0.17867771E-01 0.10071529E+04</pdfrwt>
<totfact> 0.56984972E+01</totfact>
</mgrwt>
</event>
<event>
 9    1  0.4369420E-036  0.9997921E+03  0.7818608E-02  0.8681236E-01
         -1   -1    0    0    0  501 -0.00000000000E+00  0.00000000000E+00  0.14154757454E+03  0.14154757454E+03  0.00000000000E+00 0.  1.
          1   -1    0    0  501    0  0.00000000000E+00 -0.00000000000E+00 -0.17654563850E+04  0.17654563850E+04  0.00000000000E+00 0.  1.
         36    2    1    2    0    0  0.14210854715E-13  0.71054273576E-14 -0.16239088105E+04  0.19070039596E+04  0.99979211690E+03 0.  0.
         25    2    3    3    0    0  0.68322720167E+02  0.43238278232E+02 -0.52110946664E+03  0.54205573984E+03  0.12542649671E+03 0.  0.
         35    2    3    3    0    0 -0.68322720167E+02 -0.43238278232E+02 -0.11027993438E+04  0.13649482197E+04  0.80023728165E+03 0.  0.
         22    1    5    5    0    0 -0.31697539907E+02 -0.34944554407E+03 -0.18487628461E+03  0.39660580293E+03  0.00000000000E+00 0.  1.
         22    1    5    5    0    0 -0.36625180260E+02  0.30620726584E+03 -0.91792305923E+03  0.96834241679E+03  0.00000000000E+00 0.  1.
          5    1    4    4  502    0  0.64871505521E+02 -0.32529864393E+02 -0.23238981880E+03  0.24350281762E+03  0.47000000000E+01 0.  1.
         -5    1    4    4    0  502  0.34512146463E+01  0.75768142624E+02 -0.28871964784E+03  0.29855292222E+03  0.47000000000E+01 0.  1.
<mgrwt>
<rscale>  0 0.99979212E+03</rscale>
<asrwt>0</asrwt>
<pdfrwt beam="1">  1        1 0.27160867E+00 0.99979212E+03</pdfrwt>
<pdfrwt beam="2">  1       -1 0.21776551E-01 0.99979212E+03</pdfrwt>
<totfact> 0.80795334E+01</totfact>
</mgrwt>
</event>
<event>
 9    1  0.4369420E-036  0.1000248E+04  0.7818608E-02  0.8680802E-01
          2   -1    0    0  501    0  0.00000000000E+00  0.00000000000E+00  0.12488380939E+04  0.12488380939E+04  0.00000000000E+00 0. -1.
         -2   -1    0    0    0  501 -0.00000000000E+00 -0.00000000000E+00 -0.20028533516E+03  0.20028533516E+03  0.00000000000E+00 0. -1.
         36    2    1    2    0    0 -0.14210854715E-13 -0.14210854715E-13  0.10485527587E+04  0.14491234290E+04  0.10002478816E+04 0.  0.
         25    2    3    3    0    0  0.66388536194E+02 -0.17656876844E+02  0.22540672591E+02  0.14579747596E+03  0.12660813180E+03 0.  0.
         35    2    3    3    0    0 -0.66388536194E+02  0.17656876844E+02  0.10260120861E+04  0.13033259531E+04  0.80077371088E+03 0.  0.
         22    1    5    5    0    0  0.29885442680E+03 -0.15990327289E+03  0.71678627907E+03  0.79288435157E+03  0.00000000000E+00 0. -1.
         22    1    5    5    0    0 -0.36524296299E+03  0.17756014973E+03  0.30922580703E+03  0.51044160148E+03  0.00000000000E+00 0. -1.
          5    1    4    4  502    0  0.78469398420E+02 -0.50561604417E+02 -0.14499781353E+02  0.94584649859E+02  0.47000000000E+01 0.  1.
         -5    1    4    4    0  502 -0.12080862227E+02  0.32904727573E+02  0.37040453945E+02  0.51212826101E+02  0.47000000000E+01 0.  1.
<mgrwt>
<rscale>  0 0.10002479E+04</rscale>
<asrwt>0</asrwt>
<pdfrwt beam="1">  1        2 0.19212893E+00 0.10002479E+04</pdfrwt>
<pdfrwt beam="2">  1       -2 0.30813129E-01 0.10002479E+04</pdfrwt>
<totfact> 0.20785849E+02</totfact>
</mgrwt>
</event>
<event>
 9    1  0.4369420E-036  0.9993567E+03  0.7818608E-02  0.8681651E-01
         -2   -1    0    0    0  501 -0.00000000000E+00  0.00000000000E+00  0.10371100960E+03  0.10371100960E+03  0.00000000000E+00 0. -1.
          2   -1    0    0  501    0  0.00000000000E+00 -0.00000000000E+00 -0.24074442566E+04  0.24074442566E+04  0.00000000000E+00 0. -1.
         36    2    1    2    0    0  0.00000000000E+00 -0.14210854715E-13 -0.23037332470E+04  0.25111552662E+04  0.99935674193E+03 0.  0.
         25    2    3    3    0    0  0.35707408538E+02 -0.54987879943E+02 -0.74385027879E+03  0.75703713907E+03  0.12447211216E+03 0.  0.
         35    2    3    3    0    0 -0.35707408538E+02  0.54987879943E+02 -0.15598829682E+04  0.17541181271E+04  0.79962293831E+03 0.  0.
         22    1    5    5    0    0  0.56593948616E+01  0.36109423888E+03 -0.34095128805E+03  0.49665768787E+03  0.00000000000E+00 0. -1.
         22    1    5    5    0    0 -0.41366803400E+02 -0.30610635894E+03 -0.12189316802E+04  0.12574604393E+04  0.00000000000E+00 0. -1.
          5    1    4    4  502    0 -0.12774615529E+02 -0.70662142695E+02 -0.23895062006E+03  0.24955123330E+03  0.47000000000E+01 0. -1.
         -5    1    4    4    0  502  0.48482024067E+02  0.15674262753E+02 -0.50489965873E+03  0.50748590577E+03  0.47000000000E+01 0. -1.
<mgrwt>
<rscale>  0 0.99935674E+03</rscale>
<asrwt>0</asrwt>
<pdfrwt beam="1">  1        2 0.37037600E+00 0.99935674E+03</pdfrwt>
<pdfrwt beam="2">  1       -2 0.15955541E-01 0.99935674E+03</pdfrwt>
<totfact> 0.14275205E+02</totfact>
</mgrwt>
</event>
<event>
 9    1  0.4369420E-036  0.9993350E+03  0.7818608E-02  0.8681671E-01
         -2   -1    0    0    0  501 -0.00000000000E+00  0.00000000000E+00  0.10445017714E+03  0.10445017714E+03  0.00000000000E+00 0.  1.
          2   -1    0    0  501    0  0.00000000000E+00 -0.00000000000E+00 -0.23903033579E+04  0.23903033579E+04  0.00000000000E+00 0.  1.
         36    2    1    2    0    0  0.00000000000E+00  0.28421709430E-13 -0.22858531807E+04  0.24947535350E+04  0.99933499720E+03 0.  0.
         25    2    3    3    0    0 -0.98568948197E+02  0.98167826457E+02 -0.44532720164E+03  0.48319225183E+03  0.12572062682E+03 0.  0.
         35    2    3    3    0    0  0.98568948197E+02 -0.98167826457E+02 -0.18405259791E+04  0.20115612832E+04  0.79968128439E+03 0.  0.
         22    1    5    5    0    0 -0.10948860806E+02 -0.41176955210E+03 -0.14030462242E+04  0.14622628864E+04  0.00000000000E+00 0.  1.
         22    1    5    5    0    0  0.10951780900E+03  0.31360172564E+03 -0.43747975488E+03  0.54929839682E+03  0.00000000000E+00 0.  1.
          5    1    4    4  502    0  0.27094657567E+02  0.35154457365E+02 -0.78164503919E+02  0.90009644007E+02  0.47000000000E+01 0.  1.
         -5    1    4    4    0  502 -0.12566360576E+03  0.63013369092E+02 -0.36716269772E+03  0.39318260783E+03  0.47000000000E+01 0.  1.
<mgrwt>
<rscale>  0 0.99933500E+03</rscale>
<asrwt>0</asrwt>
<pdfrwt beam="1">  1        2 0.36773896E+00 0.99933500E+03</pdfrwt>
<pdfrwt beam="2">  1       -2 0.16069259E-01 0.99933500E+03</pdfrwt>
<totfact> 0.14442297E+02</totfact>
</mgrwt>
</event>
<event>
 9    1  0.4369420E-036  0.9960873E+03  0.7818608E-02  0.8684773E-01
         -4   -1    0    0    0  501 -0.00000000000E+00  0.00000000000E+00  0.44305161101E+03  0.44305161101E+03  0.00000000000E+00 0. -1.
          4   -1    0    0  501    0  0.00000000000E+00 -0.00000000000E+00 -0.55986134917E+03  0.55986134917E+03  0.00000000000E+00 0. -1.
         36    2    1    2    0    0  0.28421709430E-13  0.00000000000E+00 -0.11680973816E+03  0.10029129602E+04  0.99608729074E+03 0.  0.
         25    2    3    3    0    0 -0.11619723080E+03 -0.66145953660E+02 -0.49411120515E+02  0.18877498620E+03  0.12376369805E+03 0.  0.
         35    2    3    3    0    0  0.11619723080E+03  0.66145953660E+02 -0.67398617644E+02  0.81413797398E+03  0.80025057537E+03 0.  0.
         22    1    5    5    0    0 -0.15975993398E+03 -0.18102949337E+03 -0.29355649981E+03  0.38009253157E+03  0.00000000000E+00 0.  1.
         22    1    5    5    0    0  0.27595716478E+03  0.24717544703E+03  0.22615788217E+03  0.43404544241E+03  0.00000000000E+00 0.  1.
          5    1    4    4  502    0 -0.13564612840E+03 -0.76783395001E+02 -0.29706703058E+02  0.15874551995E+03  0.47000000000E+01 0. -1.
         -5    1    4    4    0  502  0.19448897599E+02  0.10637441341E+02 -0.19704417457E+02  0.30029466253E+02  0.47000000000E+01 0. -1.
<mgrwt>
<rscale>  0 0.99608729E+03</rscale>
<asrwt>0</asrwt>
<pdfrwt beam="1">  1        4 0.86132516E-01 0.99608729E+03</pdfrwt>
<pdfrwt beam="2">  1       -4 0.68161786E-01 0.99608729E+03</pdfrwt>
<totfact> 0.53218408E+00</totfact>
</mgrwt>
</event>
<event>
 9    1  0.4369420E-036  0.9939257E+03  0.7818608E-02  0.8686844E-01
          2   -1    0    0  501    0  0.00000000000E+00  0.00000000000E+00  0.13556249547E+04  0.13556249547E+04  0.00000000000E+00 0.  1.
         -2   -1    0    0    0  501 -0.00000000000E+00 -0.00000000000E+00 -0.18218319894E+03  0.18218319894E+03  0.00000000000E+00 0.  1.
         36    2    1    2    0    0  0.71054273576E-14  0.00000000000E+00  0.11734417558E+04  0.15378081537E+04  0.99392573328E+03 0.  0.
         25    2    3    3    0    0  0.81220343312E+01 -0.13241575784E+03  0.19404960167E+03  0.26605481378E+03  0.12461948347E+03 0.  0.
         35    2    3    3    0    0 -0.81220343312E+01  0.13241575784E+03  0.97939215413E+03  0.12717533399E+04  0.80034221781E+03 0.  0.
         22    1    5    5    0    0  0.22019999367E+03  0.22376728408E+02  0.99354819857E+03  0.10179031280E+04  0.00000000000E+00 0.  1.
         22    1    5    5    0    0 -0.22832202800E+03  0.11003902943E+03 -0.14156044440E+02  0.25385021186E+03  0.00000000000E+00 0.  1.
          5    1    4    4  502    0  0.40996436955E+02 -0.10272498443E+03  0.19179581409E+03  0.22145169806E+03  0.47000000000E+01 0. -1.
         -5    1    4    4    0  502 -0.32874402624E+02 -0.29690773416E+02  0.22537875793E+01  0.44603115725E+02  0.47000000000E+01 0. -1.
<mgrwt>
<rscale>  0 0.99392573E+03</rscale>
<asrwt>0</asrwt>
<pdfrwt beam="1">  1        2 0.20855768E+00 0.99392573E+03</pdfrwt>
<pdfrwt beam="2">  1       -2 0.28028185E-01 0.99392573E+03</pdfrwt>
<totfact> 0.21409796E+02</totfact>
</mgrwt>
</event>
<event>
 9    1  0.4369420E-036  0.1000272E+04  0.7818608E-02  0.8680779E-01
         -1   -1    0    0    0  501 -0.00000000000E+00  0.00000000000E+00  0.60425972099E+03  0.60425972099E+03  0.00000000000E+00 0.  1.
          1   -1    0    0  501    0  0.00000000000E+00 -0.00000000000E+00 -0.41395454132E+03  0.41395454132E+03  0.00000000000E+00 0.  1.
         36    2    1    2    0    0  0.21316282073E-13 -0.28421709430E-13  0.19030517967E+03  0.10182142623E+04  0.10002720743E+04 0.  0.
         25    2    3    3    0    0 -0.24882058211E+02 -0.12434111191E+03 -0.26921206669E+02  0.18030146615E+03  0.12531575478E+03 0.  0.
         35    2    3    3    0    0  0.24882058211E+02  0.12434111191E+03  0.21722638634E+03  0.83791279615E+03  0.79926886721E+03 0.  0.
         22    1    5    5    0    0  0.16814677558E+03  0.42950858957E+03  0.57350135487E+02  0.46480103775E+03  0.00000000000E+00 0.  1.
         22    1    5    5    0    0 -0.14326471737E+03 -0.30516747766E+03  0.15987625085E+03  0.37311175840E+03  0.00000000000E+00 0.  1.
          5    1    4    4  502    0 -0.38607466401E+02 -0.14263053415E+03 -0.40512459465E+02  0.15328847023E+03  0.47000000000E+01 0. -1.
         -5    1    4    4    0  502  0.13725408190E+02  0.18289422243E+02  0.13591252796E+02  0.27012995919E+02  0.47000000000E+01 0. -1.
<mgrwt>
<rscale>  0 0.10002721E+04</rscale>
<asrwt>0</asrwt>
<pdfrwt beam="1">  1        1 0.63685314E-01 0.10002721E+04</pdfrwt>
<pdfrwt beam="2">  1       -1 0.92963034E-01 0.10002721E+04</pdfrwt>
<totfact> 0.76832445E+01</totfact>
</mgrwt>
</event>
<event>
 9    1  0.4369420E-036  0.1000092E+04  0.7818608E-02  0.8680950E-01
          2   -1    0    0  501    0  0.00000000000E+00  0.00000000000E+00  0.26472306743E+04  0.26472306743E+04  0.00000000000E+00 0.  1.
         -2   -1    0    0    0  501 -0.00000000000E+00 -0.00000000000E+00 -0.94455726359E+02  0.94455726359E+02  0.00000000000E+00 0.  1.
         36    2    1    2    0    0  0.00000000000E+00 -0.71054273576E-14  0.25527749479E+04  0.27416864006E+04  0.10000921881E+04 0.  0.
         25    2    3    3    0    0 -0.24170178619E+02 -0.39310489121E+02  0.84403625166E+03  0.85456850436E+03  0.12554131763E+03 0.  0.
         35    2    3    3    0    0  0.24170178619E+02  0.39310489121E+02  0.17087386963E+04  0.18871178963E+04  0.79956019804E+03 0.  0.
         22    1    5    5    0    0  0.20098836533E+02 -0.95668739135E+02  0.17446478123E+04  0.17473844625E+04  0.00000000000E+00 0. -1.
         22    1    5    5    0    0  0.40713420854E+01  0.13497922826E+03 -0.35909116071E+02  0.13973343374E+03  0.00000000000E+00 0. -1.
          5    1    4    4  502    0 -0.69166294564E+02 -0.50927075226E+02  0.49465729637E+03  0.50208114299E+03  0.47000000000E+01 0.  1.
         -5    1    4    4    0  502  0.44996115945E+02  0.11616586105E+02  0.34937895529E+03  0.35248736137E+03  0.47000000000E+01 0.  1.
<mgrwt>
<rscale>  0 0.10000922E+04</rscale>
<asrwt>0</asrwt>
<pdfrwt beam="1">  1        2 0.40726620E+00 0.10000922E+04</pdfrwt>
<pdfrwt beam="2">  1       -2 0.14531652E-01 0.10000922E+04</pdfrwt>
<totfact> 0.11916131E+02</totfact>
</mgrwt>
</event>
<event>
 9    1  0.4369420E-036  0.9993617E+03  0.7818608E-02  0.8681646E-01
         -2   -1    0    0    0  501 -0.00000000000E+00  0.00000000000E+00  0.28288885266E+03  0.28288885266E+03  0.00000000000E+00 0. -1.
          2   -1    0    0  501    0  0.00000000000E+00 -0.00000000000E+00 -0.88261142282E+03  0.88261142282E+03  0.00000000000E+00 0. -1.
         36    2    1    2    0    0 -0.14210854715E-13  0.28421709430E-13 -0.59972257016E+03  0.11655002755E+04  0.99936166175E+03 0.  0.
         25    2    3    3    0    0  0.74137122906E+02  0.11392919808E+03 -0.10686924298E+03  0.21483337307E+03  0.12749967813E+03 0.  0.
         35    2    3    3    0    0 -0.74137122906E+02 -0.11392919808E+03 -0.49285332718E+03  0.95066690241E+03  0.80149047534E+03 0.  0.
         22    1    5    5    0    0 -0.23858837158E+03 -0.30775141141E+03  0.74711019918E+01  0.38947549300E+03  0.00000000000E+00 0.  1.
         22    1    5    5    0    0  0.16445124867E+03  0.19382221334E+03 -0.50032442917E+03  0.56119140941E+03  0.00000000000E+00 0.  1.
          5    1    4    4  502    0  0.10491403203E+03  0.11107565546E+03 -0.10046229072E+03  0.18291942819E+03  0.47000000000E+01 0.  1.
         -5    1    4    4    0  502 -0.30776909124E+02  0.28535426157E+01 -0.64069522697E+01  0.31913944884E+02  0.47000000000E+01 0.  1.
<mgrwt>
<rscale>  0 0.99936166E+03</rscale>
<asrwt>0</asrwt>
<pdfrwt beam="1">  1        2 0.13578637E+00 0.99936166E+03</pdfrwt>
<pdfrwt beam="2">  1       -2 0.43521363E-01 0.99936166E+03</pdfrwt>
<totfact> 0.18250551E+02</totfact>
</mgrwt>
</event>
<event>
 9    1  0.4369420E-036  0.9925096E+03  0.7818608E-02  0.8688204E-01
         -1   -1    0    0    0  501 -0.00000000000E+00  0.00000000000E+00  0.10461827154E+04  0.10461827154E+04  0.00000000000E+00 0. -1.
          1   -1    0    0  501    0  0.00000000000E+00 -0.00000000000E+00 -0.23539751541E+03  0.23539751541E+03  0.00000000000E+00 0. -1.
         36    2    1    2    0    0 -0.14210854715E-13 -0.14210854715E-13  0.81078519999E+03  0.12815802308E+04  0.99250957046E+03 0.  0.
         25    2    3    3    0    0 -0.10526852762E+03 -0.70415834675E+01  0.24861130218E+03  0.29816987973E+03  0.12635921335E+03 0.  0.
         35    2    3    3    0    0  0.10526852762E+03  0.70415834675E+01  0.56217389781E+03  0.98341035107E+03  0.79995336140E+03 0.  0.
         22    1    5    5    0    0 -0.13861925205E+02  0.31606781203E+03  0.57023468942E+03  0.65211855961E+03  0.00000000000E+00 0.  1.
         22    1    5    5    0    0  0.11913045283E+03 -0.30902622856E+03 -0.80607916132E+01  0.33129179146E+03  0.00000000000E+00 0.  1.
          5    1    4    4  502    0 -0.13629402272E+02 -0.35883124670E+02  0.16883237224E+03  0.17320455871E+03  0.47000000000E+01 0. -1.
         -5    1    4    4    0  502 -0.91639125352E+02  0.28841541203E+02  0.79778929944E+02  0.12496532102E+03  0.47000000000E+01 0. -1.
<mgrwt>
<rscale>  0 0.99250957E+03</rscale>
<asrwt>0</asrwt>
<pdfrwt beam="1">  1        1 0.36215003E-01 0.99250957E+03</pdfrwt>
<pdfrwt beam="2">  1       -1 0.16095118E+00 0.99250957E+03</pdfrwt>
<totfact> 0.39934278E+01</totfact>
</mgrwt>
</event>
<event>
 9    1  0.4369420E-036  0.9997465E+03  0.7818608E-02  0.8681279E-01
          1   -1    0    0  501    0  0.00000000000E+00  0.00000000000E+00  0.19433677867E+04  0.19433677867E+04  0.00000000000E+00 0. -1.
         -1   -1    0    0    0  501 -0.00000000000E+00 -0.00000000000E+00 -0.12857743746E+03  0.12857743746E+03  0.00000000000E+00 0. -1.
         36    2    1    2    0    0  0.28421709430E-13 -0.28421709430E-13  0.18147903492E+04  0.20719452241E+04  0.99974646795E+03 0.  0.
         25    2    3    3    0    0  0.11533635493E+03 -0.75736006251E+02  0.39455084107E+03  0.43591045387E+03  0.12373011030E+03 0.  0.
         35    2    3    3    0    0 -0.11533635493E+03  0.75736006251E+02  0.14202395081E+04  0.16360347702E+04  0.80030687337E+03 0.  0.
         22    1    5    5    0    0 -0.11361712814E+02  0.92133086809E+02 -0.85747715872E+02  0.12637351376E+03  0.00000000000E+00 0.  1.
         22    1    5    5    0    0 -0.10397464212E+03 -0.16397080558E+02  0.15059872240E+04  0.15096612565E+04  0.00000000000E+00 0.  1.
          5    1    4    4  502    0 -0.19046115134E+02  0.94198803663E+01  0.86210573919E+02  0.88914800248E+02  0.47000000000E+01 0. -1.
         -5    1    4    4    0  502  0.13438247007E+03 -0.85155886618E+02  0.30834026715E+03  0.34699565362E+03  0.47000000000E+01 0. -1.
<mgrwt>
<rscale>  0 0.99974647E+03</rscale>
<asrwt>0</asrwt>
<pdfrwt beam="1">  1        1 0.29897964E+00 0.99974647E+03</pdfrwt>
<pdfrwt beam="2">  1       -1 0.19781146E-01 0.99974647E+03</pdfrwt>
<totfact> 0.71070998E+01</totfact>
</mgrwt>
</event>
<event>
 9    1  0.4369420E-036  0.9999984E+03  0.7818608E-02  0.8681039E-01
         -2   -1    0    0    0  501 -0.00000000000E+00  0.00000000000E+00  0.93401825004E+03  0.93401825004E+03  0.00000000000E+00 0. -1.
          2   -1    0    0  501    0  0.00000000000E+00 -0.00000000000E+00 -0.26765987267E+03  0.26765987267E+03  0.00000000000E+00 0. -1.
         36    2    1    2    0    0  0.00000000000E+00  0.00000000000E+00  0.66635837737E+03  0.12016781227E+04  0.99999841176E+03 0.  0.
         25    2    3    3    0    0  0.13773757153E+03 -0.14621392527E+02  0.15252531602E+03  0.24122814304E+03  0.12546561776E+03 0.  0.
         35    2    3    3    0    0 -0.13773757153E+03  0.14621392527E+02  0.51383306135E+03  0.96044997967E+03  0.79953381716E+03 0.  0.
         22    1    5    5    0    0 -0.24174571309E+03  0.23031203658E+03  0.61555610614E+03  0.70028133190E+03  0.00000000000E+00 0.  1.
         22    1    5    5    0    0  0.10400814156E+03 -0.21569064405E+03 -0.10172304479E+03  0.26016864777E+03  0.00000000000E+00 0.  1.
          5    1    4    4  502    0  0.16135842111E+03 -0.16458591171E+02  0.13823931736E+03  0.21316571993E+03  0.47000000000E+01 0.  1.
         -5    1    4    4    0  502 -0.23620849579E+02  0.18371986446E+01  0.14285998656E+02  0.28062423118E+02  0.47000000000E+01 0.  1.
<mgrwt>
<rscale>  0 0.99999841E+03</rscale>
<asrwt>0</asrwt>
<pdfrwt beam="1">  1        2 0.41178442E-01 0.99999841E+03</pdfrwt>
<pdfrwt beam="2">  1       -2 0.14369511E+00 0.99999841E+03</pdfrwt>
<totfact> 0.47650969E+01</totfact>
</mgrwt>
</event>
<event>
 9    1  0.4369420E-036  0.9999579E+03  0.7818608E-02  0.8681078E-01
         -2   -1    0    0    0  501 -0.00000000000E+00  0.00000000000E+00  0.11805730176E+04  0.11805730176E+04  0.00000000000E+00 0.  1.
          2   -1    0    0  501    0  0.00000000000E+00 -0.00000000000E+00 -0.21174375364E+03  0.21174375364E+03  0.00000000000E+00 0.  1.
         36    2    1    2    0    0 -0.14210854715E-13  0.17763568394E-14  0.96882926394E+03  0.13923167712E+04  0.99995792350E+03 0.  0.
         25    2    3    3    0    0 -0.57750812252E+02 -0.14953751152E+02  0.35988433987E+03  0.38521398107E+03  0.12375096823E+03 0.  0.
         35    2    3    3    0    0  0.57750812252E+02  0.14953751152E+02  0.60894492407E+03  0.10071027902E+04  0.79992708318E+03 0.  0.
         22    1    5    5    0    0  0.14446870696E+03 -0.31048561778E+03  0.38438610115E+02  0.34460129554E+03  0.00000000000E+00 0.  1.
         22    1    5    5    0    0 -0.86717894708E+02  0.32543936893E+03  0.57050631396E+03  0.66250149462E+03  0.00000000000E+00 0.  1.
          5    1    4    4  502    0 -0.11234736536E+02  0.14199852208E+02  0.31098279481E+03  0.31154493059E+03  0.47000000000E+01 0.  1.
         -5    1    4    4    0  502 -0.46516075716E+02 -0.29153603361E+02  0.48901545056E+02  0.73669050474E+02  0.47000000000E+01 0.  1.
<mgrwt>
<rscale>  0 0.99995792E+03</rscale>
<asrwt>0</asrwt>
<pdfrwt beam="1">  1        2 0.32575963E-01 0.99995792E+03</pdfrwt>
<pdfrwt beam="2">  1       -2 0.18162661E+00 0.99995792E+03</pdfrwt>
<totfact> 0.31600513E+01</totfact>
</mgrwt>
</event>
<event>
 9    1  0.4369420E-036  0.9995209E+03  0.7818608E-02  0.8681494E-01
          2   -1    0    0  501    0  0.00000000000E+00  0.00000000000E+00  0.14955204818E+04  0.14955204818E+04  0.00000000000E+00 0. -1.
         -2   -1    0    0    0  501 -0.00000000000E+00 -0.00000000000E+00 -0.16700572975E+03  0.16700572975E+03  0.00000000000E+00 0. -1.
         36    2    1    2    0    0  0.00000000000E+00 -0.28421709430E-13  0.13285147521E+04  0.16625262115E+04  0.99952086404E+03 0.  0.
         25    2    3    3    0    0  0.35310442352E+02 -0.13489680443E+03  0.26585444884E+03  0.32512071137E+03  0.12482353067E+03 0.  0.
         35    2    3    3    0    0 -0.35310442352E+02  0.13489680443E+03  0.10626603032E+04  0.13374055002E+04  0.79997661009E+03 0.  0.
         22    1    5    5    0    0 -0.29799343052E+02  0.20399783552E+03 -0.58344325838E+02  0.21425960446E+03  0.00000000000E+00 0. -1.
         22    1    5    5    0    0 -0.55110992995E+01 -0.69101031100E+02  0.11210046290E+04  0.11231458957E+04  0.00000000000E+00 0. -1.
          5    1    4    4  502    0  0.26068707467E+02 -0.15448675422E+03  0.19114479618E+03  0.24719255216E+03  0.47000000000E+01 0. -1.
         -5    1    4    4    0  502  0.92417348849E+01  0.19589949794E+02  0.74709652662E+02  0.77928159208E+02  0.47000000000E+01 0.  1.
<mgrwt>
<rscale>  0 0.99952086E+03</rscale>
<asrwt>0</asrwt>
<pdfrwt beam="1">  1        2 0.23008006E+00 0.99952086E+03</pdfrwt>
<pdfrwt beam="2">  1       -2 0.25693190E-01 0.99952086E+03</pdfrwt>
<totfact> 0.20824180E+02</totfact>
</mgrwt>
</event>
<event>
 9    1  0.4369420E-036  0.1000902E+04  0.7818608E-02  0.8680179E-01
         -1   -1    0    0    0  501 -0.00000000000E+00  0.00000000000E+00  0.23068567022E+03  0.23068567022E+03  0.00000000000E+00 0. -1.
          1   -1    0    0  501    0  0.00000000000E+00 -0.00000000000E+00 -0.10856824175E+04  0.10856824175E+04  0.00000000000E+00 0. -1.
         36    2    1    2    0    0  0.00000000000E+00  0.00000000000E+00 -0.85499674728E+03  0.13163680877E+04  0.10009023451E+04 0.  0.
         25    2    3    3    0    0 -0.12710894929E+03 -0.46380269339E+02 -0.11802952203E+03  0.21894858900E+03  0.12529845243E+03 0.  0.
         35    2    3    3    0    0  0.12710894929E+03  0.46380269339E+02 -0.73696722525E+03  0.10974194987E+04  0.80181110663E+03 0.  0.
         22    1    5    5    0    0 -0.10304446950E+03  0.97730471163E+01  0.14893868480E+03  0.18137366671E+03  0.00000000000E+00 0. -1.
         22    1    5    5    0    0  0.23015341879E+03  0.36607222222E+02 -0.88590591005E+03  0.91604583202E+03  0.00000000000E+00 0. -1.
          5    1    4    4  502    0 -0.14306503858E+03 -0.32056658916E+02 -0.12814581340E+03  0.19477852586E+03  0.47000000000E+01 0. -1.
         -5    1    4    4    0  502  0.15956089291E+02 -0.14323610422E+02  0.10116291369E+02  0.24170063137E+02  0.47000000000E+01 0. -1.
<mgrwt>
<rscale>  0 0.10009023E+04</rscale>
<asrwt>0</asrwt>
<pdfrwt beam="1">  1        1 0.16702807E+00 0.10009023E+04</pdfrwt>
<pdfrwt beam="2">  1       -1 0.35490102E-01 0.10009023E+04</pdfrwt>
<totfact> 0.10938760E+02</totfact>
</mgrwt>
</event>
<event>
 9    1  0.4369420E-036  0.1001076E+04  0.7818608E-02  0.8680014E-01
         -1   -1    0    0    0  501 -0.00000000000E+00  0.00000000000E+00  0.28356362725E+03  0.28356362725E+03  0.00000000000E+00 0.  1.
          1   -1    0    0  501    0  0.00000000000E+00 -0.00000000000E+00 -0.88353417062E+03  0.88353417062E+03  0.00000000000E+00 0.  1.
         36    2    1    2    0    0  0.28421709430E-13  0.00000000000E+00 -0.59997054337E+03  0.11670977979E+04  0.10010757298E+04 0.  0.
         25    2    3    3    0    0  0.79513356787E+01  0.62858397779E+02 -0.26068373930E+03  0.29608994788E+03  0.12529502541E+03 0.  0.
         35    2    3    3    0    0 -0.79513356787E+01 -0.62858397779E+02 -0.33928680407E+03  0.87100784998E+03  0.79970290571E+03 0.  0.
         22    1    5    5    0    0 -0.26008537868E+03  0.43320573443E+02  0.15515046057E+03  0.30592930834E+03  0.00000000000E+00 0.  1.
         22    1    5    5    0    0  0.25213404300E+03 -0.10617897122E+03 -0.49443726464E+03  0.56507854165E+03  0.00000000000E+00 0.  1.
          5    1    4    4  502    0 -0.13090565945E+02 -0.23951171021E+02 -0.15580831235E+03  0.15825088217E+03  0.47000000000E+01 0. -1.
         -5    1    4    4    0  502  0.21041901623E+02  0.86809568800E+02 -0.10487542694E+03  0.13783906571E+03  0.47000000000E+01 0. -1.
<mgrwt>
<rscale>  0 0.10010757E+04</rscale>
<asrwt>0</asrwt>
<pdfrwt beam="1">  1        1 0.13592833E+00 0.10010757E+04</pdfrwt>
<pdfrwt beam="2">  1       -1 0.43625174E-01 0.10010757E+04</pdfrwt>
<totfact> 0.11011043E+02</totfact>
</mgrwt>
</event>
<event>
 9    1  0.4369420E-036  0.9998176E+03  0.7818608E-02  0.8681212E-01
          2   -1    0    0  501    0  0.00000000000E+00  0.00000000000E+00  0.13873738094E+04  0.13873738094E+04  0.00000000000E+00 0.  1.
         -2   -1    0    0    0  501 -0.00000000000E+00 -0.00000000000E+00 -0.18013083918E+03  0.18013083918E+03  0.00000000000E+00 0.  1.
         36    2    1    2    0    0  0.00000000000E+00 -0.71054273576E-14  0.12072429702E+04  0.15675046486E+04  0.99981760044E+03 0.  0.
         25    2    3    3    0    0 -0.84879104731E+02 -0.17198828289E+02  0.52848801563E+02  0.16089713053E+03  0.12487845559E+03 0.  0.
         35    2    3    3    0    0  0.84879104731E+02  0.17198828289E+02  0.11543941686E+04  0.14066075180E+04  0.79901098308E+03 0.  0.
         22    1    5    5    0    0 -0.26361703699E+02 -0.17653114434E+03 -0.47037894868E+02  0.18458263163E+03  0.00000000000E+00 0.  1.
         22    1    5    5    0    0  0.11124080843E+03  0.19372997263E+03  0.12014320635E+04  0.12220248864E+04  0.00000000000E+00 0.  1.
          5    1    4    4  502    0 -0.48179102672E+02 -0.64403655111E+02 -0.58534029655E+00  0.80569779379E+02  0.47000000000E+01 0. -1.
         -5    1    4    4    0  502 -0.36700002060E+02  0.47204826822E+02  0.53434141859E+02  0.80327351149E+02  0.47000000000E+01 0. -1.
<mgrwt>
<rscale>  0 0.99981760E+03</rscale>
<asrwt>0</asrwt>
<pdfrwt beam="1">  1        2 0.21344212E+00 0.99981760E+03</pdfrwt>
<pdfrwt beam="2">  1       -2 0.27712438E-01 0.99981760E+03</pdfrwt>
<totfact> 0.20954456E+02</totfact>
</mgrwt>
</event>
<event>
 9    1  0.4369420E-036  0.1000702E+04  0.7818608E-02  0.8680370E-01
          2   -1    0    0  501    0  0.00000000000E+00  0.00000000000E+00  0.94524072465E+03  0.94524072465E+03  0.00000000000E+00 0. -1.
         -2   -1    0    0    0  501 -0.00000000000E+00 -0.00000000000E+00 -0.26485446800E+03  0.26485446800E+03  0.00000000000E+00 0. -1.
         36    2    1    2    0    0  0.14210854715E-13  0.14210854715E-13  0.68038625665E+03  0.12100951926E+04  0.10007022120E+04 0.  0.
         25    2    3    3    0    0 -0.42648698592E+02 -0.11333882352E+03  0.21261258031E+03  0.27429106641E+03  0.12396321792E+03 0.  0.
         35    2    3    3    0    0  0.42648698592E+02  0.11333882352E+03  0.46777367634E+03  0.93580412624E+03  0.80140660716E+03 0.  0.
         22    1    5    5    0    0 -0.13757209575E+03 -0.31095900714E+03  0.26997105787E+03  0.43417272800E+03  0.00000000000E+00 0.  1.
         22    1    5    5    0    0  0.18022079434E+03  0.42429783067E+03  0.19780261847E+03  0.50163139824E+03  0.00000000000E+00 0.  1.
          5    1    4    4  502    0 -0.86149427235E+02 -0.84651890010E+02  0.14393854523E+03  0.18795760453E+03  0.47000000000E+01 0.  1.
         -5    1    4    4    0  502  0.43500728643E+02 -0.28686933515E+02  0.68674035074E+02  0.86333461880E+02  0.47000000000E+01 0.  1.
<mgrwt>
<rscale>  0 0.10007022E+04</rscale>
<asrwt>0</asrwt>
<pdfrwt beam="1">  1        2 0.14542165E+00 0.10007022E+04</pdfrwt>
<pdfrwt beam="2">  1       -2 0.40746842E-01 0.10007022E+04</pdfrwt>
<totfact> 0.18862766E+02</totfact>
</mgrwt>
</event>
<event>
 9    1  0.4369420E-036  0.9994785E+03  0.7818608E-02  0.8681535E-01
         -1   -1    0    0    0  501 -0.00000000000E+00  0.00000000000E+00  0.26399338030E+03  0.26399338030E+03  0.00000000000E+00 0. -1.
          1   -1    0    0  501    0  0.00000000000E+00 -0.00000000000E+00 -0.94600602917E+03  0.94600602917E+03  0.00000000000E+00 0. -1.
         36    2    1    2    0    0  0.14210854715E-13  0.14210854715E-13 -0.68201264886E+03  0.12099994095E+04  0.99947852289E+03 0.  0.
         25    2    3    3    0    0 -0.92727689215E+02  0.10326088070E+03 -0.10668601613E+03  0.21527066317E+03  0.12529293098E+03 0.  0.
         35    2    3    3    0    0  0.92727689215E+02 -0.10326088070E+03 -0.57532663273E+03  0.99472874630E+03  0.79951442173E+03 0.  0.
         22    1    5    5    0    0  0.43319743708E+03 -0.37908501312E+02 -0.45081223673E+03  0.62636151443E+03  0.00000000000E+00 0. -1.
         22    1    5    5    0    0 -0.34046974787E+03 -0.65352379387E+02 -0.12451439600E+03  0.36836723187E+03  0.00000000000E+00 0. -1.
          5    1    4    4  502    0 -0.92702165779E+02  0.77863812080E+02 -0.13195398691E+03  0.17913796201E+03  0.47000000000E+01 0. -1.
         -5    1    4    4    0  502 -0.25523436690E-01  0.25397068619E+02  0.25267970780E+02  0.36132701162E+02  0.47000000000E+01 0. -1.
<mgrwt>
<rscale>  0 0.99947852E+03</rscale>
<asrwt>0</asrwt>
<pdfrwt beam="1">  1        1 0.14553939E+00 0.99947852E+03</pdfrwt>
<pdfrwt beam="2">  1       -1 0.40614365E-01 0.99947852E+03</pdfrwt>
<totfact> 0.11117626E+02</totfact>
</mgrwt>
</event>
<event>
 9    1  0.4369420E-036  0.9997871E+03  0.7818608E-02  0.8681241E-01
         -2   -1    0    0    0  501 -0.00000000000E+00  0.00000000000E+00  0.15380929557E+03  0.15380929557E+03  0.00000000000E+00 0. -1.
          2   -1    0    0  501    0  0.00000000000E+00 -0.00000000000E+00 -0.16246974912E+04  0.16246974912E+04  0.00000000000E+00 0. -1.
         36    2    1    2    0    0  0.14210854715E-13 -0.28421709430E-13 -0.14708881957E+04  0.17785067868E+04  0.99978713063E+03 0.  0.
         25    2    3    3    0    0  0.20395238036E+02 -0.78987635454E+02 -0.47683762939E+03  0.49958180186E+03  0.12471102460E+03 0.  0.
         35    2    3    3    0    0 -0.20395238036E+02  0.78987635454E+02 -0.99405056627E+03  0.12789249849E+04  0.80053580590E+03 0.  0.
         22    1    5    5    0    0  0.16614930148E+03  0.32100992054E+03 -0.16882621397E+03  0.39894266504E+03  0.00000000000E+00 0.  1.
         22    1    5    5    0    0 -0.18654453952E+03 -0.24202228509E+03 -0.82522435231E+03  0.87998231990E+03  0.00000000000E+00 0.  1.
          5    1    4    4  502    0 -0.39563463865E+02 -0.18624939167E+02 -0.30088347451E+03  0.30408076437E+03  0.47000000000E+01 0. -1.
         -5    1    4    4    0  502  0.59958701901E+02 -0.60362696287E+02 -0.17595415488E+03  0.19550103748E+03  0.47000000000E+01 0. -1.
<mgrwt>
<rscale>  0 0.99978713E+03</rscale>
<asrwt>0</asrwt>
<pdfrwt beam="1">  1        2 0.24995344E+00 0.99978713E+03</pdfrwt>
<pdfrwt beam="2">  1       -2 0.23662970E-01 0.99978713E+03</pdfrwt>
<totfact> 0.20367443E+02</totfact>
</mgrwt>
</event>
<event>
 9    1  0.4369420E-036  0.9983655E+03  0.7818608E-02  0.8682596E-01
          2   -1    0    0  501    0  0.00000000000E+00  0.00000000000E+00  0.90026859650E+03  0.90026859650E+03  0.00000000000E+00 0. -1.
         -2   -1    0    0    0  501 -0.00000000000E+00 -0.00000000000E+00 -0.27678783523E+03  0.27678783523E+03  0.00000000000E+00 0. -1.
         36    2    1    2    0    0 -0.14210854715E-13  0.00000000000E+00  0.62348076127E+03  0.11770564317E+04  0.99836545604E+03 0.  0.
         25    2    3    3    0    0  0.30896280122E+02  0.13450545611E+03  0.13518734356E+03  0.22987773874E+03  0.12458675316E+03 0.  0.
         35    2    3    3    0    0 -0.30896280122E+02 -0.13450545611E+03  0.48829341771E+03  0.94717869299E+03  0.79979417154E+03 0.  0.
         22    1    5    5    0    0  0.16659030629E+03  0.26036359861E+03  0.38505236773E+03  0.49376802198E+03  0.00000000000E+00 0. -1.
         22    1    5    5    0    0 -0.19748658642E+03 -0.39486905472E+03  0.10324104998E+03  0.45341067102E+03  0.00000000000E+00 0. -1.
          5    1    4    4  502    0 -0.48504042469E+02  0.50356110746E+02  0.53788434965E+02  0.88338359512E+02  0.47000000000E+01 0. -1.
         -5    1    4    4    0  502  0.79400322590E+02  0.84149345364E+02  0.81398908592E+02  0.14153937923E+03  0.47000000000E+01 0. -1.
<mgrwt>
<rscale>  0 0.99836546E+03</rscale>
<asrwt>0</asrwt>
<pdfrwt beam="1">  1        2 0.13850286E+00 0.99836546E+03</pdfrwt>
<pdfrwt beam="2">  1       -2 0.42582744E-01 0.99836546E+03</pdfrwt>
<totfact> 0.18534301E+02</totfact>
</mgrwt>
</event>
<event>
 9    1  0.4369420E-036  0.1000945E+04  0.7818608E-02  0.8680138E-01
         -2   -1    0    0    0  501 -0.00000000000E+00  0.00000000000E+00  0.44560520690E+03  0.44560520690E+03  0.00000000000E+00 0. -1.
          2   -1    0    0  501    0  0.00000000000E+00 -0.00000000000E+00 -0.56209565612E+03  0.56209565612E+03  0.00000000000E+00 0. -1.
         36    2    1    2    0    0  0.28421709430E-13 -0.14210854715E-13 -0.11649044922E+03  0.10077008630E+04  0.10009450557E+04 0.  0.
         25    2    3    3    0    0  0.91547236032E+02  0.98857873536E+02  0.86300977538E+01  0.18368766338E+03  0.12455080693E+03 0.  0.
         35    2    3    3    0    0 -0.91547236032E+02 -0.98857873536E+02 -0.12512054697E+03  0.82401319964E+03  0.80323646974E+03 0.  0.
         22    1    5    5    0    0  0.18438020998E+03 -0.23058010350E+03 -0.34000739845E+03  0.45029798685E+03  0.00000000000E+00 0. -1.
         22    1    5    5    0    0 -0.27592744601E+03  0.13172222997E+03  0.21488685147E+03  0.37371521279E+03  0.00000000000E+00 0. -1.
          5    1    4    4  502    0  0.11380866448E+03  0.90367787669E+02 -0.19302458438E+02  0.14667455151E+03  0.47000000000E+01 0. -1.
         -5    1    4    4    0  502 -0.22261428453E+02  0.84900858667E+01  0.27932556192E+02  0.37013111869E+02  0.47000000000E+01 0. -1.
<mgrwt>
<rscale>  0 0.10009451E+04</rscale>
<asrwt>0</asrwt>
<pdfrwt beam="1">  1        2 0.86476254E-01 0.10009451E+04</pdfrwt>
<pdfrwt beam="2">  1       -2 0.68554648E-01 0.10009451E+04</pdfrwt>
<totfact> 0.12625158E+02</totfact>
</mgrwt>
</event>
<event>
 9    1  0.4369420E-036  0.1000399E+04  0.7818608E-02  0.8680658E-01
         -2   -1    0    0    0  501 -0.00000000000E+00  0.00000000000E+00  0.18858179168E+03  0.18858179168E+03  0.00000000000E+00 0.  1.
          2   -1    0    0  501    0  0.00000000000E+00 -0.00000000000E+00 -0.13267422476E+04  0.13267422476E+04  0.00000000000E+00 0.  1.
         36    2    1    2    0    0 -0.14210854715E-13  0.00000000000E+00 -0.11381604559E+04  0.15153240393E+04  0.10003987808E+04 0.  0.
         25    2    3    3    0    0  0.12769095415E+03  0.59963870034E+02 -0.17020665415E+03  0.25398296105E+03  0.12504556732E+03 0.  0.
         35    2    3    3    0    0 -0.12769095415E+03 -0.59963870034E+02 -0.96795380178E+03  0.12613410782E+04  0.79633291265E+03 0.  0.
         22    1    5    5    0    0 -0.10678165414E+03  0.35515496742E+02 -0.10951563745E+04  0.11009228660E+04  0.00000000000E+00 0. -1.
         22    1    5    5    0    0 -0.20909300010E+02 -0.95479366777E+02  0.12720257275E+03  0.16041821225E+03  0.00000000000E+00 0. -1.
          5    1    4    4  502    0  0.13226952959E+03  0.77999509981E+01 -0.14217711935E+03  0.19440290882E+03  0.47000000000E+01 0. -1.
         -5    1    4    4    0  502 -0.45785754337E+01  0.52163919036E+02 -0.28029534797E+02  0.59580052225E+02  0.47000000000E+01 0. -1.
<mgrwt>
<rscale>  0 0.10003988E+04</rscale>
<asrwt>0</asrwt>
<pdfrwt beam="1">  1        2 0.20411419E+00 0.10003988E+04</pdfrwt>
<pdfrwt beam="2">  1       -2 0.29012584E-01 0.10003988E+04</pdfrwt>
<totfact> 0.20898828E+02</totfact>
</mgrwt>
</event>
<event>
 9    1  0.4369420E-036  0.1000005E+04  0.7818608E-02  0.8681033E-01
          2   -1    0    0  501    0  0.00000000000E+00  0.00000000000E+00  0.13664188869E+04  0.13664188869E+04  0.00000000000E+00 0.  1.
         -2   -1    0    0    0  501 -0.00000000000E+00 -0.00000000000E+00 -0.18296196199E+03  0.18296196199E+03  0.00000000000E+00 0.  1.
         36    2    1    2    0    0  0.00000000000E+00 -0.14210854715E-13  0.11834569249E+04  0.15493808489E+04  0.10000053609E+04 0.  0.
         25    2    3    3    0    0 -0.37744091234E+02  0.93196519796E+02  0.37253017080E+03  0.40545531960E+03  0.12451939733E+03 0.  0.
         35    2    3    3    0    0  0.37744091234E+02 -0.93196519796E+02  0.81092675411E+03  0.11439255293E+04  0.80053307757E+03 0.  0.
         22    1    5    5    0    0  0.32427929637E+03  0.16751327286E+02  0.76826695999E+03  0.83406941607E+03  0.00000000000E+00 0. -1.
         22    1    5    5    0    0 -0.28653520513E+03 -0.10994784708E+03  0.42659794124E+02  0.30985611321E+03  0.00000000000E+00 0. -1.
          5    1    4    4  502    0 -0.14489779035E+02  0.16148603905E+02  0.28723095879E+03  0.28808756445E+03  0.47000000000E+01 0.  1.
         -5    1    4    4    0  502 -0.23254312200E+02  0.77047915890E+02  0.85299212004E+02  0.11736775514E+03  0.47000000000E+01 0.  1.
<mgrwt>
<rscale>  0 0.10000054E+04</rscale>
<asrwt>0</asrwt>
<pdfrwt beam="1">  1        2 0.21021828E+00 0.10000054E+04</pdfrwt>
<pdfrwt beam="2">  1       -2 0.28147995E-01 0.10000054E+04</pdfrwt>
<totfact> 0.20944303E+02</totfact>
</mgrwt>
</event>
<event>
 9    1  0.4369420E-036  0.1000238E+04  0.7818608E-02  0.8680811E-01
          2   -1    0    0  501    0  0.00000000000E+00  0.00000000000E+00  0.22124945624E+03  0.22124945624E+03  0.00000000000E+00 0. -1.
         -2   -1    0    0    0  501 -0.00000000000E+00 -0.00000000000E+00 -0.11304845699E+04  0.11304845699E+04  0.00000000000E+00 0. -1.
         36    2    1    2    0    0  0.42632564146E-13  0.00000000000E+00 -0.90923511367E+03  0.13517340262E+04  0.10002381644E+04 0.  0.
         25    2    3    3    0    0  0.12247245461E+03 -0.65998929482E+02 -0.13954697597E+03  0.23259231753E+03  0.12357373037E+03 0.  0.
         35    2    3    3    0    0 -0.12247245461E+03  0.65998929482E+02 -0.76968813770E+03  0.11191417086E+04  0.80043923807E+03 0.  0.
         22    1    5    5    0    0  0.21612720333E+03 -0.10327159620E+03  0.23067340858E+02  0.24064100402E+03  0.00000000000E+00 0. -1.
         22    1    5    5    0    0 -0.33859965794E+03  0.16927052568E+03 -0.79275547856E+03  0.87850070461E+03  0.00000000000E+00 0. -1.
          5    1    4    4  502    0  0.12078038175E+03 -0.12509919023E+02 -0.57286796096E+02  0.13434383386E+03  0.47000000000E+01 0.  1.
         -5    1    4    4    0  502  0.16920728679E+01 -0.53489010460E+02 -0.82260179872E+02  0.98248483668E+02  0.47000000000E+01 0.  1.
<mgrwt>
<rscale>  0 0.10002382E+04</rscale>
<asrwt>0</asrwt>
<pdfrwt beam="1">  1        2 0.34038378E-01 0.10002382E+04</pdfrwt>
<pdfrwt beam="2">  1       -2 0.17392070E+00 0.10002382E+04</pdfrwt>
<totfact> 0.34226490E+01</totfact>
</mgrwt>
</event>
<event>
 9    1  0.4369420E-036  0.1000208E+04  0.7818608E-02  0.8680840E-01
          2   -1    0    0  501    0  0.00000000000E+00  0.00000000000E+00  0.63463747298E+03  0.63463747298E+03  0.00000000000E+00 0. -1.
         -2   -1    0    0    0  501 -0.00000000000E+00 -0.00000000000E+00 -0.39408987547E+03  0.39408987547E+03  0.00000000000E+00 0. -1.
         36    2    1    2    0    0  0.00000000000E+00  0.00000000000E+00  0.24054759751E+03  0.10287273485E+04  0.10002083837E+04 0.  0.
         25    2    3    3    0    0  0.12232850172E+03  0.25008808138E+02 -0.21643353723E+02  0.17817604778E+03  0.12525400761E+03 0.  0.
         35    2    3    3    0    0 -0.12232850172E+03 -0.25008808138E+02  0.26219095124E+03  0.85055130067E+03  0.79943962708E+03 0.  0.
         22    1    5    5    0    0  0.79503922411E+02 -0.95511194809E+02 -0.25897011365E+03  0.28724341904E+03  0.00000000000E+00 0. -1.
         22    1    5    5    0    0 -0.20183242413E+03  0.70502386671E+02  0.52116106489E+03  0.56330788164E+03  0.00000000000E+00 0. -1.
          5    1    4    4  502    0  0.12620912046E+03  0.11733423010E+02  0.25015730981E+02  0.12928376580E+03  0.47000000000E+01 0. -1.
         -5    1    4    4    0  502 -0.38806187332E+01  0.13275385128E+02 -0.46659084704E+02  0.48892281983E+02  0.47000000000E+01 0. -1.
<mgrwt>
<rscale>  0 0.10002084E+04</rscale>
<asrwt>0</asrwt>
<pdfrwt beam="1">  1        2 0.97636534E-01 0.10002084E+04</pdfrwt>
<pdfrwt beam="2">  1       -2 0.60629212E-01 0.10002084E+04</pdfrwt>
<totfact> 0.14195000E+02</totfact>
</mgrwt>
</event>
<event>
 9    1  0.4369420E-036  0.9998204E+03  0.7818608E-02  0.8681209E-01
          2   -1    0    0  501    0  0.00000000000E+00  0.00000000000E+00  0.31760220076E+04  0.31760220076E+04  0.00000000000E+00 0. -1.
         -2   -1    0    0    0  501 -0.00000000000E+00 -0.00000000000E+00 -0.78686552837E+02  0.78686552837E+02  0.00000000000E+00 0. -1.
         36    2    1    2    0    0  0.28421709430E-13 -0.71054273576E-14  0.30973354548E+04  0.32547085605E+04  0.99982043091E+03 0.  0.
         25    2    3    3    0    0 -0.33398826833E+02  0.35217405637E+02  0.10035241670E+04  0.10127169413E+04  0.12719709965E+03 0.  0.
         35    2    3    3    0    0  0.33398826833E+02 -0.35217405637E+02  0.20938112878E+04  0.22419916192E+04  0.80007809882E+03 0.  0.
         22    1    5    5    0    0  0.27679017505E+03  0.14538600381E+02  0.19173314437E+04  0.19372619949E+04  0.00000000000E+00 0. -1.
         22    1    5    5    0    0 -0.24339134822E+03 -0.49756006017E+02  0.17647984407E+03  0.30472962423E+03  0.00000000000E+00 0. -1.
          5    1    4    4  502    0  0.45888089655E+02  0.25831526972E+02  0.51278401933E+03  0.51550220663E+03  0.47000000000E+01 0. -1.
         -5    1    4    4    0  502 -0.79286916487E+02  0.93858786645E+01  0.49074014766E+03  0.49721473467E+03  0.47000000000E+01 0. -1.
<mgrwt>
<rscale>  0 0.99982043E+03</rscale>
<asrwt>0</asrwt>
<pdfrwt beam="1">  1        2 0.48861867E+00 0.99982043E+03</pdfrwt>
<pdfrwt beam="2">  1       -2 0.12105626E-01 0.99982043E+03</pdfrwt>
<totfact> 0.72498599E+01</totfact>
</mgrwt>
</event>
<event>
 9    1  0.4369420E-036  0.1001366E+04  0.7818608E-02  0.8679738E-01
          1   -1    0    0  501    0  0.00000000000E+00  0.00000000000E+00  0.88602986892E+03  0.88602986892E+03  0.00000000000E+00 0. -1.
         -1   -1    0    0    0  501 -0.00000000000E+00 -0.00000000000E+00 -0.28292884196E+03  0.28292884196E+03  0.00000000000E+00 0. -1.
         36    2    1    2    0    0  0.00000000000E+00 -0.14210854715E-13  0.60310102696E+03  0.11689587109E+04  0.10013658767E+04 0.  0.
         25    2    3    3    0    0 -0.98213550756E+02  0.48466003198E+02  0.16414531434E+02  0.17087809875E+03  0.13013467168E+03 0.  0.
         35    2    3    3    0    0  0.98213550756E+02 -0.48466003198E+02  0.58668649553E+03  0.99808061213E+03  0.79998063055E+03 0.  0.
         22    1    5    5    0    0 -0.53910274059E+02  0.10000141070E+03  0.73188968263E+03  0.74065451280E+03  0.00000000000E+00 0. -1.
         22    1    5    5    0    0  0.15212382481E+03 -0.14846741390E+03 -0.14520318711E+03  0.25742609932E+03  0.00000000000E+00 0. -1.
          5    1    4    4  502    0 -0.10604935360E+03  0.70864949848E+02  0.43236778349E+02  0.13475835973E+03  0.47000000000E+01 0. -1.
         -5    1    4    4    0  502  0.78358028422E+01 -0.22398946650E+02 -0.26822246914E+02  0.36119739018E+02  0.47000000000E+01 0. -1.
<mgrwt>
<rscale>  0 0.10013659E+04</rscale>
<asrwt>0</asrwt>
<pdfrwt beam="1">  1        1 0.13631229E+00 0.10013659E+04</pdfrwt>
<pdfrwt beam="2">  1       -1 0.43527515E-01 0.10013659E+04</pdfrwt>
<totfact> 0.11002244E+02</totfact>
</mgrwt>
</event>
<event>
 9    1  0.4369420E-036  0.1000341E+04  0.7818608E-02  0.8680713E-01
          4   -1    0    0  501    0  0.00000000000E+00  0.00000000000E+00  0.41481406427E+03  0.41481406427E+03  0.00000000000E+00 0.  1.
         -4   -1    0    0    0  501 -0.00000000000E+00 -0.00000000000E+00 -0.60309099553E+03  0.60309099553E+03  0.00000000000E+00 0.  1.
         36    2    1    2    0    0  0.00000000000E+00  0.00000000000E+00 -0.18827693127E+03  0.10179050598E+04  0.10003411958E+04 0.  0.
         25    2    3    3    0    0  0.13429048490E+03  0.18631335362E+02 -0.49042291912E+02  0.19499930965E+03  0.13129555734E+03 0.  0.
         35    2    3    3    0    0 -0.13429048490E+03 -0.18631335362E+02 -0.13923463935E+03  0.82290575015E+03  0.79962899387E+03 0.  0.
         22    1    5    5    0    0  0.31721064750E+03  0.49095719358E+02  0.56925699435E+02  0.32599619599E+03  0.00000000000E+00 0. -1.
         22    1    5    5    0    0 -0.45150113240E+03 -0.67727054720E+02 -0.19616033879E+03  0.49690955416E+03  0.00000000000E+00 0. -1.
          5    1    4    4  502    0 -0.18465227333E+00  0.15807315145E+02 -0.57820387594E+02  0.60126471126E+02  0.47000000000E+01 0.  1.
         -5    1    4    4    0  502  0.13447513718E+03  0.28240202176E+01  0.87780956814E+01  0.13487283853E+03  0.47000000000E+01 0.  1.
<mgrwt>
<rscale>  0 0.10003412E+04</rscale>
<asrwt>0</asrwt>
<pdfrwt beam="1">  1        4 0.63817549E-01 0.10003412E+04</pdfrwt>
<pdfrwt beam="2">  1       -4 0.92783229E-01 0.10003412E+04</pdfrwt>
<totfact> 0.51260732E+00</totfact>
</mgrwt>
</event>
<event>
 9    1  0.4369420E-036  0.1000056E+04  0.7818608E-02  0.8680984E-01
         -2   -1    0    0    0  501 -0.00000000000E+00  0.00000000000E+00  0.11546134025E+03  0.11546134025E+03  0.00000000000E+00 0. -1.
          2   -1    0    0  501    0  0.00000000000E+00 -0.00000000000E+00 -0.21654715027E+04  0.21654715027E+04  0.00000000000E+00 0. -1.
         36    2    1    2    0    0  0.71054273576E-14  0.00000000000E+00 -0.20500101624E+04  0.22809328429E+04  0.10000564824E+04 0.  0.
         25    2    3    3    0    0  0.55044089936E+02  0.10272676766E+03 -0.56475748571E+03  0.58992191230E+03  0.12439535491E+03 0.  0.
         35    2    3    3    0    0 -0.55044089936E+02 -0.10272676766E+03 -0.14852526767E+04  0.16910109306E+04  0.79997488284E+03 0.  0.
         22    1    5    5    0    0  0.53416451737E+02 -0.26026272480E+03 -0.14757893530E+04  0.14995146607E+04  0.00000000000E+00 0. -1.
         22    1    5    5    0    0 -0.10846054167E+03  0.15753595714E+03 -0.94633236972E+01  0.19149626990E+03  0.00000000000E+00 0. -1.
          5    1    4    4  502    0  0.46224481324E+02 -0.16849401754E+02 -0.19586255076E+03  0.20200206386E+03  0.47000000000E+01 0.  1.
         -5    1    4    4    0  502  0.88196086114E+01  0.11957616941E+03 -0.36889493494E+03  0.38791984844E+03  0.47000000000E+01 0.  1.
<mgrwt>
<rscale>  0 0.10000565E+04</rscale>
<asrwt>0</asrwt>
<pdfrwt beam="1">  1        2 0.33314946E+00 0.10000565E+04</pdfrwt>
<pdfrwt beam="2">  1       -2 0.17763283E-01 0.10000565E+04</pdfrwt>
<totfact> 0.16515698E+02</totfact>
</mgrwt>
</event>
<event>
 9    1  0.4369420E-036  0.1001111E+04  0.7818608E-02  0.8679981E-01
         -1   -1    0    0    0  501 -0.00000000000E+00  0.00000000000E+00  0.16005934212E+03  0.16005934212E+03  0.00000000000E+00 0.  1.
          1   -1    0    0  501    0  0.00000000000E+00 -0.00000000000E+00 -0.15653936918E+04  0.15653936918E+04  0.00000000000E+00 0.  1.
         36    2    1    2    0    0  0.00000000000E+00 -0.14210854715E-13 -0.14053343497E+04  0.17254530339E+04  0.10011111516E+04 0.  0.
         25    2    3    3    0    0 -0.65218826133E+02  0.12442424854E+03 -0.26621172377E+03  0.32605520127E+03  0.12533324976E+03 0.  0.
         35    2    3    3    0    0  0.65218826133E+02 -0.12442424854E+03 -0.11391226259E+04  0.13993978327E+04  0.80061167132E+03 0.  0.
         22    1    5    5    0    0 -0.12296590934E+03  0.16694740616E+03  0.13457081385E+01  0.20734961349E+03  0.00000000000E+00 0. -1.
         22    1    5    5    0    0  0.18818473547E+03 -0.29137165470E+03 -0.11404683341E+04  0.11920482192E+04  0.00000000000E+00 0. -1.
          5    1    4    4  502    0 -0.97298028908E+02  0.12092702602E+03 -0.22744291190E+03  0.27539538890E+03  0.47000000000E+01 0. -1.
         -5    1    4    4    0  502  0.32079202775E+02  0.34972225168E+01 -0.38768811868E+02  0.50659812373E+02  0.47000000000E+01 0. -1.
<mgrwt>
<rscale>  0 0.10011112E+04</rscale>
<asrwt>0</asrwt>
<pdfrwt beam="1">  1        1 0.24082981E+00 0.10011112E+04</pdfrwt>
<pdfrwt beam="2">  1       -1 0.24624513E-01 0.10011112E+04</pdfrwt>
<totfact> 0.91076368E+01</totfact>
</mgrwt>
</event>
<event>
 9    1  0.4369420E-036  0.1000003E+04  0.7818608E-02  0.8681035E-01
         -2   -1    0    0    0  501 -0.00000000000E+00  0.00000000000E+00  0.12964175864E+04  0.12964175864E+04  0.00000000000E+00 0. -1.
          2   -1    0    0  501    0  0.00000000000E+00 -0.00000000000E+00 -0.19284014521E+03  0.19284014521E+03  0.00000000000E+00 0. -1.
         36    2    1    2    0    0 -0.35527136788E-14  0.00000000000E+00  0.11035774412E+04  0.14892577316E+04  0.10000027112E+04 0.  0.
         25    2    3    3    0    0  0.16579095449E+02 -0.77397262747E+02  0.38146306118E+03  0.40898955355E+03  0.12447162401E+03 0.  0.
         35    2    3    3    0    0 -0.16579095449E+02  0.77397262747E+02  0.72211438004E+03  0.10802681781E+04  0.79954046554E+03 0.  0.
         22    1    5    5    0    0  0.37641802233E+02 -0.34933748222E+03  0.45132246533E+03  0.57196638841E+03  0.00000000000E+00 0. -1.
         22    1    5    5    0    0 -0.54220897681E+02  0.42673474497E+03  0.27079191471E+03  0.50830178967E+03  0.00000000000E+00 0. -1.
          5    1    4    4  502    0 -0.83153809202E+01 -0.79014790127E+02  0.10700037978E+03  0.13335536694E+03  0.47000000000E+01 0.  1.
         -5    1    4    4    0  502  0.24894476369E+02  0.16175273801E+01  0.27446268139E+03  0.27563418660E+03  0.47000000000E+01 0.  1.
<mgrwt>
<rscale>  0 0.10000027E+04</rscale>
<asrwt>0</asrwt>
<pdfrwt beam="1">  1        2 0.29667716E-01 0.10000027E+04</pdfrwt>
<pdfrwt beam="2">  1       -2 0.19944885E+00 0.10000027E+04</pdfrwt>
<totfact> 0.26350322E+01</totfact>
</mgrwt>
</event>
<event>
 9    1  0.4369420E-036  0.9997456E+03  0.7818608E-02  0.8681280E-01
          2   -1    0    0  501    0  0.00000000000E+00  0.00000000000E+00  0.23730669340E+04  0.23730669340E+04  0.00000000000E+00 0.  1.
         -2   -1    0    0    0  501 -0.00000000000E+00 -0.00000000000E+00 -0.10529530103E+03  0.10529530103E+03  0.00000000000E+00 0.  1.
         36    2    1    2    0    0  0.14210854715E-13  0.71054273576E-14  0.22677716329E+04  0.24783622350E+04  0.99974556199E+03 0.  0.
         25    2    3    3    0    0 -0.31798699851E+02  0.33322127285E+02  0.91544959816E+02  0.16035655108E+03  0.12333783818E+03 0.  0.
         35    2    3    3    0    0  0.31798699851E+02 -0.33322127285E+02  0.21762266731E+04  0.23180056839E+04  0.79691046952E+03 0.  0.
         22    1    5    5    0    0 -0.30682547908E+03  0.11497747914E+03  0.47482216836E+03  0.57690362010E+03  0.00000000000E+00 0.  1.
         22    1    5    5    0    0  0.33862417893E+03 -0.14829960643E+03  0.17014045048E+04  0.17411020638E+04  0.00000000000E+00 0.  1.
          5    1    4    4  502    0  0.27573143878E+02  0.12545292711E+02 -0.16822625466E+02  0.34967890415E+02  0.47000000000E+01 0. -1.
         -5    1    4    4    0  502 -0.59371843728E+02  0.20776834573E+02  0.10836758528E+03  0.12538866066E+03  0.47000000000E+01 0. -1.
<mgrwt>
<rscale>  0 0.99974556E+03</rscale>
<asrwt>0</asrwt>
<pdfrwt beam="1">  1        2 0.36508718E+00 0.99974556E+03</pdfrwt>
<pdfrwt beam="2">  1       -2 0.16199279E-01 0.99974556E+03</pdfrwt>
<totfact> 0.14588552E+02</totfact>
</mgrwt>
</event>
<event>
 9    1  0.4369420E-036  0.1001268E+04  0.7818608E-02  0.8679831E-01
          2   -1    0    0  501    0  0.00000000000E+00  0.00000000000E+00  0.15375842231E+04  0.15375842231E+04  0.00000000000E+00 0. -1.
         -2   -1    0    0    0  501 -0.00000000000E+00 -0.00000000000E+00 -0.16300533288E+03  0.16300533288E+03  0.00000000000E+00 0. -1.
         36    2    1    2    0    0  0.14210854715E-13  0.71054273576E-14  0.13745788902E+04  0.17005895560E+04  0.10012680523E+04 0.  0.
         25    2    3    3    0    0  0.11792845275E+03 -0.63018205366E+02  0.17459604001E+03  0.25331461762E+03  0.12572232950E+03 0.  0.
         35    2    3    3    0    0 -0.11792845275E+03  0.63018205366E+02  0.11999828502E+04  0.14472749383E+04  0.79797712514E+03 0.  0.
         22    1    5    5    0    0  0.11162876567E+03  0.39217884621E+03  0.59726175853E+03  0.72317828849E+03  0.00000000000E+00 0.  1.
         22    1    5    5    0    0 -0.22955721842E+03 -0.32916064084E+03  0.60272109165E+03  0.72409664986E+03  0.00000000000E+00 0.  1.
          5    1    4    4  502    0  0.10168936219E+03 -0.94995198186E+02  0.10331275205E+03  0.17337943591E+03  0.47000000000E+01 0. -1.
         -5    1    4    4    0  502  0.16239090564E+02  0.31976992820E+02  0.71283287962E+02  0.79935181709E+02  0.47000000000E+01 0. -1.
<mgrwt>
<rscale>  0 0.10012681E+04</rscale>
<asrwt>0</asrwt>
<pdfrwt beam="1">  1        2 0.23655141E+00 0.10012681E+04</pdfrwt>
<pdfrwt beam="2">  1       -2 0.25077745E-01 0.10012681E+04</pdfrwt>
<totfact> 0.20581742E+02</totfact>
</mgrwt>
</event>
<event>
 9    1  0.4369420E-036  0.9984782E+03  0.7818608E-02  0.8682488E-01
          2   -1    0    0  501    0  0.00000000000E+00  0.00000000000E+00  0.96010424677E+03  0.96010424677E+03  0.00000000000E+00 0. -1.
         -2   -1    0    0    0  501 -0.00000000000E+00 -0.00000000000E+00 -0.25959649738E+03  0.25959649738E+03  0.00000000000E+00 0. -1.
         36    2    1    2    0    0 -0.42632564146E-13  0.14210854715E-13  0.70050774939E+03  0.12197007441E+04  0.99847824128E+03 0.  0.
         25    2    3    3    0    0 -0.53884367337E+02 -0.59617184379E+02 -0.81070915161E+01  0.14738869143E+03  0.12328814911E+03 0.  0.
         35    2    3    3    0    0  0.53884367337E+02  0.59617184379E+02  0.70861484090E+03  0.10723120527E+04  0.80078736999E+03 0.  0.
         22    1    5    5    0    0  0.36629925261E+03  0.23728143726E+03  0.46731660281E+03  0.63942351395E+03  0.00000000000E+00 0.  1.
         22    1    5    5    0    0 -0.31241488527E+03 -0.17766425288E+03  0.24129823809E+03  0.43288853877E+03  0.00000000000E+00 0.  1.
          5    1    4    4  502    0 -0.25368089495E+02  0.53063483478E+01 -0.55867331930E+02  0.61765249732E+02  0.47000000000E+01 0. -1.
         -5    1    4    4    0  502 -0.28516277843E+02 -0.64923532727E+02  0.47760240414E+02  0.85623441698E+02  0.47000000000E+01 0. -1.
<mgrwt>
<rscale>  0 0.99847824E+03</rscale>
<asrwt>0</asrwt>
<pdfrwt beam="1">  1        2 0.14770834E+00 0.99847824E+03</pdfrwt>
<pdfrwt beam="2">  1       -2 0.39937923E-01 0.99847824E+03</pdfrwt>
<totfact> 0.19176863E+02</totfact>
</mgrwt>
</event>
<event>
 9    1  0.4369420E-036  0.9984487E+03  0.7818608E-02  0.8682517E-01
          3   -1    0    0  501    0  0.00000000000E+00  0.00000000000E+00  0.50053770977E+03  0.50053770977E+03  0.00000000000E+00 0.  1.
         -3   -1    0    0    0  501 -0.00000000000E+00 -0.00000000000E+00 -0.49791448200E+03  0.49791448200E+03  0.00000000000E+00 0.  1.
         36    2    1    2    0    0  0.00000000000E+00  0.28421709430E-13  0.26232277715E+01  0.99845219177E+03  0.99844874577E+03 0.  0.
         25    2    3    3    0    0  0.79105130409E+02 -0.11379154467E+03  0.13196216341E+02  0.18740217581E+03  0.12545635924E+03 0.  0.
         35    2    3    3    0    0 -0.79105130409E+02  0.11379154467E+03 -0.10572988569E+02  0.81105001597E+03  0.79905206527E+03 0.  0.
         22    1    5    5    0    0 -0.15031681591E+03 -0.23689413511E+03  0.24405914279E+03  0.37185863117E+03  0.00000000000E+00 0. -1.
         22    1    5    5    0    0  0.71211685500E+02  0.35068567978E+03 -0.25463213136E+03  0.43919138480E+03  0.00000000000E+00 0. -1.
          5    1    4    4  502    0  0.14742685539E+02  0.15511460744E+02 -0.29470473065E+02  0.36722622102E+02  0.47000000000E+01 0. -1.
         -5    1    4    4    0  502  0.64362444870E+02 -0.12930300542E+03  0.42666689406E+02  0.15067955370E+03  0.47000000000E+01 0. -1.
<mgrwt>
<rscale>  0 0.99844875E+03</rscale>
<asrwt>0</asrwt>
<pdfrwt beam="1">  1        3 0.77005802E-01 0.99844875E+03</pdfrwt>
<pdfrwt beam="2">  1       -3 0.76602227E-01 0.99844875E+03</pdfrwt>
<totfact> 0.10100924E+01</totfact>
</mgrwt>
</event>
<event>
 9    1  0.4369420E-036  0.9999137E+03  0.7818608E-02  0.8681120E-01
          2   -1    0    0  501    0  0.00000000000E+00  0.00000000000E+00  0.53816701500E+03  0.53816701500E+03  0.00000000000E+00 0.  1.
         -2   -1    0    0    0  501 -0.00000000000E+00 -0.00000000000E+00 -0.46445958415E+03  0.46445958415E+03  0.00000000000E+00 0.  1.
         36    2    1    2    0    0  0.28421709430E-13  0.28421709430E-13  0.73707430852E+02  0.10026265992E+04  0.99991365226E+03 0.  0.
         25    2    3    3    0    0 -0.73762684507E+02  0.10950695248E+03  0.64301192967E+02  0.19361776873E+03  0.12617642681E+03 0.  0.
         35    2    3    3    0    0  0.73762684507E+02 -0.10950695248E+03  0.94062378850E+01  0.80900883043E+03  0.79810657442E+03 0.  0.
         22    1    5    5    0    0 -0.17249072855E+03  0.28614689510E+03 -0.54794731183E+02  0.33857873468E+03  0.00000000000E+00 0. -1.
         22    1    5    5    0    0  0.24625341306E+03 -0.39565384759E+03  0.64200969068E+02  0.47043009575E+03  0.00000000000E+00 0. -1.
          5    1    4    4  502    0 -0.99483077909E+02  0.38186562740E+02  0.37038943393E+02  0.11291177836E+03  0.47000000000E+01 0. -1.
         -5    1    4    4    0  502  0.25720393402E+02  0.71320389744E+02  0.27262249574E+02  0.80705990371E+02  0.47000000000E+01 0. -1.
<mgrwt>
<rscale>  0 0.99991365E+03</rscale>
<asrwt>0</asrwt>
<pdfrwt beam="1">  1        2 0.82794926E-01 0.99991365E+03</pdfrwt>
<pdfrwt beam="2">  1       -2 0.71455320E-01 0.99991365E+03</pdfrwt>
<totfact> 0.12137956E+02</totfact>
</mgrwt>
</event>
<event>
 9    1  0.4369420E-036  0.9982812E+03  0.7818608E-02  0.8682676E-01
         -2   -1    0    0    0  501 -0.00000000000E+00  0.00000000000E+00  0.23354798659E+04  0.23354798659E+04  0.00000000000E+00 0.  1.
          2   -1    0    0  501    0  0.00000000000E+00 -0.00000000000E+00 -0.10667672370E+03  0.10667672370E+03  0.00000000000E+00 0.  1.
         36    2    1    2    0    0  0.21316282073E-13  0.14210854715E-13  0.22288031422E+04  0.24421565896E+04  0.99828120361E+03 0.  0.
         25    2    3    3    0    0 -0.52336052640E+02 -0.12354171613E+03  0.50489562871E+03  0.53673144514E+03  0.12312363819E+03 0.  0.
         35    2    3    3    0    0  0.52336052640E+02  0.12354171613E+03  0.17239075134E+04  0.19054251444E+04  0.80049125421E+03 0.  0.
         22    1    5    5    0    0 -0.25589796089E+03 -0.14168150511E+03  0.12367021022E+04  0.12708223735E+04  0.00000000000E+00 0.  1.
         22    1    5    5    0    0  0.30823401353E+03  0.26522322124E+03  0.48720541124E+03  0.63460277097E+03  0.00000000000E+00 0.  1.
          5    1    4    4  502    0  0.32132686400E+02 -0.59840319543E+02  0.12485739440E+03  0.14221403698E+03  0.47000000000E+01 0. -1.
         -5    1    4    4    0  502 -0.84468739040E+02 -0.63701396586E+02  0.38003823432E+03  0.39451740816E+03  0.47000000000E+01 0. -1.
<mgrwt>
<rscale>  0 0.99828120E+03</rscale>
<asrwt>0</asrwt>
<pdfrwt beam="1">  1        2 0.16411805E-01 0.99828120E+03</pdfrwt>
<pdfrwt beam="2">  1       -2 0.35930456E+00 0.99828120E+03</pdfrwt>
<totfact> 0.61880851E+00</totfact>
</mgrwt>
</event>
<event>
 9    1  0.4369420E-036  0.9995690E+03  0.7818608E-02  0.8681448E-01
         -1   -1    0    0    0  501 -0.00000000000E+00  0.00000000000E+00  0.12519913869E+03  0.12519913869E+03  0.00000000000E+00 0.  1.
          1   -1    0    0  501    0  0.00000000000E+00 -0.00000000000E+00 -0.19950981268E+04  0.19950981268E+04  0.00000000000E+00 0.  1.
         36    2    1    2    0    0  0.00000000000E+00  0.17763568394E-13 -0.18698989881E+04  0.21202972655E+04  0.99956904129E+03 0.  0.
         25    2    3    3    0    0 -0.52826502059E+02 -0.31943817222E+02 -0.61965130773E+03  0.63544582376E+03  0.12654092219E+03 0.  0.
         35    2    3    3    0    0  0.52826502059E+02  0.31943817222E+02 -0.12502476803E+04  0.14848514417E+04  0.79865730756E+03 0.  0.
         22    1    5    5    0    0  0.17200556279E+03 -0.35555760127E+03 -0.58713825121E+03  0.70762874976E+03  0.00000000000E+00 0. -1.
         22    1    5    5    0    0 -0.11917906073E+03  0.38750141849E+03 -0.66310942913E+03  0.77722269193E+03  0.00000000000E+00 0. -1.
          5    1    4    4  502    0  0.29831324736E+02  0.25765740050E+02 -0.18971785863E+03  0.19382656469E+03  0.47000000000E+01 0.  1.
         -5    1    4    4    0  502 -0.82657826795E+02 -0.57709557272E+02 -0.42993344910E+03  0.44161925907E+03  0.47000000000E+01 0.  1.
<mgrwt>
<rscale>  0 0.99956904E+03</rscale>
<asrwt>0</asrwt>
<pdfrwt beam="1">  1        1 0.30693818E+00 0.99956904E+03</pdfrwt>
<pdfrwt beam="2">  1       -1 0.19261406E-01 0.99956904E+03</pdfrwt>
<totfact> 0.68315839E+01</totfact>
</mgrwt>
</event>
<event>
 9    1  0.4369420E-036  0.9990353E+03  0.7818608E-02  0.8681957E-01
          1   -1    0    0  501    0  0.00000000000E+00  0.00000000000E+00  0.12599160715E+04  0.12599160715E+04  0.00000000000E+00 0. -1.
         -1   -1    0    0    0  501 -0.00000000000E+00 -0.00000000000E+00 -0.19804325093E+03  0.19804325093E+03  0.00000000000E+00 0. -1.
         36    2    1    2    0    0  0.00000000000E+00  0.14210854715E-13  0.10618728206E+04  0.14579593224E+04  0.99903528407E+03 0.  0.
         25    2    3    3    0    0  0.48957920135E+02 -0.11224332490E+03  0.30545793164E+03  0.34991710904E+03  0.11892011295E+03 0.  0.
         35    2    3    3    0    0 -0.48957920135E+02  0.11224332490E+03  0.75641488892E+03  0.11080422134E+04  0.80037405040E+03 0.  0.
         22    1    5    5    0    0 -0.15026408364E+03 -0.16029742155E+02 -0.13447230273E+03  0.20228457101E+03  0.00000000000E+00 0.  1.
         22    1    5    5    0    0  0.10130616351E+03  0.12827306706E+03  0.89088719165E+03  0.90575764239E+03  0.00000000000E+00 0.  1.
          5    1    4    4  502    0  0.88330548394E+02 -0.77333138653E+02  0.22115887630E+03  0.25043170462E+03  0.47000000000E+01 0. -1.
         -5    1    4    4    0  502 -0.39372628259E+02 -0.34910186248E+02  0.84299055346E+02  0.99485404417E+02  0.47000000000E+01 0. -1.
<mgrwt>
<rscale>  0 0.99903528E+03</rscale>
<asrwt>0</asrwt>
<pdfrwt beam="1">  1        1 0.19383324E+00 0.99903528E+03</pdfrwt>
<pdfrwt beam="2">  1       -1 0.30468193E-01 0.99903528E+03</pdfrwt>
<totfact> 0.10534761E+02</totfact>
</mgrwt>
</event>
<event>
 9    1  0.4369420E-036  0.1001770E+04  0.7818608E-02  0.8679355E-01
          1   -1    0    0  501    0  0.00000000000E+00  0.00000000000E+00  0.10082426594E+04  0.10082426594E+04  0.00000000000E+00 0.  1.
         -1   -1    0    0    0  501 -0.00000000000E+00 -0.00000000000E+00 -0.24883454824E+03  0.24883454824E+03  0.00000000000E+00 0.  1.
         36    2    1    2    0    0  0.00000000000E+00  0.71054273576E-14  0.75940811116E+03  0.12570772076E+04  0.10017696475E+04 0.  0.
         25    2    3    3    0    0 -0.51371457721E+02 -0.23625290715E+02  0.30354573972E+03  0.33286486203E+03  0.12434556383E+03 0.  0.
         35    2    3    3    0    0  0.51371457721E+02  0.23625290715E+02  0.45586237144E+03  0.92421234561E+03  0.80197305258E+03 0.  0.
         22    1    5    5    0    0 -0.15504544576E+03 -0.33799444438E+03  0.12476111643E+03  0.39223037982E+03  0.00000000000E+00 0. -1.
         22    1    5    5    0    0  0.20641690348E+03  0.36161973510E+03  0.33110125501E+03  0.53198196579E+03  0.00000000000E+00 0. -1.
          5    1    4    4  502    0 -0.84316802534E+02  0.14352957845E+02  0.17776865153E+03  0.19732996238E+03  0.47000000000E+01 0.  1.
         -5    1    4    4    0  502  0.32945344814E+02 -0.37978248560E+02  0.12577708819E+03  0.13553489965E+03  0.47000000000E+01 0.  1.
<mgrwt>
<rscale>  0 0.10017696E+04</rscale>
<asrwt>0</asrwt>
<pdfrwt beam="1">  1        1 0.15511425E+00 0.10017696E+04</pdfrwt>
<pdfrwt beam="2">  1       -1 0.38282239E-01 0.10017696E+04</pdfrwt>
<totfact> 0.11005459E+02</totfact>
</mgrwt>
</event>
<event>
 9    1  0.4369420E-036  0.9986095E+03  0.7818608E-02  0.8682363E-01
          1   -1    0    0  501    0  0.00000000000E+00  0.00000000000E+00  0.65945049349E+03  0.65945049349E+03  0.00000000000E+00 0. -1.
         -1   -1    0    0    0  501 -0.00000000000E+00 -0.00000000000E+00 -0.37804995542E+03  0.37804995542E+03  0.00000000000E+00 0. -1.
         36    2    1    2    0    0  0.00000000000E+00  0.28421709430E-13  0.28140053807E+03  0.10375004489E+04  0.99860949258E+03 0.  0.
         25    2    3    3    0    0  0.68762380452E+02 -0.70456979667E+02  0.15698346754E+03  0.22203253482E+03  0.12232001672E+03 0.  0.
         35    2    3    3    0    0 -0.68762380452E+02  0.70456979667E+02  0.12441707053E+03  0.81546791409E+03  0.79988490455E+03 0.  0.
         22    1    5    5    0    0 -0.14985522473E+03  0.27911898776E+03  0.36736909539E+03  0.48510210261E+03  0.00000000000E+00 0.  1.
         22    1    5    5    0    0  0.81092844277E+02 -0.20866200809E+03 -0.24295202486E+03  0.33036581148E+03  0.00000000000E+00 0.  1.
          5    1    4    4  502    0  0.92498853341E+02 -0.71472438742E+02  0.81028017492E+02  0.14230944097E+03  0.47000000000E+01 0. -1.
         -5    1    4    4    0  502 -0.23736472889E+02  0.10154590741E+01  0.75955450045E+02  0.79723093856E+02  0.47000000000E+01 0. -1.
<mgrwt>
<rscale>  0 0.99860949E+03</rscale>
<asrwt>0</asrwt>
<pdfrwt beam="1">  1        1 0.10145392E+00 0.99860949E+03</pdfrwt>
<pdfrwt beam="2">  1       -1 0.58161532E-01 0.99860949E+03</pdfrwt>
<totfact> 0.10313024E+02</totfact>
</mgrwt>
</event>
<event>
 9    1  0.4369420E-036  0.1000044E+04  0.7818608E-02  0.8680996E-01
          2   -1    0    0  501    0  0.00000000000E+00  0.00000000000E+00  0.10060252505E+04  0.10060252505E+04  0.00000000000E+00 0. -1.
         -2   -1    0    0    0  501 -0.00000000000E+00 -0.00000000000E+00 -0.24852467293E+03  0.24852467293E+03  0.00000000000E+00 0. -1.
         36    2    1    2    0    0  0.28421709430E-13 -0.14210854715E-13  0.75750057761E+03  0.12545499235E+04  0.10000441917E+04 0.  0.
         25    2    3    3    0    0 -0.45006811785E+02  0.79311973709E+02  0.15499448730E+02  0.15912520195E+03  0.12947816304E+03 0.  0.
         35    2    3    3    0    0  0.45006811785E+02 -0.79311973709E+02  0.74200112888E+03  0.10954247215E+04  0.80067074568E+03 0.  0.
         22    1    5    5    0    0 -0.25960028687E+03 -0.75717811878E+02 -0.23599333592E+02  0.27144506723E+03  0.00000000000E+00 0. -1.
         22    1    5    5    0    0  0.30460709865E+03 -0.35941618313E+01  0.76560046247E+03  0.82397965429E+03  0.00000000000E+00 0. -1.
          5    1    4    4  502    0 -0.26314402389E+02  0.99751535436E+02  0.49912870820E+02  0.11470048504E+03  0.47000000000E+01 0.  1.
         -5    1    4    4    0  502 -0.18692409396E+02 -0.20439561727E+02 -0.34413422090E+02  0.44424716910E+02  0.47000000000E+01 0.  1.
<mgrwt>
<rscale>  0 0.10000442E+04</rscale>
<asrwt>0</asrwt>
<pdfrwt beam="1">  1        2 0.15477311E+00 0.10000442E+04</pdfrwt>
<pdfrwt beam="2">  1       -2 0.38234566E-01 0.10000442E+04</pdfrwt>
<totfact> 0.19488816E+02</totfact>
</mgrwt>
</event>
<event>
 9    1  0.4369420E-036  0.9986484E+03  0.7818608E-02  0.8682326E-01
         -1   -1    0    0    0  501 -0.00000000000E+00  0.00000000000E+00  0.12208833950E+04  0.12208833950E+04  0.00000000000E+00 0. -1.
          1   -1    0    0  501    0  0.00000000000E+00 -0.00000000000E+00 -0.20421661742E+03  0.20421661742E+03  0.00000000000E+00 0. -1.
         36    2    1    2    0    0  0.00000000000E+00 -0.21316282073E-13  0.10166667776E+04  0.14251000124E+04  0.99864844102E+03 0.  0.
         25    2    3    3    0    0 -0.95230630479E+02 -0.11678436896E+02  0.33426540324E+03  0.36904724579E+03  0.12352024513E+03 0.  0.
         35    2    3    3    0    0  0.95230630479E+02  0.11678436896E+02  0.68240137432E+03  0.10560527666E+04  0.80023156106E+03 0.  0.
         22    1    5    5    0    0 -0.15152129679E+03  0.35144805459E+03  0.27764635862E+03  0.47282336967E+03  0.00000000000E+00 0. -1.
         22    1    5    5    0    0  0.24675192727E+03 -0.33976961769E+03  0.40475501570E+03  0.58322939694E+03  0.00000000000E+00 0. -1.
          5    1    4    4  502    0 -0.43810697041E+01 -0.54911202857E+02  0.13128749189E+03  0.14245325373E+03  0.47000000000E+01 0. -1.
         -5    1    4    4    0  502 -0.90849560775E+02  0.43232765961E+02  0.20297791135E+03  0.22659399207E+03  0.47000000000E+01 0. -1.
<mgrwt>
<rscale>  0 0.99864844E+03</rscale>
<asrwt>0</asrwt>
<pdfrwt beam="1">  1        1 0.31417942E-01 0.99864844E+03</pdfrwt>
<pdfrwt beam="2">  1       -1 0.18782821E+00 0.99864844E+03</pdfrwt>
<totfact> 0.28576772E+01</totfact>
</mgrwt>
</event>
<event>
 9    1  0.4369420E-036  0.1000620E+04  0.7818608E-02  0.8680447E-01
          2   -1    0    0  501    0  0.00000000000E+00  0.00000000000E+00  0.23136983224E+04  0.23136983224E+04  0.00000000000E+00 0.  1.
         -2   -1    0    0    0  501 -0.00000000000E+00 -0.00000000000E+00 -0.10818621133E+03  0.10818621133E+03  0.00000000000E+00 0.  1.
         36    2    1    2    0    0  0.00000000000E+00 -0.35527136788E-14  0.22055121111E+04  0.24218845337E+04  0.10006203189E+04 0.  0.
         25    2    3    3    0    0 -0.13664162899E+03 -0.25337053178E+02  0.34670219120E+03  0.39350295277E+03  0.12381140261E+03 0.  0.
         35    2    3    3    0    0  0.13664162899E+03  0.25337053178E+02  0.18588099199E+04  0.20283815809E+04  0.79990288081E+03 0.  0.
         22    1    5    5    0    0  0.41460842995E+03 -0.10107264278E+03  0.62123030105E+03  0.75368621869E+03  0.00000000000E+00 0. -1.
         22    1    5    5    0    0 -0.27796680096E+03  0.12640969596E+03  0.12375796188E+04  0.12746953622E+04  0.00000000000E+00 0. -1.
          5    1    4    4  502    0 -0.29823511589E+02  0.18768283403E+02  0.21628373109E+03  0.21918584042E+03  0.47000000000E+01 0. -1.
         -5    1    4    4    0  502 -0.10681811740E+03 -0.44105336581E+02  0.13041846011E+03  0.17431711235E+03  0.47000000000E+01 0. -1.
<mgrwt>
<rscale>  0 0.10006203E+04</rscale>
<asrwt>0</asrwt>
<pdfrwt beam="1">  1        2 0.35595355E+00 0.10006203E+04</pdfrwt>
<pdfrwt beam="2">  1       -2 0.16644034E-01 0.10006203E+04</pdfrwt>
<totfact> 0.15111713E+02</totfact>
</mgrwt>
</event>
<event>
 9    1  0.4369420E-036  0.1000463E+04  0.7818608E-02  0.8680597E-01
          2   -1    0    0  501    0  0.00000000000E+00  0.00000000000E+00  0.36255900581E+03  0.36255900581E+03  0.00000000000E+00 0.  1.
         -2   -1    0    0    0  501 -0.00000000000E+00 -0.00000000000E+00 -0.69018225412E+03  0.69018225412E+03  0.00000000000E+00 0.  1.
         36    2    1    2    0    0 -0.14210854715E-13  0.00000000000E+00 -0.32762324831E+03  0.10527412599E+04  0.10004634764E+04 0.  0.
         25    2    3    3    0    0 -0.82650160154E+02 -0.12684726035E+03 -0.58854225700E+02  0.20248575445E+03  0.12089410425E+03 0.  0.
         35    2    3    3    0    0  0.82650160154E+02  0.12684726035E+03 -0.26876902261E+03  0.85025550547E+03  0.79232339398E+03 0.  0.
         22    1    5    5    0    0 -0.13734601338E+03  0.36988104326E+03  0.44205150253E+02  0.39702645865E+03  0.00000000000E+00 0.  1.
         22    1    5    5    0    0  0.21999617353E+03 -0.24303378292E+03 -0.31297417287E+03  0.45322904683E+03  0.00000000000E+00 0.  1.
          5    1    4    4  502    0 -0.97293068237E+02 -0.12859211367E+03 -0.76900816707E+02  0.17871121519E+03  0.47000000000E+01 0.  1.
         -5    1    4    4    0  502  0.14642908083E+02  0.17448533223E+01  0.18046591006E+02  0.23774539263E+02  0.47000000000E+01 0.  1.
<mgrwt>
<rscale>  0 0.10004635E+04</rscale>
<asrwt>0</asrwt>
<pdfrwt beam="1">  1        2 0.55778309E-01 0.10004635E+04</pdfrwt>
<pdfrwt beam="2">  1       -2 0.10618188E+00 0.10004635E+04</pdfrwt>
<totfact> 0.75152035E+01</totfact>
</mgrwt>
</event>
<event>
 9    1  0.4369420E-036  0.1002374E+04  0.7818608E-02  0.8678781E-01
          1   -1    0    0  501    0  0.00000000000E+00  0.00000000000E+00  0.10255999038E+04  0.10255999038E+04  0.00000000000E+00 0.  1.
         -1   -1    0    0    0  501 -0.00000000000E+00 -0.00000000000E+00 -0.24491828934E+03  0.24491828934E+03  0.00000000000E+00 0.  1.
         36    2    1    2    0    0 -0.71054273576E-14  0.00000000000E+00  0.78068161443E+03  0.12705181931E+04  0.10023735311E+04 0.  0.
         25    2    3    3    0    0  0.41204319258E+02 -0.12832353018E+03  0.95188713897E+02  0.20805039749E+03  0.12672549989E+03 0.  0.
         35    2    3    3    0    0 -0.41204319258E+02  0.12832353018E+03  0.68549290053E+03  0.10624677956E+04  0.80048271418E+03 0.  0.
         22    1    5    5    0    0 -0.28400633739E+02  0.13663045312E+03 -0.16257943460E+03  0.21425813700E+03  0.00000000000E+00 0.  1.
         22    1    5    5    0    0 -0.12803685520E+02 -0.83069229470E+01  0.84807233513E+03  0.84820965861E+03  0.00000000000E+00 0.  1.
          5    1    4    4  502    0  0.26499228322E+02 -0.99921495862E+02 -0.41688044948E+01  0.10356632352E+03  0.47000000000E+01 0.  1.
         -5    1    4    4    0  502  0.14705090936E+02 -0.28402034313E+02  0.99357518391E+02  0.10448407397E+03  0.47000000000E+01 0.  1.
<mgrwt>
<rscale>  0 0.10023735E+04</rscale>
<asrwt>0</asrwt>
<pdfrwt beam="1">  1        1 0.15778460E+00 0.10023735E+04</pdfrwt>
<pdfrwt beam="2">  1       -1 0.37679738E-01 0.10023735E+04</pdfrwt>
<totfact> 0.10966229E+02</totfact>
</mgrwt>
</event>
<event>
 9    1  0.4369420E-036  0.1000188E+04  0.7818608E-02  0.8680859E-01
         -1   -1    0    0    0  501 -0.00000000000E+00  0.00000000000E+00  0.39824548197E+03  0.39824548197E+03  0.00000000000E+00 0.  1.
          1   -1    0    0  501    0  0.00000000000E+00 -0.00000000000E+00 -0.62798912063E+03  0.62798912063E+03  0.00000000000E+00 0.  1.
         36    2    1    2    0    0  0.14210854715E-13  0.21316282073E-13 -0.22974363866E+03  0.10262346026E+04  0.10001876424E+04 0.  0.
         25    2    3    3    0    0  0.12512067687E+03 -0.28363202938E+02 -0.10216893991E+03  0.20600375610E+03  0.12465713050E+03 0.  0.
         35    2    3    3    0    0 -0.12512067687E+03  0.28363202938E+02 -0.12757469875E+03  0.82023084650E+03  0.80002730124E+03 0.  0.
         22    1    5    5    0    0 -0.34575743255E+03  0.27915736753E+03 -0.18489686148E+03  0.48131474878E+03  0.00000000000E+00 0.  1.
         22    1    5    5    0    0  0.22063675568E+03 -0.25079416459E+03  0.57322162729E+02  0.33891609771E+03  0.00000000000E+00 0.  1.
          5    1    4    4  502    0  0.11802715153E+03 -0.13817123012E+02 -0.12828032204E+03  0.17492641999E+03  0.47000000000E+01 0. -1.
         -5    1    4    4    0  502  0.70935253415E+01 -0.14546079926E+02  0.26111382136E+02  0.31077336115E+02  0.47000000000E+01 0. -1.
<mgrwt>
<rscale>  0 0.10001876E+04</rscale>
<asrwt>0</asrwt>
<pdfrwt beam="1">  1        1 0.96613711E-01 0.10001876E+04</pdfrwt>
<pdfrwt beam="2">  1       -1 0.61268535E-01 0.10001876E+04</pdfrwt>
<totfact> 0.10039516E+02</totfact>
</mgrwt>
</event>
<event>
 9    1  0.4369420E-036  0.9980207E+03  0.7818608E-02  0.8682925E-01
         -2   -1    0    0    0  501 -0.00000000000E+00  0.00000000000E+00  0.23312795253E+03  0.23312795253E+03  0.00000000000E+00 0.  1.
          2   -1    0    0  501    0  0.00000000000E+00 -0.00000000000E+00 -0.10681315997E+04  0.10681315997E+04  0.00000000000E+00 0.  1.
         36    2    1    2    0    0  0.00000000000E+00  0.00000000000E+00 -0.83500364719E+03  0.13012595522E+04  0.99802070694E+03 0.  0.
         25    2    3    3    0    0 -0.95599650073E+02  0.47249961369E+02 -0.27135977563E+03  0.31709642000E+03  0.12466819884E+03 0.  0.
         35    2    3    3    0    0  0.95599650073E+02 -0.47249961369E+02 -0.56364387155E+03  0.98416313224E+03  0.79969419466E+03 0.  0.
         22    1    5    5    0    0  0.33595844541E+03 -0.56736314584E+02  0.31575217176E+02  0.34217551165E+03  0.00000000000E+00 0.  1.
         22    1    5    5    0    0 -0.24035879534E+03  0.94863532145E+01 -0.59521908873E+03  0.64198762058E+03  0.00000000000E+00 0.  1.
          5    1    4    4  502    0 -0.47088200376E+02  0.88254717906E+02 -0.17379095821E+03  0.20057811696E+03  0.47000000000E+01 0.  1.
         -5    1    4    4    0  502 -0.48511449697E+02 -0.41004756537E+02 -0.97568817422E+02  0.11651830304E+03  0.47000000000E+01 0.  1.
<mgrwt>
<rscale>  0 0.99802071E+03</rscale>
<asrwt>0</asrwt>
<pdfrwt beam="1">  1        2 0.16432794E+00 0.99802071E+03</pdfrwt>
<pdfrwt beam="2">  1       -2 0.35865839E-01 0.99802071E+03</pdfrwt>
<totfact> 0.20122570E+02</totfact>
</mgrwt>
</event>
<event>
 9    1  0.4369420E-036  0.1000724E+04  0.7818608E-02  0.8680349E-01
         -1   -1    0    0    0  501 -0.00000000000E+00  0.00000000000E+00  0.43622327856E+03  0.43622327856E+03  0.00000000000E+00 0. -1.
          1   -1    0    0  501    0  0.00000000000E+00 -0.00000000000E+00 -0.57393063270E+03  0.57393063270E+03  0.00000000000E+00 0. -1.
         36    2    1    2    0    0 -0.14210854715E-13  0.10658141036E-13 -0.13770735414E+03  0.10101539113E+04  0.10007235428E+04 0.  0.
         25    2    3    3    0    0 -0.12691690627E+03  0.13259481560E+02  0.29124583410E+02  0.18105282125E+03  0.12509263677E+03 0.  0.
         35    2    3    3    0    0  0.12691690627E+03 -0.13259481560E+02 -0.16683193755E+03  0.82910109002E+03  0.80205486541E+03 0.  0.
         22    1    5    5    0    0  0.45043944222E+03  0.68615403264E+02  0.81539520945E+00  0.45563629085E+03  0.00000000000E+00 0. -1.
         22    1    5    5    0    0 -0.32352253595E+03 -0.81874884824E+02 -0.16764733276E+03  0.37346479916E+03  0.00000000000E+00 0. -1.
          5    1    4    4  502    0 -0.11080995806E+03 -0.25572727190E+02  0.60014816602E+02  0.12867276088E+03  0.47000000000E+01 0. -1.
         -5    1    4    4    0  502 -0.16106948209E+02  0.38832208749E+02 -0.30890233192E+02  0.52380060363E+02  0.47000000000E+01 0. -1.
<mgrwt>
<rscale>  0 0.10007235E+04</rscale>
<asrwt>0</asrwt>
<pdfrwt beam="1">  1        1 0.88297020E-01 0.10007235E+04</pdfrwt>
<pdfrwt beam="2">  1       -1 0.67111274E-01 0.10007235E+04</pdfrwt>
<totfact> 0.95918903E+01</totfact>
</mgrwt>
</event>
<event>
 9    1  0.4369420E-036  0.9991068E+03  0.7818608E-02  0.8681889E-01
         -2   -1    0    0    0  501 -0.00000000000E+00  0.00000000000E+00  0.46384340094E+03  0.46384340094E+03  0.00000000000E+00 0. -1.
          2   -1    0    0  501    0  0.00000000000E+00 -0.00000000000E+00 -0.53801256089E+03  0.53801256089E+03  0.00000000000E+00 0. -1.
         36    2    1    2    0    0  0.00000000000E+00  0.00000000000E+00 -0.74169159953E+02  0.10018559618E+04  0.99910675303E+03 0.  0.
         25    2    3    3    0    0  0.84532100729E+02  0.59178760966E+02  0.76520524215E+02  0.18170367037E+03  0.12850304042E+03 0.  0.
         35    2    3    3    0    0 -0.84532100729E+02 -0.59178760966E+02 -0.15068968417E+03  0.82015229146E+03  0.79955900249E+03 0.  0.
         22    1    5    5    0    0 -0.31269373313E+03  0.44875974142E+02  0.21110819003E+03  0.37994459029E+03  0.00000000000E+00 0. -1.
         22    1    5    5    0    0  0.22816163240E+03 -0.10405473511E+03 -0.36179787419E+03  0.44020770117E+03  0.00000000000E+00 0. -1.
          5    1    4    4  502    0  0.31347996705E+02 -0.39731414104E+02  0.35736930238E+02  0.62132924822E+02  0.47000000000E+01 0.  1.
         -5    1    4    4    0  502  0.53184104024E+02  0.98910175070E+02  0.40783593977E+02  0.11957074555E+03  0.47000000000E+01 0.  1.
<mgrwt>
<rscale>  0 0.99910675E+03</rscale>
<asrwt>0</asrwt>
<pdfrwt beam="1">  1        2 0.82771163E-01 0.99910675E+03</pdfrwt>
<pdfrwt beam="2">  1       -2 0.71360523E-01 0.99910675E+03</pdfrwt>
<totfact> 0.12177649E+02</totfact>
</mgrwt>
</event>
<event>
 9    1  0.4369420E-036  0.1002959E+04  0.7818608E-02  0.8678225E-01
          1   -1    0    0  501    0  0.00000000000E+00  0.00000000000E+00  0.18466294580E+04  0.18466294580E+04  0.00000000000E+00 0. -1.
         -1   -1    0    0    0  501 -0.00000000000E+00 -0.00000000000E+00 -0.13618410969E+03  0.13618410969E+03  0.00000000000E+00 0. -1.
         36    2    1    2    0    0 -0.10658141036E-13  0.28421709430E-13  0.17104453483E+04  0.19828135677E+04  0.10029588001E+04 0.  0.
         25    2    3    3    0    0  0.16099666707E+02 -0.11701052412E+03  0.16284690579E+03  0.23694964838E+03  0.12520127442E+03 0.  0.
         35    2    3    3    0    0 -0.16099666707E+02  0.11701052412E+03  0.15475984426E+04  0.17458639193E+04  0.79939303440E+03 0.  0.
         22    1    5    5    0    0  0.15244340070E+03  0.35651330464E+03  0.38299086721E+03  0.54499791850E+03  0.00000000000E+00 0. -1.
         22    1    5    5    0    0 -0.16854306741E+03 -0.23950278051E+03  0.11646075753E+04  0.12008660008E+04  0.00000000000E+00 0. -1.
          5    1    4    4  502    0 -0.44940045934E+01 -0.13131875236E+03  0.16542014121E+03  0.21130717904E+03  0.47000000000E+01 0. -1.
         -5    1    4    4    0  502  0.20593671300E+02  0.14308228235E+02 -0.25732354213E+01  0.25642469331E+02  0.47000000000E+01 0. -1.
<mgrwt>
<rscale>  0 0.10029588E+04</rscale>
<asrwt>0</asrwt>
<pdfrwt beam="1">  1        1 0.28409682E+00 0.10029588E+04</pdfrwt>
<pdfrwt beam="2">  1       -1 0.20951403E-01 0.10029588E+04</pdfrwt>
<totfact> 0.75534409E+01</totfact>
</mgrwt>
</event>
<event>
 9    1  0.4369420E-036  0.9991766E+03  0.7818608E-02  0.8681822E-01
          1   -1    0    0  501    0  0.00000000000E+00  0.00000000000E+00  0.44206228758E+03  0.44206228758E+03  0.00000000000E+00 0. -1.
         -1   -1    0    0    0  501 -0.00000000000E+00 -0.00000000000E+00 -0.56460024129E+03  0.56460024129E+03  0.00000000000E+00 0. -1.
         36    2    1    2    0    0 -0.28421709430E-13  0.00000000000E+00 -0.12253795371E+03  0.10066625289E+04  0.99917660947E+03 0.  0.
         25    2    3    3    0    0  0.98147421329E+02 -0.79215517111E+02 -0.90278425000E+02  0.19570579807E+03  0.11934215899E+03 0.  0.
         35    2    3    3    0    0 -0.98147421329E+02  0.79215517111E+02 -0.32259528712E+02  0.81095673080E+03  0.80043870944E+03 0.  0.
         22    1    5    5    0    0 -0.43245298721E+03  0.86576205896E+02 -0.13484530571E+03  0.46118790319E+03  0.00000000000E+00 0. -1.
         22    1    5    5    0    0  0.33430556589E+03 -0.73606887846E+01  0.10258577700E+03  0.34976882761E+03  0.00000000000E+00 0. -1.
          5    1    4    4  502    0  0.76813570970E+02 -0.69729354178E+02 -0.11929678047E+03  0.15816548090E+03  0.47000000000E+01 0. -1.
         -5    1    4    4    0  502  0.21333850360E+02 -0.94861629331E+01  0.29018355470E+02  0.37540317161E+02  0.47000000000E+01 0. -1.
<mgrwt>
<rscale>  0 0.99917661E+03</rscale>
<asrwt>0</asrwt>
<pdfrwt beam="1">  1        1 0.68009583E-01 0.99917661E+03</pdfrwt>
<pdfrwt beam="2">  1       -1 0.86861575E-01 0.99917661E+03</pdfrwt>
<totfact> 0.81357188E+01</totfact>
</mgrwt>
</event>
<event>
 9    1  0.4369420E-036  0.1000072E+04  0.7818608E-02  0.8680969E-01
          2   -1    0    0  501    0  0.00000000000E+00  0.00000000000E+00  0.32909931864E+03  0.32909931864E+03  0.00000000000E+00 0.  1.
         -2   -1    0    0    0  501 -0.00000000000E+00 -0.00000000000E+00 -0.75975901807E+03  0.75975901807E+03  0.00000000000E+00 0.  1.
         36    2    1    2    0    0  0.28421709430E-13  0.00000000000E+00 -0.43065969943E+03  0.10888583367E+04  0.10000723477E+04 0.  0.
         25    2    3    3    0    0  0.46823210231E+02  0.12956677550E+03 -0.54171246216E+02  0.19387534052E+03  0.12519249743E+03 0.  0.
         35    2    3    3    0    0 -0.46823210231E+02 -0.12956677550E+03 -0.37648845322E+03  0.89498299619E+03  0.80016938565E+03 0.  0.
         22    1    5    5    0    0  0.14689683109E+03 -0.24573994091E+03 -0.54334219083E+03  0.61415595240E+03  0.00000000000E+00 0.  1.
         22    1    5    5    0    0 -0.19372004132E+03  0.11617316541E+03  0.16685373761E+03  0.28082704379E+03  0.00000000000E+00 0.  1.
          5    1    4    4  502    0  0.86644653105E+02  0.82526939880E+02 -0.55644468152E+02  0.13204691800E+03  0.47000000000E+01 0. -1.
         -5    1    4    4    0  502 -0.39821442874E+02  0.47039835622E+02  0.14732219352E+01  0.61828422516E+02  0.47000000000E+01 0. -1.
<mgrwt>
<rscale>  0 0.10000723E+04</rscale>
<asrwt>0</asrwt>
<pdfrwt beam="1">  1        2 0.50630665E-01 0.10000723E+04</pdfrwt>
<pdfrwt beam="2">  1       -2 0.11688600E+00 0.10000723E+04</pdfrwt>
<totfact> 0.65636401E+01</totfact>
</mgrwt>
</event>
<event>
 9    1  0.4369420E-036  0.1001809E+04  0.7818608E-02  0.8679317E-01
         -1   -1    0    0    0  501 -0.00000000000E+00  0.00000000000E+00  0.18541287229E+03  0.18541287229E+03  0.00000000000E+00 0. -1.
          1   -1    0    0  501    0  0.00000000000E+00 -0.00000000000E+00 -0.13532243720E+04  0.13532243720E+04  0.00000000000E+00 0. -1.
         36    2    1    2    0    0 -0.71054273576E-14  0.28421709430E-13 -0.11678114997E+04  0.15386372443E+04  0.10018087995E+04 0.  0.
         25    2    3    3    0    0  0.38116528331E+02 -0.11666965359E+03 -0.33209727513E+03  0.37537974106E+03  0.12472638873E+03 0.  0.
         35    2    3    3    0    0 -0.38116528331E+02  0.11666965359E+03 -0.83571422460E+03  0.11632575032E+04  0.79980314820E+03 0.  0.
         22    1    5    5    0    0 -0.25244803905E+03  0.38578229073E+03 -0.42017051310E+03  0.62377980758E+03  0.00000000000E+00 0. -1.
         22    1    5    5    0    0  0.21433151072E+03 -0.26911263715E+03 -0.41554371150E+03  0.53947769567E+03  0.00000000000E+00 0. -1.
          5    1    4    4  502    0  0.14647296999E+02  0.12460761326E+02 -0.17372632879E+01  0.19872643658E+02  0.47000000000E+01 0.  1.
         -5    1    4    4    0  502  0.23469231332E+02 -0.12913041491E+03 -0.33036001184E+03  0.35550709740E+03  0.47000000000E+01 0.  1.
<mgrwt>
<rscale>  0 0.10018088E+04</rscale>
<asrwt>0</asrwt>
<pdfrwt beam="1">  1        1 0.20818836E+00 0.10018088E+04</pdfrwt>
<pdfrwt beam="2">  1       -1 0.28525057E-01 0.10018088E+04</pdfrwt>
<totfact> 0.10075759E+02</totfact>
</mgrwt>
</event>
<event>
 9    1  0.4369420E-036  0.9984191E+03  0.7818608E-02  0.8682545E-01
         -2   -1    0    0    0  501 -0.00000000000E+00  0.00000000000E+00  0.38030805118E+03  0.38030805118E+03  0.00000000000E+00 0.  1.
          2   -1    0    0  501    0  0.00000000000E+00 -0.00000000000E+00 -0.65528502927E+03  0.65528502927E+03  0.00000000000E+00 0.  1.
         36    2    1    2    0    0  0.00000000000E+00  0.71054273576E-14 -0.27497697809E+03  0.10355930804E+04  0.99841909527E+03 0.  0.
         25    2    3    3    0    0  0.73499568303E+02  0.32214428408E+02 -0.17041318378E+03  0.22610223375E+03  0.12506642620E+03 0.  0.
         35    2    3    3    0    0 -0.73499568303E+02 -0.32214428408E+02 -0.10456379431E+03  0.80949084670E+03  0.79868760342E+03 0.  0.
         22    1    5    5    0    0 -0.76622740673E+02  0.12807019488E+03 -0.42540635773E+03  0.45082545226E+03  0.00000000000E+00 0. -1.
         22    1    5    5    0    0  0.31231723698E+01 -0.16028462329E+03  0.32084256342E+03  0.35866539444E+03  0.00000000000E+00 0. -1.
          5    1    4    4  502    0  0.69299492510E+02  0.62435219607E+02 -0.17142363157E+03  0.19521456854E+03  0.47000000000E+01 0. -1.
         -5    1    4    4    0  502  0.42000757928E+01 -0.30220791199E+02  0.10104477942E+01  0.30887665210E+02  0.47000000000E+01 0. -1.
<mgrwt>
<rscale>  0 0.99841910E+03</rscale>
<asrwt>0</asrwt>
<pdfrwt beam="1">  1        2 0.10081308E+00 0.99841910E+03</pdfrwt>
<pdfrwt beam="2">  1       -2 0.58508932E-01 0.99841910E+03</pdfrwt>
<totfact> 0.14709537E+02</totfact>
</mgrwt>
</event>
<event>
 9    1  0.4369420E-036  0.9996845E+03  0.7818608E-02  0.8681338E-01
          2   -1    0    0  501    0  0.00000000000E+00  0.00000000000E+00  0.19951924769E+04  0.19951924769E+04  0.00000000000E+00 0. -1.
         -2   -1    0    0    0  501 -0.00000000000E+00 -0.00000000000E+00 -0.12522213812E+03  0.12522213812E+03  0.00000000000E+00 0. -1.
         36    2    1    2    0    0 -0.14210854715E-13 -0.14210854715E-13  0.18699703388E+04  0.21204146150E+04  0.99968448606E+03 0.  0.
         25    2    3    3    0    0 -0.10324013528E+03 -0.83982759928E+02  0.44413916261E+03  0.48029515156E+03  0.12534834402E+03 0.  0.
         35    2    3    3    0    0  0.10324013528E+03  0.83982759928E+02  0.14258311762E+04  0.16401194634E+04  0.79955342660E+03 0.  0.
         22    1    5    5    0    0  0.10719881139E+03 -0.35484664496E+03  0.61203874380E+03  0.71554115921E+03  0.00000000000E+00 0. -1.
         22    1    5    5    0    0 -0.39586761135E+01  0.43882940489E+03  0.81379243235E+03  0.92457830424E+03  0.00000000000E+00 0. -1.
          5    1    4    4  502    0  0.13479797333E+02 -0.29386001084E+01  0.66733851158E+00  0.14590258648E+02  0.47000000000E+01 0. -1.
         -5    1    4    4    0  502 -0.11671993261E+03 -0.81044159820E+02  0.44347182410E+03  0.46570489291E+03  0.47000000000E+01 0. -1.
<mgrwt>
<rscale>  0 0.99968449E+03</rscale>
<asrwt>0</asrwt>
<pdfrwt beam="1">  1        2 0.30695267E+00 0.99968449E+03</pdfrwt>
<pdfrwt beam="2">  1       -2 0.19264946E-01 0.99968449E+03</pdfrwt>
<totfact> 0.17996030E+02</totfact>
</mgrwt>
</event>
<event>
 9    1  0.4369420E-036  0.9999596E+03  0.7818608E-02  0.8681076E-01
         -2   -1    0    0    0  501 -0.00000000000E+00  0.00000000000E+00  0.99007073503E+02  0.99007073503E+02  0.00000000000E+00 0.  1.
          2   -1    0    0  501    0  0.00000000000E+00 -0.00000000000E+00 -0.25248680107E+04  0.25248680107E+04  0.00000000000E+00 0.  1.
         36    2    1    2    0    0 -0.28421709430E-13  0.14210854715E-13 -0.24258609372E+04  0.26238750842E+04  0.99995958463E+03 0.  0.
         25    2    3    3    0    0  0.10668834340E+03 -0.90079673600E+02 -0.44290891891E+03  0.48095081030E+03  0.12509444938E+03 0.  0.
         35    2    3    3    0    0 -0.10668834340E+03  0.90079673600E+02 -0.19829520183E+04  0.21429242739E+04  0.80033054836E+03 0.  0.
         22    1    5    5    0    0  0.17047528470E+03 -0.29197353040E+03 -0.74869911415E+03  0.82149907406E+03  0.00000000000E+00 0.  1.
         22    1    5    5    0    0 -0.27716362810E+03  0.38205320399E+03 -0.12342529042E+04  0.13214251999E+04  0.00000000000E+00 0.  1.
          5    1    4    4  502    0  0.66770402647E+02 -0.81549344085E+02 -0.14017632771E+03  0.17544251207E+03  0.47000000000E+01 0. -1.
         -5    1    4    4    0  502  0.39917940750E+02 -0.85303295143E+01 -0.30273259119E+03  0.30550829823E+03  0.47000000000E+01 0. -1.
<mgrwt>
<rscale>  0 0.99995958E+03</rscale>
<asrwt>0</asrwt>
<pdfrwt beam="1">  1        2 0.38844118E+00 0.99995958E+03</pdfrwt>
<pdfrwt beam="2">  1       -2 0.15231860E-01 0.99995958E+03</pdfrwt>
<totfact> 0.13105931E+02</totfact>
</mgrwt>
</event>
<event>
 9    1  0.4369420E-036  0.9995204E+03  0.7818608E-02  0.8681495E-01
          2   -1    0    0  501    0  0.00000000000E+00  0.00000000000E+00  0.45202505553E+03  0.45202505553E+03  0.00000000000E+00 0.  1.
         -2   -1    0    0    0  501 -0.00000000000E+00 -0.00000000000E+00 -0.55253630967E+03  0.55253630967E+03  0.00000000000E+00 0.  1.
         36    2    1    2    0    0 -0.71054273576E-14  0.00000000000E+00 -0.10051125414E+03  0.10045613652E+04  0.99952039711E+03 0.  0.
         25    2    3    3    0    0  0.46175367666E+01 -0.12895923683E+03 -0.68110168474E+02  0.19271875822E+03  0.12589566438E+03 0.  0.
         35    2    3    3    0    0 -0.46175367666E+01  0.12895923683E+03 -0.32401085671E+02  0.81184260698E+03  0.80086626958E+03 0.  0.
         22    1    5    5    0    0  0.42626795450E+02  0.35638813971E+03  0.25648623712E+03  0.44115160620E+03  0.00000000000E+00 0. -1.
         22    1    5    5    0    0 -0.47244332216E+02 -0.22742890288E+03 -0.28888732279E+03  0.37069100078E+03  0.00000000000E+00 0. -1.
          5    1    4    4  502    0  0.64095922991E+02 -0.69018048419E+02 -0.47850621119E+02  0.10575230633E+03  0.47000000000E+01 0.  1.
         -5    1    4    4    0  502 -0.59478386225E+02 -0.59941188413E+02 -0.20259547355E+02  0.86966451895E+02  0.47000000000E+01 0.  1.
<mgrwt>
<rscale>  0 0.99952040E+03</rscale>
<asrwt>0</asrwt>
<pdfrwt beam="1">  1        2 0.69542317E-01 0.99952040E+03</pdfrwt>
<pdfrwt beam="2">  1       -2 0.85005586E-01 0.99952040E+03</pdfrwt>
<totfact> 0.99972996E+01</totfact>
</mgrwt>
</event>
<event>
 9    1  0.4369420E-036  0.9995649E+03  0.7818608E-02  0.8681452E-01
          2   -1    0    0  501    0  0.00000000000E+00  0.00000000000E+00  0.34858242485E+04  0.34858242485E+04  0.00000000000E+00 0. -1.
         -2   -1    0    0    0  501 -0.00000000000E+00 -0.00000000000E+00 -0.71656646875E+02  0.71656646875E+02  0.00000000000E+00 0. -1.
         36    2    1    2    0    0  0.00000000000E+00 -0.14210854715E-13  0.34141676016E+04  0.35574808954E+04  0.99956485981E+03 0.  0.
         25    2    3    3    0    0 -0.13525874343E+03  0.93918267047E+01  0.76018983051E+03  0.78226472590E+03  0.12516544608E+03 0.  0.
         35    2    3    3    0    0  0.13525874343E+03 -0.93918267047E+01  0.26539777711E+04  0.27752161695E+04  0.79990227132E+03 0.  0.
         22    1    5    5    0    0  0.24652649964E+03  0.12343230599E+03  0.25662229722E+04  0.25809903511E+04  0.00000000000E+00 0. -1.
         22    1    5    5    0    0 -0.11126775621E+03 -0.13282413269E+03  0.87754798858E+02  0.19422581836E+03  0.00000000000E+00 0. -1.
          5    1    4    4  502    0 -0.45290450989E+02  0.39686700537E+01  0.56910532837E+03  0.57093777251E+03  0.47000000000E+01 0.  1.
         -5    1    4    4    0  502 -0.89968292444E+02  0.54231566510E+01  0.19108450214E+03  0.21132695340E+03  0.47000000000E+01 0.  1.
<mgrwt>
<rscale>  0 0.99956486E+03</rscale>
<asrwt>0</asrwt>
<pdfrwt beam="1">  1        2 0.53628052E+00 0.99956486E+03</pdfrwt>
<pdfrwt beam="2">  1       -2 0.11024102E-01 0.99956486E+03</pdfrwt>
<totfact> 0.50463751E+01</totfact>
</mgrwt>
</event>
<event>
 9    1  0.4369420E-036  0.1000008E+04  0.7818608E-02  0.8681031E-01
          2   -1    0    0  501    0  0.00000000000E+00  0.00000000000E+00  0.18734048275E+04  0.18734048275E+04  0.00000000000E+00 0.  1.
         -2   -1    0    0    0  501 -0.00000000000E+00 -0.00000000000E+00 -0.13344893530E+03  0.13344893530E+03  0.00000000000E+00 0.  1.
         36    2    1    2    0    0  0.56843418861E-13 -0.28421709430E-13  0.17399558922E+04  0.20068537628E+04  0.10000077592E+04 0.  0.
         25    2    3    3    0    0  0.13487687325E+03  0.34790650726E+02  0.32413980838E+03  0.37434353145E+03  0.12515711666E+03 0.  0.
         35    2    3    3    0    0 -0.13487687325E+03 -0.34790650726E+02  0.14158160838E+04  0.16325102313E+04  0.80071987107E+03 0.  0.
         22    1    5    5    0    0  0.23939259566E+03 -0.18057790724E+03  0.22245755503E+03  0.37336919963E+03  0.00000000000E+00 0.  1.
         22    1    5    5    0    0 -0.37426946891E+03  0.14578725651E+03  0.11933585288E+04  0.12591410317E+04  0.00000000000E+00 0.  1.
          5    1    4    4  502    0  0.13893375881E+03  0.41337448565E+02  0.18575946311E+03  0.23566934915E+03  0.47000000000E+01 0.  1.
         -5    1    4    4    0  502 -0.40568855668E+01 -0.65467978396E+01  0.13838034527E+03  0.13867418231E+03  0.47000000000E+01 0.  1.
<mgrwt>
<rscale>  0 0.10000078E+04</rscale>
<asrwt>0</asrwt>
<pdfrwt beam="1">  1        2 0.28821611E+00 0.10000078E+04</pdfrwt>
<pdfrwt beam="2">  1       -2 0.20530607E-01 0.10000078E+04</pdfrwt>
<totfact> 0.18902138E+02</totfact>
</mgrwt>
</event>
<event>
 9    1  0.4369420E-036  0.1001105E+04  0.7818608E-02  0.8679986E-01
         -2   -1    0    0    0  501 -0.00000000000E+00  0.00000000000E+00  0.11431009655E+03  0.11431009655E+03  0.00000000000E+00 0. -1.
          2   -1    0    0  501    0  0.00000000000E+00 -0.00000000000E+00 -0.21918708662E+04  0.21918708662E+04  0.00000000000E+00 0. -1.
         36    2    1    2    0    0  0.00000000000E+00  0.42632564146E-13 -0.20775607697E+04  0.23061809628E+04  0.10011053298E+04 0.  0.
         25    2    3    3    0    0 -0.32558216770E+02 -0.11969534561E+03 -0.55152183158E+03  0.57889538571E+03  0.12472579387E+03 0.  0.
         35    2    3    3    0    0  0.32558216770E+02  0.11969534561E+03 -0.15260389381E+04  0.17272855770E+04  0.79958339834E+03 0.  0.
         22    1    5    5    0    0  0.30972786516E+03 -0.13647320006E+03 -0.32844363285E+03  0.47162644619E+03  0.00000000000E+00 0. -1.
         22    1    5    5    0    0 -0.27716964839E+03  0.25616854567E+03 -0.11975953052E+04  0.12556591309E+04  0.00000000000E+00 0. -1.
          5    1    4    4  502    0  0.45297761589E+02 -0.22088048464E+02 -0.14293962009E+03  0.15163638772E+03  0.47000000000E+01 0.  1.
         -5    1    4    4    0  502 -0.77855978359E+02 -0.97607297143E+02 -0.40858221148E+03  0.42725899799E+03  0.47000000000E+01 0.  1.
<mgrwt>
<rscale>  0 0.10011053E+04</rscale>
<asrwt>0</asrwt>
<pdfrwt beam="1">  1        2 0.33721088E+00 0.10011053E+04</pdfrwt>
<pdfrwt beam="2">  1       -2 0.17586170E-01 0.10011053E+04</pdfrwt>
<totfact> 0.16218368E+02</totfact>
</mgrwt>
</event>
<event>
 9    1  0.4369420E-036  0.9996611E+03  0.7818608E-02  0.8681361E-01
          2   -1    0    0  501    0  0.00000000000E+00  0.00000000000E+00  0.56267685675E+03  0.56267685675E+03  0.00000000000E+00 0. -1.
         -2   -1    0    0    0  501 -0.00000000000E+00 -0.00000000000E+00 -0.44400362544E+03  0.44400362544E+03  0.00000000000E+00 0. -1.
         36    2    1    2    0    0 -0.28421709430E-13  0.00000000000E+00  0.11867323132E+03  0.10066804822E+04  0.99966107126E+03 0.  0.
         25    2    3    3    0    0  0.10177082068E+03  0.13655798515E+02  0.12424582368E+03  0.19989731632E+03  0.11822914868E+03 0.  0.
         35    2    3    3    0    0 -0.10177082068E+03 -0.13655798515E+02 -0.55725923599E+01  0.80678316587E+03  0.80020262570E+03 0.  0.
         22    1    5    5    0    0 -0.17936395370E+02  0.85425864382E+02 -0.39072172541E+03  0.40035329310E+03  0.00000000000E+00 0.  1.
         22    1    5    5    0    0 -0.83834425311E+02 -0.99081662897E+02  0.38514913306E+03  0.40642987277E+03  0.00000000000E+00 0.  1.
          5    1    4    4  502    0  0.57658481672E+01 -0.43853850936E+02  0.32068886342E+02  0.54835287163E+02  0.47000000000E+01 0.  1.
         -5    1    4    4    0  502  0.96004972514E+02  0.57509649451E+02  0.92176937334E+02  0.14506202916E+03  0.47000000000E+01 0.  1.
<mgrwt>
<rscale>  0 0.99966107E+03</rscale>
<asrwt>0</asrwt>
<pdfrwt beam="1">  1        2 0.86565670E-01 0.99966107E+03</pdfrwt>
<pdfrwt beam="2">  1       -2 0.68308250E-01 0.99966107E+03</pdfrwt>
<totfact> 0.12708770E+02</totfact>
</mgrwt>
</event>
<event>
 9    1  0.4369420E-036  0.1000150E+04  0.7818608E-02  0.8680895E-01
         -2   -1    0    0    0  501 -0.00000000000E+00  0.00000000000E+00  0.23769655420E+03  0.23769655420E+03  0.00000000000E+00 0. -1.
          2   -1    0    0  501    0  0.00000000000E+00 -0.00000000000E+00 -0.10520760746E+04  0.10520760746E+04  0.00000000000E+00 0. -1.
         36    2    1    2    0    0  0.56843418861E-13 -0.14210854715E-13 -0.81437952041E+03  0.12897726288E+04  0.10001497042E+04 0.  0.
         25    2    3    3    0    0 -0.98971510693E+02  0.82162225539E+02 -0.79008846069E+02  0.19607959258E+03  0.12513519743E+03 0.  0.
         35    2    3    3    0    0  0.98971510693E+02 -0.82162225539E+02 -0.73537067434E+03  0.10936930362E+04  0.79927994943E+03 0.  0.
         22    1    5    5    0    0 -0.17034800191E+03 -0.37350580090E+03 -0.41503217999E+03  0.58376085471E+03  0.00000000000E+00 0. -1.
         22    1    5    5    0    0  0.26931951261E+03  0.29134357537E+03 -0.32033849434E+03  0.50993218151E+03  0.00000000000E+00 0. -1.
          5    1    4    4  502    0  0.21945139760E+02 -0.11176816036E+02 -0.25639505414E+01  0.25202662918E+02  0.47000000000E+01 0.  1.
         -5    1    4    4    0  502 -0.12091665045E+03  0.93339041575E+02 -0.76444895528E+02  0.17087692966E+03  0.47000000000E+01 0.  1.
<mgrwt>
<rscale>  0 0.10001497E+04</rscale>
<asrwt>0</asrwt>
<pdfrwt beam="1">  1        2 0.16185786E+00 0.10001497E+04</pdfrwt>
<pdfrwt beam="2">  1       -2 0.36568701E-01 0.10001497E+04</pdfrwt>
<totfact> 0.19848074E+02</totfact>
</mgrwt>
</event>
<event>
 9    1  0.4369420E-036  0.1000125E+04  0.7818608E-02  0.8680919E-01
          2   -1    0    0  501    0  0.00000000000E+00  0.00000000000E+00  0.13292796339E+04  0.13292796339E+04  0.00000000000E+00 0.  1.
         -2   -1    0    0    0  501 -0.00000000000E+00 -0.00000000000E+00 -0.18811893955E+03  0.18811893955E+03  0.00000000000E+00 0.  1.
         36    2    1    2    0    0  0.00000000000E+00  0.00000000000E+00  0.11411606943E+04  0.15173985734E+04  0.10001253423E+04 0.  0.
         25    2    3    3    0    0 -0.60386113631E+02 -0.10574807220E+03  0.10744085189E+03  0.20487524908E+03  0.12490473785E+03 0.  0.
         35    2    3    3    0    0  0.60386113631E+02  0.10574807220E+03  0.10337198424E+04  0.13125233243E+04  0.79956965100E+03 0.  0.
         22    1    5    5    0    0 -0.20934504295E+03  0.37326363827E+02  0.10112251192E+04  0.10333415922E+04  0.00000000000E+00 0.  1.
         22    1    5    5    0    0  0.26973115658E+03  0.68421708373E+02  0.22494723256E+02  0.27918173217E+03  0.00000000000E+00 0.  1.
          5    1    4    4  502    0 -0.22045974557E+02 -0.10440769031E+03  0.12326997493E+03  0.16310906630E+03  0.47000000000E+01 0.  1.
         -5    1    4    4    0  502 -0.38340139074E+02 -0.13403818860E+01 -0.15829123037E+02  0.41766182779E+02  0.47000000000E+01 0.  1.
<mgrwt>
<rscale>  0 0.10001253E+04</rscale>
<asrwt>0</asrwt>
<pdfrwt beam="1">  1        2 0.20450455E+00 0.10001253E+04</pdfrwt>
<pdfrwt beam="2">  1       -2 0.28941376E-01 0.10001253E+04</pdfrwt>
<totfact> 0.20921477E+02</totfact>
</mgrwt>
</event>
<event>
 9    1  0.4369420E-036  0.9996650E+03  0.7818608E-02  0.8681357E-01
          2   -1    0    0  501    0  0.00000000000E+00  0.00000000000E+00  0.19319224854E+04  0.19319224854E+04  0.00000000000E+00 0. -1.
         -2   -1    0    0    0  501 -0.00000000000E+00 -0.00000000000E+00 -0.12931808237E+03  0.12931808237E+03  0.00000000000E+00 0. -1.
         36    2    1    2    0    0  0.14210854715E-13  0.14210854715E-13  0.18026044030E+04  0.20612405678E+04  0.99966496609E+03 0.  0.
         25    2    3    3    0    0  0.60424654664E+02  0.10014145777E+03  0.18463672098E+03  0.25256485716E+03  0.12656554777E+03 0.  0.
         35    2    3    3    0    0 -0.60424654664E+02 -0.10014145777E+03  0.16179676820E+04  0.18086757106E+04  0.79988058832E+03 0.  0.
         22    1    5    5    0    0  0.28637243728E+03 -0.16860106142E+03  0.12696099565E+04  0.13123813975E+04  0.00000000000E+00 0.  1.
         22    1    5    5    0    0 -0.34679709194E+03  0.68459603654E+02  0.34835772549E+03  0.49629431310E+03  0.00000000000E+00 0.  1.
          5    1    4    4  502    0  0.49807880509E+02  0.21587927483E+02  0.32811437127E+01  0.54586806812E+02  0.47000000000E+01 0.  1.
         -5    1    4    4    0  502  0.10616774154E+02  0.78553530284E+02  0.18135557727E+03  0.19797805035E+03  0.47000000000E+01 0.  1.
<mgrwt>
<rscale>  0 0.99966497E+03</rscale>
<asrwt>0</asrwt>
<pdfrwt beam="1">  1        2 0.29721882E+00 0.99966497E+03</pdfrwt>
<pdfrwt beam="2">  1       -2 0.19895091E-01 0.99966497E+03</pdfrwt>
<totfact> 0.18492649E+02</totfact>
</mgrwt>
</event>
<event>
 9    1  0.4369420E-036  0.1003701E+04  0.7818608E-02  0.8677521E-01
          2   -1    0    0  501    0  0.00000000000E+00  0.00000000000E+00  0.22682857114E+04  0.22682857114E+04  0.00000000000E+00 0.  1.
         -2   -1    0    0    0  501 -0.00000000000E+00 -0.00000000000E+00 -0.11103278622E+03  0.11103278622E+03  0.00000000000E+00 0.  1.
         36    2    1    2    0    0  0.00000000000E+00  0.00000000000E+00  0.21572529251E+04  0.23793184976E+04  0.10037013151E+04 0.  0.
         25    2    3    3    0    0  0.13290799245E+03  0.52440654978E+02  0.43346349615E+03  0.47330659291E+03  0.12535538137E+03 0.  0.
         35    2    3    3    0    0 -0.13290799245E+03 -0.52440654978E+02  0.17237894290E+04  0.19060119047E+04  0.80063526559E+03 0.  0.
         22    1    5    5    0    0 -0.46435200712E+03  0.48214773924E+02  0.99945996351E+03  0.11031172511E+04  0.00000000000E+00 0.  1.
         22    1    5    5    0    0  0.33144401467E+03 -0.10065542890E+03  0.72432946548E+03  0.80289465361E+03  0.00000000000E+00 0.  1.
          5    1    4    4  502    0  0.14440396097E+02  0.48979783152E+02  0.48866243394E+02  0.70834623882E+02  0.47000000000E+01 0.  1.
         -5    1    4    4    0  502  0.11846759636E+03  0.34608718267E+01  0.38459725276E+03  0.40247196903E+03  0.47000000000E+01 0.  1.
<mgrwt>
<rscale>  0 0.10037013E+04</rscale>
<asrwt>0</asrwt>
<pdfrwt beam="1">  1        2 0.34896700E+00 0.10037013E+04</pdfrwt>
<pdfrwt beam="2">  1       -2 0.17081969E-01 0.10037013E+04</pdfrwt>
<totfact> 0.15377666E+02</totfact>
</mgrwt>
</event>
<event>
 9    1  0.4369420E-036  0.9998628E+03  0.7818608E-02  0.8681169E-01
          1   -1    0    0  501    0  0.00000000000E+00  0.00000000000E+00  0.67394631905E+03  0.67394631905E+03  0.00000000000E+00 0. -1.
         -1   -1    0    0    0  501 -0.00000000000E+00 -0.00000000000E+00 -0.37084766744E+03  0.37084766744E+03  0.00000000000E+00 0. -1.
         36    2    1    2    0    0  0.00000000000E+00 -0.14210854715E-13  0.30309865160E+03  0.10447939865E+04  0.99986283139E+03 0.  0.
         25    2    3    3    0    0  0.12811304494E+03  0.68692518077E+02  0.34331934739E+02  0.19401923768E+03  0.12382717199E+03 0.  0.
         35    2    3    3    0    0 -0.12811304494E+03 -0.68692518077E+02  0.26876671686E+03  0.85077474881E+03  0.79400913773E+03 0.  0.
         22    1    5    5    0    0  0.43221742905E+02 -0.30891396957E+03  0.41685269605E+03  0.52063627406E+03  0.00000000000E+00 0. -1.
         22    1    5    5    0    0 -0.17133478784E+03  0.24022145150E+03 -0.14808597919E+03  0.33013847476E+03  0.00000000000E+00 0. -1.
          5    1    4    4  502    0  0.15214393506E+03  0.50978847455E+02  0.25545513596E+02  0.16254624920E+03  0.47000000000E+01 0.  1.
         -5    1    4    4    0  502 -0.24030890126E+02  0.17713670622E+02  0.87864211430E+01  0.31472988476E+02  0.47000000000E+01 0.  1.
<mgrwt>
<rscale>  0 0.99986283E+03</rscale>
<asrwt>0</asrwt>
<pdfrwt beam="1">  1        1 0.10368405E+00 0.99986283E+03</pdfrwt>
<pdfrwt beam="2">  1       -1 0.57053487E-01 0.99986283E+03</pdfrwt>
<totfact> 0.10351011E+02</totfact>
</mgrwt>
</event>
<event>
 9    1  0.4369420E-036  0.9992981E+03  0.7818608E-02  0.8681707E-01
          2   -1    0    0  501    0  0.00000000000E+00  0.00000000000E+00  0.15142724793E+04  0.15142724793E+04  0.00000000000E+00 0.  1.
         -2   -1    0    0    0  501 -0.00000000000E+00 -0.00000000000E+00 -0.16486411669E+03  0.16486411669E+03  0.00000000000E+00 0.  1.
         36    2    1    2    0    0  0.00000000000E+00  0.10658141036E-13  0.13494083626E+04  0.16791365960E+04  0.99929814315E+03 0.  0.
         25    2    3    3    0    0  0.64904273729E+02  0.15622249147E+02  0.48684871451E+02  0.14985283530E+03  0.12501614344E+03 0.  0.
         35    2    3    3    0    0 -0.64904273729E+02 -0.15622249147E+02  0.13007234912E+04  0.15292837607E+04  0.80148025605E+03 0.  0.
         22    1    5    5    0    0 -0.28734636221E+03 -0.28354682809E+03  0.96296969041E+03  0.10441634739E+04  0.00000000000E+00 0.  1.
         22    1    5    5    0    0  0.22244208848E+03  0.26792457895E+03  0.33775380078E+03  0.48512028681E+03  0.00000000000E+00 0.  1.
          5    1    4    4  502    0 -0.34157276500E+02 -0.83109666337E+01 -0.28016445125E+01  0.35577112253E+02  0.47000000000E+01 0.  1.
         -5    1    4    4    0  502  0.99061550229E+02  0.23933215781E+02  0.51486515963E+02  0.11427572304E+03  0.47000000000E+01 0.  1.
<mgrwt>
<rscale>  0 0.99929814E+03</rscale>
<asrwt>0</asrwt>
<pdfrwt beam="1">  1        2 0.23296499E+00 0.99929814E+03</pdfrwt>
<pdfrwt beam="2">  1       -2 0.25363711E-01 0.99929814E+03</pdfrwt>
<totfact> 0.20793429E+02</totfact>
</mgrwt>
</event>
<event>
 9    1  0.4369420E-036  0.1000577E+04  0.7818608E-02  0.8680489E-01
          2   -1    0    0  501    0  0.00000000000E+00  0.00000000000E+00  0.59577716762E+03  0.59577716762E+03  0.00000000000E+00 0. -1.
         -2   -1    0    0    0  501 -0.00000000000E+00 -0.00000000000E+00 -0.42010436054E+03  0.42010436054E+03  0.00000000000E+00 0. -1.
         36    2    1    2    0    0  0.00000000000E+00  0.00000000000E+00  0.17567280708E+03  0.10158815282E+04  0.10005770056E+04 0.  0.
         25    2    3    3    0    0  0.10343767567E+03  0.75927354705E+02  0.90869438037E+02  0.20143834927E+03  0.12591996604E+03 0.  0.
         35    2    3    3    0    0 -0.10343767567E+03 -0.75927354705E+02  0.84803369042E+02  0.81444317889E+03  0.79978857475E+03 0.  0.
         22    1    5    5    0    0 -0.20592071937E+03 -0.35192137272E+03  0.24858855843E+03  0.47754399444E+03  0.00000000000E+00 0. -1.
         22    1    5    5    0    0  0.10248304370E+03  0.27599401801E+03 -0.16378518939E+03  0.33689918445E+03  0.00000000000E+00 0. -1.
          5    1    4    4  502    0  0.35411036438E+02  0.32604564619E+02  0.10846318321E+03  0.11875753133E+03  0.47000000000E+01 0.  1.
         -5    1    4    4    0  502  0.68026639235E+02  0.43322790086E+02 -0.17593745172E+02  0.82680817942E+02  0.47000000000E+01 0.  1.
<mgrwt>
<rscale>  0 0.10005770E+04</rscale>
<asrwt>0</asrwt>
<pdfrwt beam="1">  1        2 0.91658026E-01 0.10005770E+04</pdfrwt>
<pdfrwt beam="2">  1       -2 0.64631440E-01 0.10005770E+04</pdfrwt>
<totfact> 0.13375942E+02</totfact>
</mgrwt>
</event>
<event>
 9    1  0.4369420E-036  0.1000847E+04  0.7818608E-02  0.8680232E-01
         -2   -1    0    0    0  501 -0.00000000000E+00  0.00000000000E+00  0.75740137001E+03  0.75740137001E+03  0.00000000000E+00 0. -1.
          2   -1    0    0  501    0  0.00000000000E+00 -0.00000000000E+00 -0.33063532995E+03  0.33063532995E+03  0.00000000000E+00 0. -1.
         36    2    1    2    0    0  0.00000000000E+00  0.00000000000E+00  0.42676604006E+03  0.10880367000E+04  0.10008469451E+04 0.  0.
         25    2    3    3    0    0 -0.27880800620E+02  0.66690033854E+02 -0.50416013123E+02  0.15274681027E+03  0.12475942453E+03 0.  0.
         35    2    3    3    0    0  0.27880800620E+02 -0.66690033854E+02  0.47718205318E+03  0.93528988969E+03  0.80114890390E+03 0.  0.
         22    1    5    5    0    0  0.32834725024E+03  0.11783947959E+02 -0.41072663916E+02  0.33111590402E+03  0.00000000000E+00 0. -1.
         22    1    5    5    0    0 -0.30046644962E+03 -0.78473981813E+02  0.51825471710E+03  0.60417398567E+03  0.00000000000E+00 0. -1.
          5    1    4    4  502    0  0.42768404345E+01  0.98487545522E+02 -0.33138495635E+02  0.10410733826E+03  0.47000000000E+01 0.  1.
         -5    1    4    4    0  502 -0.32157641055E+02 -0.31797511668E+02 -0.17277517488E+02  0.48639472006E+02  0.47000000000E+01 0.  1.
<mgrwt>
<rscale>  0 0.10008469E+04</rscale>
<asrwt>0</asrwt>
<pdfrwt beam="1">  1        2 0.50866974E-01 0.10008469E+04</pdfrwt>
<pdfrwt beam="2">  1       -2 0.11652329E+00 0.10008469E+04</pdfrwt>
<totfact> 0.65819063E+01</totfact>
</mgrwt>
</event>
<event>
 9    1  0.4369420E-036  0.1001556E+04  0.7818608E-02  0.8679558E-01
          1   -1    0    0  501    0  0.00000000000E+00  0.00000000000E+00  0.54735528540E+03  0.54735528540E+03  0.00000000000E+00 0. -1.
         -1   -1    0    0    0  501 -0.00000000000E+00 -0.00000000000E+00 -0.45816418688E+03  0.45816418688E+03  0.00000000000E+00 0. -1.
         36    2    1    2    0    0  0.00000000000E+00 -0.28421709430E-13  0.89191098521E+02  0.10055194723E+04  0.10015559680E+04 0.  0.
         25    2    3    3    0    0  0.83068090486E+02  0.69930345464E+02  0.99648126637E+02  0.19304280678E+03  0.12468045250E+03 0.  0.
         35    2    3    3    0    0 -0.83068090486E+02 -0.69930345464E+02 -0.10457028115E+02  0.81247666550E+03  0.80512012872E+03 0.  0.
         22    1    5    5    0    0 -0.56153024005E+01 -0.38736604675E+03 -0.19869100565E+03  0.43538730059E+03  0.00000000000E+00 0. -1.
         22    1    5    5    0    0 -0.77452788086E+02  0.31743570128E+03  0.18823397753E+03  0.37708936491E+03  0.00000000000E+00 0. -1.
          5    1    4    4  502    0  0.64738854989E+02  0.99863301909E+02  0.43778046759E+02  0.12689525520E+03  0.47000000000E+01 0. -1.
         -5    1    4    4    0  502  0.18329235497E+02 -0.29932956446E+02  0.55870079878E+02  0.66147551587E+02  0.47000000000E+01 0. -1.
<mgrwt>
<rscale>  0 0.10015560E+04</rscale>
<asrwt>0</asrwt>
<pdfrwt beam="1">  1        1 0.84208506E-01 0.10015560E+04</pdfrwt>
<pdfrwt beam="2">  1       -1 0.70486798E-01 0.10015560E+04</pdfrwt>
<totfact> 0.93154604E+01</totfact>
</mgrwt>
</event>
<event>
 9    1  0.4369420E-036  0.1000183E+04  0.7818608E-02  0.8680864E-01
         -2   -1    0    0    0  501 -0.00000000000E+00  0.00000000000E+00  0.19628940052E+04  0.19628940052E+04  0.00000000000E+00 0. -1.
          2   -1    0    0  501    0  0.00000000000E+00 -0.00000000000E+00 -0.12740956430E+03  0.12740956430E+03  0.00000000000E+00 0. -1.
         36    2    1    2    0    0  0.21316282073E-13  0.14210854715E-13  0.18354844409E+04  0.20903035695E+04  0.10001829232E+04 0.  0.
         25    2    3    3    0    0 -0.14969209536E+02  0.11315926293E+03  0.51399852369E+03  0.54095703459E+03  0.12414078661E+03 0.  0.
         35    2    3    3    0    0  0.14969209536E+02 -0.11315926293E+03  0.13214859172E+04  0.15493465349E+04  0.80070004362E+03 0.  0.
         22    1    5    5    0    0  0.34536268360E+03  0.14849544515E+03  0.49463392203E+03  0.62128012786E+03  0.00000000000E+00 0.  1.
         22    1    5    5    0    0 -0.33039347406E+03 -0.26165470808E+03  0.82685199521E+03  0.92806640708E+03  0.00000000000E+00 0.  1.
          5    1    4    4  502    0  0.33437042228E+02  0.53204157670E+02  0.38877643851E+03  0.39385013307E+03  0.47000000000E+01 0.  1.
         -5    1    4    4    0  502 -0.48406251764E+02  0.59955105260E+02  0.12522208518E+03  0.14710690152E+03  0.47000000000E+01 0.  1.
<mgrwt>
<rscale>  0 0.10001829E+04</rscale>
<asrwt>0</asrwt>
<pdfrwt beam="1">  1        2 0.19601473E-01 0.10001829E+04</pdfrwt>
<pdfrwt beam="2">  1       -2 0.30198367E+00 0.10001829E+04</pdfrwt>
<totfact> 0.98867046E+00</totfact>
</mgrwt>
</event>
<event>
 9    1  0.4369420E-036  0.9998912E+03  0.7818608E-02  0.8681142E-01
         -2   -1    0    0    0  501 -0.00000000000E+00  0.00000000000E+00  0.23690356889E+03  0.23690356889E+03  0.00000000000E+00 0. -1.
          2   -1    0    0  501    0  0.00000000000E+00 -0.00000000000E+00 -0.10550520609E+04  0.10550520609E+04  0.00000000000E+00 0. -1.
         36    2    1    2    0    0  0.00000000000E+00  0.35527136788E-14 -0.81814849199E+03  0.12919556298E+04  0.99989119125E+03 0.  0.
         25    2    3    3    0    0 -0.66741028632E+02 -0.13259023295E+02 -0.31092386119E+03  0.34207374770E+03  0.12534207118E+03 0.  0.
         35    2    3    3    0    0  0.66741028632E+02  0.13259023295E+02 -0.50722463080E+03  0.94988188207E+03  0.80023034008E+03 0.  0.
         22    1    5    5    0    0 -0.26979675972E+03 -0.10679001469E+03 -0.51653174722E+03  0.59245206109E+03  0.00000000000E+00 0. -1.
         22    1    5    5    0    0  0.33653778836E+03  0.12004903798E+03  0.93071164196E+01  0.35742982098E+03  0.00000000000E+00 0. -1.
          5    1    4    4  502    0 -0.29095400399E+02  0.20493447770E+02 -0.28068875811E+03  0.28297489757E+03  0.47000000000E+01 0. -1.
         -5    1    4    4    0  502 -0.37645628234E+02 -0.33752471065E+02 -0.30235103074E+02  0.59098850124E+02  0.47000000000E+01 0. -1.
<mgrwt>
<rscale>  0 0.99989119E+03</rscale>
<asrwt>0</asrwt>
<pdfrwt beam="1">  1        2 0.16231570E+00 0.99989119E+03</pdfrwt>
<pdfrwt beam="2">  1       -2 0.36446703E-01 0.99989119E+03</pdfrwt>
<totfact> 0.19889100E+02</totfact>
</mgrwt>
</event>
<event>
 9    1  0.4369420E-036  0.1000079E+04  0.7818608E-02  0.8680963E-01
         -2   -1    0    0    0  501 -0.00000000000E+00  0.00000000000E+00  0.16454101479E+03  0.16454101479E+03  0.00000000000E+00 0.  1.
          2   -1    0    0  501    0  0.00000000000E+00 -0.00000000000E+00 -0.15196180677E+04  0.15196180677E+04  0.00000000000E+00 0.  1.
         36    2    1    2    0    0 -0.14210854715E-13 -0.28421709430E-13 -0.13550770529E+04  0.16841590825E+04  0.10000789948E+04 0.  0.
         25    2    3    3    0    0  0.98204119755E+02 -0.77449632710E+02 -0.37808984319E+03  0.41576135775E+03  0.11942814715E+03 0.  0.
         35    2    3    3    0    0 -0.98204119755E+02  0.77449632710E+02 -0.97698720975E+03  0.12683977248E+04  0.79917850663E+03 0.  0.
         22    1    5    5    0    0  0.16164599513E+03  0.34436416506E+03 -0.72474618737E+03  0.81851887090E+03  0.00000000000E+00 0. -1.
         22    1    5    5    0    0 -0.25985011489E+03 -0.26691453235E+03 -0.25224102238E+03  0.44987885387E+03  0.00000000000E+00 0. -1.
          5    1    4    4  502    0  0.66194764887E+02  0.52567618406E+01 -0.76701205489E+02  0.10156055025E+03  0.47000000000E+01 0. -1.
         -5    1    4    4    0  502  0.32009354868E+02 -0.82706394550E+02 -0.30138863770E+03  0.31420080750E+03  0.47000000000E+01 0. -1.
<mgrwt>
<rscale>  0 0.10000790E+04</rscale>
<asrwt>0</asrwt>
<pdfrwt beam="1">  1        2 0.23378740E+00 0.10000790E+04</pdfrwt>
<pdfrwt beam="2">  1       -2 0.25314002E-01 0.10000790E+04</pdfrwt>
<totfact> 0.20721161E+02</totfact>
</mgrwt>
</event>
<event>
 9    1  0.4369420E-036  0.9990434E+03  0.7818608E-02  0.8681949E-01
         -2   -1    0    0    0  501 -0.00000000000E+00  0.00000000000E+00  0.98487815167E+02  0.98487815167E+02  0.00000000000E+00 0. -1.
          2   -1    0    0  501    0  0.00000000000E+00 -0.00000000000E+00 -0.25335311937E+04  0.25335311937E+04  0.00000000000E+00 0. -1.
         36    2    1    2    0    0 -0.28421709430E-13 -0.71054273576E-14 -0.24350433785E+04  0.26320190088E+04  0.99904344635E+03 0.  0.
         25    2    3    3    0    0  0.98607782047E+02 -0.29207329819E+01 -0.71823513836E+03  0.73566752541E+03  0.12495186516E+03 0.  0.
         35    2    3    3    0    0 -0.98607782047E+02  0.29207329819E+01 -0.17168082402E+04  0.18963514834E+04  0.79936624267E+03 0.  0.
         22    1    5    5    0    0  0.30279180988E+02 -0.28383040181E+03 -0.14678050669E+04  0.14953020565E+04  0.00000000000E+00 0.  1.
         22    1    5    5    0    0 -0.12888696304E+03  0.28675113479E+03 -0.24900317324E+03  0.40104942692E+03  0.00000000000E+00 0.  1.
          5    1    4    4  502    0  0.70406097069E+02 -0.61124496152E+02 -0.46349129265E+03  0.47279963082E+03  0.47000000000E+01 0.  1.
         -5    1    4    4    0  502  0.28201684977E+02  0.58203763170E+02 -0.25474384570E+03  0.26286789459E+03  0.47000000000E+01 0.  1.
<mgrwt>
<rscale>  0 0.99904345E+03</rscale>
<asrwt>0</asrwt>
<pdfrwt beam="1">  1        2 0.38977405E+00 0.99904345E+03</pdfrwt>
<pdfrwt beam="2">  1       -2 0.15151971E-01 0.99904345E+03</pdfrwt>
<totfact> 0.13062068E+02</totfact>
</mgrwt>
</event>
<event>
 9    1  0.4369420E-036  0.1000226E+04  0.7818608E-02  0.8680822E-01
          1   -1    0    0  501    0  0.00000000000E+00  0.00000000000E+00  0.23455368952E+03  0.23455368952E+03  0.00000000000E+00 0. -1.
         -1   -1    0    0    0  501 -0.00000000000E+00 -0.00000000000E+00 -0.10663367058E+04  0.10663367058E+04  0.00000000000E+00 0. -1.
         36    2    1    2    0    0  0.10658141036E-13  0.00000000000E+00 -0.83178301623E+03  0.13008903953E+04  0.10002263916E+04 0.  0.
         25    2    3    3    0    0 -0.18671479921E+02 -0.92965715483E+02 -0.28667374445E+03  0.32691927848E+03  0.12531213215E+03 0.  0.
         35    2    3    3    0    0  0.18671479921E+02  0.92965715483E+02 -0.54510927178E+03  0.97397111679E+03  0.80155122715E+03 0.  0.
         22    1    5    5    0    0  0.79077121104E+02 -0.20170428311E+03  0.11737001199E+03  0.24640115385E+03  0.00000000000E+00 0. -1.
         22    1    5    5    0    0 -0.60405641183E+02  0.29466999859E+03 -0.66247928377E+03  0.72756996294E+03  0.00000000000E+00 0. -1.
          5    1    4    4  502    0  0.24774706130E+02  0.17175815857E+02 -0.24216214252E+02  0.38952660331E+02  0.47000000000E+01 0. -1.
         -5    1    4    4    0  502 -0.43446186051E+02 -0.11014153134E+03 -0.26245753020E+03  0.28796661815E+03  0.47000000000E+01 0. -1.
<mgrwt>
<rscale>  0 0.10002264E+04</rscale>
<asrwt>0</asrwt>
<pdfrwt beam="1">  1        1 0.36085184E-01 0.10002264E+04</pdfrwt>
<pdfrwt beam="2">  1       -1 0.16405180E+00 0.10002264E+04</pdfrwt>
<totfact> 0.37757240E+01</totfact>
</mgrwt>
</event>
<event>
 9    1  0.4369420E-036  0.1004763E+04  0.7818608E-02  0.8676515E-01
          2   -1    0    0  501    0  0.00000000000E+00  0.00000000000E+00  0.60171210448E+03  0.60171210448E+03  0.00000000000E+00 0. -1.
         -2   -1    0    0    0  501 -0.00000000000E+00 -0.00000000000E+00 -0.41944831767E+03  0.41944831767E+03  0.00000000000E+00 0. -1.
         36    2    1    2    0    0  0.00000000000E+00  0.35527136788E-13  0.18226378681E+03  0.10211604221E+04  0.10047629172E+04 0.  0.
         25    2    3    3    0    0 -0.85802698792E+02 -0.60024585257E+02  0.14243506391E+03  0.21605729610E+03  0.12420931452E+03 0.  0.
         35    2    3    3    0    0  0.85802698792E+02  0.60024585257E+02  0.39828722898E+02  0.80510312604E+03  0.79727013141E+03 0.  0.
         22    1    5    5    0    0 -0.19401652803E+03 -0.29232211739E+03  0.53776792724E+02  0.35494587883E+03  0.00000000000E+00 0.  1.
         22    1    5    5    0    0  0.27981922682E+03  0.35234670265E+03 -0.13948069827E+02  0.45015724721E+03  0.00000000000E+00 0.  1.
          5    1    4    4  502    0 -0.64754467844E+02 -0.94805308977E+02  0.75131476352E+02  0.13728807834E+03  0.47000000000E+01 0.  1.
         -5    1    4    4    0  502 -0.21048230948E+02  0.34780723720E+02  0.67303587560E+02  0.78769217763E+02  0.47000000000E+01 0.  1.
<mgrwt>
<rscale>  0 0.10047629E+04</rscale>
<asrwt>0</asrwt>
<pdfrwt beam="1">  1        2 0.92571093E-01 0.10047629E+04</pdfrwt>
<pdfrwt beam="2">  1       -2 0.64530510E-01 0.10047629E+04</pdfrwt>
<totfact> 0.13262321E+02</totfact>
</mgrwt>
</event>
<event>
 9    1  0.4369420E-036  0.1000482E+04  0.7818608E-02  0.8680579E-01
          3   -1    0    0  501    0  0.00000000000E+00  0.00000000000E+00  0.42059361916E+03  0.42059361916E+03  0.00000000000E+00 0. -1.
         -3   -1    0    0    0  501 -0.00000000000E+00 -0.00000000000E+00 -0.59497108904E+03  0.59497108904E+03  0.00000000000E+00 0. -1.
         36    2    1    2    0    0 -0.71054273576E-14  0.14210854715E-13 -0.17437746989E+03  0.10155647082E+04  0.10004819711E+04 0.  0.
         25    2    3    3    0    0  0.51628936897E+02  0.84846368831E+02 -0.13325868226E+03  0.20858155895E+03  0.12603149173E+03 0.  0.
         35    2    3    3    0    0 -0.51628936897E+02 -0.84846368831E+02 -0.41118787626E+02  0.80698314925E+03  0.79979159476E+03 0.  0.
         22    1    5    5    0    0  0.13345574411E+03 -0.67207354319E+02  0.34635477724E+03  0.37721200382E+03  0.00000000000E+00 0.  1.
         22    1    5    5    0    0 -0.18508468101E+03 -0.17639014512E+02 -0.38747356486E+03  0.42977114543E+03  0.00000000000E+00 0.  1.
          5    1    4    4  502    0 -0.36526292487E+02  0.46243167291E+02 -0.26534055683E+02  0.64797736650E+02  0.47000000000E+01 0. -1.
         -5    1    4    4    0  502  0.88155229384E+02  0.38603201540E+02 -0.10672462658E+03  0.14378382230E+03  0.47000000000E+01 0. -1.
<mgrwt>
<rscale>  0 0.10004820E+04</rscale>
<asrwt>0</asrwt>
<pdfrwt beam="1">  1        3 0.64706710E-01 0.10004820E+04</pdfrwt>
<pdfrwt beam="2">  1       -3 0.91534014E-01 0.10004820E+04</pdfrwt>
<totfact> 0.94014826E+00</totfact>
</mgrwt>
</event>
<event>
 9    1  0.4369420E-036  0.9998548E+03  0.7818608E-02  0.8681176E-01
          1   -1    0    0  501    0  0.00000000000E+00  0.00000000000E+00  0.44034740883E+03  0.44034740883E+03  0.00000000000E+00 0.  1.
         -1   -1    0    0    0  501 -0.00000000000E+00 -0.00000000000E+00 -0.56756865830E+03  0.56756865830E+03  0.00000000000E+00 0.  1.
         36    2    1    2    0    0  0.00000000000E+00  0.71054273576E-14 -0.12722124948E+03  0.10079160671E+04  0.99985476549E+03 0.  0.
         25    2    3    3    0    0 -0.13730300318E+03  0.23957935152E+02 -0.17591755232E+02  0.18800656176E+03  0.12494358757E+03 0.  0.
         35    2    3    3    0    0  0.13730300318E+03 -0.23957935152E+02 -0.10962949424E+03  0.81990950537E+03  0.80050413718E+03 0.  0.
         22    1    5    5    0    0  0.36177041306E+03 -0.28659807221E+03 -0.15386311660E+02  0.46179327123E+03  0.00000000000E+00 0.  1.
         22    1    5    5    0    0 -0.22446740988E+03  0.26264013706E+03 -0.94243182583E+02  0.35811623414E+03  0.00000000000E+00 0.  1.
          5    1    4    4  502    0 -0.15551717067E+03  0.82451484152E+01  0.32394601151E+01  0.15584016475E+03  0.47000000000E+01 0.  1.
         -5    1    4    4    0  502  0.18214167487E+02  0.15712786736E+02 -0.20831215347E+02  0.32166397018E+02  0.47000000000E+01 0.  1.
<mgrwt>
<rscale>  0 0.99985477E+03</rscale>
<asrwt>0</asrwt>
<pdfrwt beam="1">  1        1 0.67745755E-01 0.99985477E+03</pdfrwt>
<pdfrwt beam="2">  1       -1 0.87318255E-01 0.99985477E+03</pdfrwt>
<totfact> 0.80871820E+01</totfact>
</mgrwt>
</event>
<event>
 9    1  0.4369420E-036  0.1000568E+04  0.7818608E-02  0.8680497E-01
         -2   -1    0    0    0  501 -0.00000000000E+00  0.00000000000E+00  0.73800014884E+02  0.73800014884E+02  0.00000000000E+00 0.  1.
          2   -1    0    0  501    0  0.00000000000E+00 -0.00000000000E+00 -0.33913858748E+04  0.33913858748E+04  0.00000000000E+00 0.  1.
         36    2    1    2    0    0 -0.14210854715E-13  0.00000000000E+00 -0.33175858599E+04  0.34651858897E+04  0.10005684945E+04 0.  0.
         25    2    3    3    0    0  0.11063330384E+03  0.86634680585E+02 -0.60177986997E+03  0.63040921664E+03  0.12462532940E+03 0.  0.
         35    2    3    3    0    0 -0.11063330384E+03 -0.86634680585E+02 -0.27158059899E+04  0.28347766730E+04  0.80038198080E+03 0.  0.
         22    1    5    5    0    0 -0.44809414534E+02  0.18838107023E+03 -0.24118824406E+04  0.24196429940E+04  0.00000000000E+00 0.  1.
         22    1    5    5    0    0 -0.65823889307E+02 -0.27501575081E+03 -0.30392354930E+03  0.41513367897E+03  0.00000000000E+00 0.  1.
          5    1    4    4  502    0  0.10290749370E+03  0.95063343254E+01 -0.25801819132E+03  0.27798525087E+03  0.47000000000E+01 0.  1.
         -5    1    4    4    0  502  0.77258101390E+01  0.77128346260E+02 -0.34376167865E+03  0.35242396577E+03  0.47000000000E+01 0.  1.
<mgrwt>
<rscale>  0 0.10005685E+04</rscale>
<asrwt>0</asrwt>
<pdfrwt beam="1">  1        2 0.52175161E+00 0.10005685E+04</pdfrwt>
<pdfrwt beam="2">  1       -2 0.11353850E-01 0.10005685E+04</pdfrwt>
<totfact> 0.56524855E+01</totfact>
</mgrwt>
</event>
<event>
 9    1  0.4369420E-036  0.9999308E+03  0.7818608E-02  0.8681104E-01
          2   -1    0    0  501    0  0.00000000000E+00  0.00000000000E+00  0.14675043251E+04  0.14675043251E+04  0.00000000000E+00 0. -1.
         -2   -1    0    0    0  501 -0.00000000000E+00 -0.00000000000E+00 -0.17033368437E+03  0.17033368437E+03  0.00000000000E+00 0. -1.
         36    2    1    2    0    0  0.21316282073E-13  0.00000000000E+00  0.12971706408E+04  0.16378380095E+04  0.99993083468E+03 0.  0.
         25    2    3    3    0    0 -0.26962240797E+02 -0.74286483917E+02  0.43043962321E+03  0.45554405745E+03  0.12647796221E+03 0.  0.
         35    2    3    3    0    0  0.26962240797E+02  0.74286483917E+02  0.86673101756E+03  0.11822939521E+04  0.80021927506E+03 0.  0.
         22    1    5    5    0    0  0.40910960197E+03  0.38009202253E+02  0.35779454696E+03  0.54482318574E+03  0.00000000000E+00 0.  1.
         22    1    5    5    0    0 -0.38214736118E+03  0.36277281664E+02  0.50893647060E+03  0.63747076633E+03  0.00000000000E+00 0.  1.
          5    1    4    4  502    0  0.46925996784E+02 -0.48987502350E+02  0.24530540461E+03  0.25455580153E+03  0.47000000000E+01 0.  1.
         -5    1    4    4    0  502 -0.73888237581E+02 -0.25298981567E+02  0.18513421860E+03  0.20098825592E+03  0.47000000000E+01 0.  1.
<mgrwt>
<rscale>  0 0.99993083E+03</rscale>
<asrwt>0</asrwt>
<pdfrwt beam="1">  1        2 0.22576989E+00 0.99993083E+03</pdfrwt>
<pdfrwt beam="2">  1       -2 0.26205183E-01 0.99993083E+03</pdfrwt>
<totfact> 0.20852661E+02</totfact>
</mgrwt>
</event>
<event>
 9    1  0.4369420E-036  0.9999836E+03  0.7818608E-02  0.8681054E-01
          2   -1    0    0  501    0  0.00000000000E+00  0.00000000000E+00  0.47634215736E+03  0.47634215736E+03  0.00000000000E+00 0.  1.
         -2   -1    0    0    0  501 -0.00000000000E+00 -0.00000000000E+00 -0.52481566281E+03  0.52481566281E+03  0.00000000000E+00 0.  1.
         36    2    1    2    0    0 -0.71054273576E-14 -0.71054273576E-14 -0.48473505454E+02  0.10011578202E+04  0.99998364995E+03 0.  0.
         25    2    3    3    0    0  0.21470038145E+02  0.43559196263E+02  0.12926068734E+03  0.18013718672E+03  0.11568368352E+03 0.  0.
         35    2    3    3    0    0 -0.21470038145E+02 -0.43559196263E+02 -0.17773419280E+03  0.82102063345E+03  0.80007941552E+03 0.  0.
         22    1    5    5    0    0  0.38638413767E+03 -0.56470727882E+02 -0.51425411191E+02  0.39386065793E+03  0.00000000000E+00 0. -1.
         22    1    5    5    0    0 -0.40785417581E+03  0.12911531619E+02 -0.12630878160E+03  0.42715997552E+03  0.00000000000E+00 0. -1.
          5    1    4    4  502    0 -0.37875510245E+02 -0.14087719734E+02  0.57983531793E+02  0.70832182536E+02  0.47000000000E+01 0.  1.
         -5    1    4    4    0  502  0.59345548390E+02  0.57646915997E+02  0.71277155548E+02  0.10930500419E+03  0.47000000000E+01 0.  1.
<mgrwt>
<rscale>  0 0.99998365E+03</rscale>
<asrwt>0</asrwt>
<pdfrwt beam="1">  1        2 0.73283409E-01 0.99998365E+03</pdfrwt>
<pdfrwt beam="2">  1       -2 0.80740871E-01 0.99998365E+03</pdfrwt>
<totfact> 0.10619120E+02</totfact>
</mgrwt>
</event>
<event>
 9    1  0.4369420E-036  0.1000086E+04  0.7818608E-02  0.8680956E-01
          2   -1    0    0  501    0  0.00000000000E+00  0.00000000000E+00  0.22555336829E+03  0.22555336829E+03  0.00000000000E+00 0.  1.
         -2   -1    0    0    0  501 -0.00000000000E+00 -0.00000000000E+00 -0.11085756481E+04  0.11085756481E+04  0.00000000000E+00 0.  1.
         36    2    1    2    0    0  0.00000000000E+00 -0.14210854715E-13 -0.88302227985E+03  0.13341290164E+04  0.10000859392E+04 0.  0.
         25    2    3    3    0    0 -0.57161195773E+02 -0.12197980158E+03 -0.20997347247E+03  0.27864893770E+03  0.12413660638E+03 0.  0.
         35    2    3    3    0    0  0.57161195773E+02  0.12197980158E+03 -0.67304880738E+03  0.10554800787E+04  0.80180859636E+03 0.  0.
         22    1    5    5    0    0  0.21743303443E+03 -0.26504731257E+03 -0.12330079170E+03  0.36432168148E+03  0.00000000000E+00 0.  1.
         22    1    5    5    0    0 -0.16027183866E+03  0.38702711415E+03 -0.54974801568E+03  0.69115839726E+03  0.00000000000E+00 0.  1.
          5    1    4    4  502    0 -0.21867846663E+02 -0.45342045544E+02  0.18487063387E+01  0.50592603480E+02  0.47000000000E+01 0. -1.
         -5    1    4    4    0  502 -0.35293349110E+02 -0.76637756036E+02 -0.21182217881E+03  0.22805633422E+03  0.47000000000E+01 0. -1.
<mgrwt>
<rscale>  0 0.10000859E+04</rscale>
<asrwt>0</asrwt>
<pdfrwt beam="1">  1        2 0.34700518E-01 0.10000859E+04</pdfrwt>
<pdfrwt beam="2">  1       -2 0.17055010E+00 0.10000859E+04</pdfrwt>
<totfact> 0.35485895E+01</totfact>
</mgrwt>
</event>
<event>
 9    1  0.4369420E-036  0.1000904E+04  0.7818608E-02  0.8680177E-01
         -1   -1    0    0    0  501 -0.00000000000E+00  0.00000000000E+00  0.31241098660E+03  0.31241098660E+03  0.00000000000E+00 0.  1.
          1   -1    0    0  501    0  0.00000000000E+00 -0.00000000000E+00 -0.80167586869E+03  0.80167586869E+03  0.00000000000E+00 0.  1.
         36    2    1    2    0    0 -0.71054273576E-14 -0.71054273576E-14 -0.48926488209E+03  0.11140868553E+04  0.10009042893E+04 0.  0.
         25    2    3    3    0    0  0.32833906805E+02  0.39388359182E+02 -0.24207326585E+03  0.27457149858E+03  0.11899803998E+03 0.  0.
         35    2    3    3    0    0 -0.32833906805E+02 -0.39388359182E+02 -0.24719161624E+03  0.83951535672E+03  0.80065774882E+03 0.  0.
         22    1    5    5    0    0  0.68753426748E+02  0.37050173610E+03 -0.15389554821E+03  0.40704104204E+03  0.00000000000E+00 0. -1.
         22    1    5    5    0    0 -0.10158733355E+03 -0.40989009528E+03 -0.93296068034E+02  0.43247431468E+03  0.00000000000E+00 0. -1.
          5    1    4    4  502    0 -0.28217103494E+02  0.32901157315E+02 -0.18682429705E+03  0.19184394452E+03  0.47000000000E+01 0. -1.
         -5    1    4    4    0  502  0.61051010300E+02  0.64872018673E+01 -0.55248968802E+02  0.82727554057E+02  0.47000000000E+01 0. -1.
<mgrwt>
<rscale>  0 0.10009043E+04</rscale>
<asrwt>0</asrwt>
<pdfrwt beam="1">  1        1 0.12333475E+00 0.10009043E+04</pdfrwt>
<pdfrwt beam="2">  1       -1 0.48063229E-01 0.10009043E+04</pdfrwt>
<totfact> 0.10856207E+02</totfact>
</mgrwt>
</event>
<event>
 9    1  0.4369420E-036  0.9995635E+03  0.7818608E-02  0.8681454E-01
          2   -1    0    0  501    0  0.00000000000E+00  0.00000000000E+00  0.32464686928E+03  0.32464686928E+03  0.00000000000E+00 0. -1.
         -2   -1    0    0    0  501 -0.00000000000E+00 -0.00000000000E+00 -0.76939539093E+03  0.76939539093E+03  0.00000000000E+00 0. -1.
         36    2    1    2    0    0 -0.35527136788E-14  0.28421709430E-13 -0.44474852165E+03  0.10940422602E+04  0.99956351455E+03 0.  0.
         25    2    3    3    0    0 -0.29108458768E+02  0.94355185795E+01 -0.22881448069E+03  0.26454177886E+03  0.12918960798E+03 0.  0.
         35    2    3    3    0    0  0.29108458768E+02 -0.94355185795E+01 -0.21593404096E+03  0.82950048135E+03  0.80031694167E+03 0.  0.
         22    1    5    5    0    0  0.13361078891E+03 -0.37479187866E+03 -0.11655843974E+02  0.39806614264E+03  0.00000000000E+00 0. -1.
         22    1    5    5    0    0 -0.10450233014E+03  0.36535636008E+03 -0.20427819699E+03  0.43143433871E+03  0.00000000000E+00 0. -1.
          5    1    4    4  502    0 -0.96356647992E+01 -0.55208834303E+02 -0.15250831335E+03  0.16254764551E+03  0.47000000000E+01 0. -1.
         -5    1    4    4    0  502 -0.19472793969E+02  0.64644352882E+02 -0.76306167336E+02  0.10199413335E+03  0.47000000000E+01 0. -1.
<mgrwt>
<rscale>  0 0.99956351E+03</rscale>
<asrwt>0</asrwt>
<pdfrwt beam="1">  1        2 0.49945673E-01 0.99956351E+03</pdfrwt>
<pdfrwt beam="2">  1       -2 0.11836852E+00 0.99956351E+03</pdfrwt>
<totfact> 0.64501684E+01</totfact>
</mgrwt>
</event>
<event>
 9    1  0.4369420E-036  0.9995888E+03  0.7818608E-02  0.8681430E-01
         -3   -1    0    0    0  501 -0.00000000000E+00  0.00000000000E+00  0.30469886881E+03  0.30469886881E+03  0.00000000000E+00 0.  1.
          3   -1    0    0  501    0  0.00000000000E+00 -0.00000000000E+00 -0.81980757989E+03  0.81980757989E+03  0.00000000000E+00 0.  1.
         36    2    1    2    0    0  0.00000000000E+00  0.71054273576E-14 -0.51510871108E+03  0.11245064487E+04  0.99958879993E+03 0.  0.
         25    2    3    3    0    0  0.13147479288E+03  0.28592953092E+02 -0.54655590765E+02  0.19168059397E+03  0.12510411014E+03 0.  0.
         35    2    3    3    0    0 -0.13147479288E+03 -0.28592953092E+02 -0.46045312032E+03  0.93282585473E+03  0.80002738773E+03 0.  0.
         22    1    5    5    0    0 -0.23126352725E+03  0.28072238606E+03  0.66500167614E+01  0.36377479269E+03  0.00000000000E+00 0.  1.
         22    1    5    5    0    0  0.99788734366E+02 -0.30931533915E+03 -0.46710313708E+03  0.56905106204E+03  0.00000000000E+00 0.  1.
          5    1    4    4  502    0  0.60342714795E+02  0.51841072899E+02 -0.79621044477E+02  0.11265141274E+03  0.47000000000E+01 0.  1.
         -5    1    4    4    0  502  0.71132078086E+02 -0.23248119807E+02  0.24965453713E+02  0.79029181234E+02  0.47000000000E+01 0.  1.
<mgrwt>
<rscale>  0 0.99958880E+03</rscale>
<asrwt>0</asrwt>
<pdfrwt beam="1">  1        3 0.12612424E+00 0.99958880E+03</pdfrwt>
<pdfrwt beam="2">  1       -3 0.46876750E-01 0.99958880E+03</pdfrwt>
<totfact> 0.95110031E+00</totfact>
</mgrwt>
</event>
<event>
 9    1  0.4369420E-036  0.1000537E+04  0.7818608E-02  0.8680527E-01
         -2   -1    0    0    0  501 -0.00000000000E+00  0.00000000000E+00  0.95229360404E+03  0.95229360404E+03  0.00000000000E+00 0.  1.
          2   -1    0    0  501    0  0.00000000000E+00 -0.00000000000E+00 -0.26280604211E+03  0.26280604211E+03  0.00000000000E+00 0.  1.
         36    2    1    2    0    0  0.00000000000E+00  0.00000000000E+00  0.68948756193E+03  0.12150996462E+04  0.10005368819E+04 0.  0.
         25    2    3    3    0    0  0.87815744977E+02  0.96397652823E+02  0.64668217636E+02  0.19144711799E+03  0.12436200417E+03 0.  0.
         35    2    3    3    0    0 -0.87815744977E+02 -0.96397652823E+02  0.62481934430E+03  0.10236525282E+04  0.80028818114E+03 0.  0.
         22    1    5    5    0    0 -0.33251909205E+02 -0.20803879164E+03  0.78962661613E+03  0.81724905702E+03  0.00000000000E+00 0. -1.
         22    1    5    5    0    0 -0.54563835772E+02  0.11164113882E+03 -0.16480727184E+03  0.20640347115E+03  0.00000000000E+00 0. -1.
          5    1    4    4  502    0  0.10994723492E+03  0.39761808466E+02  0.56424731748E+02  0.12990471982E+03  0.47000000000E+01 0.  1.
         -5    1    4    4    0  502 -0.22131489944E+02  0.56635844357E+02  0.82434858878E+01  0.61542398172E+02  0.47000000000E+01 0.  1.
<mgrwt>
<rscale>  0 0.10005369E+04</rscale>
<asrwt>0</asrwt>
<pdfrwt beam="1">  1        2 0.40431699E-01 0.10005369E+04</pdfrwt>
<pdfrwt beam="2">  1       -2 0.14650671E+00 0.10005369E+04</pdfrwt>
<totfact> 0.46101922E+01</totfact>
</mgrwt>
</event>
<event>
 9    1  0.4369420E-036  0.1001862E+04  0.7818608E-02  0.8679267E-01
          2   -1    0    0  501    0  0.00000000000E+00  0.00000000000E+00  0.81719728130E+03  0.81719728130E+03  0.00000000000E+00 0. -1.
         -2   -1    0    0    0  501 -0.00000000000E+00 -0.00000000000E+00 -0.30706398977E+03  0.30706398977E+03  0.00000000000E+00 0. -1.
         36    2    1    2    0    0  0.00000000000E+00  0.14210854715E-13  0.51013329153E+03  0.11242612711E+04  0.10018619818E+04 0.  0.
         25    2    3    3    0    0 -0.86750495194E+02 -0.37683665397E+02 -0.24266081369E+02  0.15754474715E+03  0.12363574563E+03 0.  0.
         35    2    3    3    0    0  0.86750495194E+02  0.37683665397E+02  0.53439937290E+03  0.96671652391E+03  0.80000777546E+03 0.  0.
         22    1    5    5    0    0  0.28225824048E+03 -0.19947127828E+03 -0.52633072024E+01  0.34566777053E+03  0.00000000000E+00 0.  1.
         22    1    5    5    0    0 -0.19550774529E+03  0.23715494368E+03  0.53966268010E+03  0.62104875338E+03  0.00000000000E+00 0.  1.
          5    1    4    4  502    0 -0.28963328510E+02  0.16627267020E+02  0.42160283690E+02  0.53989998405E+02  0.47000000000E+01 0. -1.
         -5    1    4    4    0  502 -0.57787166684E+02 -0.54310932417E+02 -0.66426365059E+02  0.10355474875E+03  0.47000000000E+01 0. -1.
<mgrwt>
<rscale>  0 0.10018620E+04</rscale>
<asrwt>0</asrwt>
<pdfrwt beam="1">  1        2 0.12572266E+00 0.10018620E+04</pdfrwt>
<pdfrwt beam="2">  1       -2 0.47240614E-01 0.10018620E+04</pdfrwt>
<totfact> 0.17210175E+02</totfact>
</mgrwt>
</event>
<event>
 9    1  0.4369420E-036  0.9989182E+03  0.7818608E-02  0.8682069E-01
         -2   -1    0    0    0  501 -0.00000000000E+00  0.00000000000E+00  0.10245018121E+03  0.10245018121E+03  0.00000000000E+00 0. -1.
          2   -1    0    0  501    0  0.00000000000E+00 -0.00000000000E+00 -0.24349334085E+04  0.24349334085E+04  0.00000000000E+00 0. -1.
         36    2    1    2    0    0 -0.21316282073E-13 -0.14210854715E-13 -0.23324832273E+04  0.25373835897E+04  0.99891815264E+03 0.  0.
         25    2    3    3    0    0  0.37745626595E+02  0.51417393522E+02 -0.74815794635E+03  0.76115864941E+03  0.12471445870E+03 0.  0.
         35    2    3    3    0    0 -0.37745626595E+02 -0.51417393522E+02 -0.15843252809E+04  0.17762249403E+04  0.80051231219E+03 0.  0.
         22    1    5    5    0    0  0.14953149283E+03 -0.16187763579E+03 -0.49224933222E+02  0.22580330017E+03  0.00000000000E+00 0. -1.
         22    1    5    5    0    0 -0.18727711942E+03  0.11046024227E+03 -0.15351003477E+04  0.15504216401E+04  0.00000000000E+00 0. -1.
          5    1    4    4  502    0  0.30812593888E+02  0.91278585514E+02 -0.44920025437E+03  0.45943895638E+03  0.47000000000E+01 0. -1.
         -5    1    4    4    0  502  0.69330327064E+01 -0.39861191991E+02 -0.29895769198E+03  0.30171969303E+03  0.47000000000E+01 0. -1.
<mgrwt>
<rscale>  0 0.99891815E+03</rscale>
<asrwt>0</asrwt>
<pdfrwt beam="1">  1        2 0.37460512E+00 0.99891815E+03</pdfrwt>
<pdfrwt beam="2">  1       -2 0.15761567E-01 0.99891815E+03</pdfrwt>
<totfact> 0.14029410E+02</totfact>
</mgrwt>
</event>
<event>
 9    1  0.4369420E-036  0.1000156E+04  0.7818608E-02  0.8680889E-01
         -2   -1    0    0    0  501 -0.00000000000E+00  0.00000000000E+00  0.11597946085E+04  0.11597946085E+04  0.00000000000E+00 0.  1.
          2   -1    0    0  501    0  0.00000000000E+00 -0.00000000000E+00 -0.21562285417E+03  0.21562285417E+03  0.00000000000E+00 0.  1.
         36    2    1    2    0    0  0.56843418861E-13 -0.71054273576E-14  0.94417175437E+03  0.13754174627E+04  0.10001564353E+04 0.  0.
         25    2    3    3    0    0  0.79721044588E+02  0.21877648728E+02  0.20464313577E+02  0.15091238857E+03  0.12458605231E+03 0.  0.
         35    2    3    3    0    0 -0.79721044588E+02 -0.21877648728E+02  0.92370744079E+03  0.12245050741E+04  0.79958937208E+03 0.  0.
         22    1    5    5    0    0  0.33101192389E+03 -0.86792799898E+02  0.21906589335E+03  0.40631484037E+03  0.00000000000E+00 0. -1.
         22    1    5    5    0    0 -0.41073296848E+03  0.64915151170E+02  0.70464154744E+03  0.81819023376E+03  0.00000000000E+00 0. -1.
          5    1    4    4  502    0 -0.23971704328E+02 -0.24160271735E+02  0.14238219083E+02  0.37191104062E+02  0.47000000000E+01 0.  1.
         -5    1    4    4    0  502  0.10369274892E+03  0.46037920463E+02  0.62260944938E+01  0.11372128451E+03  0.47000000000E+01 0.  1.
<mgrwt>
<rscale>  0 0.10001564E+04</rscale>
<asrwt>0</asrwt>
<pdfrwt beam="1">  1        2 0.33172748E-01 0.10001564E+04</pdfrwt>
<pdfrwt beam="2">  1       -2 0.17842994E+00 0.10001564E+04</pdfrwt>
<totfact> 0.32650091E+01</totfact>
</mgrwt>
</event>
<event>
 9    1  0.4369420E-036  0.1000521E+04  0.7818608E-02  0.8680542E-01
         -1   -1    0    0    0  501 -0.00000000000E+00  0.00000000000E+00  0.85001290272E+03  0.85001290272E+03  0.00000000000E+00 0.  1.
          1   -1    0    0  501    0  0.00000000000E+00 -0.00000000000E+00 -0.29441982017E+03  0.29441982017E+03  0.00000000000E+00 0.  1.
         36    2    1    2    0    0  0.71054273576E-14 -0.56843418861E-13  0.55559308255E+03  0.11444327229E+04  0.10005211561E+04 0.  0.
         25    2    3    3    0    0 -0.56264873062E+02 -0.10935316798E+03  0.18726485863E+03  0.25644505214E+03  0.12478816531E+03 0.  0.
         35    2    3    3    0    0  0.56264873062E+02  0.10935316798E+03  0.36832822391E+03  0.88798767075E+03  0.79858159982E+03 0.  0.
         22    1    5    5    0    0 -0.75965873726E+02 -0.29082608706E+03  0.35657353775E+03  0.46636392946E+03  0.00000000000E+00 0. -1.
         22    1    5    5    0    0  0.13223074679E+03  0.40017925504E+03  0.11754686169E+02  0.42162374128E+03  0.00000000000E+00 0. -1.
          5    1    4    4  502    0 -0.59228009596E+02 -0.12560937305E+03  0.19345353938E+03  0.23818487277E+03  0.47000000000E+01 0. -1.
         -5    1    4    4    0  502  0.29631365337E+01  0.16256205069E+02 -0.61886807438E+01  0.18260179372E+02  0.47000000000E+01 0. -1.
<mgrwt>
<rscale>  0 0.10005212E+04</rscale>
<asrwt>0</asrwt>
<pdfrwt beam="1">  1        1 0.45295357E-01 0.10005212E+04</pdfrwt>
<pdfrwt beam="2">  1       -1 0.13077121E+00 0.10005212E+04</pdfrwt>
<totfact> 0.53729447E+01</totfact>
</mgrwt>
</event>
<event>
 9    1  0.4369420E-036  0.9991832E+03  0.7818608E-02  0.8681816E-01
         -2   -1    0    0    0  501 -0.00000000000E+00  0.00000000000E+00  0.11565590659E+03  0.11565590659E+03  0.00000000000E+00 0.  1.
          2   -1    0    0  501    0  0.00000000000E+00 -0.00000000000E+00 -0.21580545744E+04  0.21580545744E+04  0.00000000000E+00 0.  1.
         36    2    1    2    0    0  0.35527136788E-14  0.28421709430E-13 -0.20423986678E+04  0.22737104810E+04  0.99918318296E+03 0.  0.
         25    2    3    3    0    0 -0.84701798238E+00  0.11860605283E+03 -0.21531342066E+03  0.27567292925E+03  0.12477011500E+03 0.  0.
         35    2    3    3    0    0  0.84701798238E+00 -0.11860605283E+03 -0.18270852471E+04  0.19980375517E+04  0.79990339706E+03 0.  0.
         22    1    5    5    0    0 -0.13351901807E+03 -0.11416714058E+03 -0.99712287814E+01  0.17595706743E+03  0.00000000000E+00 0.  1.
         22    1    5    5    0    0  0.13436603605E+03 -0.44389122491E+01 -0.18171140183E+04  0.18220804843E+04  0.00000000000E+00 0.  1.
          5    1    4    4  502    0  0.92752933238E+01 -0.15819625923E+02 -0.88608488229E+02  0.90608199501E+02  0.47000000000E+01 0.  1.
         -5    1    4    4    0  502 -0.10122311306E+02  0.13442567875E+03 -0.12670493243E+03  0.18506472975E+03  0.47000000000E+01 0.  1.
<mgrwt>
<rscale>  0 0.99918318E+03</rscale>
<asrwt>0</asrwt>
<pdfrwt beam="1">  1        2 0.33200840E+00 0.99918318E+03</pdfrwt>
<pdfrwt beam="2">  1       -2 0.17793216E-01 0.99918318E+03</pdfrwt>
<totfact> 0.16632084E+02</totfact>
</mgrwt>
</event>
<event>
 9    1  0.4369420E-036  0.1001089E+04  0.7818608E-02  0.8680002E-01
          2   -1    0    0  501    0  0.00000000000E+00  0.00000000000E+00  0.61050153073E+03  0.61050153073E+03  0.00000000000E+00 0.  1.
         -2   -1    0    0    0  501 -0.00000000000E+00 -0.00000000000E+00 -0.41039139312E+03  0.41039139312E+03  0.00000000000E+00 0.  1.
         36    2    1    2    0    0  0.00000000000E+00 -0.14210854715E-13  0.20011013761E+03  0.10208929239E+04  0.10010885549E+04 0.  0.
         25    2    3    3    0    0 -0.10265803832E+03 -0.96357989072E+02  0.21101278322E+02  0.18943570041E+03  0.12496833901E+03 0.  0.
         35    2    3    3    0    0  0.10265803832E+03  0.96357989072E+02  0.17900885929E+03  0.83145722344E+03  0.79965830691E+03 0.  0.
         22    1    5    5    0    0 -0.81412827887E+02  0.40370961546E+03 -0.36377135383E+02  0.41344019899E+03  0.00000000000E+00 0.  1.
         22    1    5    5    0    0  0.18407086621E+03 -0.30735162639E+03  0.21538599467E+03  0.41801702445E+03  0.00000000000E+00 0.  1.
          5    1    4    4  502    0 -0.48841779062E+02 -0.11969596185E+03  0.12534266970E+02  0.12996861357E+03  0.47000000000E+01 0. -1.
         -5    1    4    4    0  502 -0.53816259257E+02  0.23337972779E+02  0.85670113515E+01  0.59467086841E+02  0.47000000000E+01 0. -1.
<mgrwt>
<rscale>  0 0.10010886E+04</rscale>
<asrwt>0</asrwt>
<pdfrwt beam="1">  1        2 0.93923312E-01 0.10010886E+04</pdfrwt>
<pdfrwt beam="2">  1       -2 0.63137137E-01 0.10010886E+04</pdfrwt>
<totfact> 0.13653906E+02</totfact>
</mgrwt>
</event>
<event>
 9    1  0.4369420E-036  0.1000343E+04  0.7818608E-02  0.8680711E-01
          2   -1    0    0  501    0  0.00000000000E+00  0.00000000000E+00  0.18667842290E+04  0.18667842290E+04  0.00000000000E+00 0.  1.
         -2   -1    0    0    0  501 -0.00000000000E+00 -0.00000000000E+00 -0.13401210433E+03  0.13401210433E+03  0.00000000000E+00 0.  1.
         36    2    1    2    0    0  0.28421709430E-13  0.00000000000E+00  0.17327721247E+04  0.20007963333E+04  0.10003433068E+04 0.  0.
         25    2    3    3    0    0  0.11142326397E+03  0.90554900752E+01  0.15312110845E+03  0.22660269296E+03  0.12411914015E+03 0.  0.
         35    2    3    3    0    0 -0.11142326397E+03 -0.90554900752E+01  0.15796510162E+04  0.17741936404E+04  0.79998037154E+03 0.  0.
         22    1    5    5    0    0 -0.39956974688E+03  0.20101858080E+03  0.79185537945E+03  0.90945005053E+03  0.00000000000E+00 0.  1.
         22    1    5    5    0    0  0.28814648291E+03 -0.21007407087E+03  0.78779563676E+03  0.86474358983E+03  0.00000000000E+00 0.  1.
          5    1    4    4  502    0  0.11133268114E+03  0.46039370388E+02  0.14476293715E+03  0.18839582662E+03  0.47000000000E+01 0. -1.
         -5    1    4    4    0  502  0.90582824933E-01 -0.36983880313E+02  0.83581713042E+01  0.38206866344E+02  0.47000000000E+01 0. -1.
<mgrwt>
<rscale>  0 0.10003433E+04</rscale>
<asrwt>0</asrwt>
<pdfrwt beam="1">  1        2 0.28719756E+00 0.10003433E+04</pdfrwt>
<pdfrwt beam="2">  1       -2 0.20617248E-01 0.10003433E+04</pdfrwt>
<totfact> 0.18926996E+02</totfact>
</mgrwt>
</event>
<event>
 9    1  0.4369420E-036  0.1000101E+04  0.7818608E-02  0.8680942E-01
         -2   -1    0    0    0  501 -0.00000000000E+00  0.00000000000E+00  0.21528678850E+03  0.21528678850E+03  0.00000000000E+00 0.  1.
          2   -1    0    0  501    0  0.00000000000E+00 -0.00000000000E+00 -0.11614767729E+04  0.11614767729E+04  0.00000000000E+00 0.  1.
         36    2    1    2    0    0 -0.14210854715E-13  0.00000000000E+00 -0.94618998442E+03  0.13767635614E+04  0.10001012036E+04 0.  0.
         25    2    3    3    0    0 -0.90911025799E+02 -0.84637894398E+02 -0.81825104275E+02  0.19453807995E+03  0.12538472427E+03 0.  0.
         35    2    3    3    0    0  0.90911025799E+02  0.84637894398E+02 -0.86436488014E+03  0.11822254815E+04  0.79693290511E+03 0.  0.
         22    1    5    5    0    0 -0.15874621266E+03 -0.15107888823E+03  0.32814107260E+02  0.22158961198E+03  0.00000000000E+00 0. -1.
         22    1    5    5    0    0  0.24965723846E+03  0.23571678263E+03 -0.89717898740E+03  0.96063586950E+03  0.00000000000E+00 0. -1.
          5    1    4    4  502    0 -0.90543829049E+01  0.15286686867E+02 -0.60881304153E+02  0.63594715508E+02  0.47000000000E+01 0.  1.
         -5    1    4    4    0  502 -0.81856642894E+02 -0.99924581265E+02 -0.20943800122E+02  0.13094336444E+03  0.47000000000E+01 0.  1.
<mgrwt>
<rscale>  0 0.10001012E+04</rscale>
<asrwt>0</asrwt>
<pdfrwt beam="1">  1        2 0.17868873E+00 0.10001012E+04</pdfrwt>
<pdfrwt beam="2">  1       -2 0.33121045E-01 0.10001012E+04</pdfrwt>
<totfact> 0.20495646E+02</totfact>
</mgrwt>
</event>
<event>
 9    1  0.4369420E-036  0.9996061E+03  0.7818608E-02  0.8681413E-01
         -2   -1    0    0    0  501 -0.00000000000E+00  0.00000000000E+00  0.11323525213E+03  0.11323525213E+03  0.00000000000E+00 0.  1.
          2   -1    0    0  501    0  0.00000000000E+00 -0.00000000000E+00 -0.22060538489E+04  0.22060538489E+04  0.00000000000E+00 0.  1.
         36    2    1    2    0    0  0.21316282073E-13 -0.14210854715E-13 -0.20928185968E+04  0.23192891011E+04  0.99960605001E+03 0.  0.
         25    2    3    3    0    0 -0.26035042567E+02 -0.59908101841E+02 -0.10598573395E+03  0.17739383169E+03  0.12636768420E+03 0.  0.
         35    2    3    3    0    0  0.26035042567E+02  0.59908101841E+02 -0.19868328628E+04  0.21418952694E+04  0.79746079277E+03 0.  0.
         22    1    5    5    0    0 -0.18495403152E+03 -0.19468389929E+03 -0.16432576249E+04  0.16650541841E+04  0.00000000000E+00 0.  1.
         22    1    5    5    0    0  0.21098907408E+03  0.25459200113E+03 -0.34357523797E+03  0.47684108524E+03  0.00000000000E+00 0.  1.
          5    1    4    4  502    0  0.48393045179E+02 -0.40904258231E+02 -0.61877867282E+02  0.88690504692E+02  0.47000000000E+01 0. -1.
         -5    1    4    4    0  502 -0.74428087746E+02 -0.19003843610E+02 -0.44107866670E+02  0.88703326994E+02  0.47000000000E+01 0. -1.
<mgrwt>
<rscale>  0 0.99960605E+03</rscale>
<asrwt>0</asrwt>
<pdfrwt beam="1">  1        2 0.33939290E+00 0.99960605E+03</pdfrwt>
<pdfrwt beam="2">  1       -2 0.17420808E-01 0.99960605E+03</pdfrwt>
<totfact> 0.16172087E+02</totfact>
</mgrwt>
</event>
<event>
 9    1  0.4369420E-036  0.9994893E+03  0.7818608E-02  0.8681524E-01
         -1   -1    0    0    0  501 -0.00000000000E+00  0.00000000000E+00  0.54510006544E+03  0.54510006544E+03  0.00000000000E+00 0.  1.
          1   -1    0    0  501    0  0.00000000000E+00 -0.00000000000E+00 -0.45816303998E+03  0.45816303998E+03  0.00000000000E+00 0.  1.
         36    2    1    2    0    0 -0.28421709430E-13 -0.71054273576E-14  0.86937025456E+02  0.10032631054E+04  0.99948927573E+03 0.  0.
         25    2    3    3    0    0 -0.81132978747E+02  0.50124743503E+02 -0.84164311599E+02  0.17830942583E+03  0.12496227368E+03 0.  0.
         35    2    3    3    0    0  0.81132978747E+02 -0.50124743503E+02  0.17110133706E+03  0.82495367959E+03  0.80136000385E+03 0.  0.
         22    1    5    5    0    0 -0.23943962405E+03 -0.77125597994E+02 -0.20895470639E+03  0.32701951128E+03  0.00000000000E+00 0. -1.
         22    1    5    5    0    0  0.32057260280E+03  0.27000854491E+02  0.38005604345E+03  0.49793416831E+03  0.00000000000E+00 0. -1.
          5    1    4    4  502    0 -0.64099626662E+02  0.91293130675E+02 -0.67754038224E+02  0.13059822948E+03  0.47000000000E+01 0.  1.
         -5    1    4    4    0  502 -0.17033352085E+02 -0.41168387172E+02 -0.16410273375E+02  0.47711196357E+02  0.47000000000E+01 0.  1.
<mgrwt>
<rscale>  0 0.99948928E+03</rscale>
<asrwt>0</asrwt>
<pdfrwt beam="1">  1        1 0.70486622E-01 0.99948928E+03</pdfrwt>
<pdfrwt beam="2">  1       -1 0.83861548E-01 0.99948928E+03</pdfrwt>
<totfact> 0.83505620E+01</totfact>
</mgrwt>
</event>
<event>
 9    1  0.4369420E-036  0.9997507E+03  0.7818608E-02  0.8681275E-01
          1   -1    0    0  501    0  0.00000000000E+00  0.00000000000E+00  0.25587167259E+03  0.25587167259E+03  0.00000000000E+00 0. -1.
         -1   -1    0    0    0  501 -0.00000000000E+00 -0.00000000000E+00 -0.97656509797E+03  0.97656509797E+03  0.00000000000E+00 0. -1.
         36    2    1    2    0    0  0.14210854715E-13  0.00000000000E+00 -0.72069342538E+03  0.12324367706E+04  0.99975065894E+03 0.  0.
         25    2    3    3    0    0  0.12091234816E+03  0.24631409689E+02 -0.21908478706E+03  0.28072167571E+03  0.12481992235E+03 0.  0.
         35    2    3    3    0    0 -0.12091234816E+03 -0.24631409689E+02 -0.50160863833E+03  0.95171509485E+03  0.79932715045E+03 0.  0.
         22    1    5    5    0    0 -0.34680188983E+02  0.70379664843E+02  0.21231735049E+03  0.22635076772E+03  0.00000000000E+00 0. -1.
         22    1    5    5    0    0 -0.86232159173E+02 -0.95011074532E+02 -0.71392598882E+03  0.72536432712E+03  0.00000000000E+00 0. -1.
          5    1    4    4  502    0 -0.19292585737E+01  0.49702021632E+02 -0.66614246812E+02  0.83268006288E+02  0.47000000000E+01 0.  1.
         -5    1    4    4    0  502  0.12284160673E+03 -0.25070611943E+02 -0.15247054025E+03  0.19745366943E+03  0.47000000000E+01 0.  1.
<mgrwt>
<rscale>  0 0.99975066E+03</rscale>
<asrwt>0</asrwt>
<pdfrwt beam="1">  1        1 0.39364872E-01 0.99975066E+03</pdfrwt>
<pdfrwt beam="2">  1       -1 0.15024079E+00 0.99975066E+03</pdfrwt>
<totfact> 0.44016586E+01</totfact>
</mgrwt>
</event>
<event>
 9    1  0.4369420E-036  0.9938269E+03  0.7818608E-02  0.8686939E-01
         -1   -1    0    0    0  501 -0.00000000000E+00  0.00000000000E+00  0.16300074130E+03  0.16300074130E+03  0.00000000000E+00 0.  1.
          1   -1    0    0  501    0  0.00000000000E+00 -0.00000000000E+00 -0.15148581142E+04  0.15148581142E+04  0.00000000000E+00 0.  1.
         36    2    1    2    0    0  0.00000000000E+00  0.14210854715E-13 -0.13518573729E+04  0.16778588555E+04  0.99382693782E+03 0.  0.
         25    2    3    3    0    0 -0.17325854445E+02 -0.84291356813E+02 -0.76095589101E+02  0.16946140213E+03  0.12458495120E+03 0.  0.
         35    2    3    3    0    0  0.17325854445E+02  0.84291356813E+02 -0.12757617838E+04  0.15083974534E+04  0.80018093597E+03 0.  0.
         22    1    5    5    0    0  0.99407200296E+02  0.32630526139E+03 -0.18489975443E+03  0.38800107509E+03  0.00000000000E+00 0. -1.
         22    1    5    5    0    0 -0.82081345851E+02 -0.24201390458E+03 -0.10908620294E+04  0.11203963783E+04  0.00000000000E+00 0. -1.
          5    1    4    4  502    0 -0.26206498606E+01  0.30522594944E+02 -0.34489717932E+02  0.46369464638E+02  0.47000000000E+01 0.  1.
         -5    1    4    4    0  502 -0.14705204585E+02 -0.11481395176E+03 -0.41605871170E+02  0.12309193749E+03  0.47000000000E+01 0.  1.
<mgrwt>
<rscale>  0 0.99382694E+03</rscale>
<asrwt>0</asrwt>
<pdfrwt beam="1">  1        1 0.23305509E+00 0.99382694E+03</pdfrwt>
<pdfrwt beam="2">  1       -1 0.25077038E-01 0.99382694E+03</pdfrwt>
<totfact> 0.96003619E+01</totfact>
</mgrwt>
</event>
<event>
 9    1  0.4369420E-036  0.1000108E+04  0.7818608E-02  0.8680935E-01
         -3   -1    0    0    0  501 -0.00000000000E+00  0.00000000000E+00  0.19999939419E+04  0.19999939419E+04  0.00000000000E+00 0.  1.
          3   -1    0    0  501    0  0.00000000000E+00 -0.00000000000E+00 -0.12502740672E+03  0.12502740672E+03  0.00000000000E+00 0.  1.
         36    2    1    2    0    0  0.56843418861E-13  0.14210854715E-13  0.18749665352E+04  0.21250213487E+04  0.10001081062E+04 0.  0.
         25    2    3    3    0    0  0.64660007933E+01 -0.82985245802E+02  0.59365188590E+03  0.61252803026E+03  0.12585573502E+03 0.  0.
         35    2    3    3    0    0 -0.64660007933E+01  0.82985245802E+02  0.12813146493E+04  0.15124933184E+04  0.79933750535E+03 0.  0.
         22    1    5    5    0    0  0.26394151528E+03  0.27374648261E+03  0.32394031546E+03  0.49953937603E+03  0.00000000000E+00 0. -1.
         22    1    5    5    0    0 -0.27040751607E+03 -0.19076123681E+03  0.95737433386E+03  0.10129539424E+04  0.00000000000E+00 0. -1.
          5    1    4    4  502    0 -0.46451889002E+02  0.58794761235E+01  0.20381121381E+03  0.20917324663E+03  0.47000000000E+01 0. -1.
         -5    1    4    4    0  502  0.52917889795E+02 -0.88864721926E+02  0.38984067208E+03  0.40335478363E+03  0.47000000000E+01 0. -1.
<mgrwt>
<rscale>  0 0.10001081E+04</rscale>
<asrwt>0</asrwt>
<pdfrwt beam="1">  1        3 0.19234987E-01 0.10001081E+04</pdfrwt>
<pdfrwt beam="2">  1       -3 0.30769135E+00 0.10001081E+04</pdfrwt>
<totfact> 0.14497097E+00</totfact>
</mgrwt>
</event>
<event>
 9    1  0.4369420E-036  0.9993232E+03  0.7818608E-02  0.8681683E-01
         -2   -1    0    0    0  501 -0.00000000000E+00  0.00000000000E+00  0.13901859283E+03  0.13901859283E+03  0.00000000000E+00 0.  1.
          2   -1    0    0  501    0  0.00000000000E+00 -0.00000000000E+00 -0.17958873128E+04  0.17958873128E+04  0.00000000000E+00 0.  1.
         36    2    1    2    0    0  0.28421709430E-13  0.14210854715E-13 -0.16568687199E+04  0.19349059056E+04  0.99932322519E+03 0.  0.
         25    2    3    3    0    0 -0.75451414872E+02  0.87231440372E+02 -0.45790494826E+03  0.48845689080E+03  0.12494379670E+03 0.  0.
         35    2    3    3    0    0  0.75451414872E+02 -0.87231440372E+02 -0.11989637717E+04  0.14464490148E+04  0.80087351462E+03 0.  0.
         22    1    5    5    0    0  0.37034335277E+03 -0.26892354967E+03 -0.60128280119E+03  0.75565539865E+03  0.00000000000E+00 0.  1.
         22    1    5    5    0    0 -0.29489193790E+03  0.18169210930E+03 -0.59768097049E+03  0.69079361614E+03  0.00000000000E+00 0.  1.
          5    1    4    4  502    0  0.94749609419E+01  0.77859310455E+01  0.26715002764E+01  0.13402332663E+02  0.47000000000E+01 0.  1.
         -5    1    4    4    0  502 -0.84926375814E+02  0.79445509327E+02 -0.46057644854E+03  0.47505455814E+03  0.47000000000E+01 0.  1.
<mgrwt>
<rscale>  0 0.99932323E+03</rscale>
<asrwt>0</asrwt>
<pdfrwt beam="1">  1        2 0.27629036E+00 0.99932323E+03</pdfrwt>
<pdfrwt beam="2">  1       -2 0.21387476E-01 0.99932323E+03</pdfrwt>
<totfact> 0.19471833E+02</totfact>
</mgrwt>
</event>
<event>
 9    1  0.4369420E-036  0.9977419E+03  0.7818608E-02  0.8683191E-01
         -1   -1    0    0    0  501 -0.00000000000E+00  0.00000000000E+00  0.53507518344E+03  0.53507518344E+03  0.00000000000E+00 0.  1.
          1   -1    0    0  501    0  0.00000000000E+00 -0.00000000000E+00 -0.46511636268E+03  0.46511636268E+03  0.00000000000E+00 0.  1.
         36    2    1    2    0    0  0.00000000000E+00  0.14210854715E-13  0.69958820756E+02  0.10001915461E+04  0.99774189665E+03 0.  0.
         25    2    3    3    0    0 -0.12769246296E+02  0.57506778040E+02 -0.11216878734E+03  0.17795693713E+03  0.12496700144E+03 0.  0.
         35    2    3    3    0    0  0.12769246296E+02 -0.57506778040E+02  0.18212760809E+03  0.82223460898E+03  0.79964317255E+03 0.  0.
         22    1    5    5    0    0 -0.20233352603E+03  0.19415870949E+03  0.35206918590E+03  0.45009906897E+03  0.00000000000E+00 0.  1.
         22    1    5    5    0    0  0.21510277233E+03 -0.25166548753E+03 -0.16994157780E+03  0.37213554002E+03  0.00000000000E+00 0.  1.
          5    1    4    4  502    0 -0.48226559663E+02  0.60033946096E+02 -0.20948585021E+02  0.79942535331E+02  0.47000000000E+01 0. -1.
         -5    1    4    4    0  502  0.35457313367E+02 -0.25271680558E+01 -0.91220202318E+02  0.98014401801E+02  0.47000000000E+01 0. -1.
<mgrwt>
<rscale>  0 0.99774190E+03</rscale>
<asrwt>0</asrwt>
<pdfrwt beam="1">  1        1 0.71556363E-01 0.99774190E+03</pdfrwt>
<pdfrwt beam="2">  1       -1 0.82319259E-01 0.99774190E+03</pdfrwt>
<totfact> 0.85104004E+01</totfact>
</mgrwt>
</event>
<event>
 9    1  0.4369420E-036  0.9960255E+03  0.7818608E-02  0.8684832E-01
          1   -1    0    0  501    0  0.00000000000E+00  0.00000000000E+00  0.34866673390E+03  0.34866673390E+03  0.00000000000E+00 0.  1.
         -1   -1    0    0    0  501 -0.00000000000E+00 -0.00000000000E+00 -0.71132887661E+03  0.71132887661E+03  0.00000000000E+00 0.  1.
         36    2    1    2    0    0  0.14210854715E-13  0.00000000000E+00 -0.36266214270E+03  0.10599956105E+04  0.99602553409E+03 0.  0.
         25    2    3    3    0    0  0.42699190348E+02  0.10699471167E+03 -0.14477475594E+03  0.22307823099E+03  0.12463176964E+03 0.  0.
         35    2    3    3    0    0 -0.42699190348E+02 -0.10699471167E+03 -0.21788738676E+03  0.83691737952E+03  0.79980291175E+03 0.  0.
         22    1    5    5    0    0 -0.17202583924E+03  0.27976178057E+03  0.72449795167E+02  0.33631609545E+03  0.00000000000E+00 0. -1.
         22    1    5    5    0    0  0.12932664890E+03 -0.38675649224E+03 -0.29033718193E+03  0.50060128407E+03  0.00000000000E+00 0. -1.
          5    1    4    4  502    0  0.60412689483E+02  0.42966359982E+02 -0.13724046864E+03  0.15605395661E+03  0.47000000000E+01 0.  1.
         -5    1    4    4    0  502 -0.17713499135E+02  0.64028351686E+02 -0.75342872977E+01  0.67024274381E+02  0.47000000000E+01 0.  1.
<mgrwt>
<rscale>  0 0.99602553E+03</rscale>
<asrwt>0</asrwt>
<pdfrwt beam="1">  1        1 0.53641037E-01 0.99602553E+03</pdfrwt>
<pdfrwt beam="2">  1       -1 0.10943521E+00 0.99602553E+03</pdfrwt>
<totfact> 0.66899455E+01</totfact>
</mgrwt>
</event>
<event>
 9    1  0.4369420E-036  0.1000372E+04  0.7818608E-02  0.8680684E-01
          1   -1    0    0  501    0  0.00000000000E+00  0.00000000000E+00  0.13077455392E+03  0.13077455392E+03  0.00000000000E+00 0.  1.
         -1   -1    0    0    0  501 -0.00000000000E+00 -0.00000000000E+00 -0.19131079841E+04  0.19131079841E+04  0.00000000000E+00 0.  1.
         36    2    1    2    0    0 -0.28421709430E-13 -0.14210854715E-13 -0.17823334302E+04  0.20438825380E+04  0.10003716174E+04 0.  0.
         25    2    3    3    0    0  0.10956115066E+03  0.48054663034E+02 -0.18362238426E+03  0.25199424055E+03  0.12438255864E+03 0.  0.
         35    2    3    3    0    0 -0.10956115066E+03 -0.48054663034E+02 -0.15987110459E+04  0.17918882975E+04  0.80042099291E+03 0.  0.
         22    1    5    5    0    0  0.34367061518E+02 -0.41404280862E+03 -0.85498922067E+03  0.95058882265E+03  0.00000000000E+00 0. -1.
         22    1    5    5    0    0 -0.14392821218E+03  0.36598814559E+03 -0.74372182524E+03  0.84129947481E+03  0.00000000000E+00 0. -1.
          5    1    4    4  502    0 -0.25519325570E+00  0.39455879334E+01 -0.11489841527E+03  0.11506245530E+03  0.47000000000E+01 0.  1.
         -5    1    4    4    0  502  0.10981634392E+03  0.44109075100E+02 -0.68723968994E+02  0.13693178525E+03  0.47000000000E+01 0.  1.
<mgrwt>
<rscale>  0 0.10003716E+04</rscale>
<asrwt>0</asrwt>
<pdfrwt beam="1">  1        1 0.20119164E-01 0.10003716E+04</pdfrwt>
<pdfrwt beam="2">  1       -1 0.29432428E+00 0.10003716E+04</pdfrwt>
<totfact> 0.49402566E+00</totfact>
</mgrwt>
</event>
<event>
 9    1  0.4369420E-036  0.1001361E+04  0.7818608E-02  0.8679743E-01
          1   -1    0    0  501    0  0.00000000000E+00  0.00000000000E+00  0.59082220219E+03  0.59082220219E+03  0.00000000000E+00 0.  1.
         -1   -1    0    0    0  501 -0.00000000000E+00 -0.00000000000E+00 -0.42429211137E+03  0.42429211137E+03  0.00000000000E+00 0.  1.
         36    2    1    2    0    0 -0.14210854715E-13  0.28421709430E-13  0.16653009082E+03  0.10151143136E+04  0.10013614724E+04 0.  0.
         25    2    3    3    0    0 -0.56257133227E+02 -0.11184917619E+03  0.97065406343E+02  0.20243233475E+03  0.12602402069E+03 0.  0.
         35    2    3    3    0    0  0.56257133227E+02  0.11184917619E+03  0.69464684476E+02  0.81268197880E+03  0.79996972007E+03 0.  0.
         22    1    5    5    0    0  0.13445722369E+03  0.39827608104E+03 -0.14691241523E+03  0.44529298162E+03  0.00000000000E+00 0. -1.
         22    1    5    5    0    0 -0.78200090465E+02 -0.28642690485E+03  0.21637709971E+03  0.36738899718E+03  0.00000000000E+00 0. -1.
          5    1    4    4  502    0 -0.15994158216E+02 -0.12402978761E+01 -0.26740985873E+02  0.31536039087E+02  0.47000000000E+01 0.  1.
         -5    1    4    4    0  502 -0.40262975011E+02 -0.11060887832E+03  0.12380639222E+03  0.17089629567E+03  0.47000000000E+01 0.  1.
<mgrwt>
<rscale>  0 0.10013615E+04</rscale>
<asrwt>0</asrwt>
<pdfrwt beam="1">  1        1 0.90895723E-01 0.10013615E+04</pdfrwt>
<pdfrwt beam="2">  1       -1 0.65275710E-01 0.10013615E+04</pdfrwt>
<totfact> 0.97101315E+01</totfact>
</mgrwt>
</event>
<event>
 9    1  0.4369420E-036  0.9998960E+03  0.7818608E-02  0.8681137E-01
          2   -1    0    0  501    0  0.00000000000E+00  0.00000000000E+00  0.26306124002E+04  0.26306124002E+04  0.00000000000E+00 0.  1.
         -2   -1    0    0    0  501 -0.00000000000E+00 -0.00000000000E+00 -0.95015129803E+02  0.95015129803E+02  0.00000000000E+00 0.  1.
         36    2    1    2    0    0  0.21316282073E-13  0.14210854715E-13  0.25355972704E+04  0.27256275300E+04  0.99989595192E+03 0.  0.
         25    2    3    3    0    0  0.42913545590E+01  0.94354873008E+02  0.18836014257E+03  0.24420174900E+03  0.12342484807E+03 0.  0.
         35    2    3    3    0    0 -0.42913545590E+01 -0.94354873008E+02  0.23472371278E+04  0.24814257810E+04  0.79939384198E+03 0.  0.
         22    1    5    5    0    0 -0.28331631421E+03 -0.28318877820E+03  0.17542911759E+04  0.17994447888E+04  0.00000000000E+00 0. -1.
         22    1    5    5    0    0  0.27902495965E+03  0.18883390519E+03  0.59294595194E+03  0.68198099224E+03  0.00000000000E+00 0. -1.
          5    1    4    4  502    0 -0.42506771410E+02  0.84963523251E+02  0.75060091353E+02  0.12116820215E+03  0.47000000000E+01 0.  1.
         -5    1    4    4    0  502  0.46798125969E+02  0.93913497575E+01  0.11330005122E+03  0.12303354685E+03  0.47000000000E+01 0.  1.
<mgrwt>
<rscale>  0 0.99989595E+03</rscale>
<asrwt>0</asrwt>
<pdfrwt beam="1">  1        2 0.40470954E+00 0.99989595E+03</pdfrwt>
<pdfrwt beam="2">  1       -2 0.14617714E-01 0.99989595E+03</pdfrwt>
<totfact> 0.12084058E+02</totfact>
</mgrwt>
</event>
<event>
 9    1  0.4369420E-036  0.1000189E+04  0.7818608E-02  0.8680858E-01
          1   -1    0    0  501    0  0.00000000000E+00  0.00000000000E+00  0.12090260964E+04  0.12090260964E+04  0.00000000000E+00 0.  1.
         -1   -1    0    0    0  501 -0.00000000000E+00 -0.00000000000E+00 -0.20685630376E+03  0.20685630376E+03  0.00000000000E+00 0.  1.
         36    2    1    2    0    0  0.00000000000E+00 -0.28421709430E-13  0.10021697926E+04  0.14158824002E+04  0.10001893210E+04 0.  0.
         25    2    3    3    0    0 -0.50167034991E+02  0.13120972716E+03  0.19003869251E+03  0.26743123719E+03  0.12518801090E+03 0.  0.
         35    2    3    3    0    0  0.50167034991E+02 -0.13120972716E+03  0.81213110013E+03  0.11484511630E+04  0.79978148643E+03 0.  0.
         22    1    5    5    0    0  0.19859390613E+01  0.28891702512E+03  0.74782857190E+02  0.29844508220E+03  0.00000000000E+00 0.  1.
         22    1    5    5    0    0  0.48181095930E+02 -0.42012675228E+03  0.73734824294E+03  0.85000608077E+03  0.00000000000E+00 0.  1.
          5    1    4    4  502    0  0.16023061978E+02  0.20845979117E+02 -0.10835255353E+02  0.28823360648E+02  0.47000000000E+01 0.  1.
         -5    1    4    4    0  502 -0.66190096970E+02  0.11036374804E+03  0.20087394786E+03  0.23860787654E+03  0.47000000000E+01 0.  1.
<mgrwt>
<rscale>  0 0.10001893E+04</rscale>
<asrwt>0</asrwt>
<pdfrwt beam="1">  1        1 0.18600401E+00 0.10001893E+04</pdfrwt>
<pdfrwt beam="2">  1       -1 0.31824047E-01 0.10001893E+04</pdfrwt>
<totfact> 0.10660139E+02</totfact>
</mgrwt>
</event>
<event>
 9    1  0.4369420E-036  0.1000140E+04  0.7818608E-02  0.8680904E-01
          1   -1    0    0  501    0  0.00000000000E+00  0.00000000000E+00  0.13627645554E+04  0.13627645554E+04  0.00000000000E+00 0.  1.
         -1   -1    0    0    0  501 -0.00000000000E+00 -0.00000000000E+00 -0.18350204449E+03  0.18350204449E+03  0.00000000000E+00 0.  1.
         36    2    1    2    0    0  0.00000000000E+00  0.00000000000E+00  0.11792625109E+04  0.15462665999E+04  0.10001401544E+04 0.  0.
         25    2    3    3    0    0 -0.44690842694E+02  0.11916409158E+03  0.12982457229E+03  0.22055719302E+03  0.12487475196E+03 0.  0.
         35    2    3    3    0    0  0.44690842694E+02 -0.11916409158E+03  0.10494379386E+04  0.13257094069E+04  0.79999255769E+03 0.  0.
         22    1    5    5    0    0 -0.74985723783E+02  0.31853379361E+03  0.61945745184E+03  0.70058130940E+03  0.00000000000E+00 0. -1.
         22    1    5    5    0    0  0.11967656648E+03 -0.43769788519E+03  0.42998048681E+03  0.62512809751E+03  0.00000000000E+00 0. -1.
          5    1    4    4  502    0  0.31417768444E+02  0.56728969844E+01  0.37805757026E+00  0.32272137545E+02  0.47000000000E+01 0.  1.
         -5    1    4    4    0  502 -0.76108611138E+02  0.11349119460E+03  0.12944651472E+03  0.18828505547E+03  0.47000000000E+01 0.  1.
<mgrwt>
<rscale>  0 0.10001402E+04</rscale>
<asrwt>0</asrwt>
<pdfrwt beam="1">  1        1 0.20965608E+00 0.10001402E+04</pdfrwt>
<pdfrwt beam="2">  1       -1 0.28231085E-01 0.10001402E+04</pdfrwt>
<totfact> 0.10094718E+02</totfact>
</mgrwt>
</event>
<event>
 9    1  0.4369420E-036  0.9997661E+03  0.7818608E-02  0.8681261E-01
          1   -1    0    0  501    0  0.00000000000E+00  0.00000000000E+00  0.33731348026E+04  0.33731348026E+04  0.00000000000E+00 0. -1.
         -1   -1    0    0    0  501 -0.00000000000E+00 -0.00000000000E+00 -0.74080372489E+02  0.74080372489E+02  0.00000000000E+00 0. -1.
         36    2    1    2    0    0  0.71054273576E-14  0.71054273576E-14  0.32990544301E+04  0.34472151750E+04  0.99976613791E+03 0.  0.
         25    2    3    3    0    0  0.51317730750E+02 -0.31520357722E+02  0.14520544081E+03  0.19293846762E+03  0.11186415782E+03 0.  0.
         35    2    3    3    0    0 -0.51317730750E+02  0.31520357722E+02  0.31538489893E+04  0.32542767074E+04  0.79995399807E+03 0.  0.
         22    1    5    5    0    0  0.76036371744E+02 -0.15956824377E+03  0.12442123201E+03  0.21615780629E+03  0.00000000000E+00 0. -1.
         22    1    5    5    0    0 -0.12735410249E+03  0.19108860149E+03  0.30294277572E+04  0.30381189011E+04  0.00000000000E+00 0. -1.
          5    1    4    4  502    0  0.69485894320E+02 -0.55287738986E+02  0.74445990803E+02  0.11597119961E+03  0.47000000000E+01 0.  1.
         -5    1    4    4    0  502 -0.18168163570E+02  0.23767381264E+02  0.70759450008E+02  0.76967268011E+02  0.47000000000E+01 0.  1.
<mgrwt>
<rscale>  0 0.99976614E+03</rscale>
<asrwt>0</asrwt>
<pdfrwt beam="1">  1        1 0.51894370E+00 0.99976614E+03</pdfrwt>
<pdfrwt beam="2">  1       -1 0.11396983E-01 0.99976614E+03</pdfrwt>
<totfact> 0.16553150E+01</totfact>
</mgrwt>
</event>
<event>
 9    1  0.4369420E-036  0.9998106E+03  0.7818608E-02  0.8681218E-01
         -2   -1    0    0    0  501 -0.00000000000E+00  0.00000000000E+00  0.20301324764E+03  0.20301324764E+03  0.00000000000E+00 0. -1.
          2   -1    0    0  501    0  0.00000000000E+00 -0.00000000000E+00 -0.12309801951E+04  0.12309801951E+04  0.00000000000E+00 0. -1.
         36    2    1    2    0    0  0.00000000000E+00 -0.14210854715E-13 -0.10279669475E+04  0.14339934427E+04  0.99981055643E+03 0.  0.
         25    2    3    3    0    0  0.11803886192E+03 -0.51151966337E+02 -0.11508319278E+03  0.21341148402E+03  0.12550148871E+03 0.  0.
         35    2    3    3    0    0 -0.11803886192E+03  0.51151966337E+02 -0.91288375468E+03  0.12205819587E+04  0.79994616807E+03 0.  0.
         22    1    5    5    0    0 -0.37507223581E+03 -0.21974199069E+03 -0.53458205389E+03  0.68901647069E+03  0.00000000000E+00 0.  1.
         22    1    5    5    0    0  0.25703337389E+03  0.27089395702E+03 -0.37830170079E+03  0.53156548803E+03  0.00000000000E+00 0.  1.
          5    1    4    4  502    0  0.74002192758E+02 -0.68487109562E+02 -0.12905622578E+03  0.16384263218E+03  0.47000000000E+01 0. -1.
         -5    1    4    4    0  502  0.44036669162E+02  0.17335143226E+02  0.13973032992E+02  0.49568851838E+02  0.47000000000E+01 0. -1.
<mgrwt>
<rscale>  0 0.99981056E+03</rscale>
<asrwt>0</asrwt>
<pdfrwt beam="1">  1        2 0.18938157E+00 0.99981056E+03</pdfrwt>
<pdfrwt beam="2">  1       -2 0.31232807E-01 0.99981056E+03</pdfrwt>
<totfact> 0.20771528E+02</totfact>
</mgrwt>
</event>
<event>
 9    1  0.4369420E-036  0.1001652E+04  0.7818608E-02  0.8679467E-01
          2   -1    0    0  501    0  0.00000000000E+00  0.00000000000E+00  0.13503825076E+04  0.13503825076E+04  0.00000000000E+00 0.  1.
         -2   -1    0    0    0  501 -0.00000000000E+00 -0.00000000000E+00 -0.18574481101E+03  0.18574481101E+03  0.00000000000E+00 0.  1.
         36    2    1    2    0    0 -0.28421709430E-13 -0.71054273576E-14  0.11646376966E+04  0.15361273186E+04  0.10016517232E+04 0.  0.
         25    2    3    3    0    0 -0.13075688976E+03 -0.52759378622E+02  0.23880026479E+03  0.30415994528E+03  0.12492713714E+03 0.  0.
         35    2    3    3    0    0  0.13075688976E+03  0.52759378622E+02  0.92583743177E+03  0.12319673733E+04  0.80042972369E+03 0.  0.
         22    1    5    5    0    0  0.22332096486E+02 -0.49522323103E+02  0.10417384127E+04  0.10431539213E+04  0.00000000000E+00 0. -1.
         22    1    5    5    0    0  0.10842479328E+03  0.10228170173E+03 -0.11590098089E+03  0.18881345205E+03  0.00000000000E+00 0. -1.
          5    1    4    4  502    0 -0.49630798872E+02 -0.83385057940E+02  0.15836979377E+03  0.18579387951E+03  0.47000000000E+01 0. -1.
         -5    1    4    4    0  502 -0.81126090891E+02  0.30625679317E+02  0.80430471027E+02  0.11836606577E+03  0.47000000000E+01 0. -1.
<mgrwt>
<rscale>  0 0.10016517E+04</rscale>
<asrwt>0</asrwt>
<pdfrwt beam="1">  1        2 0.20775115E+00 0.10016517E+04</pdfrwt>
<pdfrwt beam="2">  1       -2 0.28576126E-01 0.10016517E+04</pdfrwt>
<totfact> 0.20817164E+02</totfact>
</mgrwt>
</event>
<event>
 9    1  0.4369420E-036  0.1001951E+04  0.7818608E-02  0.8679183E-01
          2   -1    0    0  501    0  0.00000000000E+00  0.00000000000E+00  0.94709842291E+03  0.94709842291E+03  0.00000000000E+00 0.  1.
         -2   -1    0    0    0  501 -0.00000000000E+00 -0.00000000000E+00 -0.26499493365E+03  0.26499493365E+03  0.00000000000E+00 0.  1.
         36    2    1    2    0    0  0.14210854715E-13  0.35527136788E-14  0.68210348925E+03  0.12120933566E+04  0.10019506649E+04 0.  0.
         25    2    3    3    0    0 -0.80905404121E+02 -0.11003662694E+01  0.27688708374E+03  0.31423146594E+03  0.12461164400E+03 0.  0.
         35    2    3    3    0    0  0.80905404121E+02  0.11003662694E+01  0.40521640551E+03  0.89786189062E+03  0.79712530013E+03 0.  0.
         22    1    5    5    0    0 -0.28678426617E+03 -0.20941940894E+03  0.29082562973E+03  0.45900027350E+03  0.00000000000E+00 0. -1.
         22    1    5    5    0    0  0.36768967029E+03  0.21051977521E+03  0.11439077578E+03  0.43886161712E+03  0.00000000000E+00 0. -1.
          5    1    4    4  502    0 -0.10075205503E+03 -0.19172572768E+02  0.26556989207E+03  0.28472446631E+03  0.47000000000E+01 0.  1.
         -5    1    4    4    0  502  0.19846650906E+02  0.18072206498E+02  0.11317191669E+02  0.29506999630E+02  0.47000000000E+01 0.  1.
<mgrwt>
<rscale>  0 0.10019507E+04</rscale>
<asrwt>0</asrwt>
<pdfrwt beam="1">  1        2 0.14570745E+00 0.10019507E+04</pdfrwt>
<pdfrwt beam="2">  1       -2 0.40768452E-01 0.10019507E+04</pdfrwt>
<totfact> 0.18791507E+02</totfact>
</mgrwt>
</event>
<event>
 9    1  0.4369420E-036  0.9998633E+03  0.7818608E-02  0.8681168E-01
          2   -1    0    0  501    0  0.00000000000E+00  0.00000000000E+00  0.42019929920E+04  0.42019929920E+04  0.00000000000E+00 0. -1.
         -2   -1    0    0    0  501 -0.00000000000E+00 -0.00000000000E+00 -0.59479308062E+02  0.59479308062E+02  0.00000000000E+00 0. -1.
         36    2    1    2    0    0  0.28421709430E-13 -0.71054273576E-14  0.41425136839E+04  0.42614723001E+04  0.99986326194E+03 0.  0.
         25    2    3    3    0    0 -0.99221679177E+02  0.15701013762E+01  0.11908639875E+04  0.12016941446E+04  0.12674531029E+03 0.  0.
         35    2    3    3    0    0  0.99221679177E+02 -0.15701013762E+01  0.29516496965E+04  0.30597781554E+04  0.80009938328E+03 0.  0.
         22    1    5    5    0    0 -0.24593677422E+03 -0.13780658925E+03  0.45181443491E+03  0.53255219138E+03  0.00000000000E+00 0.  1.
         22    1    5    5    0    0  0.34515845340E+03  0.13623648787E+03  0.24998352615E+04  0.25272259641E+04  0.00000000000E+00 0.  1.
          5    1    4    4  502    0 -0.58732155481E+02 -0.61848642358E+02  0.60565243649E+03  0.61164669906E+03  0.47000000000E+01 0. -1.
         -5    1    4    4    0  502 -0.40489523695E+02  0.63418743734E+02  0.58521155099E+03  0.59004744555E+03  0.47000000000E+01 0. -1.
<mgrwt>
<rscale>  0 0.99986326E+03</rscale>
<asrwt>0</asrwt>
<pdfrwt beam="1">  1        2 0.64646023E+00 0.99986326E+03</pdfrwt>
<pdfrwt beam="2">  1       -2 0.91506661E-02 0.99986326E+03</pdfrwt>
<totfact> 0.17271942E+01</totfact>
</mgrwt>
</event>
<event>
 9    1  0.4369420E-036  0.9985314E+03  0.7818608E-02  0.8682438E-01
         -1   -1    0    0    0  501 -0.00000000000E+00  0.00000000000E+00  0.58164433907E+03  0.58164433907E+03  0.00000000000E+00 0.  1.
          1   -1    0    0  501    0  0.00000000000E+00 -0.00000000000E+00 -0.42855438158E+03  0.42855438158E+03  0.00000000000E+00 0.  1.
         36    2    1    2    0    0  0.00000000000E+00  0.14210854715E-13  0.15308995749E+03  0.10101987207E+04  0.99853138164E+03 0.  0.
         25    2    3    3    0    0 -0.21160604238E+02 -0.79476355688E+02  0.14337468981E+03  0.20620505349E+03  0.12328811834E+03 0.  0.
         35    2    3    3    0    0  0.21160604238E+02  0.79476355688E+02  0.97152676774E+01  0.80399366716E+03  0.79971693000E+03 0.  0.
         22    1    5    5    0    0  0.81423362293E+02  0.41801176033E+03  0.12074647304E+03  0.44265483896E+03  0.00000000000E+00 0. -1.
         22    1    5    5    0    0 -0.60262758055E+02 -0.33853540464E+03 -0.11103120536E+03  0.36133882820E+03  0.00000000000E+00 0. -1.
          5    1    4    4  502    0 -0.44881690999E+02 -0.59352746647E+02  0.17672562541E+02  0.76625871533E+02  0.47000000000E+01 0.  1.
         -5    1    4    4    0  502  0.23721086761E+02 -0.20123609041E+02  0.12570212727E+03  0.12957918196E+03  0.47000000000E+01 0.  1.
<mgrwt>
<rscale>  0 0.99853138E+03</rscale>
<asrwt>0</asrwt>
<pdfrwt beam="1">  1        1 0.65931444E-01 0.99853138E+03</pdfrwt>
<pdfrwt beam="2">  1       -1 0.89483744E-01 0.99853138E+03</pdfrwt>
<totfact> 0.79626321E+01</totfact>
</mgrwt>
</event>
<event>
 9    1  0.4369420E-036  0.1003727E+04  0.7818608E-02  0.8677497E-01
          2   -1    0    0  501    0  0.00000000000E+00  0.00000000000E+00  0.28585706157E+04  0.28585706157E+04  0.00000000000E+00 0. -1.
         -2   -1    0    0    0  501 -0.00000000000E+00 -0.00000000000E+00 -0.88109341489E+02  0.88109341489E+02  0.00000000000E+00 0. -1.
         36    2    1    2    0    0 -0.71054273576E-14 -0.28421709430E-13  0.27704612742E+04  0.29466799572E+04  0.10037266053E+04 0.  0.
         25    2    3    3    0    0  0.30788749516E+02 -0.81787868904E+02  0.85837451686E+03  0.87187862156E+03  0.12541258692E+03 0.  0.
         35    2    3    3    0    0 -0.30788749516E+02  0.81787868904E+02  0.19120867574E+04  0.20748013356E+04  0.80067946899E+03 0.  0.
         22    1    5    5    0    0  0.18815470914E+03  0.20334035637E+03  0.19315798325E+03  0.33772696308E+03  0.00000000000E+00 0. -1.
         22    1    5    5    0    0 -0.21894345866E+03 -0.12155248746E+03  0.17189287741E+04  0.17370743726E+04  0.00000000000E+00 0. -1.
          5    1    4    4  502    0  0.67159804153E+02 -0.44678778999E+02  0.28790960604E+03  0.29903288087E+03  0.47000000000E+01 0. -1.
         -5    1    4    4    0  502 -0.36371054637E+02 -0.37109089905E+02  0.57046491081E+03  0.57284574070E+03  0.47000000000E+01 0. -1.
<mgrwt>
<rscale>  0 0.10037266E+04</rscale>
<asrwt>0</asrwt>
<pdfrwt beam="1">  1        2 0.43978002E+00 0.10037266E+04</pdfrwt>
<pdfrwt beam="2">  1       -2 0.13555286E-01 0.10037266E+04</pdfrwt>
<totfact> 0.98169252E+01</totfact>
</mgrwt>
</event>
<event>
 9    1  0.4369420E-036  0.1000465E+04  0.7818608E-02  0.8680595E-01
         -1   -1    0    0    0  501 -0.00000000000E+00  0.00000000000E+00  0.89799881607E+03  0.89799881607E+03  0.00000000000E+00 0. -1.
          1   -1    0    0  501    0  0.00000000000E+00 -0.00000000000E+00 -0.27865580944E+03  0.27865580944E+03  0.00000000000E+00 0. -1.
         36    2    1    2    0    0 -0.42632564146E-13  0.14210854715E-13  0.61934300663E+03  0.11766546255E+04  0.10004650658E+04 0.  0.
         25    2    3    3    0    0 -0.94498367818E+02  0.10220739334E+03  0.12802112970E+03  0.22665833000E+03  0.12493316668E+03 0.  0.
         35    2    3    3    0    0  0.94498367818E+02 -0.10220739334E+03  0.49132187693E+03  0.94999629550E+03  0.80107395535E+03 0.  0.
         22    1    5    5    0    0 -0.33253539824E+03  0.60792464528E+02  0.11231115088E+03  0.35621525717E+03  0.00000000000E+00 0. -1.
         22    1    5    5    0    0  0.42703376606E+03 -0.16299985786E+03  0.37901072605E+03  0.59378103833E+03  0.00000000000E+00 0. -1.
          5    1    4    4  502    0 -0.97426467010E+02  0.91369145009E+02  0.15038851388E+03  0.20119401641E+03  0.47000000000E+01 0.  1.
         -5    1    4    4    0  502  0.29280991918E+01  0.10838248328E+02 -0.22367384176E+02  0.25464313590E+02  0.47000000000E+01 0.  1.
<mgrwt>
<rscale>  0 0.10004651E+04</rscale>
<asrwt>0</asrwt>
<pdfrwt beam="1">  1        1 0.42870125E-01 0.10004651E+04</pdfrwt>
<pdfrwt beam="2">  1       -1 0.13815366E+00 0.10004651E+04</pdfrwt>
<totfact> 0.49859573E+01</totfact>
</mgrwt>
</event>
<event>
 9    1  0.4369420E-036  0.9961991E+03  0.7818608E-02  0.8684666E-01
          2   -1    0    0  501    0  0.00000000000E+00  0.00000000000E+00  0.83381001400E+03  0.83381001400E+03  0.00000000000E+00 0. -1.
         -2   -1    0    0    0  501 -0.00000000000E+00 -0.00000000000E+00 -0.29755358339E+03  0.29755358339E+03  0.00000000000E+00 0. -1.
         36    2    1    2    0    0  0.44408920985E-15  0.00000000000E+00  0.53625643061E+03  0.11313635974E+04  0.99619909161E+03 0.  0.
         25    2    3    3    0    0  0.11054211980E+01 -0.12058063494E+03  0.17306300601E+03  0.24516743405E+03  0.12496141482E+03 0.  0.
         35    2    3    3    0    0 -0.11054211980E+01  0.12058063494E+03  0.36319342460E+03  0.88619616333E+03  0.79930799117E+03 0.  0.
         22    1    5    5    0    0 -0.15768297672E+03  0.29678682591E+03  0.50832550209E+03  0.60937768031E+03  0.00000000000E+00 0.  1.
         22    1    5    5    0    0  0.15657755552E+03 -0.17620619098E+03 -0.14513207749E+03  0.27681848303E+03  0.00000000000E+00 0.  1.
          5    1    4    4  502    0 -0.34663523083E+00 -0.71226872947E+02  0.68481891613E+01  0.71710356857E+02  0.47000000000E+01 0.  1.
         -5    1    4    4    0  502  0.14520564288E+01 -0.49353761989E+02  0.16621481685E+03  0.17345707720E+03  0.47000000000E+01 0.  1.
<mgrwt>
<rscale>  0 0.99619909E+03</rscale>
<asrwt>0</asrwt>
<pdfrwt beam="1">  1        2 0.12827846E+00 0.99619909E+03</pdfrwt>
<pdfrwt beam="2">  1       -2 0.45777475E-01 0.99619909E+03</pdfrwt>
<totfact> 0.17836884E+02</totfact>
</mgrwt>
</event>
<event>
 9    1  0.4369420E-036  0.1000750E+04  0.7818608E-02  0.8680324E-01
          2   -1    0    0  501    0  0.00000000000E+00  0.00000000000E+00  0.23386626032E+04  0.23386626032E+04  0.00000000000E+00 0. -1.
         -2   -1    0    0    0  501 -0.00000000000E+00 -0.00000000000E+00 -0.10705915021E+03  0.10705915021E+03  0.00000000000E+00 0. -1.
         36    2    1    2    0    0  0.00000000000E+00  0.00000000000E+00  0.22316034530E+04  0.24457217534E+04  0.10007501805E+04 0.  0.
         25    2    3    3    0    0 -0.40245580696E+02 -0.13553297636E+03  0.43839894311E+03  0.47720725872E+03  0.12467654154E+03 0.  0.
         35    2    3    3    0    0  0.40245580696E+02  0.13553297636E+03  0.17932045099E+04  0.19685144947E+04  0.79967368788E+03 0.  0.
         22    1    5    5    0    0 -0.35637311149E+03 -0.54197412079E+02  0.97782161680E+03  0.10421488705E+04  0.00000000000E+00 0. -1.
         22    1    5    5    0    0  0.39661869219E+03  0.18973038844E+03  0.81538289311E+03  0.92636562418E+03  0.00000000000E+00 0. -1.
          5    1    4    4  502    0  0.37683600645E+02 -0.23112674024E+02  0.17266309384E+03  0.17829437297E+03  0.47000000000E+01 0.  1.
         -5    1    4    4    0  502 -0.77929181341E+02 -0.11242030234E+03  0.26573584927E+03  0.29891288575E+03  0.47000000000E+01 0.  1.
<mgrwt>
<rscale>  0 0.10007502E+04</rscale>
<asrwt>0</asrwt>
<pdfrwt beam="1">  1        2 0.35979421E+00 0.10007502E+04</pdfrwt>
<pdfrwt beam="2">  1       -2 0.16470640E-01 0.10007502E+04</pdfrwt>
<totfact> 0.14868093E+02</totfact>
</mgrwt>
</event>
<event>
 9    1  0.4369420E-036  0.9998470E+03  0.7818608E-02  0.8681184E-01
         -1   -1    0    0    0  501 -0.00000000000E+00  0.00000000000E+00  0.22827446581E+03  0.22827446581E+03  0.00000000000E+00 0.  1.
          1   -1    0    0  501    0  0.00000000000E+00 -0.00000000000E+00 -0.10948378193E+04  0.10948378193E+04  0.00000000000E+00 0.  1.
         36    2    1    2    0    0  0.00000000000E+00  0.21316282073E-13 -0.86656335348E+03  0.13231122851E+04  0.99984702499E+03 0.  0.
         25    2    3    3    0    0  0.13969924591E+03  0.24593506026E+02 -0.16944779546E+03  0.25393132045E+03  0.12509132772E+03 0.  0.
         35    2    3    3    0    0 -0.13969924591E+03 -0.24593506026E+02 -0.69711555802E+03  0.10691809647E+04  0.79815857703E+03 0.  0.
         22    1    5    5    0    0 -0.28803613025E+03 -0.32347038062E+03 -0.56118666540E+03  0.70889235635E+03  0.00000000000E+00 0. -1.
         22    1    5    5    0    0  0.14833688435E+03  0.29887687459E+03 -0.13592889262E+03  0.36028860830E+03  0.00000000000E+00 0. -1.
          5    1    4    4  502    0  0.51401065266E+02 -0.47282794598E+02 -0.36880436067E+02  0.79120090621E+02  0.47000000000E+01 0. -1.
         -5    1    4    4    0  502  0.88298180642E+02  0.71876300625E+02 -0.13256735939E+03  0.17481122982E+03  0.47000000000E+01 0. -1.
<mgrwt>
<rscale>  0 0.99984702E+03</rscale>
<asrwt>0</asrwt>
<pdfrwt beam="1">  1        1 0.16843659E+00 0.99984702E+03</pdfrwt>
<pdfrwt beam="2">  1       -1 0.35119148E-01 0.99984702E+03</pdfrwt>
<totfact> 0.10963054E+02</totfact>
</mgrwt>
</event>
<event>
 9    1  0.4369420E-036  0.1000086E+04  0.7818608E-02  0.8680956E-01
         -1   -1    0    0    0  501 -0.00000000000E+00  0.00000000000E+00  0.32374934408E+03  0.32374934408E+03  0.00000000000E+00 0. -1.
          1   -1    0    0  501    0  0.00000000000E+00 -0.00000000000E+00 -0.77233572812E+03  0.77233572812E+03  0.00000000000E+00 0. -1.
         36    2    1    2    0    0  0.00000000000E+00  0.00000000000E+00 -0.44858638404E+03  0.10960850722E+04  0.10000863670E+04 0.  0.
         25    2    3    3    0    0 -0.10166371835E+03  0.71912565685E+02 -0.15757311058E+03  0.23630943161E+03  0.12452282346E+03 0.  0.
         35    2    3    3    0    0  0.10166371835E+03 -0.71912565685E+02 -0.29101327347E+03  0.85977564058E+03  0.79938632592E+03 0.  0.
         22    1    5    5    0    0 -0.21981492212E+03  0.14320852851E+03  0.12595213171E+03  0.29101756323E+03  0.00000000000E+00 0. -1.
         22    1    5    5    0    0  0.32147864047E+03 -0.21512109419E+03 -0.41696540518E+03  0.56875807736E+03  0.00000000000E+00 0. -1.
          5    1    4    4  502    0 -0.17936535336E+02  0.77577912017E+02 -0.12035761660E+03  0.14438870318E+03  0.47000000000E+01 0.  1.
         -5    1    4    4    0  502 -0.83727183011E+02 -0.56653463314E+01 -0.37215493980E+02  0.91920728436E+02  0.47000000000E+01 0.  1.
<mgrwt>
<rscale>  0 0.10000864E+04</rscale>
<asrwt>0</asrwt>
<pdfrwt beam="1">  1        1 0.11882088E+00 0.10000864E+04</pdfrwt>
<pdfrwt beam="2">  1       -1 0.49807592E-01 0.10000864E+04</pdfrwt>
<totfact> 0.10798141E+02</totfact>
</mgrwt>
</event>
<event>
 9    1  0.4369420E-036  0.9997880E+03  0.7818608E-02  0.8681240E-01
         -1   -1    0    0    0  501 -0.00000000000E+00  0.00000000000E+00  0.81894719244E+03  0.81894719244E+03  0.00000000000E+00 0.  1.
          1   -1    0    0  501    0  0.00000000000E+00 -0.00000000000E+00 -0.30514058641E+03  0.30514058641E+03  0.00000000000E+00 0.  1.
         36    2    1    2    0    0  0.00000000000E+00 -0.71054273576E-14  0.51380660603E+03  0.11240877789E+04  0.99978803061E+03 0.  0.
         25    2    3    3    0    0  0.11474418340E+03  0.65272111750E+01  0.18885885944E+03  0.25317448127E+03  0.12337267552E+03 0.  0.
         35    2    3    3    0    0 -0.11474418340E+03 -0.65272111750E+01  0.32494774659E+03  0.87091329758E+03  0.79980629016E+03 0.  0.
         22    1    5    5    0    0 -0.31077696143E+03  0.18252377607E+03  0.44554308802E+03  0.57306709194E+03  0.00000000000E+00 0. -1.
         22    1    5    5    0    0  0.19603277803E+03 -0.18905098725E+03 -0.12059534143E+03  0.29784620564E+03  0.00000000000E+00 0. -1.
          5    1    4    4  502    0  0.85938501811E+02  0.14351390602E+02  0.20213939845E+03  0.22016769725E+03  0.47000000000E+01 0. -1.
         -5    1    4    4    0  502  0.28805681586E+02 -0.78241794268E+01 -0.13280539003E+02  0.33006784023E+02  0.47000000000E+01 0. -1.
<mgrwt>
<rscale>  0 0.99978803E+03</rscale>
<asrwt>0</asrwt>
<pdfrwt beam="1">  1        1 0.46944706E-01 0.99978803E+03</pdfrwt>
<pdfrwt beam="2">  1       -1 0.12599187E+00 0.99978803E+03</pdfrwt>
<totfact> 0.56455377E+01</totfact>
</mgrwt>
</event>
<event>
 9    1  0.4369420E-036  0.1002175E+04  0.7818608E-02  0.8678969E-01
          2   -1    0    0  501    0  0.00000000000E+00  0.00000000000E+00  0.11680981564E+04  0.11680981564E+04  0.00000000000E+00 0. -1.
         -2   -1    0    0    0  501 -0.00000000000E+00 -0.00000000000E+00 -0.21495525507E+03  0.21495525507E+03  0.00000000000E+00 0. -1.
         36    2    1    2    0    0  0.10658141036E-13  0.28421709430E-13  0.95314290136E+03  0.13830534115E+04  0.10021753083E+04 0.  0.
         25    2    3    3    0    0  0.88310750425E+01 -0.13847359742E+03  0.13877229931E+03  0.23249437033E+03  0.12467139252E+03 0.  0.
         35    2    3    3    0    0 -0.88310750425E+01  0.13847359742E+03  0.81437060205E+03  0.11505590412E+04  0.80083313159E+03 0.  0.
         22    1    5    5    0    0  0.12827276190E+03 -0.21688845710E+03  0.71327791959E+03  0.75647861493E+03  0.00000000000E+00 0. -1.
         22    1    5    5    0    0 -0.13710383695E+03  0.35536205452E+03  0.10109268246E+03  0.39408042623E+03  0.00000000000E+00 0. -1.
          5    1    4    4  502    0 -0.35808170118E+01 -0.16861504512E+02 -0.23346056651E+02  0.29398315361E+02  0.47000000000E+01 0. -1.
         -5    1    4    4    0  502  0.12411892054E+02 -0.12161209290E+03  0.16211835596E+03  0.20309605497E+03  0.47000000000E+01 0. -1.
<mgrwt>
<rscale>  0 0.10021753E+04</rscale>
<asrwt>0</asrwt>
<pdfrwt beam="1">  1        2 0.17970741E+00 0.10021753E+04</pdfrwt>
<pdfrwt beam="2">  1       -2 0.33070040E-01 0.10021753E+04</pdfrwt>
<totfact> 0.20367943E+02</totfact>
</mgrwt>
</event>
<event>
 9    1  0.4369420E-036  0.9995933E+03  0.7818608E-02  0.8681425E-01
         -2   -1    0    0    0  501 -0.00000000000E+00  0.00000000000E+00  0.11762243648E+03  0.11762243648E+03  0.00000000000E+00 0. -1.
          2   -1    0    0  501    0  0.00000000000E+00 -0.00000000000E+00 -0.21237163202E+04  0.21237163202E+04  0.00000000000E+00 0. -1.
         36    2    1    2    0    0  0.28421709430E-13  0.00000000000E+00 -0.20060938837E+04  0.22413387567E+04  0.99959329324E+03 0.  0.
         25    2    3    3    0    0 -0.10326828376E+03 -0.75351274272E+02 -0.49778550362E+03  0.52889125552E+03  0.12487353437E+03 0.  0.
         35    2    3    3    0    0  0.10326828376E+03  0.75351274272E+02 -0.15083083801E+04  0.17124475012E+04  0.80071225904E+03 0.  0.
         22    1    5    5    0    0  0.24347796430E+03 -0.11570626879E+03 -0.14411290288E+04  0.14661249392E+04  0.00000000000E+00 0.  1.
         22    1    5    5    0    0 -0.14020968054E+03  0.19105754306E+03 -0.67179351293E+02  0.24632256193E+03  0.00000000000E+00 0.  1.
          5    1    4    4  502    0 -0.29121267917E+02  0.35231072757E+01 -0.13499149028E+02  0.32630929415E+02  0.47000000000E+01 0. -1.
         -5    1    4    4    0  502 -0.74147015843E+02 -0.78874381548E+02 -0.48428635459E+03  0.49626032611E+03  0.47000000000E+01 0. -1.
<mgrwt>
<rscale>  0 0.99959329E+03</rscale>
<asrwt>0</asrwt>
<pdfrwt beam="1">  1        2 0.32672556E+00 0.99959329E+03</pdfrwt>
<pdfrwt beam="2">  1       -2 0.18095761E-01 0.99959329E+03</pdfrwt>
<totfact> 0.16914800E+02</totfact>
</mgrwt>
</event>
<event>
 9    1  0.4369420E-036  0.1000420E+04  0.7818608E-02  0.8680638E-01
         -2   -1    0    0    0  501 -0.00000000000E+00  0.00000000000E+00  0.23177639886E+03  0.23177639886E+03  0.00000000000E+00 0.  1.
          2   -1    0    0  501    0  0.00000000000E+00 -0.00000000000E+00 -0.10795318157E+04  0.10795318157E+04  0.00000000000E+00 0.  1.
         36    2    1    2    0    0 -0.28421709430E-13  0.14210854715E-13 -0.84775541682E+03  0.13113082145E+04  0.10004199052E+04 0.  0.
         25    2    3    3    0    0  0.92413271085E+02 -0.52219781269E+02 -0.27598801360E+03  0.32008028778E+03  0.12253525512E+03 0.  0.
         35    2    3    3    0    0 -0.92413271085E+02  0.52219781269E+02 -0.57176740322E+03  0.99122792675E+03  0.80271272642E+03 0.  0.
         22    1    5    5    0    0 -0.26937866401E+03  0.35777891122E+03 -0.39111724823E+03  0.59459508559E+03  0.00000000000E+00 0. -1.
         22    1    5    5    0    0  0.17696539293E+03 -0.30555912995E+03 -0.18065015499E+03  0.39663284117E+03  0.00000000000E+00 0. -1.
          5    1    4    4  502    0  0.40869049953E+02 -0.89374787659E+02 -0.16532416306E+03  0.19238581238E+03  0.47000000000E+01 0.  1.
         -5    1    4    4    0  502  0.51544221132E+02  0.37155006389E+02 -0.11066385055E+03  0.12769447541E+03  0.47000000000E+01 0.  1.
<mgrwt>
<rscale>  0 0.10004199E+04</rscale>
<asrwt>0</asrwt>
<pdfrwt beam="1">  1        2 0.16608181E+00 0.10004199E+04</pdfrwt>
<pdfrwt beam="2">  1       -2 0.35657908E-01 0.10004199E+04</pdfrwt>
<totfact> 0.20018492E+02</totfact>
</mgrwt>
</event>
<event>
 9    1  0.4369420E-036  0.1000597E+04  0.7818608E-02  0.8680469E-01
          2   -1    0    0  501    0  0.00000000000E+00  0.00000000000E+00  0.25657078534E+04  0.25657078534E+04  0.00000000000E+00 0.  1.
         -2   -1    0    0    0  501 -0.00000000000E+00 -0.00000000000E+00 -0.97555421977E+02  0.97555421977E+02  0.00000000000E+00 0.  1.
         36    2    1    2    0    0 -0.71054273576E-14  0.21316282073E-13  0.24681524314E+04  0.26632632754E+04  0.10005972463E+04 0.  0.
         25    2    3    3    0    0 -0.23108361588E+02 -0.49440975216E+02  0.11786245824E+03  0.17997815316E+03  0.12458800162E+03 0.  0.
         35    2    3    3    0    0  0.23108361588E+02  0.49440975216E+02  0.23502899732E+04  0.24832851222E+04  0.79991476655E+03 0.  0.
         22    1    5    5    0    0  0.13986991356E+03  0.38077637561E+03  0.84198901526E+03  0.93461208143E+03  0.00000000000E+00 0. -1.
         22    1    5    5    0    0 -0.11676155197E+03 -0.33133540039E+03  0.15083009579E+04  0.15486730408E+04  0.00000000000E+00 0. -1.
          5    1    4    4  502    0 -0.54513747176E+02  0.17069437158E+02  0.28098978147E+02  0.63833822453E+02  0.47000000000E+01 0.  1.
         -5    1    4    4    0  502  0.31405385588E+02 -0.66510412375E+02  0.89763480091E+02  0.11614433071E+03  0.47000000000E+01 0.  1.
<mgrwt>
<rscale>  0 0.10005972E+04</rscale>
<asrwt>0</asrwt>
<pdfrwt beam="1">  1        2 0.39472423E+00 0.10005972E+04</pdfrwt>
<pdfrwt beam="2">  1       -2 0.15008528E-01 0.10005972E+04</pdfrwt>
<totfact> 0.12682154E+02</totfact>
</mgrwt>
</event>
<event>
 9    1  0.4369420E-036  0.9926659E+03  0.7818608E-02  0.8688054E-01
          1   -1    0    0  501    0  0.00000000000E+00  0.00000000000E+00  0.18006548093E+03  0.18006548093E+03  0.00000000000E+00 0.  1.
         -1   -1    0    0    0  501 -0.00000000000E+00 -0.00000000000E+00 -0.13680934610E+04  0.13680934610E+04  0.00000000000E+00 0.  1.
         36    2    1    2    0    0  0.14210854715E-13  0.00000000000E+00 -0.11880279801E+04  0.15481589419E+04  0.99266591966E+03 0.  0.
         25    2    3    3    0    0  0.16199924501E+02  0.11542755447E+03 -0.20212215150E+03  0.26550540419E+03  0.12670358181E+03 0.  0.
         35    2    3    3    0    0 -0.16199924501E+02 -0.11542755447E+03 -0.98590582857E+03  0.12826535377E+04  0.81215998251E+03 0.  0.
         22    1    5    5    0    0 -0.16501497361E+03 -0.20683691827E+03 -0.10603040222E+04  0.10928202376E+04  0.00000000000E+00 0.  1.
         22    1    5    5    0    0  0.14881504911E+03  0.91409363804E+02  0.74398193600E+02  0.18983330014E+03  0.00000000000E+00 0.  1.
          5    1    4    4  502    0  0.58079610274E+02  0.58132469596E+02 -0.46825080779E+02  0.94695846481E+02  0.47000000000E+01 0. -1.
         -5    1    4    4    0  502 -0.41879685772E+02  0.57295084870E+02 -0.15529707072E+03  0.17080955771E+03  0.47000000000E+01 0. -1.
<mgrwt>
<rscale>  0 0.99266592E+03</rscale>
<asrwt>0</asrwt>
<pdfrwt beam="1">  1        1 0.27702381E-01 0.99266592E+03</pdfrwt>
<pdfrwt beam="2">  1       -1 0.21047592E+00 0.99266592E+03</pdfrwt>
<totfact> 0.21644953E+01</totfact>
</mgrwt>
</event>
<event>
 9    1  0.4369420E-036  0.1000358E+04  0.7818608E-02  0.8680698E-01
          2   -1    0    0  501    0  0.00000000000E+00  0.00000000000E+00  0.11416613251E+04  0.11416613251E+04  0.00000000000E+00 0. -1.
         -2   -1    0    0    0  501 -0.00000000000E+00 -0.00000000000E+00 -0.21913573739E+03  0.21913573739E+03  0.00000000000E+00 0. -1.
         36    2    1    2    0    0  0.14210854715E-13 -0.21316282073E-13  0.92252558773E+03  0.13607970625E+04  0.10003575288E+04 0.  0.
         25    2    3    3    0    0 -0.12609643042E+03  0.59139533163E+02  0.18203828370E+03  0.26164329118E+03  0.12618035086E+03 0.  0.
         35    2    3    3    0    0  0.12609643042E+03 -0.59139533163E+02  0.74048730404E+03  0.10991537713E+04  0.80026231415E+03 0.  0.
         22    1    5    5    0    0  0.77323311674E+02 -0.43067590495E+03  0.39688976430E+03  0.59074708178E+03  0.00000000000E+00 0.  1.
         22    1    5    5    0    0  0.48773118746E+02  0.37153637178E+03  0.34359753974E+03  0.50840668955E+03  0.00000000000E+00 0.  1.
          5    1    4    4  502    0  0.30733766068E+01  0.57014260342E+02  0.70983292660E+02  0.91218360887E+02  0.47000000000E+01 0.  1.
         -5    1    4    4    0  502 -0.12916980703E+03  0.21252728207E+01  0.11105499104E+03  0.17042493030E+03  0.47000000000E+01 0.  1.
<mgrwt>
<rscale>  0 0.10003575E+04</rscale>
<asrwt>0</asrwt>
<pdfrwt beam="1">  1        2 0.17564020E+00 0.10003575E+04</pdfrwt>
<pdfrwt beam="2">  1       -2 0.33713191E-01 0.10003575E+04</pdfrwt>
<totfact> 0.20382427E+02</totfact>
</mgrwt>
</event>
<event>
 9    1  0.4369420E-036  0.9998302E+03  0.7818608E-02  0.8681200E-01
          2   -1    0    0  501    0  0.00000000000E+00  0.00000000000E+00  0.16799814888E+04  0.16799814888E+04  0.00000000000E+00 0. -1.
         -2   -1    0    0    0  501 -0.00000000000E+00 -0.00000000000E+00 -0.14876064094E+03  0.14876064094E+03  0.00000000000E+00 0. -1.
         36    2    1    2    0    0  0.14210854715E-13  0.00000000000E+00  0.15312208479E+04  0.18287421298E+04  0.99983023170E+03 0.  0.
         25    2    3    3    0    0  0.61849012029E+02  0.12720683884E+03  0.31214726399E+03  0.36470970133E+03  0.12478129544E+03 0.  0.
         35    2    3    3    0    0 -0.61849012029E+02 -0.12720683884E+03  0.12190735839E+04  0.14640324285E+04  0.79827543396E+03 0.  0.
         22    1    5    5    0    0 -0.23626483367E+03 -0.24893798423E+03  0.12026960420E+04  0.12507073843E+04  0.00000000000E+00 0.  1.
         22    1    5    5    0    0  0.17441582164E+03  0.12173114539E+03  0.16377541901E+02  0.21332504418E+03  0.00000000000E+00 0.  1.
          5    1    4    4  502    0  0.16684433997E+02  0.98704523666E+02  0.85266185711E+02  0.13158026355E+03  0.47000000000E+01 0.  1.
         -5    1    4    4    0  502  0.45164578033E+02  0.28502315172E+02  0.22688107827E+03  0.23312943778E+03  0.47000000000E+01 0.  1.
<mgrwt>
<rscale>  0 0.99983023E+03</rscale>
<asrwt>0</asrwt>
<pdfrwt beam="1">  1        2 0.25845868E+00 0.99983023E+03</pdfrwt>
<pdfrwt beam="2">  1       -2 0.22886254E-01 0.99983023E+03</pdfrwt>
<totfact> 0.20103537E+02</totfact>
</mgrwt>
</event>
<event>
 9    1  0.4369420E-036  0.9996605E+03  0.7818608E-02  0.8681361E-01
          2   -1    0    0  501    0  0.00000000000E+00  0.00000000000E+00  0.21527288206E+03  0.21527288206E+03  0.00000000000E+00 0.  1.
         -2   -1    0    0    0  501 -0.00000000000E+00 -0.00000000000E+00 -0.11605282884E+04  0.11605282884E+04  0.00000000000E+00 0.  1.
         36    2    1    2    0    0 -0.28421709430E-13 -0.26645352591E-13 -0.94525540638E+03  0.13758011705E+04  0.99966048108E+03 0.  0.
         25    2    3    3    0    0  0.12740644459E+03 -0.12631512915E+02 -0.25116568311E+03  0.30874643445E+03  0.12588964679E+03 0.  0.
         35    2    3    3    0    0 -0.12740644459E+03  0.12631512915E+02 -0.69408972327E+03  0.10670547360E+04  0.80028326768E+03 0.  0.
         22    1    5    5    0    0 -0.10071263304E+03  0.23607750677E+03 -0.78383338222E+03  0.82478505972E+03  0.00000000000E+00 0. -1.
         22    1    5    5    0    0 -0.26693811556E+02 -0.22344599385E+03  0.89743658951E+02  0.24226967632E+03  0.00000000000E+00 0. -1.
          5    1    4    4  502    0  0.14572892038E+03  0.13644141747E+02 -0.21582921017E+03  0.26082066406E+03  0.47000000000E+01 0. -1.
         -5    1    4    4    0  502 -0.18322475791E+02 -0.26275654663E+02 -0.35336472946E+02  0.47925770389E+02  0.47000000000E+01 0. -1.
<mgrwt>
<rscale>  0 0.99966048E+03</rscale>
<asrwt>0</asrwt>
<pdfrwt beam="1">  1        2 0.33118904E-01 0.99966048E+03</pdfrwt>
<pdfrwt beam="2">  1       -2 0.17854282E+00 0.99966048E+03</pdfrwt>
<totfact> 0.32649927E+01</totfact>
</mgrwt>
</event>
<event>
 9    1  0.4369420E-036  0.1000502E+04  0.7818608E-02  0.8680560E-01
         -2   -1    0    0    0  501 -0.00000000000E+00  0.00000000000E+00  0.18201980758E+03  0.18201980758E+03  0.00000000000E+00 0. -1.
          2   -1    0    0  501    0  0.00000000000E+00 -0.00000000000E+00 -0.13748568306E+04  0.13748568306E+04  0.00000000000E+00 0. -1.
         36    2    1    2    0    0  0.14210854715E-13  0.28421709430E-13 -0.11928370231E+04  0.15568766382E+04  0.10005022254E+04 0.  0.
         25    2    3    3    0    0 -0.10882707207E+03  0.80300495666E+02 -0.28395494206E+03  0.33855387723E+03  0.12528694046E+03 0.  0.
         35    2    3    3    0    0  0.10882707207E+03 -0.80300495666E+02 -0.90888208099E+03  0.12183227610E+04  0.79997013167E+03 0.  0.
         22    1    5    5    0    0  0.38847709188E+03 -0.25760590333E+03 -0.64014172546E+03  0.79186910599E+03  0.00000000000E+00 0. -1.
         22    1    5    5    0    0 -0.27965001981E+03  0.17730540766E+03 -0.26874035553E+03  0.42645365499E+03  0.00000000000E+00 0. -1.
          5    1    4    4  502    0  0.27597600213E+01  0.71979549827E+02 -0.10408179327E+03  0.12666404999E+03  0.47000000000E+01 0. -1.
         -5    1    4    4    0  502 -0.11158683209E+03  0.83209458396E+01 -0.17987314879E+03  0.21188982724E+03  0.47000000000E+01 0. -1.
<mgrwt>
<rscale>  0 0.10005022E+04</rscale>
<asrwt>0</asrwt>
<pdfrwt beam="1">  1        2 0.21151644E+00 0.10005022E+04</pdfrwt>
<pdfrwt beam="2">  1       -2 0.28003047E-01 0.10005022E+04</pdfrwt>
<totfact> 0.20906224E+02</totfact>
</mgrwt>
</event>
<event>
 9    1  0.4369420E-036  0.9996440E+03  0.7818608E-02  0.8681377E-01
         -1   -1    0    0    0  501 -0.00000000000E+00  0.00000000000E+00  0.47432533012E+03  0.47432533012E+03  0.00000000000E+00 0. -1.
          1   -1    0    0  501    0  0.00000000000E+00 -0.00000000000E+00 -0.52668916192E+03  0.52668916192E+03  0.00000000000E+00 0. -1.
         36    2    1    2    0    0  0.00000000000E+00 -0.21316282073E-13 -0.52363831798E+02  0.10010144920E+04  0.99964395782E+03 0.  0.
         25    2    3    3    0    0  0.48420897500E+02 -0.47847628552E+02 -0.14794315383E+03  0.20510625365E+03  0.12468929243E+03 0.  0.
         35    2    3    3    0    0 -0.48420897500E+02  0.47847628552E+02  0.95579322036E+02  0.79590823840E+03  0.78721060605E+03 0.  0.
         22    1    5    5    0    0 -0.14366985452E+03 -0.26514999088E+03 -0.19433961522E+03  0.35876654081E+03  0.00000000000E+00 0. -1.
         22    1    5    5    0    0  0.95248957019E+02  0.31299761943E+03  0.28991893726E+03  0.43714169758E+03  0.00000000000E+00 0. -1.
          5    1    4    4  502    0  0.42526102951E+02  0.32888657622E+02 -0.91774601217E+02  0.10646502083E+03  0.47000000000E+01 0. -1.
         -5    1    4    4    0  502  0.58947945488E+01 -0.80736286174E+02 -0.56168552617E+02  0.98641232814E+02  0.47000000000E+01 0. -1.
<mgrwt>
<rscale>  0 0.99964396E+03</rscale>
<asrwt>0</asrwt>
<pdfrwt beam="1">  1        1 0.81029102E-01 0.99964396E+03</pdfrwt>
<pdfrwt beam="2">  1       -1 0.72973128E-01 0.99964396E+03</pdfrwt>
<totfact> 0.91788616E+01</totfact>
</mgrwt>
</event>
<event>
 9    1  0.4369420E-036  0.1000316E+04  0.7818608E-02  0.8680737E-01
          1   -1    0    0  501    0  0.00000000000E+00  0.00000000000E+00  0.14713117237E+04  0.14713117237E+04  0.00000000000E+00 0.  1.
         -1   -1    0    0    0  501 -0.00000000000E+00 -0.00000000000E+00 -0.17002392035E+03  0.17002392035E+03  0.00000000000E+00 0.  1.
         36    2    1    2    0    0 -0.28421709430E-13  0.00000000000E+00  0.13012878033E+04  0.16413356440E+04  0.10003163246E+04 0.  0.
         25    2    3    3    0    0 -0.97821671278E+02  0.81623789276E+02  0.34500583575E+03  0.38830480467E+03  0.12457958213E+03 0.  0.
         35    2    3    3    0    0  0.97821671278E+02 -0.81623789276E+02  0.95628196755E+03  0.12530308393E+04  0.79961213129E+03 0.  0.
         22    1    5    5    0    0 -0.52160188087E+02 -0.63245075900E+01 -0.13711089990E+03  0.14683352304E+03  0.00000000000E+00 0. -1.
         22    1    5    5    0    0  0.14998185936E+03 -0.75299281686E+02  0.10933928675E+04  0.11061973163E+04  0.00000000000E+00 0. -1.
          5    1    4    4  502    0 -0.10603264284E+03  0.16693877853E+02  0.16685717482E+03  0.19845657886E+03  0.47000000000E+01 0. -1.
         -5    1    4    4    0  502  0.82109715650E+01  0.64929911422E+02  0.17814866093E+03  0.18984822581E+03  0.47000000000E+01 0. -1.
<mgrwt>
<rscale>  0 0.10003163E+04</rscale>
<asrwt>0</asrwt>
<pdfrwt beam="1">  1        1 0.22635564E+00 0.10003163E+04</pdfrwt>
<pdfrwt beam="2">  1       -1 0.26157527E-01 0.10003163E+04</pdfrwt>
<totfact> 0.95993744E+01</totfact>
</mgrwt>
</event>
<event>
 9    1  0.4369420E-036  0.9995904E+03  0.7818608E-02  0.8681428E-01
         -2   -1    0    0    0  501 -0.00000000000E+00  0.00000000000E+00  0.16502607054E+03  0.16502607054E+03  0.00000000000E+00 0.  1.
          2   -1    0    0  501    0  0.00000000000E+00 -0.00000000000E+00 -0.15136713953E+04  0.15136713953E+04  0.00000000000E+00 0.  1.
         36    2    1    2    0    0  0.28421709430E-13  0.00000000000E+00 -0.13486453247E+04  0.16786974658E+04  0.99959040101E+03 0.  0.
         25    2    3    3    0    0  0.25014394603E+02  0.11256021339E+03 -0.38517798030E+03  0.42092554948E+03  0.12458218222E+03 0.  0.
         35    2    3    3    0    0 -0.25014394603E+02 -0.11256021339E+03 -0.96346734443E+03  0.12577719163E+04  0.80026579842E+03 0.  0.
         22    1    5    5    0    0 -0.34832738671E+03  0.15373565127E+03 -0.55234894116E+03  0.67086211073E+03  0.00000000000E+00 0. -1.
         22    1    5    5    0    0  0.32331299211E+03 -0.26629586466E+03 -0.41111840327E+03  0.58690980560E+03  0.00000000000E+00 0. -1.
          5    1    4    4  502    0 -0.44843420027E+02  0.76935738812E+02 -0.23680745631E+03  0.25304130412E+03  0.47000000000E+01 0.  1.
         -5    1    4    4    0  502  0.69857814629E+02  0.35624474573E+02 -0.14837052399E+03  0.16788424537E+03  0.47000000000E+01 0.  1.
<mgrwt>
<rscale>  0 0.99959040E+03</rscale>
<asrwt>0</asrwt>
<pdfrwt beam="1">  1        2 0.23287253E+00 0.99959040E+03</pdfrwt>
<pdfrwt beam="2">  1       -2 0.25388626E-01 0.99959040E+03</pdfrwt>
<totfact> 0.20773409E+02</totfact>
</mgrwt>
</event>
<event>
 9    1  0.4369420E-036  0.1000076E+04  0.7818608E-02  0.8680966E-01
          2   -1    0    0  501    0  0.00000000000E+00  0.00000000000E+00  0.17164496355E+04  0.17164496355E+04  0.00000000000E+00 0.  1.
         -2   -1    0    0    0  501 -0.00000000000E+00 -0.00000000000E+00 -0.14567161262E+03  0.14567161262E+03  0.00000000000E+00 0.  1.
         36    2    1    2    0    0 -0.14210854715E-13  0.14210854715E-13  0.15707780228E+04  0.18621212481E+04  0.10000759699E+04 0.  0.
         25    2    3    3    0    0  0.72663041277E+02  0.10427634856E+02  0.51849578326E+03  0.53831202030E+03  0.12471287342E+03 0.  0.
         35    2    3    3    0    0 -0.72663041277E+02 -0.10427634856E+02  0.10522822396E+04  0.13238092278E+04  0.79986518033E+03 0.  0.
         22    1    5    5    0    0 -0.17799474046E+03  0.24561580918E+03  0.81172237564E+02  0.31400348008E+03  0.00000000000E+00 0. -1.
         22    1    5    5    0    0  0.10533169918E+03 -0.25604344404E+03  0.97111000202E+03  0.10098057477E+04  0.00000000000E+00 0. -1.
          5    1    4    4  502    0  0.18840638914E+02  0.42509507580E+02  0.62676416145E+02  0.78182165806E+02  0.47000000000E+01 0.  1.
         -5    1    4    4    0  502  0.53822402363E+02 -0.32081872723E+02  0.45581936712E+03  0.46012985449E+03  0.47000000000E+01 0.  1.
<mgrwt>
<rscale>  0 0.10000760E+04</rscale>
<asrwt>0</asrwt>
<pdfrwt beam="1">  1        2 0.26406916E+00 0.10000760E+04</pdfrwt>
<pdfrwt beam="2">  1       -2 0.22411019E-01 0.10000760E+04</pdfrwt>
<totfact> 0.19893512E+02</totfact>
</mgrwt>
</event>
<event>
 9    1  0.4369420E-036  0.9993412E+03  0.7818608E-02  0.8681666E-01
         -1   -1    0    0    0  501 -0.00000000000E+00  0.00000000000E+00  0.26850764826E+03  0.26850764826E+03  0.00000000000E+00 0.  1.
          1   -1    0    0  501    0  0.00000000000E+00 -0.00000000000E+00 -0.92984577331E+03  0.92984577331E+03  0.00000000000E+00 0.  1.
         36    2    1    2    0    0 -0.56843418861E-13 -0.21316282073E-13 -0.66133812505E+03  0.11983534216E+04  0.99934118666E+03 0.  0.
         25    2    3    3    0    0  0.12043973148E+03  0.16384061239E+02 -0.19744902830E+03  0.26401560938E+03  0.12626938203E+03 0.  0.
         35    2    3    3    0    0 -0.12043973148E+03 -0.16384061239E+02 -0.46388909675E+03  0.93433781219E+03  0.80188520801E+03 0.  0.
         22    1    5    5    0    0 -0.40289102417E+03 -0.16189270994E+03 -0.43609853821E+03  0.61539610164E+03  0.00000000000E+00 0.  1.
         22    1    5    5    0    0  0.28245129269E+03  0.14550864870E+03 -0.27790558544E+02  0.31894171056E+03  0.00000000000E+00 0.  1.
          5    1    4    4  502    0  0.80101995077E+02 -0.51391344471E+02 -0.12164059431E+03  0.15451836165E+03  0.47000000000E+01 0.  1.
         -5    1    4    4    0  502  0.40337736399E+02  0.67775405710E+02 -0.75808433988E+02  0.10949724773E+03  0.47000000000E+01 0.  1.
<mgrwt>
<rscale>  0 0.99934119E+03</rscale>
<asrwt>0</asrwt>
<pdfrwt beam="1">  1        1 0.14305320E+00 0.99934119E+03</pdfrwt>
<pdfrwt beam="2">  1       -1 0.41308869E-01 0.99934119E+03</pdfrwt>
<totfact> 0.11118963E+02</totfact>
</mgrwt>
</event>
<event>
 9    1  0.4369420E-036  0.9991580E+03  0.7818608E-02  0.8681840E-01
          2   -1    0    0  501    0  0.00000000000E+00  0.00000000000E+00  0.27455185089E+04  0.27455185089E+04  0.00000000000E+00 0. -1.
         -2   -1    0    0    0  501 -0.00000000000E+00 -0.00000000000E+00 -0.90904211202E+02  0.90904211202E+02  0.00000000000E+00 0. -1.
         36    2    1    2    0    0  0.14210854715E-13 -0.14210854715E-13  0.26546142977E+04  0.28364227201E+04  0.99915803433E+03 0.  0.
         25    2    3    3    0    0 -0.12150736300E+03 -0.48655005731E+02  0.54126494311E+03  0.57244634652E+03  0.13264890561E+03 0.  0.
         35    2    3    3    0    0  0.12150736300E+03  0.48655005731E+02  0.21133493546E+04  0.22639763736E+04  0.80138141777E+03 0.  0.
         22    1    5    5    0    0 -0.13182042881E+03 -0.91930167113E+02  0.18934364109E+04  0.19002445166E+04  0.00000000000E+00 0. -1.
         22    1    5    5    0    0  0.25332779181E+03  0.14058517284E+03  0.21991294373E+03  0.36373185694E+03  0.00000000000E+00 0. -1.
          5    1    4    4  502    0 -0.96799980095E+02 -0.80021335107E+02  0.49701614065E+03  0.51266049613E+03  0.47000000000E+01 0.  1.
         -5    1    4    4    0  502 -0.24707382908E+02  0.31366329376E+02  0.44248802456E+02  0.59785850395E+02  0.47000000000E+01 0.  1.
<mgrwt>
<rscale>  0 0.99915803E+03</rscale>
<asrwt>0</asrwt>
<pdfrwt beam="1">  1        2 0.42238740E+00 0.99915803E+03</pdfrwt>
<pdfrwt beam="2">  1       -2 0.13985265E-01 0.99915803E+03</pdfrwt>
<totfact> 0.11016524E+02</totfact>
</mgrwt>
</event>
<event>
 9    1  0.4369420E-036  0.9994781E+03  0.7818608E-02  0.8681535E-01
          2   -1    0    0  501    0  0.00000000000E+00  0.00000000000E+00  0.11933779629E+03  0.11933779629E+03  0.00000000000E+00 0. -1.
         -2   -1    0    0    0  501 -0.00000000000E+00 -0.00000000000E+00 -0.20927074481E+04  0.20927074481E+04  0.00000000000E+00 0. -1.
         36    2    1    2    0    0 -0.56843418861E-13  0.00000000000E+00 -0.19733696518E+04  0.22120452443E+04  0.99947805403E+03 0.  0.
         25    2    3    3    0    0  0.10260144919E+03  0.60651923564E+02 -0.26568499339E+03  0.32269256119E+03  0.13905488171E+03 0.  0.
         35    2    3    3    0    0 -0.10260144919E+03 -0.60651923564E+02 -0.17076846584E+04  0.18893526832E+04  0.79953796386E+03 0.  0.
         22    1    5    5    0    0  0.30602599896E+03 -0.16058656093E+03 -0.47908665774E+03  0.59073173372E+03  0.00000000000E+00 0.  1.
         22    1    5    5    0    0 -0.40862744815E+03  0.99934637369E+02 -0.12285980006E+04  0.12986209494E+04  0.00000000000E+00 0.  1.
          5    1    4    4  502    0  0.75362656312E+02 -0.74227731868E+01 -0.40878970879E+02  0.86184730599E+02  0.47000000000E+01 0. -1.
         -5    1    4    4    0  502  0.27238792879E+02  0.68074696751E+02 -0.22480602251E+03  0.23650783059E+03  0.47000000000E+01 0. -1.
<mgrwt>
<rscale>  0 0.99947805E+03</rscale>
<asrwt>0</asrwt>
<pdfrwt beam="1">  1        2 0.18359660E-01 0.99947805E+03</pdfrwt>
<pdfrwt beam="2">  1       -2 0.32195501E+00 0.99947805E+03</pdfrwt>
<totfact> 0.83425016E+00</totfact>
</mgrwt>
</event>
<event>
 9    1  0.4369420E-036  0.9992162E+03  0.7818608E-02  0.8681785E-01
         -2   -1    0    0    0  501 -0.00000000000E+00  0.00000000000E+00  0.16662792975E+03  0.16662792975E+03  0.00000000000E+00 0.  1.
          2   -1    0    0  501    0  0.00000000000E+00 -0.00000000000E+00 -0.14979975808E+04  0.14979975808E+04  0.00000000000E+00 0.  1.
         36    2    1    2    0    0  0.00000000000E+00  0.00000000000E+00 -0.13313696511E+04  0.16646255106E+04  0.99921616412E+03 0.  0.
         25    2    3    3    0    0 -0.10082624630E+02 -0.13972299388E+03 -0.24968316832E+03  0.31274801586E+03  0.12587876130E+03 0.  0.
         35    2    3    3    0    0  0.10082624630E+02  0.13972299388E+03 -0.10816864827E+04  0.13518774947E+04  0.79868826171E+03 0.  0.
         22    1    5    5    0    0 -0.15286680497E+03  0.20623309376E+03 -0.75544395519E+00  0.25671174441E+03  0.00000000000E+00 0. -1.
         22    1    5    5    0    0  0.16294942960E+03 -0.66510099883E+02 -0.10809310388E+04  0.10951657503E+04  0.00000000000E+00 0. -1.
          5    1    4    4  502    0  0.91574016353E+01 -0.61530133224E+02 -0.14404667283E+02  0.64026554951E+02  0.47000000000E+01 0. -1.
         -5    1    4    4    0  502 -0.19240026266E+02 -0.78192860651E+02 -0.23527850104E+03  0.24872146091E+03  0.47000000000E+01 0. -1.
<mgrwt>
<rscale>  0 0.99921616E+03</rscale>
<asrwt>0</asrwt>
<pdfrwt beam="1">  1        2 0.23046117E+00 0.99921616E+03</pdfrwt>
<pdfrwt beam="2">  1       -2 0.25635066E-01 0.99921616E+03</pdfrwt>
<totfact> 0.20840938E+02</totfact>
</mgrwt>
</event>
<event>
 9    1  0.4369420E-036  0.1001833E+04  0.7818608E-02  0.8679294E-01
          2   -1    0    0  501    0  0.00000000000E+00  0.00000000000E+00  0.51815344376E+03  0.51815344376E+03  0.00000000000E+00 0. -1.
         -2   -1    0    0    0  501 -0.00000000000E+00 -0.00000000000E+00 -0.48425288560E+03  0.48425288560E+03  0.00000000000E+00 0. -1.
         36    2    1    2    0    0  0.14210854715E-13  0.00000000000E+00  0.33900558163E+02  0.10024063294E+04  0.10018329208E+04 0.  0.
         25    2    3    3    0    0 -0.10872329407E+03 -0.70333847118E+02 -0.52228059533E+02  0.18738797313E+03  0.12497550779E+03 0.  0.
         35    2    3    3    0    0  0.10872329407E+03  0.70333847118E+02  0.86128617695E+02  0.81501835623E+03  0.80004323476E+03 0.  0.
         22    1    5    5    0    0 -0.10490428555E+03  0.76448977959E+02 -0.32593414605E+03  0.35083104612E+03  0.00000000000E+00 0. -1.
         22    1    5    5    0    0  0.21362757962E+03 -0.61151308407E+01  0.41206276375E+03  0.46418731011E+03  0.00000000000E+00 0. -1.
          5    1    4    4  502    0  0.97564287153E+01 -0.98097382122E+01 -0.52256894195E+02  0.54261329287E+02  0.47000000000E+01 0.  1.
         -5    1    4    4    0  502 -0.11847972278E+03 -0.60524108906E+02  0.28834662239E-01  0.13312664384E+03  0.47000000000E+01 0.  1.
<mgrwt>
<rscale>  0 0.10018329E+04</rscale>
<asrwt>0</asrwt>
<pdfrwt beam="1">  1        2 0.79715914E-01 0.10018329E+04</pdfrwt>
<pdfrwt beam="2">  1       -2 0.74500444E-01 0.10018329E+04</pdfrwt>
<totfact> 0.11566311E+02</totfact>
</mgrwt>
</event>
<event>
 9    1  0.4369420E-036  0.1000302E+04  0.7818608E-02  0.8680751E-01
         -3   -1    0    0    0  501 -0.00000000000E+00  0.00000000000E+00  0.22842689257E+03  0.22842689257E+03  0.00000000000E+00 0.  1.
          3   -1    0    0  501    0  0.00000000000E+00 -0.00000000000E+00 -0.10951023889E+04  0.10951023889E+04  0.00000000000E+00 0.  1.
         36    2    1    2    0    0 -0.14210854715E-13  0.71054273576E-14 -0.86667549633E+03  0.13235292815E+04  0.10003016260E+04 0.  0.
         25    2    3    3    0    0 -0.92959667976E+02  0.25472856229E+02 -0.30043254557E+03  0.33935424451E+03  0.12494487804E+03 0.  0.
         35    2    3    3    0    0  0.92959667976E+02 -0.25472856229E+02 -0.56624295075E+03  0.98417503695E+03  0.79917398469E+03 0.  0.
         22    1    5    5    0    0  0.15049944278E+03 -0.10910853548E+03  0.16340463897E+03  0.24749915319E+03  0.00000000000E+00 0. -1.
         22    1    5    5    0    0 -0.57539774799E+02  0.83635679250E+02 -0.72964758973E+03  0.73667588376E+03  0.00000000000E+00 0. -1.
          5    1    4    4  502    0 -0.14982560380E+02  0.67355967961E+02 -0.13256227332E+03  0.14951973061E+03  0.47000000000E+01 0.  1.
         -5    1    4    4    0  502 -0.77977107597E+02 -0.41883111732E+02 -0.16787027226E+03  0.18983451389E+03  0.47000000000E+01 0.  1.
<mgrwt>
<rscale>  0 0.10003016E+04</rscale>
<asrwt>0</asrwt>
<pdfrwt beam="1">  1        3 0.16847729E+00 0.10003016E+04</pdfrwt>
<pdfrwt beam="2">  1       -3 0.35142600E-01 0.10003016E+04</pdfrwt>
<totfact> 0.78288735E+00</totfact>
</mgrwt>
</event>
<event>
 9    1  0.4369420E-036  0.1008713E+04  0.7818608E-02  0.8672785E-01
          2   -1    0    0  501    0  0.00000000000E+00  0.00000000000E+00  0.50396427383E+03  0.50396427383E+03  0.00000000000E+00 0. -1.
         -2   -1    0    0    0  501 -0.00000000000E+00 -0.00000000000E+00 -0.50474874023E+03  0.50474874023E+03  0.00000000000E+00 0. -1.
         36    2    1    2    0    0  0.00000000000E+00  0.00000000000E+00 -0.78446640226E+00  0.10087130141E+04  0.10087127090E+04 0.  0.
         25    2    3    3    0    0  0.11991807996E+03 -0.89953593370E+02  0.30591254236E+01  0.19490023736E+03  0.12451806862E+03 0.  0.
         35    2    3    3    0    0 -0.11991807996E+03  0.89953593370E+02 -0.38435918258E+01  0.81381277671E+03  0.79987778283E+03 0.  0.
         22    1    5    5    0    0  0.18455042103E+03  0.27384267581E+03  0.21699619281E+03  0.39514050247E+03  0.00000000000E+00 0.  1.
         22    1    5    5    0    0 -0.30446850099E+03 -0.18388908244E+03 -0.22083978463E+03  0.41867227423E+03  0.00000000000E+00 0.  1.
          5    1    4    4  502    0  0.80166884905E+02  0.13799705626E+02  0.15689218832E+02  0.82978327884E+02  0.47000000000E+01 0. -1.
         -5    1    4    4    0  502  0.39751195054E+02 -0.10375329900E+03 -0.12630093409E+02  0.11192190947E+03  0.47000000000E+01 0. -1.
<mgrwt>
<rscale>  0 0.10087127E+04</rscale>
<asrwt>0</asrwt>
<pdfrwt beam="1">  1        2 0.77532965E-01 0.10087127E+04</pdfrwt>
<pdfrwt beam="2">  1       -2 0.77653652E-01 0.10087127E+04</pdfrwt>
<totfact> 0.10879069E+02</totfact>
</mgrwt>
</event>
<event>
 9    1  0.4369420E-036  0.9996842E+03  0.7818608E-02  0.8681339E-01
         -2   -1    0    0    0  501 -0.00000000000E+00  0.00000000000E+00  0.84503818268E+03  0.84503818268E+03  0.00000000000E+00 0. -1.
          2   -1    0    0  501    0  0.00000000000E+00 -0.00000000000E+00 -0.29565781600E+03  0.29565781600E+03  0.00000000000E+00 0. -1.
         36    2    1    2    0    0  0.28421709430E-13  0.00000000000E+00  0.54938036668E+03  0.11406959987E+04  0.99968423721E+03 0.  0.
         25    2    3    3    0    0  0.64389149224E+02 -0.12598316842E+03  0.12470748019E+03  0.22356523650E+03  0.12004889876E+03 0.  0.
         35    2    3    3    0    0 -0.64389149224E+02  0.12598316842E+03  0.42467288649E+03  0.91713076219E+03  0.80047739079E+03 0.  0.
         22    1    5    5    0    0  0.75651596148E+02  0.26290081345E+03  0.59672134642E+03  0.65644220384E+03  0.00000000000E+00 0.  1.
         22    1    5    5    0    0 -0.14004074537E+03 -0.13691764504E+03 -0.17204845993E+03  0.26068855834E+03  0.00000000000E+00 0.  1.
          5    1    4    4  502    0  0.42370024705E+02 -0.14787397485E+03  0.10784210175E+03  0.18792003709E+03  0.47000000000E+01 0. -1.
         -5    1    4    4    0  502  0.22019124519E+02  0.21890806433E+02  0.16865378445E+02  0.35645199410E+02  0.47000000000E+01 0. -1.
<mgrwt>
<rscale>  0 0.99968424E+03</rscale>
<asrwt>0</asrwt>
<pdfrwt beam="1">  1        2 0.45485818E-01 0.99968424E+03</pdfrwt>
<pdfrwt beam="2">  1       -2 0.13000587E+00 0.99968424E+03</pdfrwt>
<totfact> 0.55957745E+01</totfact>
</mgrwt>
</event>
<event>
 9    1  0.4369420E-036  0.1000006E+04  0.7818608E-02  0.8681032E-01
         -2   -1    0    0    0  501 -0.00000000000E+00  0.00000000000E+00  0.29974602745E+03  0.29974602745E+03  0.00000000000E+00 0.  1.
          2   -1    0    0  501    0  0.00000000000E+00 -0.00000000000E+00 -0.83404943701E+03  0.83404943701E+03  0.00000000000E+00 0.  1.
         36    2    1    2    0    0  0.00000000000E+00  0.00000000000E+00 -0.53430340956E+03  0.11337954645E+04  0.10000060109E+04 0.  0.
         25    2    3    3    0    0 -0.11845026869E+03  0.56352929425E+02 -0.50907139230E+02  0.18847948504E+03  0.12540678071E+03 0.  0.
         35    2    3    3    0    0  0.11845026869E+03 -0.56352929425E+02 -0.48339627033E+03  0.94531597943E+03  0.80171330785E+03 0.  0.
         22    1    5    5    0    0 -0.14484455655E+03  0.31063602330E+03 -0.30794837902E+03  0.46076771662E+03  0.00000000000E+00 0.  1.
         22    1    5    5    0    0  0.26329482524E+03 -0.36698895273E+03 -0.17544789131E+03  0.48454826281E+03  0.00000000000E+00 0.  1.
          5    1    4    4  502    0 -0.20178359602E+01  0.47022171592E+02  0.20439533617E+02  0.51526894120E+02  0.47000000000E+01 0. -1.
         -5    1    4    4    0  502 -0.11643243273E+03  0.93307578332E+01 -0.71346672847E+02  0.13695259092E+03  0.47000000000E+01 0. -1.
<mgrwt>
<rscale>  0 0.10000060E+04</rscale>
<asrwt>0</asrwt>
<pdfrwt beam="1">  1        2 0.12831530E+00 0.10000060E+04</pdfrwt>
<pdfrwt beam="2">  1       -2 0.46114774E-01 0.10000060E+04</pdfrwt>
<totfact> 0.17573437E+02</totfact>
</mgrwt>
</event>
<event>
 9    1  0.4369420E-036  0.1001169E+04  0.7818608E-02  0.8679925E-01
          1   -1    0    0  501    0  0.00000000000E+00  0.00000000000E+00  0.16771463589E+04  0.16771463589E+04  0.00000000000E+00 0. -1.
         -1   -1    0    0    0  501 -0.00000000000E+00 -0.00000000000E+00 -0.14941147811E+03  0.14941147811E+03  0.00000000000E+00 0. -1.
         36    2    1    2    0    0  0.00000000000E+00  0.00000000000E+00  0.15277348808E+04  0.18265578370E+04  0.10011691495E+04 0.  0.
         25    2    3    3    0    0  0.18879404903E+02  0.64611917327E+02  0.60977651091E+02  0.15410574973E+03  0.12449568819E+03 0.  0.
         35    2    3    3    0    0 -0.18879404903E+02 -0.64611917327E+02  0.14667572297E+04  0.16724520873E+04  0.80074220669E+03 0.  0.
         22    1    5    5    0    0  0.18465628943E+03 -0.41716329770E+02 -0.21619187628E+01  0.18932213629E+03  0.00000000000E+00 0.  1.
         22    1    5    5    0    0 -0.20353569434E+03 -0.22895587557E+02  0.14689191484E+04  0.14831299510E+04  0.00000000000E+00 0.  1.
          5    1    4    4  502    0  0.61671108727E+02  0.38744210357E+02 -0.26669033458E+01  0.73031786650E+02  0.47000000000E+01 0. -1.
         -5    1    4    4    0  502 -0.42791703824E+02  0.25867706970E+02  0.63644554437E+02  0.81073963080E+02  0.47000000000E+01 0. -1.
<mgrwt>
<rscale>  0 0.10011691E+04</rscale>
<asrwt>0</asrwt>
<pdfrwt beam="1">  1        1 0.25802250E+00 0.10011691E+04</pdfrwt>
<pdfrwt beam="2">  1       -1 0.22986382E-01 0.10011691E+04</pdfrwt>
<totfact> 0.85193030E+01</totfact>
</mgrwt>
</event>
<event>
 9    1  0.4369420E-036  0.9995324E+03  0.7818608E-02  0.8681483E-01
          2   -1    0    0  501    0  0.00000000000E+00  0.00000000000E+00  0.17679238514E+04  0.17679238514E+04  0.00000000000E+00 0. -1.
         -2   -1    0    0    0  501 -0.00000000000E+00 -0.00000000000E+00 -0.14127659208E+03  0.14127659208E+03  0.00000000000E+00 0. -1.
         36    2    1    2    0    0  0.00000000000E+00 -0.28421709430E-13  0.16266472593E+04  0.19092004434E+04  0.99953240423E+03 0.  0.
         25    2    3    3    0    0 -0.32601374855E+02 -0.12672356220E+03  0.21257709236E+03  0.27918399623E+03  0.12503188671E+03 0.  0.
         35    2    3    3    0    0  0.32601374855E+02  0.12672356220E+03  0.14140701669E+04  0.16300164472E+04  0.80014840520E+03 0.  0.
         22    1    5    5    0    0 -0.52128360331E+02  0.18657870930E+03  0.14893153044E+04  0.15018618633E+04  0.00000000000E+00 0.  1.
         22    1    5    5    0    0  0.84729735186E+02 -0.59855147100E+02 -0.75245137447E+02  0.12815458388E+03  0.00000000000E+00 0.  1.
          5    1    4    4  502    0  0.24256669610E+02 -0.50077858038E+02  0.16141272576E+03  0.17079910985E+03  0.47000000000E+01 0. -1.
         -5    1    4    4    0  502 -0.56858044464E+02 -0.76645704162E+02  0.51164366597E+02  0.10838488638E+03  0.47000000000E+01 0. -1.
<mgrwt>
<rscale>  0 0.99953240E+03</rscale>
<asrwt>0</asrwt>
<pdfrwt beam="1">  1        2 0.27198827E+00 0.99953240E+03</pdfrwt>
<pdfrwt beam="2">  1       -2 0.21734862E-01 0.99953240E+03</pdfrwt>
<totfact> 0.19632680E+02</totfact>
</mgrwt>
</event>
<event>
 9    1  0.4369420E-036  0.9940559E+03  0.7818608E-02  0.8686719E-01
          2   -1    0    0  501    0  0.00000000000E+00  0.00000000000E+00  0.13832791513E+04  0.13832791513E+04  0.00000000000E+00 0. -1.
         -2   -1    0    0    0  501 -0.00000000000E+00 -0.00000000000E+00 -0.17858779292E+03  0.17858779292E+03  0.00000000000E+00 0. -1.
         36    2    1    2    0    0  0.14210854715E-13 -0.14210854715E-13  0.12046913584E+04  0.15618669443E+04  0.99405587495E+03 0.  0.
         25    2    3    3    0    0 -0.17924724109E+02 -0.60636064854E+02  0.40527095685E+03  0.42883114794E+03  0.12511425534E+03 0.  0.
         35    2    3    3    0    0  0.17924724109E+02  0.60636064854E+02  0.79942040158E+03  0.11330357963E+04  0.80043682398E+03 0.  0.
         22    1    5    5    0    0 -0.14780658330E+03  0.10659207665E+03 -0.10640836648E+03  0.21102463678E+03  0.00000000000E+00 0. -1.
         22    1    5    5    0    0  0.16573130741E+03 -0.45956011794E+02  0.90582876806E+03  0.92201115954E+03  0.00000000000E+00 0. -1.
          5    1    4    4  502    0 -0.57940922389E+02 -0.53907398994E+01  0.98234319324E+02  0.11427284042E+03  0.47000000000E+01 0. -1.
         -5    1    4    4    0  502  0.40016198280E+02 -0.55245324955E+02  0.30703663752E+03  0.31455830753E+03  0.47000000000E+01 0. -1.
<mgrwt>
<rscale>  0 0.99405587E+03</rscale>
<asrwt>0</asrwt>
<pdfrwt beam="1">  1        2 0.21281217E+00 0.99405587E+03</pdfrwt>
<pdfrwt beam="2">  1       -2 0.27475046E-01 0.99405587E+03</pdfrwt>
<totfact> 0.21397190E+02</totfact>
</mgrwt>
</event>
<event>
 9    1  0.4369420E-036  0.1003655E+04  0.7818608E-02  0.8677565E-01
         -2   -1    0    0    0  501 -0.00000000000E+00  0.00000000000E+00  0.68413146828E+03  0.68413146828E+03  0.00000000000E+00 0. -1.
          2   -1    0    0  501    0  0.00000000000E+00 -0.00000000000E+00 -0.36810300546E+03  0.36810300546E+03  0.00000000000E+00 0. -1.
         36    2    1    2    0    0 -0.71054273576E-14 -0.35527136788E-14  0.31602846282E+03  0.10522344737E+04  0.10036550196E+04 0.  0.
         25    2    3    3    0    0  0.49707482639E+02 -0.24113655226E+02  0.19442889676E+03  0.23774018137E+03  0.12516187816E+03 0.  0.
         35    2    3    3    0    0 -0.49707482639E+02  0.24113655226E+02  0.12159956606E+03  0.81449429238E+03  0.80346885170E+03 0.  0.
         22    1    5    5    0    0  0.76900268837E+02 -0.23285831051E+02 -0.33178920620E+03  0.34137949357E+03  0.00000000000E+00 0.  1.
         22    1    5    5    0    0 -0.12660775148E+03  0.47399486277E+02  0.45338877227E+03  0.47311479881E+03  0.00000000000E+00 0.  1.
          5    1    4    4  502    0 -0.20989153229E+02 -0.38776449974E+02  0.19504621005E+02  0.48442521264E+02  0.47000000000E+01 0. -1.
         -5    1    4    4    0  502  0.70696635868E+02  0.14662794748E+02  0.17492427575E+03  0.18929766010E+03  0.47000000000E+01 0. -1.
<mgrwt>
<rscale>  0 0.10036550E+04</rscale>
<asrwt>0</asrwt>
<pdfrwt beam="1">  1        2 0.56631232E-01 0.10036550E+04</pdfrwt>
<pdfrwt beam="2">  1       -2 0.10525100E+00 0.10036550E+04</pdfrwt>
<totfact> 0.75503823E+01</totfact>
</mgrwt>
</event>
<event>
 9    1  0.4369420E-036  0.1010234E+04  0.7818608E-02  0.8671352E-01
          2   -1    0    0  501    0  0.00000000000E+00  0.00000000000E+00  0.80106231709E+03  0.80106231709E+03  0.00000000000E+00 0.  1.
         -2   -1    0    0    0  501 -0.00000000000E+00 -0.00000000000E+00 -0.31850632367E+03  0.31850632367E+03  0.00000000000E+00 0.  1.
         36    2    1    2    0    0  0.42632564146E-13  0.71054273576E-14  0.48255599342E+03  0.11195686408E+04  0.10102344553E+04 0.  0.
         25    2    3    3    0    0 -0.17063077278E+02 -0.74255182318E+01 -0.72597437499E+02  0.14486100614E+03  0.12396788391E+03 0.  0.
         35    2    3    3    0    0  0.17063077278E+02  0.74255182318E+01  0.55515343092E+03  0.97470763462E+03  0.80094528789E+03 0.  0.
         22    1    5    5    0    0  0.30831837629E+03 -0.24711401989E+03  0.17426775489E+03  0.43185044910E+03  0.00000000000E+00 0.  1.
         22    1    5    5    0    0 -0.29125529901E+03  0.25453953813E+03  0.38088567603E+03  0.54285718553E+03  0.00000000000E+00 0.  1.
          5    1    4    4  502    0  0.30140380872E+02  0.32715782499E+02  0.54883518584E+01  0.45066362065E+02  0.47000000000E+01 0. -1.
         -5    1    4    4    0  502 -0.47203458150E+02 -0.40141300730E+02 -0.78085789358E+02  0.99794644071E+02  0.47000000000E+01 0. -1.
<mgrwt>
<rscale>  0 0.10102345E+04</rscale>
<asrwt>0</asrwt>
<pdfrwt beam="1">  1        2 0.12324036E+00 0.10102345E+04</pdfrwt>
<pdfrwt beam="2">  1       -2 0.49000973E-01 0.10102345E+04</pdfrwt>
<totfact> 0.16421182E+02</totfact>
</mgrwt>
</event>
<event>
 9    1  0.4369420E-036  0.1000671E+04  0.7818608E-02  0.8680399E-01
         -2   -1    0    0    0  501 -0.00000000000E+00  0.00000000000E+00  0.97925911372E+02  0.97925911372E+02  0.00000000000E+00 0. -1.
          2   -1    0    0  501    0  0.00000000000E+00 -0.00000000000E+00 -0.25563790524E+04  0.25563790524E+04  0.00000000000E+00 0. -1.
         36    2    1    2    0    0  0.00000000000E+00 -0.14210854715E-13 -0.24584531410E+04  0.26543049637E+04  0.10006712717E+04 0.  0.
         25    2    3    3    0    0 -0.67888736655E+02 -0.10741558333E+03 -0.30189572633E+03  0.35057434715E+03  0.12495741352E+03 0.  0.
         35    2    3    3    0    0  0.67888736655E+02  0.10741558333E+03 -0.21565574147E+04  0.23037306166E+04  0.80017990663E+03 0.  0.
         22    1    5    5    0    0  0.94450733103E+01 -0.26397017292E+03 -0.16601104062E+04  0.16809925706E+04  0.00000000000E+00 0.  1.
         22    1    5    5    0    0  0.58443663345E+02  0.37138575625E+03 -0.49644700848E+03  0.62273804602E+03  0.00000000000E+00 0.  1.
          5    1    4    4  502    0  0.80833444059E+01 -0.82426970570E+02 -0.82441191510E+02  0.11695377716E+03  0.47000000000E+01 0.  1.
         -5    1    4    4    0  502 -0.75972081061E+02 -0.24988612765E+02 -0.21945453482E+03  0.23362056999E+03  0.47000000000E+01 0.  1.
<mgrwt>
<rscale>  0 0.10006713E+04</rscale>
<asrwt>0</asrwt>
<pdfrwt beam="1">  1        2 0.39328907E+00 0.10006713E+04</pdfrwt>
<pdfrwt beam="2">  1       -2 0.15065525E-01 0.10006713E+04</pdfrwt>
<totfact> 0.12769153E+02</totfact>
</mgrwt>
</event>
<event>
 9    1  0.4369420E-036  0.1000433E+04  0.7818608E-02  0.8680626E-01
          3   -1    0    0  501    0  0.00000000000E+00  0.00000000000E+00  0.36482339313E+03  0.36482339313E+03  0.00000000000E+00 0.  1.
         -3   -1    0    0    0  501 -0.00000000000E+00 -0.00000000000E+00 -0.68585596413E+03  0.68585596413E+03  0.00000000000E+00 0.  1.
         36    2    1    2    0    0  0.00000000000E+00  0.28421709430E-13 -0.32103257100E+03  0.10506793573E+04  0.10004325065E+04 0.  0.
         25    2    3    3    0    0  0.72409289875E+02 -0.11805696013E+03 -0.54116366940E+02  0.19459643034E+03  0.12553341562E+03 0.  0.
         35    2    3    3    0    0 -0.72409289875E+02  0.11805696013E+03 -0.26691620406E+03  0.85608292692E+03  0.80153176273E+03 0.  0.
         22    1    5    5    0    0  0.22683564796E+03  0.12720169411E+03  0.18133657344E+03  0.31704516245E+03  0.00000000000E+00 0.  1.
         22    1    5    5    0    0 -0.29924493783E+03 -0.91447339821E+01 -0.44825277750E+03  0.53903776446E+03  0.00000000000E+00 0.  1.
          5    1    4    4  502    0  0.66879497881E+02 -0.52951697463E+02 -0.86450780667E+02  0.12154249043E+03  0.47000000000E+01 0.  1.
         -5    1    4    4    0  502  0.55297919939E+01 -0.65105262666E+02  0.32334413727E+02  0.73053939917E+02  0.47000000000E+01 0.  1.
<mgrwt>
<rscale>  0 0.10004325E+04</rscale>
<asrwt>0</asrwt>
<pdfrwt beam="1">  1        3 0.56126677E-01 0.10004325E+04</pdfrwt>
<pdfrwt beam="2">  1       -3 0.10551630E+00 0.10004325E+04</pdfrwt>
<totfact> 0.87822627E+00</totfact>
</mgrwt>
</event>
<event>
 9    1  0.4369420E-036  0.1000596E+04  0.7818608E-02  0.8680471E-01
          2   -1    0    0  501    0  0.00000000000E+00  0.00000000000E+00  0.18350875700E+04  0.18350875700E+04  0.00000000000E+00 0. -1.
         -2   -1    0    0    0  501 -0.00000000000E+00 -0.00000000000E+00 -0.13639561359E+03  0.13639561359E+03  0.00000000000E+00 0. -1.
         36    2    1    2    0    0  0.00000000000E+00  0.00000000000E+00  0.16986919564E+04  0.19714831836E+04  0.10005956129E+04 0.  0.
         25    2    3    3    0    0  0.54289730564E+02 -0.90155204869E+02  0.49993325855E+03  0.52598196842E+03  0.12509369404E+03 0.  0.
         35    2    3    3    0    0 -0.54289730564E+02  0.90155204869E+02  0.11987586979E+04  0.14455012152E+04  0.80085954549E+03 0.  0.
         22    1    5    5    0    0 -0.35727009124E+03 -0.48652902535E+02  0.98663352136E+03  0.10504545342E+04  0.00000000000E+00 0.  1.
         22    1    5    5    0    0  0.30298036068E+03  0.13880810740E+03  0.21212517654E+03  0.39504668099E+03  0.00000000000E+00 0.  1.
          5    1    4    4  502    0 -0.35556565019E+02 -0.43078380205E+02  0.25004291084E+03  0.25624902618E+03  0.47000000000E+01 0. -1.
         -5    1    4    4    0  502  0.89846295583E+02 -0.47076824664E+02  0.24989034771E+03  0.26973294224E+03  0.47000000000E+01 0. -1.
<mgrwt>
<rscale>  0 0.10005956E+04</rscale>
<asrwt>0</asrwt>
<pdfrwt beam="1">  1        2 0.28232115E+00 0.10005956E+04</pdfrwt>
<pdfrwt beam="2">  1       -2 0.20983942E-01 0.10005956E+04</pdfrwt>
<totfact> 0.19128508E+02</totfact>
</mgrwt>
</event>
<event>
 9    1  0.4369420E-036  0.1000765E+04  0.7818608E-02  0.8680310E-01
         -2   -1    0    0    0  501 -0.00000000000E+00  0.00000000000E+00  0.22952583577E+03  0.22952583577E+03  0.00000000000E+00 0.  1.
          2   -1    0    0  501    0  0.00000000000E+00 -0.00000000000E+00 -0.10908689339E+04  0.10908689339E+04  0.00000000000E+00 0.  1.
         36    2    1    2    0    0  0.28421709430E-13 -0.14210854715E-13 -0.86134309810E+03  0.13203947696E+04  0.10007649150E+04 0.  0.
         25    2    3    3    0    0 -0.38042736572E+02 -0.10828024170E+03 -0.50208415411E+02  0.17679553209E+03  0.12475541929E+03 0.  0.
         35    2    3    3    0    0  0.38042736572E+02  0.10828024170E+03 -0.81113468268E+03  0.11435992375E+04  0.79793977348E+03 0.  0.
         22    1    5    5    0    0 -0.26481818810E+03 -0.11134688045E+03 -0.69474969561E+03  0.75180046561E+03  0.00000000000E+00 0.  1.
         22    1    5    5    0    0  0.30286092467E+03  0.21962712215E+03 -0.11638498707E+03  0.39179877194E+03  0.00000000000E+00 0.  1.
          5    1    4    4  502    0 -0.76252999103E+02 -0.51647966319E+02 -0.57209678348E+00  0.92219572715E+02  0.47000000000E+01 0.  1.
         -5    1    4    4    0  502  0.38210262531E+02 -0.56632275382E+02 -0.49636318628E+02  0.84575959377E+02  0.47000000000E+01 0.  1.
<mgrwt>
<rscale>  0 0.10007649E+04</rscale>
<asrwt>0</asrwt>
<pdfrwt beam="1">  1        2 0.16782599E+00 0.10007649E+04</pdfrwt>
<pdfrwt beam="2">  1       -2 0.35311666E-01 0.10007649E+04</pdfrwt>
<totfact> 0.20065431E+02</totfact>
</mgrwt>
</event>
<event>
 9    1  0.4369420E-036  0.1000556E+04  0.7818608E-02  0.8680509E-01
          3   -1    0    0  501    0  0.00000000000E+00  0.00000000000E+00  0.12814788198E+04  0.12814788198E+04  0.00000000000E+00 0.  1.
         -3   -1    0    0    0  501 -0.00000000000E+00 -0.00000000000E+00 -0.19530416396E+03  0.19530416396E+03  0.00000000000E+00 0.  1.
         36    2    1    2    0    0  0.00000000000E+00  0.28421709430E-13  0.10861746559E+04  0.14767829838E+04  0.10005561444E+04 0.  0.
         25    2    3    3    0    0  0.51823684931E+02  0.71674238542E+02  0.36817148099E+03  0.39854414812E+03  0.12435557005E+03 0.  0.
         35    2    3    3    0    0 -0.51823684931E+02 -0.71674238542E+02  0.71800317489E+03  0.10782388357E+04  0.79952957220E+03 0.  0.
         22    1    5    5    0    0 -0.89282909484E+02  0.25223156188E+03 -0.23114624762E+02  0.26856374404E+03  0.00000000000E+00 0.  1.
         22    1    5    5    0    0  0.37459224553E+02 -0.32390580042E+03  0.74111779965E+03  0.80967509163E+03  0.00000000000E+00 0.  1.
          5    1    4    4  502    0  0.97832163540E+01  0.42778749523E+02  0.33413856445E+03  0.33704065479E+03  0.47000000000E+01 0.  1.
         -5    1    4    4    0  502  0.42040468577E+02  0.28895489019E+02  0.34032916541E+02  0.61503493332E+02  0.47000000000E+01 0.  1.
<mgrwt>
<rscale>  0 0.10005561E+04</rscale>
<asrwt>0</asrwt>
<pdfrwt beam="1">  1        3 0.19715058E+00 0.10005561E+04</pdfrwt>
<pdfrwt beam="2">  1       -3 0.30046795E-01 0.10005561E+04</pdfrwt>
<totfact> 0.66602554E+00</totfact>
</mgrwt>
</event>
<event>
 9    1  0.4369420E-036  0.1001782E+04  0.7818608E-02  0.8679342E-01
          2   -1    0    0  501    0  0.00000000000E+00  0.00000000000E+00  0.11037535002E+04  0.11037535002E+04  0.00000000000E+00 0.  1.
         -2   -1    0    0    0  501 -0.00000000000E+00 -0.00000000000E+00 -0.22730799280E+03  0.22730799280E+03  0.00000000000E+00 0.  1.
         36    2    1    2    0    0  0.71054273576E-14 -0.14210854715E-13  0.87644550740E+03  0.13310614930E+04  0.10017823969E+04 0.  0.
         25    2    3    3    0    0  0.63311307786E+02  0.98396901932E+02  0.58769937980E+02  0.18191038198E+03  0.12628226107E+03 0.  0.
         35    2    3    3    0    0 -0.63311307786E+02 -0.98396901932E+02  0.81767556942E+03  0.11491511110E+04  0.79891468075E+03 0.  0.
         22    1    5    5    0    0 -0.91447465556E+02 -0.36191989543E+03  0.10348323725E+03  0.38737246941E+03  0.00000000000E+00 0. -1.
         22    1    5    5    0    0  0.28136157770E+02  0.26352299350E+03  0.71419233216E+03  0.76177864160E+03  0.00000000000E+00 0. -1.
          5    1    4    4  502    0 -0.38128971376E+02  0.30065309200E+02  0.81604243933E+01  0.49461336433E+02  0.47000000000E+01 0. -1.
         -5    1    4    4    0  502  0.10144027916E+03  0.68331592732E+02  0.50609513587E+02  0.13244904555E+03  0.47000000000E+01 0. -1.
<mgrwt>
<rscale>  0 0.10017824E+04</rscale>
<asrwt>0</asrwt>
<pdfrwt beam="1">  1        2 0.16980823E+00 0.10017824E+04</pdfrwt>
<pdfrwt beam="2">  1       -2 0.34970461E-01 0.10017824E+04</pdfrwt>
<totfact> 0.20067783E+02</totfact>
</mgrwt>
</event>
<event>
 9    1  0.4369420E-036  0.9995415E+03  0.7818608E-02  0.8681475E-01
         -1   -1    0    0    0  501 -0.00000000000E+00  0.00000000000E+00  0.99388319813E+03  0.99388319813E+03  0.00000000000E+00 0. -1.
          1   -1    0    0  501    0  0.00000000000E+00 -0.00000000000E+00 -0.25130800947E+03  0.25130800947E+03  0.00000000000E+00 0. -1.
         36    2    1    2    0    0  0.28421709430E-13 -0.14210854715E-13  0.74257518866E+03  0.12451912076E+04  0.99954151122E+03 0.  0.
         25    2    3    3    0    0 -0.56648810493E+02  0.10416959408E+03  0.23067759956E+03  0.28836619065E+03  0.12602584223E+03 0.  0.
         35    2    3    3    0    0  0.56648810493E+02 -0.10416959408E+03  0.51189758910E+03  0.95682501694E+03  0.79963402833E+03 0.  0.
         22    1    5    5    0    0 -0.33256851264E+03 -0.11459474092E+03  0.54181103062E+02  0.35590639524E+03  0.00000000000E+00 0.  1.
         22    1    5    5    0    0  0.38921732313E+03  0.10425146844E+02  0.45771648604E+03  0.60091862170E+03  0.00000000000E+00 0.  1.
          5    1    4    4  502    0 -0.33715288636E+02  0.12990189145E+03  0.15503547250E+03  0.20510804427E+03  0.47000000000E+01 0.  1.
         -5    1    4    4    0  502 -0.22933521857E+02 -0.25732297372E+02  0.75642127067E+02  0.83258146388E+02  0.47000000000E+01 0.  1.
<mgrwt>
<rscale>  0 0.99954151E+03</rscale>
<asrwt>0</asrwt>
<pdfrwt beam="1">  1        1 0.38662771E-01 0.99954151E+03</pdfrwt>
<pdfrwt beam="2">  1       -1 0.15290511E+00 0.99954151E+03</pdfrwt>
<totfact> 0.42798353E+01</totfact>
</mgrwt>
</event>
<event>
 9    1  0.4369420E-036  0.1003415E+04  0.7818608E-02  0.8677792E-01
         -2   -1    0    0    0  501 -0.00000000000E+00  0.00000000000E+00  0.46420651387E+03  0.46420651387E+03  0.00000000000E+00 0. -1.
          2   -1    0    0  501    0  0.00000000000E+00 -0.00000000000E+00 -0.54223830602E+03  0.54223830602E+03  0.00000000000E+00 0. -1.
         36    2    1    2    0    0 -0.28421709430E-13  0.00000000000E+00 -0.78031792144E+02  0.10064448199E+04  0.10034152754E+04 0.  0.
         25    2    3    3    0    0 -0.10627169688E+03 -0.53328786627E+02 -0.96413122908E+02  0.19782688355E+03  0.12530902818E+03 0.  0.
         35    2    3    3    0    0  0.10627169688E+03  0.53328786627E+02  0.18381330765E+02  0.80861793635E+03  0.79961707124E+03 0.  0.
         22    1    5    5    0    0  0.42587436029E+03 -0.20135604678E+02 -0.13413062793E+03  0.44695127103E+03  0.00000000000E+00 0.  1.
         22    1    5    5    0    0 -0.31960266342E+03  0.73464391305E+02  0.15251195869E+03  0.36166666531E+03  0.00000000000E+00 0.  1.
          5    1    4    4  502    0 -0.11834486187E+03 -0.13850613329E+02 -0.10067318240E+03  0.15605936523E+03  0.47000000000E+01 0.  1.
         -5    1    4    4    0  502  0.12073164988E+02 -0.39478173298E+02  0.42600594950E+01  0.41767518321E+02  0.47000000000E+01 0.  1.
<mgrwt>
<rscale>  0 0.10034153E+04</rscale>
<asrwt>0</asrwt>
<pdfrwt beam="1">  1        2 0.83421277E-01 0.10034153E+04</pdfrwt>
<pdfrwt beam="2">  1       -2 0.71416387E-01 0.10034153E+04</pdfrwt>
<totfact> 0.12045076E+02</totfact>
</mgrwt>
</event>
<event>
 9    1  0.4369420E-036  0.9992229E+03  0.7818608E-02  0.8681778E-01
          1   -1    0    0  501    0  0.00000000000E+00  0.00000000000E+00  0.31549346291E+04  0.31549346291E+04  0.00000000000E+00 0. -1.
         -1   -1    0    0    0  501 -0.00000000000E+00 -0.00000000000E+00 -0.79117835145E+02  0.79117835145E+02  0.00000000000E+00 0. -1.
         36    2    1    2    0    0 -0.21316282073E-13  0.00000000000E+00  0.30758167939E+04  0.32340524642E+04  0.99922289381E+03 0.  0.
         25    2    3    3    0    0 -0.10216563345E+02  0.13090745937E+03  0.74867599737E+03  0.77020802411E+03  0.12435236339E+03 0.  0.
         35    2    3    3    0    0  0.10216563345E+02 -0.13090745937E+03  0.23271407966E+04  0.24638444401E+04  0.79856370878E+03 0.  0.
         22    1    5    5    0    0 -0.31504197601E+03 -0.10486510964E+02  0.18343461889E+04  0.18612327512E+04  0.00000000000E+00 0.  1.
         22    1    5    5    0    0  0.32525853935E+03 -0.12042094840E+03  0.49279460770E+03  0.60261168891E+03  0.00000000000E+00 0.  1.
          5    1    4    4  502    0 -0.39777387245E+02  0.13643886169E+03  0.68535274314E+03  0.69994876673E+03  0.47000000000E+01 0. -1.
         -5    1    4    4    0  502  0.29560823900E+02 -0.55314023292E+01  0.63323254230E+02  0.70259257380E+02  0.47000000000E+01 0. -1.
<mgrwt>
<rscale>  0 0.99922289E+03</rscale>
<asrwt>0</asrwt>
<pdfrwt beam="1">  1        1 0.48537446E+00 0.99922289E+03</pdfrwt>
<pdfrwt beam="2">  1       -1 0.12171977E-01 0.99922289E+03</pdfrwt>
<totfact> 0.21581255E+01</totfact>
</mgrwt>
</event>
<event>
 9    1  0.4369420E-036  0.1000285E+04  0.7818608E-02  0.8680766E-01
         -2   -1    0    0    0  501 -0.00000000000E+00  0.00000000000E+00  0.26138220648E+03  0.26138220648E+03  0.00000000000E+00 0. -1.
          2   -1    0    0  501    0  0.00000000000E+00 -0.00000000000E+00 -0.95699969946E+03  0.95699969946E+03  0.00000000000E+00 0. -1.
         36    2    1    2    0    0 -0.28421709430E-13 -0.28421709430E-13 -0.69561749298E+03  0.12183819059E+04  0.10002853454E+04 0.  0.
         25    2    3    3    0    0 -0.10744716763E+03  0.86245938362E+02 -0.11230452920E+03  0.21886341146E+03  0.12769349976E+03 0.  0.
         35    2    3    3    0    0  0.10744716763E+03 -0.86245938362E+02 -0.58331296378E+03  0.99951849449E+03  0.79987495985E+03 0.  0.
         22    1    5    5    0    0 -0.48944378675E+02  0.28793763153E+03 -0.36733643995E+01  0.29209095409E+03  0.00000000000E+00 0.  1.
         22    1    5    5    0    0  0.15639154630E+03 -0.37418356990E+03 -0.57963959939E+03  0.70742754040E+03  0.00000000000E+00 0.  1.
          5    1    4    4  502    0  0.28726637774E+02  0.21967557592E+02 -0.14498245148E+02  0.39243883813E+02  0.47000000000E+01 0. -1.
         -5    1    4    4    0  502 -0.13617380540E+03  0.64278380770E+02 -0.97806284048E+02  0.17961952764E+03  0.47000000000E+01 0. -1.
<mgrwt>
<rscale>  0 0.10002853E+04</rscale>
<asrwt>0</asrwt>
<pdfrwt beam="1">  1        2 0.14723072E+00 0.10002853E+04</pdfrwt>
<pdfrwt beam="2">  1       -2 0.40212647E-01 0.10002853E+04</pdfrwt>
<totfact> 0.19013167E+02</totfact>
</mgrwt>
</event>
<event>
 9    1  0.4369420E-036  0.9998474E+03  0.7818608E-02  0.8681183E-01
         -1   -1    0    0    0  501 -0.00000000000E+00  0.00000000000E+00  0.18952409002E+03  0.18952409002E+03  0.00000000000E+00 0. -1.
          1   -1    0    0  501    0  0.00000000000E+00 -0.00000000000E+00 -0.13186909615E+04  0.13186909615E+04  0.00000000000E+00 0. -1.
         36    2    1    2    0    0 -0.35527136788E-13  0.00000000000E+00 -0.11291668714E+04  0.15082150515E+04  0.99984739734E+03 0.  0.
         25    2    3    3    0    0 -0.53011554836E+02  0.93689566073E+02 -0.77826947530E+02  0.18257834373E+03  0.12525916374E+03 0.  0.
         35    2    3    3    0    0  0.53011554836E+02 -0.93689566073E+02 -0.10513399239E+04  0.13256367077E+04  0.80025563765E+03 0.  0.
         22    1    5    5    0    0  0.33295097771E+03 -0.11241127898E+03 -0.15080185011E+03  0.38240534410E+03  0.00000000000E+00 0. -1.
         22    1    5    5    0    0 -0.27993942287E+03  0.18721712903E+02 -0.90053807380E+03  0.94323136365E+03  0.00000000000E+00 0. -1.
          5    1    4    4  502    0 -0.27831292060E+02  0.87785423619E+02  0.82473842482E+01  0.92579537505E+02  0.47000000000E+01 0.  1.
         -5    1    4    4    0  502 -0.25180262776E+02  0.59041424536E+01 -0.86074331778E+02  0.89998806229E+02  0.47000000000E+01 0.  1.
<mgrwt>
<rscale>  0 0.99984740E+03</rscale>
<asrwt>0</asrwt>
<pdfrwt beam="1">  1        1 0.20287554E+00 0.99984740E+03</pdfrwt>
<pdfrwt beam="2">  1       -1 0.29157552E-01 0.99984740E+03</pdfrwt>
<totfact> 0.10284922E+02</totfact>
</mgrwt>
</event>
<event>
 9    1  0.4369420E-036  0.1000820E+04  0.7818608E-02  0.8680258E-01
          2   -1    0    0  501    0  0.00000000000E+00  0.00000000000E+00  0.80063658950E+03  0.80063658950E+03  0.00000000000E+00 0.  1.
         -2   -1    0    0    0  501 -0.00000000000E+00 -0.00000000000E+00 -0.31276372999E+03  0.31276372999E+03  0.00000000000E+00 0.  1.
         36    2    1    2    0    0  0.42632564146E-13  0.00000000000E+00  0.48787285951E+03  0.11134003195E+04  0.10008198361E+04 0.  0.
         25    2    3    3    0    0 -0.34991071911E+02  0.13337860746E+03  0.12363903230E+03  0.22352224097E+03  0.12514533095E+03 0.  0.
         35    2    3    3    0    0  0.34991071911E+02 -0.13337860746E+03  0.36423382721E+03  0.88987807853E+03  0.80012654357E+03 0.  0.
         22    1    5    5    0    0 -0.21914297932E+03 -0.34768099448E+03  0.20202839502E+02  0.41147767136E+03  0.00000000000E+00 0.  1.
         22    1    5    5    0    0  0.25413405123E+03  0.21430238702E+03  0.34403098771E+03  0.47840040717E+03  0.00000000000E+00 0.  1.
          5    1    4    4  502    0  0.42458000925E+02  0.16729485167E+02  0.25694272035E+02  0.52581775664E+02  0.47000000000E+01 0.  1.
         -5    1    4    4    0  502 -0.77449072837E+02  0.11664912229E+03  0.97944760270E+02  0.17094046530E+03  0.47000000000E+01 0.  1.
<mgrwt>
<rscale>  0 0.10008198E+04</rscale>
<asrwt>0</asrwt>
<pdfrwt beam="1">  1        2 0.12317486E+00 0.10008198E+04</pdfrwt>
<pdfrwt beam="2">  1       -2 0.48117497E-01 0.10008198E+04</pdfrwt>
<totfact> 0.17041546E+02</totfact>
</mgrwt>
</event>
<event>
 9    1  0.4369420E-036  0.1000163E+04  0.7818608E-02  0.8680882E-01
          1   -1    0    0  501    0  0.00000000000E+00  0.00000000000E+00  0.17092989338E+03  0.17092989338E+03  0.00000000000E+00 0. -1.
         -1   -1    0    0    0  501 -0.00000000000E+00 -0.00000000000E+00 -0.14630658452E+04  0.14630658452E+04  0.00000000000E+00 0. -1.
         36    2    1    2    0    0  0.00000000000E+00 -0.28421709430E-13 -0.12921359519E+04  0.16339957386E+04  0.10001633645E+04 0.  0.
         25    2    3    3    0    0 -0.75318923224E+02 -0.66299930469E+02 -0.81467921726E+02  0.17881809262E+03  0.12357292180E+03 0.  0.
         35    2    3    3    0    0  0.75318923224E+02  0.66299930469E+02 -0.12106680301E+04  0.14551776460E+04  0.80109692376E+03 0.  0.
         22    1    5    5    0    0  0.33190672440E+03 -0.21324033678E+03 -0.82324793525E+03  0.91289138337E+03  0.00000000000E+00 0. -1.
         22    1    5    5    0    0 -0.25658780117E+03  0.27954026725E+03 -0.38742009488E+03  0.54228626264E+03  0.00000000000E+00 0. -1.
          5    1    4    4  502    0 -0.37023561909E+02 -0.34400157032E+02 -0.11003609957E+03  0.12117816697E+03  0.47000000000E+01 0. -1.
         -5    1    4    4    0  502 -0.38295361315E+02 -0.31899773437E+02  0.28568177848E+02  0.57639925652E+02  0.47000000000E+01 0. -1.
<mgrwt>
<rscale>  0 0.10001634E+04</rscale>
<asrwt>0</asrwt>
<pdfrwt beam="1">  1        1 0.26296906E-01 0.10001634E+04</pdfrwt>
<pdfrwt beam="2">  1       -1 0.22508706E+00 0.10001634E+04</pdfrwt>
<totfact> 0.17276571E+01</totfact>
</mgrwt>
</event>
<event>
 9    1  0.4369420E-036  0.9998909E+03  0.7818608E-02  0.8681142E-01
         -2   -1    0    0    0  501 -0.00000000000E+00  0.00000000000E+00  0.18192459581E+03  0.18192459581E+03  0.00000000000E+00 0. -1.
          2   -1    0    0  501    0  0.00000000000E+00 -0.00000000000E+00 -0.13738958225E+04  0.13738958225E+04  0.00000000000E+00 0. -1.
         36    2    1    2    0    0 -0.14210854715E-13 -0.28421709430E-13 -0.11919712267E+04  0.15558204183E+04  0.99989087843E+03 0.  0.
         25    2    3    3    0    0  0.58310799734E+02  0.12489207927E+03 -0.26450582890E+03  0.32316370648E+03  0.12439158667E+03 0.  0.
         35    2    3    3    0    0 -0.58310799734E+02 -0.12489207927E+03 -0.92746539775E+03  0.12326567118E+04  0.80015768714E+03 0.  0.
         22    1    5    5    0    0  0.19274314499E+03  0.29727025129E+02  0.58453223802E+02  0.20359370161E+03  0.00000000000E+00 0.  1.
         22    1    5    5    0    0 -0.25105394473E+03 -0.15461910439E+03 -0.98591862155E+03  0.10290630102E+04  0.00000000000E+00 0.  1.
          5    1    4    4  502    0  0.10304645467E+02  0.70572011576E+02 -0.23347112334E+03  0.24416684863E+03  0.47000000000E+01 0.  1.
         -5    1    4    4    0  502  0.48006154268E+02  0.54320067689E+02 -0.31034705564E+02  0.78996857854E+02  0.47000000000E+01 0.  1.
<mgrwt>
<rscale>  0 0.99989088E+03</rscale>
<asrwt>0</asrwt>
<pdfrwt beam="1">  1        2 0.21136859E+00 0.99989088E+03</pdfrwt>
<pdfrwt beam="2">  1       -2 0.27988399E-01 0.99989088E+03</pdfrwt>
<totfact> 0.20952568E+02</totfact>
</mgrwt>
</event>
<event>
 9    1  0.4369420E-036  0.9996992E+03  0.7818608E-02  0.8681324E-01
          2   -1    0    0  501    0  0.00000000000E+00  0.00000000000E+00  0.97923378012E+02  0.97923378012E+02  0.00000000000E+00 0.  1.
         -2   -1    0    0    0  501 -0.00000000000E+00 -0.00000000000E+00 -0.25514807729E+04  0.25514807729E+04  0.00000000000E+00 0.  1.
         36    2    1    2    0    0 -0.35527136788E-14  0.00000000000E+00 -0.24535573949E+04  0.26494041509E+04  0.99969918718E+03 0.  0.
         25    2    3    3    0    0 -0.13364778955E+02 -0.48192964231E+02 -0.11729115982E+03  0.17954735230E+03  0.12640750147E+03 0.  0.
         35    2    3    3    0    0  0.13364778955E+02  0.48192964231E+02 -0.23362662350E+04  0.24698567986E+04  0.79971964175E+03 0.  0.
         22    1    5    5    0    0  0.23816703613E+03  0.93358410018E+02 -0.21738927091E+04  0.21888921491E+04  0.00000000000E+00 0.  1.
         22    1    5    5    0    0 -0.22480225717E+03 -0.45165445788E+02 -0.16237352595E+03  0.28096464947E+03  0.00000000000E+00 0.  1.
          5    1    4    4  502    0 -0.29166630886E+01 -0.77949065798E+02 -0.25224111158E+02  0.82115221281E+02  0.47000000000E+01 0. -1.
         -5    1    4    4    0  502 -0.10448115866E+02  0.29756101567E+02 -0.92067048660E+02  0.97432131018E+02  0.47000000000E+01 0. -1.
<mgrwt>
<rscale>  0 0.99969919E+03</rscale>
<asrwt>0</asrwt>
<pdfrwt beam="1">  1        2 0.15065138E-01 0.99969919E+03</pdfrwt>
<pdfrwt beam="2">  1       -2 0.39253543E+00 0.99969919E+03</pdfrwt>
<totfact> 0.47421705E+00</totfact>
</mgrwt>
</event>
<event>
 9    1  0.4369420E-036  0.9998263E+03  0.7818608E-02  0.8681203E-01
         -1   -1    0    0    0  501 -0.00000000000E+00  0.00000000000E+00  0.59803072094E+03  0.59803072094E+03  0.00000000000E+00 0. -1.
          1   -1    0    0  501    0  0.00000000000E+00 -0.00000000000E+00 -0.41789352021E+03  0.41789352021E+03  0.00000000000E+00 0. -1.
         36    2    1    2    0    0 -0.14210854715E-13  0.14210854715E-13  0.18013720072E+03  0.10159242411E+04  0.99982631125E+03 0.  0.
         25    2    3    3    0    0  0.65860299976E+02  0.76168208026E+02 -0.68328188381E+02  0.17251879728E+03  0.12228989762E+03 0.  0.
         35    2    3    3    0    0 -0.65860299976E+02 -0.76168208026E+02  0.24846538910E+03  0.84340544387E+03  0.79966150223E+03 0.  0.
         22    1    5    5    0    0  0.70240718297E+02  0.29036706618E+03  0.32880195507E+03  0.44424938637E+03  0.00000000000E+00 0. -1.
         22    1    5    5    0    0 -0.13610101827E+03 -0.36653527421E+03 -0.80336565968E+02  0.39915605751E+03  0.00000000000E+00 0. -1.
          5    1    4    4  502    0  0.12815714165E+02 -0.26464648805E+02 -0.45938236750E+02  0.54745152860E+02  0.47000000000E+01 0. -1.
         -5    1    4    4    0  502  0.53044585811E+02  0.10263285683E+03 -0.22389951631E+02  0.11777364442E+03  0.47000000000E+01 0. -1.
<mgrwt>
<rscale>  0 0.99982631E+03</rscale>
<asrwt>0</asrwt>
<pdfrwt beam="1">  1        1 0.64291311E-01 0.99982631E+03</pdfrwt>
<pdfrwt beam="2">  1       -1 0.92004726E-01 0.99982631E+03</pdfrwt>
<totfact> 0.77584677E+01</totfact>
</mgrwt>
</event>
<event>
 9    1  0.4369420E-036  0.9996289E+03  0.7818608E-02  0.8681391E-01
          2   -1    0    0  501    0  0.00000000000E+00  0.00000000000E+00  0.11300000901E+04  0.11300000901E+04  0.00000000000E+00 0.  1.
         -2   -1    0    0    0  501 -0.00000000000E+00 -0.00000000000E+00 -0.22107474485E+03  0.22107474485E+03  0.00000000000E+00 0.  1.
         36    2    1    2    0    0  0.00000000000E+00 -0.31974423109E-13  0.90892534520E+03  0.13510748349E+04  0.99962889432E+03 0.  0.
         25    2    3    3    0    0 -0.12857809861E+03 -0.10967267516E+02  0.24827959544E+03  0.30630858435E+03  0.12461774727E+03 0.  0.
         35    2    3    3    0    0  0.12857809861E+03  0.10967267516E+02  0.66064574976E+03  0.10447662506E+04  0.79901883784E+03 0.  0.
         22    1    5    5    0    0  0.21299776868E+02  0.40267580295E+03  0.32967929485E+03  0.52085498963E+03  0.00000000000E+00 0.  1.
         22    1    5    5    0    0  0.10727832174E+03 -0.39170853543E+03  0.33096645492E+03  0.52391126093E+03  0.00000000000E+00 0.  1.
          5    1    4    4  502    0  0.78511189812E+01 -0.38439913123E+02  0.44685063490E+02  0.59649911058E+02  0.47000000000E+01 0. -1.
         -5    1    4    4    0  502 -0.13642921759E+03  0.27472645606E+02  0.20359453195E+03  0.24665867329E+03  0.47000000000E+01 0. -1.
<mgrwt>
<rscale>  0 0.99962889E+03</rscale>
<asrwt>0</asrwt>
<pdfrwt beam="1">  1        2 0.17384616E+00 0.99962889E+03</pdfrwt>
<pdfrwt beam="2">  1       -2 0.34011500E-01 0.99962889E+03</pdfrwt>
<totfact> 0.20377660E+02</totfact>
</mgrwt>
</event>
<event>
 9    1  0.4369420E-036  0.9976911E+03  0.7818608E-02  0.8683240E-01
         -1   -1    0    0    0  501 -0.00000000000E+00  0.00000000000E+00  0.42199358867E+03  0.42199358867E+03  0.00000000000E+00 0. -1.
          1   -1    0    0  501    0  0.00000000000E+00 -0.00000000000E+00 -0.58969352108E+03  0.58969352108E+03  0.00000000000E+00 0. -1.
         36    2    1    2    0    0 -0.14210854715E-13  0.00000000000E+00 -0.16769993242E+03  0.10116871098E+04  0.99769110485E+03 0.  0.
         25    2    3    3    0    0  0.33148058975E+02 -0.12452270321E+03  0.17960413344E+02  0.18082200142E+03  0.12557596236E+03 0.  0.
         35    2    3    3    0    0 -0.33148058975E+02  0.12452270321E+03 -0.18566034576E+03  0.83086510833E+03  0.79953884635E+03 0.  0.
         22    1    5    5    0    0  0.37080697378E+03  0.15947641210E+03 -0.11043933547E+03  0.41848223933E+03  0.00000000000E+00 0.  1.
         22    1    5    5    0    0 -0.40395503275E+03 -0.34953708887E+02 -0.75221010291E+02  0.41238286899E+03  0.00000000000E+00 0.  1.
          5    1    4    4  502    0 -0.46370349596E+02 -0.57597110143E+02  0.20062485189E+02  0.76760860668E+02  0.47000000000E+01 0. -1.
         -5    1    4    4    0  502  0.79518408571E+02 -0.66925593070E+02 -0.21020718457E+01  0.10406114076E+03  0.47000000000E+01 0. -1.
<mgrwt>
<rscale>  0 0.99769110E+03</rscale>
<asrwt>0</asrwt>
<pdfrwt beam="1">  1        1 0.90722080E-01 0.99769110E+03</pdfrwt>
<pdfrwt beam="2">  1       -1 0.64922090E-01 0.99769110E+03</pdfrwt>
<totfact> 0.98440404E+01</totfact>
</mgrwt>
</event>
<event>
 9    1  0.4369420E-036  0.1000073E+04  0.7818608E-02  0.8680969E-01
          2   -1    0    0  501    0  0.00000000000E+00  0.00000000000E+00  0.28386555136E+04  0.28386555136E+04  0.00000000000E+00 0. -1.
         -2   -1    0    0    0  501 -0.00000000000E+00 -0.00000000000E+00 -0.88082666865E+02  0.88082666865E+02  0.00000000000E+00 0. -1.
         36    2    1    2    0    0  0.14210854715E-13 -0.14210854715E-13  0.27505728467E+04  0.29267381804E+04  0.10000726932E+04 0.  0.
         25    2    3    3    0    0  0.87998824856E+02 -0.10246046193E+03  0.51403067091E+03  0.54603541526E+03  0.12524058706E+03 0.  0.
         35    2    3    3    0    0 -0.87998824856E+02  0.10246046193E+03  0.22365421758E+04  0.23807027652E+04  0.80460102695E+03 0.  0.
         22    1    5    5    0    0  0.29101612258E+03 -0.16274956734E+03  0.68794855729E+03  0.76449396515E+03  0.00000000000E+00 0.  1.
         22    1    5    5    0    0 -0.37901494744E+03  0.26521002926E+03  0.15485936185E+04  0.16162088000E+04  0.00000000000E+00 0.  1.
          5    1    4    4  502    0  0.11466075922E+03 -0.58227530460E+02  0.41123283869E+03  0.43089682364E+03  0.47000000000E+01 0. -1.
         -5    1    4    4    0  502 -0.26661934368E+02 -0.44232931465E+02  0.10279783223E+03  0.11513859162E+03  0.47000000000E+01 0. -1.
<mgrwt>
<rscale>  0 0.10000727E+04</rscale>
<asrwt>0</asrwt>
<pdfrwt beam="1">  1        2 0.43671616E+00 0.10000727E+04</pdfrwt>
<pdfrwt beam="2">  1       -2 0.13551182E-01 0.10000727E+04</pdfrwt>
<totfact> 0.10119313E+02</totfact>
</mgrwt>
</event>
<event>
 9    1  0.4369420E-036  0.1000417E+04  0.7818608E-02  0.8680641E-01
          2   -1    0    0  501    0  0.00000000000E+00  0.00000000000E+00  0.22576047289E+04  0.22576047289E+04  0.00000000000E+00 0.  1.
         -2   -1    0    0    0  501 -0.00000000000E+00 -0.00000000000E+00 -0.11082921300E+03  0.11082921300E+03  0.00000000000E+00 0.  1.
         36    2    1    2    0    0  0.19539925233E-13  0.00000000000E+00  0.21467755159E+04  0.23684339419E+04  0.10004170238E+04 0.  0.
         25    2    3    3    0    0 -0.20101224954E+01 -0.13769182797E+03  0.52746026961E+03  0.55938174635E+03  0.12542137792E+03 0.  0.
         35    2    3    3    0    0  0.20101224954E+01  0.13769182797E+03  0.16193152463E+04  0.18090521955E+04  0.79468540900E+03 0.  0.
         22    1    5    5    0    0  0.16985512359E+03 -0.11928479244E+03  0.14372959234E+04  0.14522049429E+04  0.00000000000E+00 0.  1.
         22    1    5    5    0    0 -0.16784500110E+03  0.25697662041E+03  0.18201932289E+03  0.35684725267E+03  0.00000000000E+00 0.  1.
          5    1    4    4  502    0 -0.13079719413E+02  0.10564409887E+02  0.18743205112E+03  0.18824332552E+03  0.47000000000E+01 0.  1.
         -5    1    4    4    0  502  0.11069596917E+02 -0.14825623786E+03  0.34002821850E+03  0.37113842083E+03  0.47000000000E+01 0.  1.
<mgrwt>
<rscale>  0 0.10004170E+04</rscale>
<asrwt>0</asrwt>
<pdfrwt beam="1">  1        2 0.34732377E+00 0.10004170E+04</pdfrwt>
<pdfrwt beam="2">  1       -2 0.17050650E-01 0.10004170E+04</pdfrwt>
<totfact> 0.15650486E+02</totfact>
</mgrwt>
</event>
<event>
 9    1  0.4369420E-036  0.1005618E+04  0.7818608E-02  0.8675707E-01
         -1   -1    0    0    0  501 -0.00000000000E+00  0.00000000000E+00  0.99105023692E+03  0.99105023692E+03  0.00000000000E+00 0. -1.
          1   -1    0    0  501    0  0.00000000000E+00 -0.00000000000E+00 -0.25509984396E+03  0.25509984396E+03  0.00000000000E+00 0. -1.
         36    2    1    2    0    0 -0.28421709430E-13  0.00000000000E+00  0.73595039296E+03  0.12461500809E+04  0.10056177421E+04 0.  0.
         25    2    3    3    0    0 -0.11923848847E+02  0.92457194738E+02  0.27997814866E+03  0.32059246824E+03  0.12530465248E+03 0.  0.
         35    2    3    3    0    0  0.11923848847E+02 -0.92457194738E+02  0.45597224430E+03  0.92555761264E+03  0.80003480906E+03 0.  0.
         22    1    5    5    0    0  0.30495157636E+03 -0.27594292755E+03  0.40297405503E+03  0.57578472732E+03  0.00000000000E+00 0. -1.
         22    1    5    5    0    0 -0.29302772751E+03  0.18348573281E+03  0.52998189269E+02  0.34977288532E+03  0.00000000000E+00 0. -1.
          5    1    4    4  502    0 -0.39229611194E+02  0.11239711608E+03  0.18895732875E+03  0.22338092171E+03  0.47000000000E+01 0. -1.
         -5    1    4    4    0  502  0.27305762348E+02 -0.19939921339E+02  0.91020819914E+02  0.97211546527E+02  0.47000000000E+01 0. -1.
<mgrwt>
<rscale>  0 0.10056177E+04</rscale>
<asrwt>0</asrwt>
<pdfrwt beam="1">  1        1 0.39246130E-01 0.10056177E+04</pdfrwt>
<pdfrwt beam="2">  1       -1 0.15246927E+00 0.10056177E+04</pdfrwt>
<totfact> 0.42293070E+01</totfact>
</mgrwt>
</event>
<event>
 9    1  0.4369420E-036  0.1000515E+04  0.7818608E-02  0.8680548E-01
          2   -1    0    0  501    0  0.00000000000E+00  0.00000000000E+00  0.17373983749E+04  0.17373983749E+04  0.00000000000E+00 0. -1.
         -2   -1    0    0    0  501 -0.00000000000E+00 -0.00000000000E+00 -0.14404148644E+03  0.14404148644E+03  0.00000000000E+00 0. -1.
         36    2    1    2    0    0 -0.14210854715E-13  0.14210854715E-13  0.15933568885E+04  0.18814398614E+04  0.10005147564E+04 0.  0.
         25    2    3    3    0    0 -0.59049699515E+02  0.12651592248E+03  0.27917566673E+03  0.33656354461E+03  0.12586826850E+03 0.  0.
         35    2    3    3    0    0  0.59049699515E+02 -0.12651592248E+03  0.13141812218E+04  0.15448763168E+04  0.80004837654E+03 0.  0.
         22    1    5    5    0    0  0.41467644884E+03 -0.96616479473E+02  0.91628279855E+03  0.10103788736E+04  0.00000000000E+00 0. -1.
         22    1    5    5    0    0 -0.35562674933E+03 -0.29899443006E+02  0.39789842322E+03  0.53449744315E+03  0.00000000000E+00 0. -1.
          5    1    4    4  502    0  0.67111280967E+01 -0.21045457977E+02  0.15834331174E+02  0.27581997489E+02  0.47000000000E+01 0.  1.
         -5    1    4    4    0  502 -0.65760827612E+02  0.14756138046E+03  0.26334133555E+03  0.30898154712E+03  0.47000000000E+01 0.  1.
<mgrwt>
<rscale>  0 0.10005148E+04</rscale>
<asrwt>0</asrwt>
<pdfrwt beam="1">  1        2 0.26729204E+00 0.10005148E+04</pdfrwt>
<pdfrwt beam="2">  1       -2 0.22160230E-01 0.10005148E+04</pdfrwt>
<totfact> 0.19745791E+02</totfact>
</mgrwt>
</event>
<event>
 9    1  0.4369420E-036  0.1000276E+04  0.7818608E-02  0.8680775E-01
         -1   -1    0    0    0  501 -0.00000000000E+00  0.00000000000E+00  0.74391882073E+03  0.74391882073E+03  0.00000000000E+00 0. -1.
          1   -1    0    0  501    0  0.00000000000E+00 -0.00000000000E+00 -0.33624379580E+03  0.33624379580E+03  0.00000000000E+00 0. -1.
         36    2    1    2    0    0  0.00000000000E+00 -0.31974423109E-13  0.40767502493E+03  0.10801626165E+04  0.10002761380E+04 0.  0.
         25    2    3    3    0    0  0.11494098224E+03  0.78173434545E+01  0.16177661994E+03  0.23499375294E+03  0.12560990769E+03 0.  0.
         35    2    3    3    0    0 -0.11494098224E+03 -0.78173434545E+01  0.24589840499E+03  0.84516886358E+03  0.80035732153E+03 0.  0.
         22    1    5    5    0    0 -0.18947284920E+03 -0.32886504345E+03  0.33228979740E+03  0.50444889418E+03  0.00000000000E+00 0.  1.
         22    1    5    5    0    0  0.74531866961E+02  0.32104770000E+03 -0.86391392407E+02  0.34071996940E+03  0.00000000000E+00 0.  1.
          5    1    4    4  502    0 -0.60604239046E+01  0.22494664165E+02 -0.87551642119E+01  0.25327486140E+02  0.47000000000E+01 0.  1.
         -5    1    4    4    0  502  0.12100140614E+03 -0.14677320710E+02  0.17053178415E+03  0.20966626680E+03  0.47000000000E+01 0.  1.
<mgrwt>
<rscale>  0 0.10002761E+04</rscale>
<asrwt>0</asrwt>
<pdfrwt beam="1">  1        1 0.51729815E-01 0.10002761E+04</pdfrwt>
<pdfrwt beam="2">  1       -1 0.11444905E+00 0.10002761E+04</pdfrwt>
<totfact> 0.63066976E+01</totfact>
</mgrwt>
</event>
<event>
 9    1  0.4369420E-036  0.9991758E+03  0.7818608E-02  0.8681823E-01
         -2   -1    0    0    0  501 -0.00000000000E+00  0.00000000000E+00  0.10886170436E+03  0.10886170436E+03  0.00000000000E+00 0. -1.
          2   -1    0    0  501    0  0.00000000000E+00 -0.00000000000E+00 -0.22927077272E+04  0.22927077272E+04  0.00000000000E+00 0. -1.
         36    2    1    2    0    0  0.14210854715E-13  0.14210854715E-13 -0.21838460229E+04  0.24015694316E+04  0.99917580191E+03 0.  0.
         25    2    3    3    0    0  0.91687108075E+02  0.19089774619E+02 -0.66225831523E+03  0.68016554289E+03  0.12356433284E+03 0.  0.
         35    2    3    3    0    0 -0.91687108075E+02 -0.19089774619E+02 -0.15215877076E+04  0.17214038887E+04  0.79951938733E+03 0.  0.
         22    1    5    5    0    0  0.15992223011E+02  0.17002826684E+03  0.13177412244E+02  0.17128633021E+03  0.00000000000E+00 0. -1.
         22    1    5    5    0    0 -0.10767933109E+03 -0.18911804146E+03 -0.15347651199E+04  0.15501175585E+04  0.00000000000E+00 0. -1.
          5    1    4    4  502    0  0.24491969380E+02  0.67011949604E+02 -0.34343578460E+03  0.35080006570E+03  0.47000000000E+01 0.  1.
         -5    1    4    4    0  502  0.67195138695E+02 -0.47922174985E+02 -0.31882253064E+03  0.32936547718E+03  0.47000000000E+01 0.  1.
<mgrwt>
<rscale>  0 0.99917580E+03</rscale>
<asrwt>0</asrwt>
<pdfrwt beam="1">  1        2 0.35272429E+00 0.99917580E+03</pdfrwt>
<pdfrwt beam="2">  1       -2 0.16747953E-01 0.99917580E+03</pdfrwt>
<totfact> 0.15385575E+02</totfact>
</mgrwt>
</event>
<event>
 9    1  0.4369420E-036  0.9989644E+03  0.7818608E-02  0.8682025E-01
          1   -1    0    0  501    0  0.00000000000E+00  0.00000000000E+00  0.18669318515E+04  0.18669318515E+04  0.00000000000E+00 0. -1.
         -1   -1    0    0    0  501 -0.00000000000E+00 -0.00000000000E+00 -0.13363234994E+03  0.13363234994E+03  0.00000000000E+00 0. -1.
         36    2    1    2    0    0  0.00000000000E+00  0.00000000000E+00  0.17332995015E+04  0.20005642014E+04  0.99896444480E+03 0.  0.
         25    2    3    3    0    0 -0.41616266057E+02 -0.12917875317E+03  0.26265599553E+03  0.32083677023E+03  0.12461539742E+03 0.  0.
         35    2    3    3    0    0  0.41616266057E+02  0.12917875317E+03  0.14706435060E+04  0.16797274312E+04  0.80017051774E+03 0.  0.
         22    1    5    5    0    0 -0.65434614862E+02 -0.12440719272E+03 -0.38454990324E+02  0.14573134427E+03  0.00000000000E+00 0. -1.
         22    1    5    5    0    0  0.10705088092E+03  0.25358594588E+03  0.15090984963E+04  0.15339960869E+04  0.00000000000E+00 0. -1.
          5    1    4    4  502    0 -0.67449048612E+02 -0.18041643411E+02  0.10426640516E+03  0.12557248226E+03  0.47000000000E+01 0. -1.
         -5    1    4    4    0  502  0.25832782555E+02 -0.11113710976E+03  0.15838959037E+03  0.19526428797E+03  0.47000000000E+01 0. -1.
<mgrwt>
<rscale>  0 0.99896444E+03</rscale>
<asrwt>0</asrwt>
<pdfrwt beam="1">  1        1 0.28722027E+00 0.99896444E+03</pdfrwt>
<pdfrwt beam="2">  1       -1 0.20558824E-01 0.99896444E+03</pdfrwt>
<totfact> 0.75444631E+01</totfact>
</mgrwt>
</event>
<event>
 9    1  0.4369420E-036  0.9992655E+03  0.7818608E-02  0.8681738E-01
         -3   -1    0    0    0  501 -0.00000000000E+00  0.00000000000E+00  0.79271563114E+03  0.79271563114E+03  0.00000000000E+00 0. -1.
          3   -1    0    0  501    0  0.00000000000E+00 -0.00000000000E+00 -0.31490849207E+03  0.31490849207E+03  0.00000000000E+00 0. -1.
         36    2    1    2    0    0 -0.28421709430E-13  0.71054273576E-14  0.47780713907E+03  0.11076241232E+04  0.99926549833E+03 0.  0.
         25    2    3    3    0    0 -0.12856543195E+03  0.19756606193E+02  0.14253634710E+03  0.23065498673E+03  0.12635552572E+03 0.  0.
         35    2    3    3    0    0  0.12856543195E+03 -0.19756606193E+02  0.33527079197E+03  0.87696913647E+03  0.79984308998E+03 0.  0.
         22    1    5    5    0    0  0.33823604502E+03 -0.22790656000E+03  0.40352709022E+03  0.57374134833E+03  0.00000000000E+00 0. -1.
         22    1    5    5    0    0 -0.20967061306E+03  0.20814995381E+03 -0.68256298245E+02  0.30322778814E+03  0.00000000000E+00 0. -1.
          5    1    4    4  502    0 -0.16131712306E+02  0.25266895624E+02  0.10893830835E+03  0.11308533584E+03  0.47000000000E+01 0. -1.
         -5    1    4    4    0  502 -0.11243371965E+03 -0.55102894315E+01  0.33598038752E+02  0.11756965089E+03  0.47000000000E+01 0. -1.
<mgrwt>
<rscale>  0 0.99926550E+03</rscale>
<asrwt>0</asrwt>
<pdfrwt beam="1">  1        3 0.48447460E-01 0.99926550E+03</pdfrwt>
<pdfrwt beam="2">  1       -3 0.12195625E+00 0.99926550E+03</pdfrwt>
<totfact> 0.80141799E+00</totfact>
</mgrwt>
</event>
<event>
 9    1  0.4369420E-036  0.9993846E+03  0.7818608E-02  0.8681624E-01
         -2   -1    0    0    0  501 -0.00000000000E+00  0.00000000000E+00  0.10218736999E+04  0.10218736999E+04  0.00000000000E+00 0.  1.
          2   -1    0    0  501    0  0.00000000000E+00 -0.00000000000E+00 -0.24434762160E+03  0.24434762160E+03  0.00000000000E+00 0.  1.
         36    2    1    2    0    0 -0.14210854715E-13  0.00000000000E+00  0.77752607832E+03  0.12662213215E+04  0.99938462696E+03 0.  0.
         25    2    3    3    0    0 -0.40745352995E+02 -0.13530291732E+03  0.15013688480E+03  0.24110828101E+03  0.12500022308E+03 0.  0.
         35    2    3    3    0    0  0.40745352995E+02  0.13530291732E+03  0.62738919352E+03  0.10251130405E+04  0.79829348140E+03 0.  0.
         22    1    5    5    0    0  0.81303022000E+02  0.46814920136E+03  0.38003167687E+03  0.60843893001E+03  0.00000000000E+00 0. -1.
         22    1    5    5    0    0 -0.40557669005E+02 -0.33284628405E+03  0.24735751665E+03  0.41667411050E+03  0.00000000000E+00 0. -1.
          5    1    4    4  502    0 -0.80772624261E+01 -0.56079905037E+02  0.14428961153E+03  0.15508636275E+03  0.47000000000E+01 0. -1.
         -5    1    4    4    0  502 -0.32668090569E+02 -0.79223012282E+02  0.58472732710E+01  0.86021918260E+02  0.47000000000E+01 0. -1.
<mgrwt>
<rscale>  0 0.99938463E+03</rscale>
<asrwt>0</asrwt>
<pdfrwt beam="1">  1        2 0.37591942E-01 0.99938463E+03</pdfrwt>
<pdfrwt beam="2">  1       -2 0.15721134E+00 0.99938463E+03</pdfrwt>
<totfact> 0.41035235E+01</totfact>
</mgrwt>
</event>
<event>
 9    1  0.4369420E-036  0.1000602E+04  0.7818608E-02  0.8680465E-01
          1   -1    0    0  501    0  0.00000000000E+00  0.00000000000E+00  0.59619993315E+03  0.59619993315E+03  0.00000000000E+00 0.  1.
         -1   -1    0    0    0  501 -0.00000000000E+00 -0.00000000000E+00 -0.41982766237E+03  0.41982766237E+03  0.00000000000E+00 0.  1.
         36    2    1    2    0    0  0.14210854715E-13  0.28421709430E-13  0.17637227078E+03  0.10160275955E+04  0.10006022671E+04 0.  0.
         25    2    3    3    0    0 -0.10358974854E+03 -0.82597906684E+02  0.82245641202E+02  0.20019705963E+03  0.12554388474E+03 0.  0.
         35    2    3    3    0    0  0.10358974854E+03  0.82597906684E+02  0.94126629581E+02  0.81583053589E+03  0.79947882442E+03 0.  0.
         22    1    5    5    0    0 -0.58227315669E+02  0.33499942001E+03 -0.20111473112E+03  0.39504704374E+03  0.00000000000E+00 0.  1.
         22    1    5    5    0    0  0.16181706421E+03 -0.25240151332E+03  0.29524136070E+03  0.42078349215E+03  0.00000000000E+00 0.  1.
          5    1    4    4  502    0 -0.20743224623E+02 -0.13966207125E+02  0.88741064535E+02  0.92316861103E+02  0.47000000000E+01 0. -1.
         -5    1    4    4    0  502 -0.82846523913E+02 -0.68631699559E+02 -0.64954233330E+01  0.10788019852E+03  0.47000000000E+01 0. -1.
<mgrwt>
<rscale>  0 0.10006023E+04</rscale>
<asrwt>0</asrwt>
<pdfrwt beam="1">  1        1 0.91723067E-01 0.10006023E+04</pdfrwt>
<pdfrwt beam="2">  1       -1 0.64588871E-01 0.10006023E+04</pdfrwt>
<totfact> 0.97831652E+01</totfact>
</mgrwt>
</event>
<event>
 9    1  0.4369420E-036  0.9996913E+03  0.7818608E-02  0.8681332E-01
         -2   -1    0    0    0  501 -0.00000000000E+00  0.00000000000E+00  0.72279782266E+03  0.72279782266E+03  0.00000000000E+00 0. -1.
          2   -1    0    0  501    0  0.00000000000E+00 -0.00000000000E+00 -0.34566470829E+03  0.34566470829E+03  0.00000000000E+00 0. -1.
         36    2    1    2    0    0  0.00000000000E+00  0.14210854715E-13  0.37713311436E+03  0.10684625309E+04  0.99969134942E+03 0.  0.
         25    2    3    3    0    0 -0.90962841905E+02 -0.55987617685E+02  0.16384308594E+03  0.23367533934E+03  0.12787007257E+03 0.  0.
         35    2    3    3    0    0  0.90962841905E+02  0.55987617685E+02  0.21329002842E+03  0.83478719161E+03  0.79998010420E+03 0.  0.
         22    1    5    5    0    0 -0.31957474188E+03  0.79343392354E+02 -0.68461718360E+02  0.33631889099E+03  0.00000000000E+00 0. -1.
         22    1    5    5    0    0  0.41053758379E+03 -0.23355774669E+02  0.28175174678E+03  0.49846830062E+03  0.00000000000E+00 0. -1.
          5    1    4    4  502    0 -0.10712566870E+03 -0.34476440008E+02  0.17161577473E+03  0.20527688117E+03  0.47000000000E+01 0. -1.
         -5    1    4    4    0  502  0.16162826792E+02 -0.21511177677E+02 -0.77726887839E+01  0.28398458161E+02  0.47000000000E+01 0. -1.
<mgrwt>
<rscale>  0 0.99969135E+03</rscale>
<asrwt>0</asrwt>
<pdfrwt beam="1">  1        2 0.53179186E-01 0.99969135E+03</pdfrwt>
<pdfrwt beam="2">  1       -2 0.11119967E+00 0.99969135E+03</pdfrwt>
<totfact> 0.70594164E+01</totfact>
</mgrwt>
</event>
<event>
 9    1  0.4369420E-036  0.1000249E+04  0.7818608E-02  0.8680801E-01
          1   -1    0    0  501    0  0.00000000000E+00  0.00000000000E+00  0.59504573756E+03  0.59504573756E+03  0.00000000000E+00 0.  1.
         -1   -1    0    0    0  501 -0.00000000000E+00 -0.00000000000E+00 -0.42034498513E+03  0.42034498513E+03  0.00000000000E+00 0.  1.
         36    2    1    2    0    0  0.00000000000E+00  0.00000000000E+00  0.17470075243E+03  0.10153907227E+04  0.10002489524E+04 0.  0.
         25    2    3    3    0    0  0.13953053219E+03  0.18332747507E+02  0.44805429893E+02  0.19270424164E+03  0.12378424437E+03 0.  0.
         35    2    3    3    0    0 -0.13953053219E+03 -0.18332747507E+02  0.12989532254E+03  0.82268648104E+03  0.80008461567E+03 0.  0.
         22    1    5    5    0    0  0.16284128044E+03  0.11097707336E+03 -0.25122748044E+03  0.31929365850E+03  0.00000000000E+00 0. -1.
         22    1    5    5    0    0 -0.30237181263E+03 -0.12930982087E+03  0.38112280297E+03  0.50339282255E+03  0.00000000000E+00 0. -1.
          5    1    4    4  502    0  0.14146885328E+03  0.37006915601E+02  0.26615264944E+01  0.14632881457E+03  0.47000000000E+01 0.  1.
         -5    1    4    4    0  502 -0.19383210885E+01 -0.18674168095E+02  0.42143903399E+02  0.46375427075E+02  0.47000000000E+01 0.  1.
<mgrwt>
<rscale>  0 0.10002490E+04</rscale>
<asrwt>0</asrwt>
<pdfrwt beam="1">  1        1 0.91545498E-01 0.10002490E+04</pdfrwt>
<pdfrwt beam="2">  1       -1 0.64668459E-01 0.10002490E+04</pdfrwt>
<totfact> 0.97876422E+01</totfact>
</mgrwt>
</event>
<event>
 9    1  0.4369420E-036  0.1000235E+04  0.7818608E-02  0.8680814E-01
          2   -1    0    0  501    0  0.00000000000E+00  0.00000000000E+00  0.40328555398E+04  0.40328555398E+04  0.00000000000E+00 0. -1.
         -2   -1    0    0    0  501 -0.00000000000E+00 -0.00000000000E+00 -0.62020003306E+02  0.62020003306E+02  0.00000000000E+00 0. -1.
         36    2    1    2    0    0  0.00000000000E+00  0.00000000000E+00  0.39708355365E+04  0.40948755431E+04  0.10002354001E+04 0.  0.
         25    2    3    3    0    0 -0.12491459537E+03 -0.40816145863E+02  0.92614766996E+03  0.94378486877E+03  0.12534256279E+03 0.  0.
         35    2    3    3    0    0  0.12491459537E+03  0.40816145863E+02  0.30446878666E+04  0.31510906744E+04  0.80123568279E+03 0.  0.
         22    1    5    5    0    0  0.42046408736E+03  0.12310360629E+03  0.11296187093E+04  0.12116034727E+04  0.00000000000E+00 0.  1.
         22    1    5    5    0    0 -0.29554949198E+03 -0.82287460423E+02  0.19150691572E+04  0.19394872016E+04  0.00000000000E+00 0.  1.
          5    1    4    4  502    0 -0.13450493210E+03 -0.23490201676E+01  0.80640825622E+03  0.81756556945E+03  0.47000000000E+01 0.  1.
         -5    1    4    4    0  502  0.95903367211E+01 -0.38467125695E+02  0.11973941375E+03  0.12621929932E+03  0.47000000000E+01 0.  1.
<mgrwt>
<rscale>  0 0.10002354E+04</rscale>
<asrwt>0</asrwt>
<pdfrwt beam="1">  1        2 0.62043911E+00 0.10002354E+04</pdfrwt>
<pdfrwt beam="2">  1       -2 0.95415422E-02 0.10002354E+04</pdfrwt>
<totfact> 0.22937903E+01</totfact>
</mgrwt>
</event>
<event>
 9    1  0.4369420E-036  0.1000326E+04  0.7818608E-02  0.8680728E-01
          2   -1    0    0  501    0  0.00000000000E+00  0.00000000000E+00  0.10432296989E+04  0.10432296989E+04  0.00000000000E+00 0. -1.
         -2   -1    0    0    0  501 -0.00000000000E+00 -0.00000000000E+00 -0.23979668181E+03  0.23979668181E+03  0.00000000000E+00 0. -1.
         36    2    1    2    0    0  0.14210854715E-13 -0.35527136788E-14  0.80343301705E+03  0.12830263807E+04  0.10003259872E+04 0.  0.
         25    2    3    3    0    0  0.32526327202E+02  0.10794738332E+02 -0.24490695530E+02  0.13112910695E+03  0.12417954817E+03 0.  0.
         35    2    3    3    0    0 -0.32526327202E+02 -0.10794738332E+02  0.82792371258E+03  0.11518972737E+04  0.80014696588E+03 0.  0.
         22    1    5    5    0    0 -0.16031169759E+03  0.70800761945E+02 -0.10661990204E+03  0.20513505743E+03  0.00000000000E+00 0.  1.
         22    1    5    5    0    0  0.12778537039E+03 -0.81595500277E+02  0.93454361463E+03  0.94676221629E+03  0.00000000000E+00 0.  1.
          5    1    4    4  502    0 -0.26780013131E+02  0.14707511382E+02 -0.55797741636E+02  0.63788384257E+02  0.47000000000E+01 0. -1.
         -5    1    4    4    0  502  0.59306340334E+02 -0.39127730502E+01  0.31307046106E+02  0.67340722691E+02  0.47000000000E+01 0. -1.
<mgrwt>
<rscale>  0 0.10003260E+04</rscale>
<asrwt>0</asrwt>
<pdfrwt beam="1">  1        2 0.16049687E+00 0.10003260E+04</pdfrwt>
<pdfrwt beam="2">  1       -2 0.36891798E-01 0.10003260E+04</pdfrwt>
<totfact> 0.19769077E+02</totfact>
</mgrwt>
</event>
<event>
 9    1  0.4369420E-036  0.9998340E+03  0.7818608E-02  0.8681196E-01
         -1   -1    0    0    0  501 -0.00000000000E+00  0.00000000000E+00  0.11152513297E+03  0.11152513297E+03  0.00000000000E+00 0. -1.
          1   -1    0    0  501    0  0.00000000000E+00 -0.00000000000E+00 -0.22409029062E+04  0.22409029062E+04  0.00000000000E+00 0. -1.
         36    2    1    2    0    0  0.00000000000E+00  0.14210854715E-13 -0.21293777732E+04  0.23524280391E+04  0.99983397537E+03 0.  0.
         25    2    3    3    0    0  0.14009833248E+03 -0.52983603070E+01 -0.43874325466E+03  0.47677666268E+03  0.12314514681E+03 0.  0.
         35    2    3    3    0    0 -0.14009833248E+03  0.52983603070E+01 -0.16906345185E+04  0.18756513764E+04  0.80010461524E+03 0.  0.
         22    1    5    5    0    0  0.18248491971E+03  0.30945948037E+03 -0.61532311082E+03  0.71252259376E+03  0.00000000000E+00 0. -1.
         22    1    5    5    0    0 -0.32258325219E+03 -0.30416112006E+03 -0.10753114077E+04  0.11631287827E+04  0.00000000000E+00 0. -1.
          5    1    4    4  502    0  0.10156604736E+03 -0.57318617697E+02 -0.33119498130E+03  0.35115992304E+03  0.47000000000E+01 0. -1.
         -5    1    4    4    0  502  0.38532285116E+02  0.52020257390E+02 -0.10754827336E+03  0.12561673964E+03  0.47000000000E+01 0. -1.
<mgrwt>
<rscale>  0 0.99983398E+03</rscale>
<asrwt>0</asrwt>
<pdfrwt beam="1">  1        1 0.34475430E+00 0.99983398E+03</pdfrwt>
<pdfrwt beam="2">  1       -1 0.17157713E-01 0.99983398E+03</pdfrwt>
<totfact> 0.55515004E+01</totfact>
</mgrwt>
</event>
<event>
 9    1  0.4369420E-036  0.1000637E+04  0.7818608E-02  0.8680432E-01
          2   -1    0    0  501    0  0.00000000000E+00  0.00000000000E+00  0.83146939830E+03  0.83146939830E+03  0.00000000000E+00 0.  1.
         -2   -1    0    0    0  501 -0.00000000000E+00 -0.00000000000E+00 -0.30105572888E+03  0.30105572888E+03  0.00000000000E+00 0.  1.
         36    2    1    2    0    0 -0.28421709430E-13 -0.21316282073E-13  0.53041366943E+03  0.11325251272E+04  0.10006370486E+04 0.  0.
         25    2    3    3    0    0  0.45519140112E+02  0.24636426490E+02  0.23543607433E+03  0.27146633494E+03  0.12483941799E+03 0.  0.
         35    2    3    3    0    0 -0.45519140112E+02 -0.24636426490E+02  0.29497759509E+03  0.86105879224E+03  0.80729890156E+03 0.  0.
         22    1    5    5    0    0  0.16235492606E+03 -0.36002760979E+03  0.24133885428E+03  0.46284278585E+03  0.00000000000E+00 0.  1.
         22    1    5    5    0    0 -0.20787406617E+03  0.33539118330E+03  0.53638740812E+02  0.39821600639E+03  0.00000000000E+00 0.  1.
          5    1    4    4  502    0 -0.17943495683E+02  0.59653855850E+02  0.11206756675E+03  0.12830347256E+03  0.47000000000E+01 0.  1.
         -5    1    4    4    0  502  0.63462635795E+02 -0.35017429360E+02  0.12336850759E+03  0.14316286238E+03  0.47000000000E+01 0.  1.
<mgrwt>
<rscale>  0 0.10006370E+04</rscale>
<asrwt>0</asrwt>
<pdfrwt beam="1">  1        2 0.12791837E+00 0.10006370E+04</pdfrwt>
<pdfrwt beam="2">  1       -2 0.46316266E-01 0.10006370E+04</pdfrwt>
<totfact> 0.17494152E+02</totfact>
</mgrwt>
</event>
<event>
 9    1  0.4369420E-036  0.9993617E+03  0.7818608E-02  0.8681646E-01
          1   -1    0    0  501    0  0.00000000000E+00  0.00000000000E+00  0.87199802335E+03  0.87199802335E+03  0.00000000000E+00 0.  1.
         -1   -1    0    0    0  501 -0.00000000000E+00 -0.00000000000E+00 -0.28633199522E+03  0.28633199522E+03  0.00000000000E+00 0.  1.
         36    2    1    2    0    0  0.00000000000E+00 -0.42632564146E-13  0.58566602814E+03  0.11583300186E+04  0.99936166396E+03 0.  0.
         25    2    3    3    0    0 -0.12622521030E+03 -0.56039457710E+02  0.15016727655E+03  0.23904959056E+03  0.12458439413E+03 0.  0.
         35    2    3    3    0    0  0.12622521030E+03  0.56039457710E+02  0.43549875159E+03  0.91928042801E+03  0.79771180144E+03 0.  0.
         22    1    5    5    0    0  0.17486441020E+03  0.38675416210E+03  0.81133821186E+02  0.43213312856E+03  0.00000000000E+00 0. -1.
         22    1    5    5    0    0 -0.48639199899E+02 -0.33071470439E+03  0.35436493040E+03  0.48714729945E+03  0.00000000000E+00 0. -1.
          5    1    4    4  502    0  0.30261625097E+01 -0.45720891063E+02  0.77992185350E+02  0.90578300463E+02  0.47000000000E+01 0.  1.
         -5    1    4    4    0  502 -0.12925137281E+03 -0.10318566647E+02  0.72175091201E+02  0.14847129009E+03  0.47000000000E+01 0.  1.
<mgrwt>
<rscale>  0 0.99936166E+03</rscale>
<asrwt>0</asrwt>
<pdfrwt beam="1">  1        1 0.13415354E+00 0.99936166E+03</pdfrwt>
<pdfrwt beam="2">  1       -1 0.44051076E-01 0.99936166E+03</pdfrwt>
<totfact> 0.11065840E+02</totfact>
</mgrwt>
</event>
<event>
 9    1  0.4369420E-036  0.1000183E+04  0.7818608E-02  0.8680864E-01
          2   -1    0    0  501    0  0.00000000000E+00  0.00000000000E+00  0.45944290184E+03  0.45944290184E+03  0.00000000000E+00 0.  1.
         -2   -1    0    0    0  501 -0.00000000000E+00 -0.00000000000E+00 -0.54433659758E+03  0.54433659758E+03  0.00000000000E+00 0.  1.
         36    2    1    2    0    0  0.28421709430E-13  0.21316282073E-13 -0.84893695740E+02  0.10037794994E+04  0.10001831552E+04 0.  0.
         25    2    3    3    0    0  0.84708298565E+02 -0.11098055680E+02 -0.12646899191E+03  0.19783489948E+03  0.12587922328E+03 0.  0.
         35    2    3    3    0    0 -0.84708298565E+02  0.11098055680E+02  0.41575296174E+02  0.80594459994E+03  0.80032464053E+03 0.  0.
         22    1    5    5    0    0  0.17778726482E+03 -0.28590642951E+03 -0.14654977644E+03  0.36718882737E+03  0.00000000000E+00 0. -1.
         22    1    5    5    0    0 -0.26249556338E+03  0.29700448519E+03  0.18812507262E+03  0.43875577258E+03  0.00000000000E+00 0. -1.
          5    1    4    4  502    0  0.32994883918E+02  0.57280809407E+02 -0.54780623299E+02  0.85981161775E+02  0.47000000000E+01 0. -1.
         -5    1    4    4    0  502  0.51713414647E+02 -0.68378865087E+02 -0.71688368615E+02  0.11185373771E+03  0.47000000000E+01 0. -1.
<mgrwt>
<rscale>  0 0.10001832E+04</rscale>
<asrwt>0</asrwt>
<pdfrwt beam="1">  1        2 0.70683524E-01 0.10001832E+04</pdfrwt>
<pdfrwt beam="2">  1       -2 0.83744091E-01 0.10001832E+04</pdfrwt>
<totfact> 0.10163367E+02</totfact>
</mgrwt>
</event>
<event>
 9    1  0.4369420E-036  0.9998019E+03  0.7818608E-02  0.8681227E-01
         -2   -1    0    0    0  501 -0.00000000000E+00  0.00000000000E+00  0.10620839949E+03  0.10620839949E+03  0.00000000000E+00 0.  1.
          2   -1    0    0  501    0  0.00000000000E+00 -0.00000000000E+00 -0.23529303467E+04  0.23529303467E+04  0.00000000000E+00 0.  1.
         36    2    1    2    0    0  0.28421709430E-13 -0.14210854715E-13 -0.22467219472E+04  0.24591387462E+04  0.99980191287E+03 0.  0.
         25    2    3    3    0    0  0.97397100122E+02 -0.59073344656E+02 -0.21777617397E+03  0.27522537546E+03  0.12388175889E+03 0.  0.
         35    2    3    3    0    0 -0.97397100122E+02  0.59073344656E+02 -0.20289457732E+04  0.21839133707E+04  0.79992549965E+03 0.  0.
         22    1    5    5    0    0  0.24986965839E+03 -0.23546752049E+03 -0.10390832627E+04  0.10943371630E+04  0.00000000000E+00 0. -1.
         22    1    5    5    0    0 -0.34726675851E+03  0.29454086515E+03 -0.98986251048E+03  0.10895762077E+04  0.00000000000E+00 0. -1.
          5    1    4    4  502    0  0.12265640456E+03 -0.40605042681E+02 -0.20209228715E+03  0.23990986973E+03  0.47000000000E+01 0. -1.
         -5    1    4    4    0  502 -0.25259304440E+02 -0.18468301975E+02 -0.15683886828E+02  0.35315505726E+02  0.47000000000E+01 0. -1.
<mgrwt>
<rscale>  0 0.99980191E+03</rscale>
<asrwt>0</asrwt>
<pdfrwt beam="1">  1        2 0.36198925E+00 0.99980191E+03</pdfrwt>
<pdfrwt beam="2">  1       -2 0.16339755E-01 0.99980191E+03</pdfrwt>
<totfact> 0.14779419E+02</totfact>
</mgrwt>
</event>
<event>
 9    1  0.4369420E-036  0.9998918E+03  0.7818608E-02  0.8681141E-01
          4   -1    0    0  501    0  0.00000000000E+00  0.00000000000E+00  0.24455188409E+03  0.24455188409E+03  0.00000000000E+00 0. -1.
         -4   -1    0    0    0  501 -0.00000000000E+00 -0.00000000000E+00 -0.10220567668E+04  0.10220567668E+04  0.00000000000E+00 0. -1.
         36    2    1    2    0    0  0.28421709430E-13  0.00000000000E+00 -0.77750488272E+03  0.12666086509E+04  0.99989181008E+03 0.  0.
         25    2    3    3    0    0  0.95524310720E+02  0.80737541031E+02 -0.49028941422E+02  0.18404915652E+03  0.12580465193E+03 0.  0.
         35    2    3    3    0    0 -0.95524310720E+02 -0.80737541031E+02 -0.72847594130E+03  0.10825594944E+04  0.79095791124E+03 0.  0.
         22    1    5    5    0    0 -0.25956389112E+03  0.41723993452E+02 -0.81794298210E+03  0.85915366913E+03  0.00000000000E+00 0.  1.
         22    1    5    5    0    0  0.16403958040E+03 -0.12246153448E+03  0.89467040803E+02  0.22340582525E+03  0.00000000000E+00 0.  1.
          5    1    4    4  502    0  0.12467458226E+03  0.50079060493E+02 -0.42432604384E+02  0.14097616705E+03  0.47000000000E+01 0.  1.
         -5    1    4    4    0  502 -0.29150271535E+02  0.30658480539E+02 -0.65963370387E+01  0.43072989470E+02  0.47000000000E+01 0.  1.
<mgrwt>
<rscale>  0 0.99989181E+03</rscale>
<asrwt>0</asrwt>
<pdfrwt beam="1">  1        4 0.37623367E-01 0.99989181E+03</pdfrwt>
<pdfrwt beam="2">  1       -4 0.15723950E+00 0.99989181E+03</pdfrwt>
<totfact> 0.35639798E+00</totfact>
</mgrwt>
</event>
<event>
 9    1  0.4369420E-036  0.9980181E+03  0.7818608E-02  0.8682928E-01
         -2   -1    0    0    0  501 -0.00000000000E+00  0.00000000000E+00  0.19282627645E+04  0.19282627645E+04  0.00000000000E+00 0. -1.
          2   -1    0    0  501    0  0.00000000000E+00 -0.00000000000E+00 -0.12913698634E+03  0.12913698634E+03  0.00000000000E+00 0. -1.
         36    2    1    2    0    0  0.00000000000E+00  0.71054273576E-14  0.17991257782E+04  0.20573997509E+04  0.99801812064E+03 0.  0.
         25    2    3    3    0    0 -0.13305726943E+03 -0.45780192207E+02  0.31425694147E+03  0.36579008158E+03  0.12347022140E+03 0.  0.
         35    2    3    3    0    0  0.13305726943E+03  0.45780192207E+02  0.14848688367E+04  0.16916096693E+04  0.79806500238E+03 0.  0.
         22    1    5    5    0    0  0.32641437828E+03  0.33045014731E+03  0.79728169599E+03  0.92271433768E+03  0.00000000000E+00 0. -1.
         22    1    5    5    0    0 -0.19335710884E+03 -0.28466995510E+03  0.68758714075E+03  0.76889533162E+03  0.00000000000E+00 0. -1.
          5    1    4    4  502    0 -0.81693429197E+02 -0.23034885191E+02  0.29375286424E+03  0.30580591485E+03  0.47000000000E+01 0. -1.
         -5    1    4    4    0  502 -0.51363840237E+02 -0.22745307015E+02  0.20504077234E+02  0.59984166730E+02  0.47000000000E+01 0. -1.
<mgrwt>
<rscale>  0 0.99801812E+03</rscale>
<asrwt>0</asrwt>
<pdfrwt beam="1">  1        2 0.19867230E-01 0.99801812E+03</pdfrwt>
<pdfrwt beam="2">  1       -2 0.29665579E+00 0.99801812E+03</pdfrwt>
<totfact> 0.10427328E+01</totfact>
</mgrwt>
</event>
<event>
 9    1  0.4369420E-036  0.9995950E+03  0.7818608E-02  0.8681424E-01
         -2   -1    0    0    0  501 -0.00000000000E+00  0.00000000000E+00  0.20789815601E+03  0.20789815601E+03  0.00000000000E+00 0. -1.
          2   -1    0    0  501    0  0.00000000000E+00 -0.00000000000E+00 -0.12015380608E+04  0.12015380608E+04  0.00000000000E+00 0. -1.
         36    2    1    2    0    0 -0.14210854715E-13  0.28421709430E-13 -0.99363990481E+03  0.14094362168E+04  0.99959501244E+03 0.  0.
         25    2    3    3    0    0  0.79870850246E+02 -0.78225634982E+02 -0.30373251754E+03  0.34701717654E+03  0.12517538061E+03 0.  0.
         35    2    3    3    0    0 -0.79870850246E+02  0.78225634982E+02 -0.68990738726E+03  0.10624190403E+04  0.80016461524E+03 0.  0.
         22    1    5    5    0    0  0.21982396458E+03  0.29111892068E+03 -0.11959858845E+03  0.38389663158E+03  0.00000000000E+00 0. -1.
         22    1    5    5    0    0 -0.29969481482E+03 -0.21289328570E+03 -0.57030879881E+03  0.67852240871E+03  0.00000000000E+00 0. -1.
          5    1    4    4  502    0  0.18455647350E+02 -0.10052629568E+03 -0.18699579131E+03  0.21315642850E+03  0.47000000000E+01 0.  1.
         -5    1    4    4    0  502  0.61415202896E+02  0.22300660698E+02 -0.11673672624E+03  0.13386074804E+03  0.47000000000E+01 0.  1.
<mgrwt>
<rscale>  0 0.99959501E+03</rscale>
<asrwt>0</asrwt>
<pdfrwt beam="1">  1        2 0.18485201E+00 0.99959501E+03</pdfrwt>
<pdfrwt beam="2">  1       -2 0.31984332E-01 0.99959501E+03</pdfrwt>
<totfact> 0.20694170E+02</totfact>
</mgrwt>
</event>
<event>
 9    1  0.4369420E-036  0.9994913E+03  0.7818608E-02  0.8681523E-01
          1   -1    0    0  501    0  0.00000000000E+00  0.00000000000E+00  0.18455143184E+04  0.18455143184E+04  0.00000000000E+00 0.  1.
         -1   -1    0    0    0  501 -0.00000000000E+00 -0.00000000000E+00 -0.13532580816E+03  0.13532580816E+03  0.00000000000E+00 0.  1.
         36    2    1    2    0    0 -0.14210854715E-13  0.00000000000E+00  0.17101885102E+04  0.19808401266E+04  0.99949130384E+03 0.  0.
         25    2    3    3    0    0  0.11552758780E+03  0.65995107640E+02  0.38620327535E+03  0.42742966087E+03  0.12586169922E+03 0.  0.
         35    2    3    3    0    0 -0.11552758780E+03 -0.65995107640E+02  0.13239852349E+04  0.15534104657E+04  0.80152678991E+03 0.  0.
         22    1    5    5    0    0 -0.97401522013E+02 -0.41680904142E+03  0.50328442536E+03  0.66069058288E+03  0.00000000000E+00 0.  1.
         22    1    5    5    0    0 -0.18126065785E+02  0.35081393378E+03  0.82070080954E+03  0.89271988282E+03  0.00000000000E+00 0.  1.
          5    1    4    4  502    0  0.19440153028E+02  0.51414759864E+02  0.27135079576E+03  0.27690204305E+03  0.47000000000E+01 0.  1.
         -5    1    4    4    0  502  0.96087434770E+02  0.14580347776E+02  0.11485247958E+03  0.15052761783E+03  0.47000000000E+01 0.  1.
<mgrwt>
<rscale>  0 0.99949130E+03</rscale>
<asrwt>0</asrwt>
<pdfrwt beam="1">  1        1 0.28392526E+00 0.99949130E+03</pdfrwt>
<pdfrwt beam="2">  1       -1 0.20819356E-01 0.99949130E+03</pdfrwt>
<totfact> 0.76484652E+01</totfact>
</mgrwt>
</event>
<event>
 9    1  0.4369420E-036  0.1000246E+04  0.7818608E-02  0.8680804E-01
          3   -1    0    0  501    0  0.00000000000E+00  0.00000000000E+00  0.81697755762E+03  0.81697755762E+03  0.00000000000E+00 0. -1.
         -3   -1    0    0    0  501 -0.00000000000E+00 -0.00000000000E+00 -0.30615625574E+03  0.30615625574E+03  0.00000000000E+00 0. -1.
         36    2    1    2    0    0  0.00000000000E+00  0.00000000000E+00  0.51082130188E+03  0.11231338134E+04  0.10002455500E+04 0.  0.
         25    2    3    3    0    0  0.46827935463E+01 -0.13413085044E+03  0.48812837114E+02  0.18963354728E+03  0.12476047287E+03 0.  0.
         35    2    3    3    0    0 -0.46827935463E+01  0.13413085044E+03  0.46200846476E+03  0.93350026608E+03  0.79997369436E+03 0.  0.
         22    1    5    5    0    0 -0.22146085255E+02 -0.28059307700E+03  0.43423916566E+03  0.51748099187E+03  0.00000000000E+00 0.  1.
         22    1    5    5    0    0  0.17463291709E+02  0.41472392743E+03  0.27769299103E+02  0.41601927421E+03  0.00000000000E+00 0.  1.
          5    1    4    4  502    0 -0.46410354669E+02 -0.66812122010E+02  0.64031414634E+02  0.10363345371E+03  0.47000000000E+01 0.  1.
         -5    1    4    4    0  502  0.51093148215E+02 -0.67318728430E+02 -0.15218577521E+02  0.86000093568E+02  0.47000000000E+01 0.  1.
<mgrwt>
<rscale>  0 0.10002455E+04</rscale>
<asrwt>0</asrwt>
<pdfrwt beam="1">  1        3 0.12568885E+00 0.10002455E+04</pdfrwt>
<pdfrwt beam="2">  1       -3 0.47100963E-01 0.10002455E+04</pdfrwt>
<totfact> 0.94983616E+00</totfact>
</mgrwt>
</event>
<event>
 9    1  0.4369420E-036  0.1000175E+04  0.7818608E-02  0.8680872E-01
          2   -1    0    0  501    0  0.00000000000E+00  0.00000000000E+00  0.11202824767E+04  0.11202824767E+04  0.00000000000E+00 0.  1.
         -2   -1    0    0    0  501 -0.00000000000E+00 -0.00000000000E+00 -0.22323602714E+03  0.22323602714E+03  0.00000000000E+00 0.  1.
         36    2    1    2    0    0  0.28421709430E-13 -0.35527136788E-14  0.89704644959E+03  0.13435185039E+04  0.10001748035E+04 0.  0.
         25    2    3    3    0    0 -0.10226969057E+03 -0.17234042916E+02  0.29342806047E+03  0.33550960569E+03  0.12534180066E+03 0.  0.
         35    2    3    3    0    0  0.10226969057E+03  0.17234042916E+02  0.60361838911E+03  0.10080088982E+04  0.80060644345E+03 0.  0.
         22    1    5    5    0    0 -0.27072065384E+03  0.21993762352E+03  0.13064222012E+03  0.37246425377E+03  0.00000000000E+00 0. -1.
         22    1    5    5    0    0  0.37299034441E+03 -0.20270358061E+03  0.47297616899E+03  0.63554464442E+03  0.00000000000E+00 0. -1.
          5    1    4    4  502    0 -0.45963741480E+02  0.15351290650E+02  0.17122667743E+02  0.51610109534E+02  0.47000000000E+01 0. -1.
         -5    1    4    4    0  502 -0.56305949094E+02 -0.32585333566E+02  0.27630539273E+03  0.28389949616E+03  0.47000000000E+01 0. -1.
<mgrwt>
<rscale>  0 0.10001748E+04</rscale>
<asrwt>0</asrwt>
<pdfrwt beam="1">  1        2 0.17235115E+00 0.10001748E+04</pdfrwt>
<pdfrwt beam="2">  1       -2 0.34344005E-01 0.10001748E+04</pdfrwt>
<totfact> 0.20283617E+02</totfact>
</mgrwt>
</event>
<event>
 9    1  0.4369420E-036  0.1000969E+04  0.7818608E-02  0.8680116E-01
          1   -1    0    0  501    0  0.00000000000E+00  0.00000000000E+00  0.69824217835E+03  0.69824217835E+03  0.00000000000E+00 0. -1.
         -1   -1    0    0    0  501 -0.00000000000E+00 -0.00000000000E+00 -0.35873609178E+03  0.35873609178E+03  0.00000000000E+00 0. -1.
         36    2    1    2    0    0  0.14210854715E-13  0.00000000000E+00  0.33950608658E+03  0.10569782701E+04  0.10009688710E+04 0.  0.
         25    2    3    3    0    0 -0.82378053750E+02 -0.11345739369E+03  0.43033860298E+02  0.19230649035E+03  0.12438307432E+03 0.  0.
         35    2    3    3    0    0  0.82378053750E+02  0.11345739369E+03  0.29647222628E+03  0.86467177978E+03  0.80006423609E+03 0.  0.
         22    1    5    5    0    0 -0.46305105679E+02  0.20265620413E+01 -0.26960213207E+03  0.27355726893E+03  0.00000000000E+00 0.  1.
         22    1    5    5    0    0  0.12868315943E+03  0.11143083164E+03  0.56607435835E+03  0.59111451085E+03  0.00000000000E+00 0.  1.
          5    1    4    4  502    0  0.25315737114E+02 -0.13172369923E+02  0.34228906141E+02  0.44811894522E+02  0.47000000000E+01 0.  1.
         -5    1    4    4    0  502 -0.10769379086E+03 -0.10028502376E+03  0.88049541568E+01  0.14749459583E+03  0.47000000000E+01 0.  1.
<mgrwt>
<rscale>  0 0.10009689E+04</rscale>
<asrwt>0</asrwt>
<pdfrwt beam="1">  1        1 0.10742187E+00 0.10009689E+04</pdfrwt>
<pdfrwt beam="2">  1       -1 0.55190168E-01 0.10009689E+04</pdfrwt>
<totfact> 0.10441883E+02</totfact>
</mgrwt>
</event>
<event>
 9    1  0.4369420E-036  0.1000144E+04  0.7818608E-02  0.8680901E-01
          2   -1    0    0  501    0  0.00000000000E+00  0.00000000000E+00  0.24535786113E+04  0.24535786113E+04  0.00000000000E+00 0.  1.
         -2   -1    0    0    0  501 -0.00000000000E+00 -0.00000000000E+00 -0.10192126731E+03  0.10192126731E+03  0.00000000000E+00 0.  1.
         36    2    1    2    0    0  0.00000000000E+00 -0.71054273576E-14  0.23516573440E+04  0.25554998787E+04  0.10001436727E+04 0.  0.
         25    2    3    3    0    0 -0.11616993314E+03 -0.23592891033E+02  0.23733478738E+03  0.29269922301E+03  0.12366469172E+03 0.  0.
         35    2    3    3    0    0  0.11616993314E+03  0.23592891033E+02  0.21143225567E+04  0.22628006556E+04  0.79740507633E+03 0.  0.
         22    1    5    5    0    0  0.85213460645E+02  0.39180882875E+02 -0.44422197904E+02  0.10377768124E+03  0.00000000000E+00 0.  1.
         22    1    5    5    0    0  0.30956472495E+02 -0.15587991841E+02  0.21587447546E+04  0.21590229744E+04  0.00000000000E+00 0.  1.
          5    1    4    4  502    0 -0.77205656330E+02 -0.74193101071E+02  0.15307605869E+03  0.18686813362E+03  0.47000000000E+01 0.  1.
         -5    1    4    4    0  502 -0.38964276809E+02  0.50600210037E+02  0.84258728684E+02  0.10583108940E+03  0.47000000000E+01 0.  1.
<mgrwt>
<rscale>  0 0.10001437E+04</rscale>
<asrwt>0</asrwt>
<pdfrwt beam="1">  1        2 0.37747359E+00 0.10001437E+04</pdfrwt>
<pdfrwt beam="2">  1       -2 0.15680197E-01 0.10001437E+04</pdfrwt>
<totfact> 0.13790736E+02</totfact>
</mgrwt>
</event>
<event>
 9    1  0.4369420E-036  0.9991249E+03  0.7818608E-02  0.8681872E-01
         -2   -1    0    0    0  501 -0.00000000000E+00  0.00000000000E+00  0.24053096142E+03  0.24053096142E+03  0.00000000000E+00 0.  1.
          2   -1    0    0  501    0  0.00000000000E+00 -0.00000000000E+00 -0.10375488809E+04  0.10375488809E+04  0.00000000000E+00 0.  1.
         36    2    1    2    0    0  0.00000000000E+00  0.14210854715E-13 -0.79701791951E+03  0.12780798424E+04  0.99912487678E+03 0.  0.
         25    2    3    3    0    0  0.10817370577E+03 -0.47625255386E+02 -0.22613706599E+03  0.28809684465E+03  0.13376136853E+03 0.  0.
         35    2    3    3    0    0 -0.10817370577E+03  0.47625255386E+02 -0.57088085352E+03  0.98998299770E+03  0.80011978556E+03 0.  0.
         22    1    5    5    0    0 -0.63544888749E+02 -0.36955494356E+03 -0.36239438010E+03  0.52147722474E+03  0.00000000000E+00 0.  1.
         22    1    5    5    0    0 -0.44628817025E+02  0.41718019894E+03 -0.20848647343E+03  0.46850577297E+03  0.00000000000E+00 0.  1.
          5    1    4    4  502    0  0.71810033877E+02 -0.40276590741E+02 -0.28960151350E+02  0.87405177726E+02  0.47000000000E+01 0. -1.
         -5    1    4    4    0  502  0.36363671897E+02 -0.73486646454E+01 -0.19717691464E+03  0.20069166692E+03  0.47000000000E+01 0. -1.
<mgrwt>
<rscale>  0 0.99912488E+03</rscale>
<asrwt>0</asrwt>
<pdfrwt beam="1">  1        2 0.15962290E+00 0.99912488E+03</pdfrwt>
<pdfrwt beam="2">  1       -2 0.37004763E-01 0.99912488E+03</pdfrwt>
<totfact> 0.19815447E+02</totfact>
</mgrwt>
</event>
<event>
 9    1  0.4369420E-036  0.9998924E+03  0.7818608E-02  0.8681140E-01
          1   -1    0    0  501    0  0.00000000000E+00  0.00000000000E+00  0.13956129946E+04  0.13956129946E+04  0.00000000000E+00 0.  1.
         -1   -1    0    0    0  501 -0.00000000000E+00 -0.00000000000E+00 -0.17909419755E+03  0.17909419755E+03  0.00000000000E+00 0.  1.
         36    2    1    2    0    0 -0.46185277824E-13  0.00000000000E+00  0.12165187970E+04  0.15747071921E+04  0.99989237292E+03 0.  0.
         25    2    3    3    0    0 -0.26152333453E+02  0.72275156504E+02  0.45432262811E+02  0.15394822726E+03  0.12541261252E+03 0.  0.
         35    2    3    3    0    0  0.26152333453E+02 -0.72275156504E+02  0.11710865342E+04  0.14207589649E+04  0.80075259777E+03 0.  0.
         22    1    5    5    0    0 -0.31078359698E+03 -0.20507322342E+03  0.30264838022E+03  0.47983071303E+03  0.00000000000E+00 0. -1.
         22    1    5    5    0    0  0.33693593043E+03  0.13279806692E+03  0.86843815399E+03  0.94092825183E+03  0.00000000000E+00 0. -1.
          5    1    4    4  502    0  0.30960064627E+02  0.70180457118E+02 -0.57775900717E+01  0.77066806798E+02  0.47000000000E+01 0. -1.
         -5    1    4    4    0  502 -0.57112398081E+02  0.20946993869E+01  0.51209852883E+02  0.76881420463E+02  0.47000000000E+01 0. -1.
<mgrwt>
<rscale>  0 0.99989237E+03</rscale>
<asrwt>0</asrwt>
<pdfrwt beam="1">  1        1 0.21470968E+00 0.99989237E+03</pdfrwt>
<pdfrwt beam="2">  1       -1 0.27552954E-01 0.99989237E+03</pdfrwt>
<totfact> 0.99620081E+01</totfact>
</mgrwt>
</event>
<event>
 9    1  0.4369420E-036  0.9931898E+03  0.7818608E-02  0.8687551E-01
         -1   -1    0    0    0  501 -0.00000000000E+00  0.00000000000E+00  0.70588495903E+03  0.70588495903E+03  0.00000000000E+00 0.  1.
          1   -1    0    0  501    0  0.00000000000E+00 -0.00000000000E+00 -0.34935790262E+03  0.34935790262E+03  0.00000000000E+00 0.  1.
         36    2    1    2    0    0  0.00000000000E+00  0.14210854715E-13  0.35652705640E+03  0.10552428616E+04  0.99318978806E+03 0.  0.
         25    2    3    3    0    0 -0.86476289743E+02  0.49650561518E+02  0.15797556549E+03  0.22466789365E+03  0.12480407124E+03 0.  0.
         35    2    3    3    0    0  0.86476289743E+02 -0.49650561518E+02  0.19855149091E+03  0.83057496800E+03  0.80030541419E+03 0.  0.
         22    1    5    5    0    0  0.22885100695E+03  0.29701271967E+03 -0.53768573169E+02  0.37878806540E+03  0.00000000000E+00 0. -1.
         22    1    5    5    0    0 -0.14237471721E+03 -0.34666328119E+03  0.25232006408E+03  0.45178690260E+03  0.00000000000E+00 0. -1.
          5    1    4    4  502    0 -0.38252047587E+02 -0.40926567668E+02  0.45307158875E+02  0.72201327765E+02  0.47000000000E+01 0.  1.
         -5    1    4    4    0  502 -0.48224242157E+02  0.90577129186E+02  0.11266840662E+03  0.15246656588E+03  0.47000000000E+01 0.  1.
<mgrwt>
<rscale>  0 0.99318979E+03</rscale>
<asrwt>0</asrwt>
<pdfrwt beam="1">  1        1 0.53747370E-01 0.99318979E+03</pdfrwt>
<pdfrwt beam="2">  1       -1 0.10859769E+00 0.99318979E+03</pdfrwt>
<totfact> 0.67956549E+01</totfact>
</mgrwt>
</event>
<event>
 9    1  0.4369420E-036  0.1001281E+04  0.7818608E-02  0.8679819E-01
         -2   -1    0    0    0  501 -0.00000000000E+00  0.00000000000E+00  0.13122233493E+03  0.13122233493E+03  0.00000000000E+00 0. -1.
          2   -1    0    0  501    0  0.00000000000E+00 -0.00000000000E+00 -0.19100463154E+04  0.19100463154E+04  0.00000000000E+00 0. -1.
         36    2    1    2    0    0  0.00000000000E+00  0.00000000000E+00 -0.17788239804E+04  0.20412686503E+04  0.10012806546E+04 0.  0.
         25    2    3    3    0    0  0.37362947603E+02 -0.13547348854E+03 -0.32749646504E+03  0.37772838181E+03  0.12520279493E+03 0.  0.
         35    2    3    3    0    0 -0.37362947603E+02  0.13547348854E+03 -0.14513275154E+04  0.16635402685E+04  0.80079061681E+03 0.  0.
         22    1    5    5    0    0 -0.10262857741E+03  0.32009691399E+03 -0.18804220593E+03  0.38516818464E+03  0.00000000000E+00 0.  1.
         22    1    5    5    0    0  0.65265629808E+02 -0.18462342544E+03 -0.12632853095E+04  0.12783720838E+04  0.00000000000E+00 0.  1.
          5    1    4    4  502    0  0.54021813164E+02 -0.16151944628E+02 -0.17134768530E+03  0.18044766796E+03  0.47000000000E+01 0.  1.
         -5    1    4    4    0  502 -0.16658865561E+02 -0.11932154392E+03 -0.15614877974E+03  0.19728071385E+03  0.47000000000E+01 0.  1.
<mgrwt>
<rscale>  0 0.10012807E+04</rscale>
<asrwt>0</asrwt>
<pdfrwt beam="1">  1        2 0.29385326E+00 0.10012807E+04</pdfrwt>
<pdfrwt beam="2">  1       -2 0.20188053E-01 0.10012807E+04</pdfrwt>
<totfact> 0.18553268E+02</totfact>
</mgrwt>
</event>
<event>
 9    1  0.4369420E-036  0.9999774E+03  0.7818608E-02  0.8681059E-01
         -1   -1    0    0    0  501 -0.00000000000E+00  0.00000000000E+00  0.76615148392E+03  0.76615148392E+03  0.00000000000E+00 0.  1.
          1   -1    0    0  501    0  0.00000000000E+00 -0.00000000000E+00 -0.32629148739E+03  0.32629148739E+03  0.00000000000E+00 0.  1.
         36    2    1    2    0    0 -0.14210854715E-13 -0.28421709430E-13  0.43985999654E+03  0.10924429713E+04  0.99997741425E+03 0.  0.
         25    2    3    3    0    0 -0.90652804995E+02 -0.97946257649E+02  0.34369002142E+02  0.18576611599E+03  0.12456492725E+03 0.  0.
         35    2    3    3    0    0  0.90652804995E+02  0.97946257649E+02  0.40549099440E+03  0.90667685532E+03  0.79989285095E+03 0.  0.
         22    1    5    5    0    0 -0.42170830014E+02 -0.23305402467E+03 -0.12472107884E+03  0.26767126261E+03  0.00000000000E+00 0. -1.
         22    1    5    5    0    0  0.13282363501E+03  0.33100028232E+03  0.53021207323E+03  0.63900559271E+03  0.00000000000E+00 0. -1.
          5    1    4    4  502    0  0.26601795522E+02 -0.15506119111E+02 -0.14363481964E+02  0.34300070977E+02  0.47000000000E+01 0.  1.
         -5    1    4    4    0  502 -0.11725460052E+03 -0.82440138537E+02  0.48732484107E+02  0.15146604501E+03  0.47000000000E+01 0.  1.
<mgrwt>
<rscale>  0 0.99997741E+03</rscale>
<asrwt>0</asrwt>
<pdfrwt beam="1">  1        1 0.50198691E-01 0.99997741E+03</pdfrwt>
<pdfrwt beam="2">  1       -1 0.11786946E+00 0.99997741E+03</pdfrwt>
<totfact> 0.61082631E+01</totfact>
</mgrwt>
</event>
<event>
 9    1  0.4369420E-036  0.1000592E+04  0.7818608E-02  0.8680475E-01
         -2   -1    0    0    0  501 -0.00000000000E+00  0.00000000000E+00  0.29539680348E+03  0.29539680348E+03  0.00000000000E+00 0.  1.
          2   -1    0    0  501    0  0.00000000000E+00 -0.00000000000E+00 -0.84732136691E+03  0.84732136691E+03  0.00000000000E+00 0.  1.
         36    2    1    2    0    0 -0.14210854715E-13  0.28421709430E-13 -0.55192456343E+03  0.11427181704E+04  0.10005918715E+04 0.  0.
         25    2    3    3    0    0  0.46597463160E+02  0.11847462791E+03 -0.16829397133E+03  0.24643576099E+03  0.12727985889E+03 0.  0.
         35    2    3    3    0    0 -0.46597463160E+02 -0.11847462791E+03 -0.38363059210E+03  0.89628240940E+03  0.79996385242E+03 0.  0.
         22    1    5    5    0    0  0.20546596979E+03 -0.35086801261E+03 -0.37530871126E+03  0.55333647608E+03  0.00000000000E+00 0.  1.
         22    1    5    5    0    0 -0.25206343295E+03  0.23239338469E+03 -0.83218808359E+01  0.34294593332E+03  0.00000000000E+00 0.  1.
          5    1    4    4  502    0  0.34963110285E+02  0.79306290874E+00  0.59656073460E+01  0.35787239354E+02  0.47000000000E+01 0. -1.
         -5    1    4    4    0  502  0.11634352875E+02  0.11768156500E+03 -0.17425957867E+03  0.21064852164E+03  0.47000000000E+01 0. -1.
<mgrwt>
<rscale>  0 0.10005919E+04</rscale>
<asrwt>0</asrwt>
<pdfrwt beam="1">  1        2 0.13035713E+00 0.10005919E+04</pdfrwt>
<pdfrwt beam="2">  1       -2 0.45445662E-01 0.10005919E+04</pdfrwt>
<totfact> 0.17712209E+02</totfact>
</mgrwt>
</event>
<event>
 9    1  0.4369420E-036  0.9986565E+03  0.7818608E-02  0.8682318E-01
         -2   -1    0    0    0  501 -0.00000000000E+00  0.00000000000E+00  0.13886523118E+03  0.13886523118E+03  0.00000000000E+00 0. -1.
          2   -1    0    0  501    0  0.00000000000E+00 -0.00000000000E+00 -0.17954726429E+04  0.17954726429E+04  0.00000000000E+00 0. -1.
         36    2    1    2    0    0  0.71054273576E-14  0.00000000000E+00 -0.16566074117E+04  0.19343378741E+04  0.99865654484E+03 0.  0.
         25    2    3    3    0    0  0.12826105011E+02  0.14727486194E+03 -0.30260911249E+03  0.35909394677E+03  0.12458649092E+03 0.  0.
         35    2    3    3    0    0 -0.12826105011E+02 -0.14727486194E+03 -0.13539982992E+04  0.15752439273E+04  0.79134546329E+03 0.  0.
         22    1    5    5    0    0 -0.28568715464E+03 -0.32917158655E+03 -0.51647921699E+03  0.67581200440E+03  0.00000000000E+00 0.  1.
         22    1    5    5    0    0  0.27286104962E+03  0.18189672461E+03 -0.83751908222E+03  0.89943192288E+03  0.00000000000E+00 0.  1.
          5    1    4    4  502    0 -0.45158343526E+02  0.84842099048E+02 -0.22089518963E+03  0.24094445950E+03  0.47000000000E+01 0.  1.
         -5    1    4    4    0  502  0.57984448538E+02  0.62432762891E+02 -0.81713922858E+02  0.11814948727E+03  0.47000000000E+01 0.  1.
<mgrwt>
<rscale>  0 0.99865654E+03</rscale>
<asrwt>0</asrwt>
<pdfrwt beam="1">  1        2 0.27622656E+00 0.99865654E+03</pdfrwt>
<pdfrwt beam="2">  1       -2 0.21363881E-01 0.99865654E+03</pdfrwt>
<totfact> 0.19519838E+02</totfact>
</mgrwt>
</event>
<event>
 9    1  0.4369420E-036  0.1000049E+04  0.7818608E-02  0.8680991E-01
         -2   -1    0    0    0  501 -0.00000000000E+00  0.00000000000E+00  0.10534513862E+03  0.10534513862E+03  0.00000000000E+00 0. -1.
          2   -1    0    0  501    0  0.00000000000E+00 -0.00000000000E+00 -0.23733860114E+04  0.23733860114E+04  0.00000000000E+00 0. -1.
         36    2    1    2    0    0  0.28421709430E-13  0.00000000000E+00 -0.22680408728E+04  0.24787311500E+04  0.10000493555E+04 0.  0.
         25    2    3    3    0    0 -0.49657872801E+02  0.11642066298E+03 -0.27756647039E+03  0.32976078227E+03  0.12521722302E+03 0.  0.
         35    2    3    3    0    0  0.49657872801E+02 -0.11642066298E+03 -0.19904744024E+04  0.21489703678E+04  0.80004101129E+03 0.  0.
         22    1    5    5    0    0  0.26497089163E+03 -0.27765605630E+03 -0.47923285992E+03  0.61397605250E+03  0.00000000000E+00 0. -1.
         22    1    5    5    0    0 -0.21531301883E+03  0.16123539332E+03 -0.15112415425E+04  0.15349943153E+04  0.00000000000E+00 0. -1.
          5    1    4    4  502    0 -0.27108122647E+02  0.13010568086E+03 -0.27145685816E+03  0.30228009254E+03  0.47000000000E+01 0. -1.
         -5    1    4    4    0  502 -0.22549750154E+02 -0.13685017882E+02 -0.61096122292E+01  0.27480689730E+02  0.47000000000E+01 0. -1.
<mgrwt>
<rscale>  0 0.10000494E+04</rscale>
<asrwt>0</asrwt>
<pdfrwt beam="1">  1        2 0.36513627E+00 0.10000494E+04</pdfrwt>
<pdfrwt beam="2">  1       -2 0.16206946E-01 0.10000494E+04</pdfrwt>
<totfact> 0.14570442E+02</totfact>
</mgrwt>
</event>
<event>
 9    1  0.4369420E-036  0.9980377E+03  0.7818608E-02  0.8682909E-01
         -1   -1    0    0    0  501 -0.00000000000E+00  0.00000000000E+00  0.77341104958E+03  0.77341104958E+03  0.00000000000E+00 0.  1.
          1   -1    0    0  501    0  0.00000000000E+00 -0.00000000000E+00 -0.32197601522E+03  0.32197601522E+03  0.00000000000E+00 0.  1.
         36    2    1    2    0    0 -0.21316282073E-13  0.00000000000E+00  0.45143503435E+03  0.10953870648E+04  0.99803769042E+03 0.  0.
         25    2    3    3    0    0  0.30794852376E+02  0.12093791211E+03  0.19206840377E+02  0.17732801589E+03  0.12450711219E+03 0.  0.
         35    2    3    3    0    0 -0.30794852376E+02 -0.12093791211E+03  0.43222819398E+03  0.91805904891E+03  0.80027301848E+03 0.  0.
         22    1    5    5    0    0 -0.14769058569E+03 -0.22775367584E+03  0.61738561563E+03  0.67442512138E+03  0.00000000000E+00 0. -1.
         22    1    5    5    0    0  0.11689573332E+03  0.10681576374E+03 -0.18515742165E+03  0.24363392753E+03  0.00000000000E+00 0. -1.
          5    1    4    4  502    0  0.10543245794E+02  0.13415417938E+03  0.44701170301E+02  0.14187596168E+03  0.47000000000E+01 0.  1.
         -5    1    4    4    0  502  0.20251606582E+02 -0.13216267269E+02 -0.25494329924E+02  0.35452054213E+02  0.47000000000E+01 0.  1.
<mgrwt>
<rscale>  0 0.99803769E+03</rscale>
<asrwt>0</asrwt>
<pdfrwt beam="1">  1        1 0.49534772E-01 0.99803769E+03</pdfrwt>
<pdfrwt beam="2">  1       -1 0.11898631E+00 0.99803769E+03</pdfrwt>
<totfact> 0.60747552E+01</totfact>
</mgrwt>
</event>
<event>
 9    1  0.4369420E-036  0.1002106E+04  0.7818608E-02  0.8679035E-01
         -1   -1    0    0    0  501 -0.00000000000E+00  0.00000000000E+00  0.35634310066E+03  0.35634310066E+03  0.00000000000E+00 0.  1.
          1   -1    0    0  501    0  0.00000000000E+00 -0.00000000000E+00 -0.70452854863E+03  0.70452854863E+03  0.00000000000E+00 0.  1.
         36    2    1    2    0    0  0.00000000000E+00  0.12434497876E-13 -0.34818544797E+03  0.10608716493E+04  0.10021055584E+04 0.  0.
         25    2    3    3    0    0 -0.66338803791E+02  0.14073798013E+02  0.68169156123E+02  0.15768769273E+03  0.12497786169E+03 0.  0.
         35    2    3    3    0    0  0.66338803791E+02 -0.14073798013E+02 -0.41635460409E+03  0.90318395656E+03  0.79861830330E+03 0.  0.
         22    1    5    5    0    0  0.38447235839E+03 -0.19954228615E+03 -0.21895027531E+03  0.48536104230E+03  0.00000000000E+00 0. -1.
         22    1    5    5    0    0 -0.31813355460E+03  0.18546848814E+03 -0.19740432879E+03  0.41782291426E+03  0.00000000000E+00 0. -1.
          5    1    4    4  502    0 -0.74391598793E+02  0.54199768490E+01  0.99169973602E+02  0.12417833863E+03  0.47000000000E+01 0.  1.
         -5    1    4    4    0  502  0.80527950023E+01  0.86538211644E+01 -0.31000817479E+02  0.33509354104E+02  0.47000000000E+01 0.  1.
<mgrwt>
<rscale>  0 0.10021056E+04</rscale>
<asrwt>0</asrwt>
<pdfrwt beam="1">  1        1 0.10838901E+00 0.10021056E+04</pdfrwt>
<pdfrwt beam="2">  1       -1 0.54822016E-01 0.10021056E+04</pdfrwt>
<totfact> 0.10428571E+02</totfact>
</mgrwt>
</event>
<event>
 9    1  0.4369420E-036  0.1000085E+04  0.7818608E-02  0.8680957E-01
          2   -1    0    0  501    0  0.00000000000E+00  0.00000000000E+00  0.24215400526E+03  0.24215400526E+03  0.00000000000E+00 0. -1.
         -2   -1    0    0    0  501 -0.00000000000E+00 -0.00000000000E+00 -0.10325763155E+04  0.10325763155E+04  0.00000000000E+00 0. -1.
         36    2    1    2    0    0 -0.71054273576E-14  0.14210854715E-13 -0.79042231027E+03  0.12747303208E+04  0.10000849775E+04 0.  0.
         25    2    3    3    0    0 -0.10761440870E+02  0.11945108321E+03 -0.20125879429E+03  0.26548236998E+03  0.12486559415E+03 0.  0.
         35    2    3    3    0    0  0.10761440870E+02 -0.11945108321E+03 -0.58916351598E+03  0.10092479508E+04  0.81060681454E+03 0.  0.
         22    1    5    5    0    0  0.27944398094E+03 -0.10417945563E+03 -0.66570747309E+03  0.72945783784E+03  0.00000000000E+00 0.  1.
         22    1    5    5    0    0 -0.26868254007E+03 -0.15271627573E+02  0.76543957108E+02  0.27979011298E+03  0.00000000000E+00 0.  1.
          5    1    4    4  502    0 -0.52648854889E+02  0.80043943949E+02 -0.60633223197E+02  0.11347868804E+03  0.47000000000E+01 0.  1.
         -5    1    4    4    0  502  0.41887414019E+02  0.39407139257E+02 -0.14062557109E+03  0.15200368194E+03  0.47000000000E+01 0.  1.
<mgrwt>
<rscale>  0 0.10000850E+04</rscale>
<asrwt>0</asrwt>
<pdfrwt beam="1">  1        2 0.37254462E-01 0.10000850E+04</pdfrwt>
<pdfrwt beam="2">  1       -2 0.15885790E+00 0.10000850E+04</pdfrwt>
<totfact> 0.40235289E+01</totfact>
</mgrwt>
</event>
<event>
 9    1  0.4369420E-036  0.1000020E+04  0.7818608E-02  0.8681019E-01
         -2   -1    0    0    0  501 -0.00000000000E+00  0.00000000000E+00  0.23315911136E+03  0.23315911136E+03  0.00000000000E+00 0. -1.
          2   -1    0    0  501    0  0.00000000000E+00 -0.00000000000E+00 -0.10722714496E+04  0.10722714496E+04  0.00000000000E+00 0. -1.
         36    2    1    2    0    0  0.14210854715E-13  0.00000000000E+00 -0.83911233825E+03  0.13054305610E+04  0.10000197165E+04 0.  0.
         25    2    3    3    0    0 -0.89928053883E+02  0.92228458520E+02 -0.91625051337E+02  0.20174148174E+03  0.12534485225E+03 0.  0.
         35    2    3    3    0    0  0.89928053883E+02 -0.92228458520E+02 -0.74748728691E+03  0.11036890792E+04  0.80174758875E+03 0.  0.
         22    1    5    5    0    0  0.32901455082E+03  0.18725445071E+03 -0.16092458890E+03  0.41135328767E+03  0.00000000000E+00 0. -1.
         22    1    5    5    0    0 -0.23908649694E+03 -0.27948290923E+03 -0.58656269801E+03  0.69233579156E+03  0.00000000000E+00 0. -1.
          5    1    4    4  502    0 -0.60011071540E+02  0.63972096471E+00  0.10669442900E+02  0.61136445449E+02  0.47000000000E+01 0.  1.
         -5    1    4    4    0  502 -0.29916982343E+02  0.91588737556E+02 -0.10229449424E+03  0.14060503629E+03  0.47000000000E+01 0.  1.
<mgrwt>
<rscale>  0 0.10000197E+04</rscale>
<asrwt>0</asrwt>
<pdfrwt beam="1">  1        2 0.16496484E+00 0.10000197E+04</pdfrwt>
<pdfrwt beam="2">  1       -2 0.35870633E-01 0.10000197E+04</pdfrwt>
<totfact> 0.20000094E+02</totfact>
</mgrwt>
</event>
<event>
 9    1  0.4369420E-036  0.1000480E+04  0.7818608E-02  0.8680581E-01
         -2   -1    0    0    0  501 -0.00000000000E+00  0.00000000000E+00  0.94050327272E+02  0.94050327272E+02  0.00000000000E+00 0.  1.
          2   -1    0    0  501    0  0.00000000000E+00 -0.00000000000E+00 -0.26607044183E+04  0.26607044183E+04  0.00000000000E+00 0.  1.
         36    2    1    2    0    0  0.28421709430E-13  0.14210854715E-13 -0.25666540911E+04  0.27547547456E+04  0.10004801274E+04 0.  0.
         25    2    3    3    0    0 -0.69749308085E+02 -0.10770889260E+03 -0.63902912416E+03  0.66364584834E+03  0.12490564030E+03 0.  0.
         35    2    3    3    0    0  0.69749308085E+02  0.10770889260E+03 -0.19276249669E+04  0.20911088973E+04  0.80033257815E+03 0.  0.
         22    1    5    5    0    0  0.42862379290E+03 -0.21098007536E+02 -0.10026267921E+04  0.10906071548E+04  0.00000000000E+00 0. -1.
         22    1    5    5    0    0 -0.35887448481E+03  0.12880690014E+03 -0.92499817477E+03  0.10005017425E+04  0.00000000000E+00 0. -1.
          5    1    4    4  502    0 -0.28362203846E+00 -0.88415715842E+02 -0.20014831583E+03  0.21885807634E+03  0.47000000000E+01 0. -1.
         -5    1    4    4    0  502 -0.69465686046E+02 -0.19293176762E+02 -0.43888080832E+03  0.44478777200E+03  0.47000000000E+01 0. -1.
<mgrwt>
<rscale>  0 0.10004801E+04</rscale>
<asrwt>0</asrwt>
<pdfrwt beam="1">  1        2 0.40933915E+00 0.10004801E+04</pdfrwt>
<pdfrwt beam="2">  1       -2 0.14469281E-01 0.10004801E+04</pdfrwt>
<totfact> 0.11771470E+02</totfact>
</mgrwt>
</event>
<event>
 9    1  0.4369420E-036  0.9993141E+03  0.7818608E-02  0.8681691E-01
          1   -1    0    0  501    0  0.00000000000E+00  0.00000000000E+00  0.10241225433E+04  0.10241225433E+04  0.00000000000E+00 0. -1.
         -1   -1    0    0    0  501 -0.00000000000E+00 -0.00000000000E+00 -0.24377666335E+03  0.24377666335E+03  0.00000000000E+00 0. -1.
         36    2    1    2    0    0  0.14210854715E-13 -0.28421709430E-13  0.78034587998E+03  0.12678992067E+04  0.99931411772E+03 0.  0.
         25    2    3    3    0    0  0.26158359763E+02 -0.14267702580E+03  0.14844379394E+03  0.24255631128E+03  0.12552693218E+03 0.  0.
         35    2    3    3    0    0 -0.26158359763E+02  0.14267702580E+03  0.63190208604E+03  0.10253428954E+04  0.79434678404E+03 0.  0.
         22    1    5    5    0    0 -0.18780214608E+03 -0.15076708250E+03 -0.67268578444E+02  0.25005083660E+03  0.00000000000E+00 0.  1.
         22    1    5    5    0    0  0.16164378632E+03  0.29344410830E+03  0.69917066448E+03  0.77529205879E+03  0.00000000000E+00 0.  1.
          5    1    4    4  502    0  0.31043868144E+02 -0.65057604160E+02 -0.29407355832E+01  0.72297659258E+02  0.47000000000E+01 0. -1.
         -5    1    4    4    0  502 -0.48855083812E+01 -0.77619421642E+02  0.15138452952E+03  0.17025865202E+03  0.47000000000E+01 0. -1.
<mgrwt>
<rscale>  0 0.99931412E+03</rscale>
<asrwt>0</asrwt>
<pdfrwt beam="1">  1        1 0.15755731E+00 0.99931412E+03</pdfrwt>
<pdfrwt beam="2">  1       -1 0.37504103E-01 0.99931412E+03</pdfrwt>
<totfact> 0.11089649E+02</totfact>
</mgrwt>
</event>
<event>
 9    1  0.4369420E-036  0.1000749E+04  0.7818608E-02  0.8680325E-01
         -2   -1    0    0    0  501 -0.00000000000E+00  0.00000000000E+00  0.28842056234E+03  0.28842056234E+03  0.00000000000E+00 0. -1.
          2   -1    0    0  501    0  0.00000000000E+00 -0.00000000000E+00 -0.86808883596E+03  0.86808883596E+03  0.00000000000E+00 0. -1.
         36    2    1    2    0    0  0.14210854715E-13  0.00000000000E+00 -0.57966827361E+03  0.11565093983E+04  0.10007490599E+04 0.  0.
         25    2    3    3    0    0  0.54669643657E+02 -0.83968384986E+02  0.31248617835E+01  0.16152781543E+03  0.12665705973E+03 0.  0.
         35    2    3    3    0    0 -0.54669643657E+02  0.83968384986E+02 -0.58279313540E+03  0.99498158288E+03  0.80018813537E+03 0.  0.
         22    1    5    5    0    0  0.14157233071E+03  0.11415715787E+03 -0.72711944554E+03  0.74951802487E+03  0.00000000000E+00 0.  1.
         22    1    5    5    0    0 -0.19624197436E+03 -0.30188772884E+02  0.14432631015E+03  0.24546355801E+03  0.00000000000E+00 0.  1.
          5    1    4    4  502    0  0.31971963935E+02 -0.79418651839E+02  0.56824631518E+02  0.10286232296E+03  0.47000000000E+01 0. -1.
         -5    1    4    4    0  502  0.22697679722E+02 -0.45497331472E+01 -0.53699769735E+02  0.58665492464E+02  0.47000000000E+01 0. -1.
<mgrwt>
<rscale>  0 0.10007491E+04</rscale>
<asrwt>0</asrwt>
<pdfrwt beam="1">  1        2 0.13355213E+00 0.10007491E+04</pdfrwt>
<pdfrwt beam="2">  1       -2 0.44372394E-01 0.10007491E+04</pdfrwt>
<totfact> 0.17971057E+02</totfact>
</mgrwt>
</event>
<event>
 9    1  0.4369420E-036  0.1000236E+04  0.7818608E-02  0.8680813E-01
          2   -1    0    0  501    0  0.00000000000E+00  0.00000000000E+00  0.61226394755E+03  0.61226394755E+03  0.00000000000E+00 0.  1.
         -2   -1    0    0    0  501 -0.00000000000E+00 -0.00000000000E+00 -0.40851338292E+03  0.40851338292E+03  0.00000000000E+00 0.  1.
         36    2    1    2    0    0  0.28421709430E-13  0.71054273576E-14  0.20375056463E+03  0.10207773305E+04  0.10002360051E+04 0.  0.
         25    2    3    3    0    0 -0.13621303766E+03  0.37503104943E+02 -0.25505314815E+01  0.19153669221E+03  0.12930322789E+03 0.  0.
         35    2    3    3    0    0  0.13621303766E+03 -0.37503104943E+02  0.20630109611E+03  0.82924063827E+03  0.79064493889E+03 0.  0.
         22    1    5    5    0    0 -0.18469059941E+02 -0.35334042365E+02  0.49771607916E+03  0.49931042066E+03  0.00000000000E+00 0.  1.
         22    1    5    5    0    0  0.15468209760E+03 -0.21690625779E+01 -0.29141498304E+03  0.32993021761E+03  0.00000000000E+00 0.  1.
          5    1    4    4  502    0 -0.42656582740E+02  0.16349744415E+02 -0.63074975862E+02  0.78022053123E+02  0.47000000000E+01 0.  1.
         -5    1    4    4    0  502 -0.93556454918E+02  0.21153360528E+02  0.60524444381E+02  0.11351463908E+03  0.47000000000E+01 0.  1.
<mgrwt>
<rscale>  0 0.10002360E+04</rscale>
<asrwt>0</asrwt>
<pdfrwt beam="1">  1        2 0.94194454E-01 0.10002360E+04</pdfrwt>
<pdfrwt beam="2">  1       -2 0.62848212E-01 0.10002360E+04</pdfrwt>
<totfact> 0.13739813E+02</totfact>
</mgrwt>
</event>
<event>
 9    1  0.4369420E-036  0.1000260E+04  0.7818608E-02  0.8680791E-01
          2   -1    0    0  501    0  0.00000000000E+00  0.00000000000E+00  0.23181014549E+04  0.23181014549E+04  0.00000000000E+00 0. -1.
         -2   -1    0    0    0  501 -0.00000000000E+00 -0.00000000000E+00 -0.10790288477E+03  0.10790288477E+03  0.00000000000E+00 0. -1.
         36    2    1    2    0    0  0.71054273576E-14 -0.42632564146E-13  0.22101985702E+04  0.24260043397E+04  0.10002596346E+04 0.  0.
         25    2    3    3    0    0 -0.32672895645E+02  0.18358993580E+02  0.75019196850E+03  0.76127462288E+03  0.12388095529E+03 0.  0.
         35    2    3    3    0    0  0.32672895645E+02 -0.18358993580E+02  0.14600066017E+04  0.16647297168E+04  0.79893753348E+03 0.  0.
         22    1    5    5    0    0 -0.57631595403E+02 -0.38739961703E+03  0.52118945912E+03  0.65194962717E+03  0.00000000000E+00 0. -1.
         22    1    5    5    0    0  0.90304491047E+02  0.36904062345E+03  0.93881714255E+03  0.10127800897E+04  0.00000000000E+00 0. -1.
          5    1    4    4  502    0  0.28396774231E+02 -0.36924146956E+02  0.25742011720E+03  0.26164284083E+03  0.47000000000E+01 0. -1.
         -5    1    4    4    0  502 -0.61069669876E+02  0.55283140536E+02  0.49277185130E+03  0.49963178205E+03  0.47000000000E+01 0. -1.
<mgrwt>
<rscale>  0 0.10002596E+04</rscale>
<asrwt>0</asrwt>
<pdfrwt beam="1">  1        2 0.35663096E+00 0.10002596E+04</pdfrwt>
<pdfrwt beam="2">  1       -2 0.16600445E-01 0.10002596E+04</pdfrwt>
<totfact> 0.15088501E+02</totfact>
</mgrwt>
</event>
<event>
 9    1  0.4369420E-036  0.1000122E+04  0.7818608E-02  0.8680922E-01
         -2   -1    0    0    0  501 -0.00000000000E+00  0.00000000000E+00  0.26894567734E+03  0.26894567734E+03  0.00000000000E+00 0. -1.
          2   -1    0    0  501    0  0.00000000000E+00 -0.00000000000E+00 -0.92978297840E+03  0.92978297840E+03  0.00000000000E+00 0. -1.
         36    2    1    2    0    0  0.00000000000E+00  0.00000000000E+00 -0.66083730106E+03  0.11987286557E+04  0.10001222183E+04 0.  0.
         25    2    3    3    0    0 -0.83708033987E+02  0.94940991261E+02 -0.54732712018E+02  0.18632862900E+03  0.12530706861E+03 0.  0.
         35    2    3    3    0    0  0.83708033987E+02 -0.94940991261E+02 -0.60610458904E+03  0.10124000267E+04  0.80098078286E+03 0.  0.
         22    1    5    5    0    0  0.20810243479E+03 -0.21588763260E+03  0.75371842782E+02  0.30918442386E+03  0.00000000000E+00 0. -1.
         22    1    5    5    0    0 -0.12439440080E+03  0.12094664134E+03 -0.68147643182E+03  0.70321560288E+03  0.00000000000E+00 0. -1.
          5    1    4    4  502    0 -0.32338563892E+02 -0.11682318642E+02 -0.58279531495E+02  0.67829588490E+02  0.47000000000E+01 0. -1.
         -5    1    4    4    0  502 -0.51369470094E+02  0.10662330990E+03  0.35468194767E+01  0.11849904051E+03  0.47000000000E+01 0. -1.
<mgrwt>
<rscale>  0 0.10001222E+04</rscale>
<asrwt>0</asrwt>
<pdfrwt beam="1">  1        2 0.14304353E+00 0.10001222E+04</pdfrwt>
<pdfrwt beam="2">  1       -2 0.41376258E-01 0.10001222E+04</pdfrwt>
<totfact> 0.18740878E+02</totfact>
</mgrwt>
</event>
<event>
 9    1  0.4369420E-036  0.1000715E+04  0.7818608E-02  0.8680357E-01
         -1   -1    0    0    0  501 -0.00000000000E+00  0.00000000000E+00  0.51291096763E+03  0.51291096763E+03  0.00000000000E+00 0. -1.
          1   -1    0    0  501    0  0.00000000000E+00 -0.00000000000E+00 -0.48811156996E+03  0.48811156996E+03  0.00000000000E+00 0. -1.
         36    2    1    2    0    0  0.14210854715E-13  0.00000000000E+00  0.24799397671E+02  0.10010225376E+04  0.10007152995E+04 0.  0.
         25    2    3    3    0    0 -0.48320708808E+02 -0.13168400983E+03  0.27341026007E+02  0.18903989193E+03  0.12374562494E+03 0.  0.
         35    2    3    3    0    0  0.48320708808E+02  0.13168400983E+03 -0.25416283357E+01  0.81198264567E+03  0.79977108453E+03 0.  0.
         22    1    5    5    0    0  0.34245318040E+03  0.14247411094E+03 -0.23312365074E+03  0.43808639512E+03  0.00000000000E+00 0. -1.
         22    1    5    5    0    0 -0.29413247159E+03 -0.10790101111E+02  0.23058202240E+03  0.37389625056E+03  0.00000000000E+00 0. -1.
          5    1    4    4  502    0  0.33743394419E+02 -0.13408187905E+02  0.26165190115E+02  0.45001148248E+02  0.47000000000E+01 0. -1.
         -5    1    4    4    0  502 -0.82064103227E+02 -0.11827582192E+03  0.11758358914E+01  0.14403874368E+03  0.47000000000E+01 0. -1.
<mgrwt>
<rscale>  0 0.10007153E+04</rscale>
<asrwt>0</asrwt>
<pdfrwt beam="1">  1        1 0.75094087E-01 0.10007153E+04</pdfrwt>
<pdfrwt beam="2">  1       -1 0.78909380E-01 0.10007153E+04</pdfrwt>
<totfact> 0.86987505E+01</totfact>
</mgrwt>
</event>
<event>
 9    1  0.4369420E-036  0.1002098E+04  0.7818608E-02  0.8679042E-01
          2   -1    0    0  501    0  0.00000000000E+00  0.00000000000E+00  0.26495312747E+04  0.26495312747E+04  0.00000000000E+00 0.  1.
         -2   -1    0    0    0  501 -0.00000000000E+00 -0.00000000000E+00 -0.94752684889E+02  0.94752684889E+02  0.00000000000E+00 0.  1.
         36    2    1    2    0    0  0.00000000000E+00  0.71054273576E-14  0.25547785898E+04  0.27442839595E+04  0.10020982027E+04 0.  0.
         25    2    3    3    0    0  0.10660024973E+03  0.18774007452E+02  0.73306909440E+03  0.75146462086E+03  0.12487074374E+03 0.  0.
         35    2    3    3    0    0 -0.10660024973E+03 -0.18774007452E+02  0.18217094954E+04  0.19928193387E+04  0.80061685875E+03 0.  0.
         22    1    5    5    0    0 -0.43326737508E+03  0.18279275338E+02  0.69562521194E+03  0.81972506714E+03  0.00000000000E+00 0.  1.
         22    1    5    5    0    0  0.32666712534E+03 -0.37053282790E+02  0.11260842834E+04  0.11730942715E+04  0.00000000000E+00 0.  1.
          5    1    4    4  502    0  0.54551314915E+02  0.70356407655E+02  0.33384527425E+03  0.34554395842E+03  0.47000000000E+01 0. -1.
         -5    1    4    4    0  502  0.52048934819E+02 -0.51582400203E+02  0.39922382014E+03  0.40592066244E+03  0.47000000000E+01 0. -1.
<mgrwt>
<rscale>  0 0.10020982E+04</rscale>
<asrwt>0</asrwt>
<pdfrwt beam="1">  1        2 0.40762014E+00 0.10020982E+04</pdfrwt>
<pdfrwt beam="2">  1       -2 0.14577338E-01 0.10020982E+04</pdfrwt>
<totfact> 0.11813972E+02</totfact>
</mgrwt>
</event>
<event>
 9    1  0.4369420E-036  0.9997687E+03  0.7818608E-02  0.8681258E-01
         -2   -1    0    0    0  501 -0.00000000000E+00  0.00000000000E+00  0.32052600573E+03  0.32052600573E+03  0.00000000000E+00 0. -1.
          2   -1    0    0  501    0  0.00000000000E+00 -0.00000000000E+00 -0.77960711780E+03  0.77960711780E+03  0.00000000000E+00 0. -1.
         36    2    1    2    0    0 -0.71054273576E-14  0.71054273576E-14 -0.45908111207E+03  0.11001331235E+04  0.99976868426E+03 0.  0.
         25    2    3    3    0    0 -0.26933853436E+02  0.60144613649E+02  0.51313816537E+02  0.14944122096E+03  0.12392241017E+03 0.  0.
         35    2    3    3    0    0  0.26933853436E+02 -0.60144613649E+02 -0.51039492861E+03  0.95069190257E+03  0.79935555509E+03 0.  0.
         22    1    5    5    0    0 -0.21586620741E+03  0.29643365830E+03 -0.18762636235E+03  0.41191599280E+03  0.00000000000E+00 0. -1.
         22    1    5    5    0    0  0.24280006085E+03 -0.35657827195E+03 -0.32276856626E+03  0.53877590976E+03  0.00000000000E+00 0. -1.
          5    1    4    4  502    0 -0.70337728994E+02  0.64398703404E+02  0.43343275325E+02  0.10485856492E+03  0.47000000000E+01 0. -1.
         -5    1    4    4    0  502  0.43403875558E+02 -0.42540897544E+01  0.79705412115E+01  0.44582656048E+02  0.47000000000E+01 0. -1.
<mgrwt>
<rscale>  0 0.99976868E+03</rscale>
<asrwt>0</asrwt>
<pdfrwt beam="1">  1        2 0.11993956E+00 0.99976868E+03</pdfrwt>
<pdfrwt beam="2">  1       -2 0.49311694E-01 0.99976868E+03</pdfrwt>
<totfact> 0.16795305E+02</totfact>
</mgrwt>
</event>
<event>
 9    1  0.4369420E-036  0.9954135E+03  0.7818608E-02  0.8685418E-01
          1   -1    0    0  501    0  0.00000000000E+00  0.00000000000E+00  0.99433941292E+03  0.99433941292E+03  0.00000000000E+00 0.  1.
         -1   -1    0    0    0  501 -0.00000000000E+00 -0.00000000000E+00 -0.24912218300E+03  0.24912218300E+03  0.00000000000E+00 0.  1.
         36    2    1    2    0    0  0.00000000000E+00 -0.14210854715E-13  0.74521722993E+03  0.12434615959E+04  0.99541349235E+03 0.  0.
         25    2    3    3    0    0  0.11881969894E+03 -0.66284670381E+02  0.14944300134E+03  0.23758668755E+03  0.12490974769E+03 0.  0.
         35    2    3    3    0    0 -0.11881969894E+03  0.66284670381E+02  0.59577422859E+03  0.10058749084E+04  0.79895282806E+03 0.  0.
         22    1    5    5    0    0 -0.22719689022E+03 -0.68973434399E+02  0.74202915031E+03  0.77909115095E+03  0.00000000000E+00 0.  1.
         22    1    5    5    0    0  0.10837719129E+03  0.13525810478E+03 -0.14625492172E+03  0.22678375742E+03  0.00000000000E+00 0.  1.
          5    1    4    4  502    0  0.65089169054E+02 -0.65476703933E+02  0.16218217522E+02  0.93855843002E+02  0.47000000000E+01 0. -1.
         -5    1    4    4    0  502  0.53730529883E+02 -0.80796644763E+00  0.13322478382E+03  0.14373084455E+03  0.47000000000E+01 0. -1.
<mgrwt>
<rscale>  0 0.99541349E+03</rscale>
<asrwt>0</asrwt>
<pdfrwt beam="1">  1        1 0.15297529E+00 0.99541349E+03</pdfrwt>
<pdfrwt beam="2">  1       -1 0.38326490E-01 0.99541349E+03</pdfrwt>
<totfact> 0.11272130E+02</totfact>
</mgrwt>
</event>
<event>
 9    1  0.4369420E-036  0.1000740E+04  0.7818608E-02  0.8680333E-01
          3   -1    0    0  501    0  0.00000000000E+00  0.00000000000E+00  0.17467305130E+04  0.17467305130E+04  0.00000000000E+00 0.  1.
         -3   -1    0    0    0  501 -0.00000000000E+00 -0.00000000000E+00 -0.14333648682E+03  0.14333648682E+03  0.00000000000E+00 0.  1.
         36    2    1    2    0    0  0.00000000000E+00 -0.53290705182E-14  0.16033940262E+04  0.18900669998E+04  0.10007401564E+04 0.  0.
         25    2    3    3    0    0 -0.59375784142E+02 -0.88422105427E+01  0.61308328344E+02  0.15164078011E+03  0.12503018290E+03 0.  0.
         35    2    3    3    0    0  0.59375784142E+02  0.88422105427E+01  0.15420856978E+04  0.17384262197E+04  0.80030853642E+03 0.  0.
         22    1    5    5    0    0 -0.13038641600E+03 -0.98798299134E+02 -0.16706592343E+02  0.16444096697E+03  0.00000000000E+00 0. -1.
         22    1    5    5    0    0  0.18976220014E+03  0.10764050968E+03  0.15587922902E+04  0.15739852527E+04  0.00000000000E+00 0. -1.
          5    1    4    4  502    0 -0.55675954817E+02 -0.10242534606E+02 -0.27156724961E+02  0.62962680776E+02  0.47000000000E+01 0.  1.
         -5    1    4    4    0  502 -0.36998293253E+01  0.14003240637E+01  0.88465053305E+02  0.88678099330E+02  0.47000000000E+01 0.  1.
<mgrwt>
<rscale>  0 0.10007402E+04</rscale>
<asrwt>0</asrwt>
<pdfrwt beam="1">  1        3 0.26872776E+00 0.10007402E+04</pdfrwt>
<pdfrwt beam="2">  1       -3 0.22051768E-01 0.10007402E+04</pdfrwt>
<totfact> 0.45628298E+00</totfact>
</mgrwt>
</event>
<event>
 9    1  0.4369420E-036  0.9977984E+03  0.7818608E-02  0.8683137E-01
          2   -1    0    0  501    0  0.00000000000E+00  0.00000000000E+00  0.78232645825E+03  0.78232645825E+03  0.00000000000E+00 0. -1.
         -2   -1    0    0    0  501 -0.00000000000E+00 -0.00000000000E+00 -0.31815417922E+03  0.31815417922E+03  0.00000000000E+00 0. -1.
         36    2    1    2    0    0 -0.28421709430E-13  0.10658141036E-13  0.46417227903E+03  0.11004806375E+04  0.99779844098E+03 0.  0.
         25    2    3    3    0    0  0.64765737949E+02 -0.16707551723E+02 -0.45737243721E+02  0.14885802032E+03  0.12487222130E+03 0.  0.
         35    2    3    3    0    0 -0.64765737949E+02  0.16707551723E+02  0.50990952275E+03  0.95162261715E+03  0.80068979073E+03 0.  0.
         22    1    5    5    0    0 -0.42367095333E+03 -0.30806063034E+02  0.17837896944E+03  0.46072241854E+03  0.00000000000E+00 0.  1.
         22    1    5    5    0    0  0.35890521538E+03  0.47513614757E+02  0.33153055331E+03  0.49090019860E+03  0.00000000000E+00 0.  1.
          5    1    4    4  502    0  0.48250285036E+02 -0.69265669284E+02 -0.15894158718E+02  0.86026375193E+02  0.47000000000E+01 0. -1.
         -5    1    4    4    0  502  0.16515452913E+02  0.52558117561E+02 -0.29843085003E+02  0.62831645124E+02  0.47000000000E+01 0. -1.
<mgrwt>
<rscale>  0 0.99779844E+03</rscale>
<asrwt>0</asrwt>
<pdfrwt beam="1">  1        2 0.12035792E+00 0.99779844E+03</pdfrwt>
<pdfrwt beam="2">  1       -2 0.48946797E-01 0.99779844E+03</pdfrwt>
<totfact> 0.16970833E+02</totfact>
</mgrwt>
</event>
<event>
 9    1  0.4369420E-036  0.1006842E+04  0.7818608E-02  0.8674550E-01
         -2   -1    0    0    0  501 -0.00000000000E+00  0.00000000000E+00  0.78053715235E+02  0.78053715235E+02  0.00000000000E+00 0. -1.
          2   -1    0    0  501    0  0.00000000000E+00 -0.00000000000E+00 -0.32468989903E+04  0.32468989903E+04  0.00000000000E+00 0. -1.
         36    2    1    2    0    0  0.00000000000E+00  0.00000000000E+00 -0.31688452750E+04  0.33249527055E+04  0.10068416543E+04 0.  0.
         25    2    3    3    0    0  0.86247706832E+02 -0.10933084942E+03 -0.45592787597E+03  0.49307031244E+03  0.12592141738E+03 0.  0.
         35    2    3    3    0    0 -0.86247706832E+02  0.10933084942E+03 -0.27129173991E+04  0.28318823931E+04  0.80015321810E+03 0.  0.
         22    1    5    5    0    0  0.16968656730E+03  0.18067219694E+02 -0.24427698216E+04  0.24487230054E+04  0.00000000000E+00 0. -1.
         22    1    5    5    0    0 -0.25593427413E+03  0.91263629726E+02 -0.27014757743E+03  0.38315938770E+03  0.00000000000E+00 0. -1.
          5    1    4    4  502    0 -0.14773539536E+02 -0.10298274817E+02 -0.19786472911E+03  0.19873815175E+03  0.47000000000E+01 0. -1.
         -5    1    4    4    0  502  0.10102124637E+03 -0.99032574602E+02 -0.25806314686E+03  0.29433216069E+03  0.47000000000E+01 0. -1.
<mgrwt>
<rscale>  0 0.10068417E+04</rscale>
<asrwt>0</asrwt>
<pdfrwt beam="1">  1        2 0.49952286E+00 0.10068417E+04</pdfrwt>
<pdfrwt beam="2">  1       -2 0.12008265E-01 0.10068417E+04</pdfrwt>
<totfact> 0.65502965E+01</totfact>
</mgrwt>
</event>
<event>
 9    1  0.4369420E-036  0.1001569E+04  0.7818608E-02  0.8679546E-01
          2   -1    0    0  501    0  0.00000000000E+00  0.00000000000E+00  0.19298214440E+04  0.19298214440E+04  0.00000000000E+00 0. -1.
         -2   -1    0    0    0  501 -0.00000000000E+00 -0.00000000000E+00 -0.12995236783E+03  0.12995236783E+03  0.00000000000E+00 0. -1.
         36    2    1    2    0    0 -0.14210854715E-13 -0.14210854715E-13  0.17998690761E+04  0.20597738118E+04  0.10015685022E+04 0.  0.
         25    2    3    3    0    0 -0.12600075368E+03 -0.67108723675E+02  0.37169724547E+03  0.41683769960E+03  0.12334932019E+03 0.  0.
         35    2    3    3    0    0  0.12600075368E+03  0.67108723675E+02  0.14281718307E+04  0.16429361122E+04  0.79949016264E+03 0.  0.
         22    1    5    5    0    0  0.11941229239E+03 -0.11059492543E+03 -0.37082951177E+02  0.16693016017E+03  0.00000000000E+00 0.  1.
         22    1    5    5    0    0  0.65884612834E+01  0.17770364911E+03  0.14652547818E+04  0.14760059520E+04  0.00000000000E+00 0.  1.
          5    1    4    4  502    0  0.20561679419E+02 -0.30055047340E+02  0.87718237402E+02  0.95092942452E+02  0.47000000000E+01 0.  1.
         -5    1    4    4    0  502 -0.14656243310E+03 -0.37053676335E+02  0.28397900807E+03  0.32174475715E+03  0.47000000000E+01 0.  1.
<mgrwt>
<rscale>  0 0.10015685E+04</rscale>
<asrwt>0</asrwt>
<pdfrwt beam="1">  1        2 0.29689559E+00 0.10015685E+04</pdfrwt>
<pdfrwt beam="2">  1       -2 0.19992673E-01 0.10015685E+04</pdfrwt>
<totfact> 0.18387088E+02</totfact>
</mgrwt>
</event>
<event>
 9    1  0.4369420E-036  0.1000051E+04  0.7818608E-02  0.8680989E-01
          2   -1    0    0  501    0  0.00000000000E+00  0.00000000000E+00  0.12720846587E+04  0.12720846587E+04  0.00000000000E+00 0. -1.
         -2   -1    0    0    0  501 -0.00000000000E+00 -0.00000000000E+00 -0.19654795274E+03  0.19654795274E+03  0.00000000000E+00 0. -1.
         36    2    1    2    0    0  0.00000000000E+00  0.28421709430E-13  0.10755367059E+04  0.14686326114E+04  0.10000512694E+04 0.  0.
         25    2    3    3    0    0  0.63678625723E+02  0.12569582396E+03  0.19418069922E+03  0.27021313718E+03  0.12431648330E+03 0.  0.
         35    2    3    3    0    0 -0.63678625723E+02 -0.12569582396E+03  0.88135600671E+03  0.11984194742E+04  0.79972896542E+03 0.  0.
         22    1    5    5    0    0 -0.12947446461E+03  0.19795335194E+03  0.83140046511E+03  0.86439337105E+03  0.00000000000E+00 0. -1.
         22    1    5    5    0    0  0.65795838882E+02 -0.32364917590E+03  0.49955541598E+02  0.33402610319E+03  0.00000000000E+00 0. -1.
          5    1    4    4  502    0  0.22759329555E+02  0.14175460583E+03  0.14576527034E+03  0.20465082310E+03  0.47000000000E+01 0. -1.
         -5    1    4    4    0  502  0.40919296169E+02 -0.16058781877E+02  0.48415428877E+02  0.65562314081E+02  0.47000000000E+01 0. -1.
<mgrwt>
<rscale>  0 0.10000513E+04</rscale>
<asrwt>0</asrwt>
<pdfrwt beam="1">  1        2 0.19570533E+00 0.10000513E+04</pdfrwt>
<pdfrwt beam="2">  1       -2 0.30238147E-01 0.10000513E+04</pdfrwt>
<totfact> 0.20851956E+02</totfact>
</mgrwt>
</event>
<event>
 9    1  0.4369420E-036  0.9994200E+03  0.7818608E-02  0.8681590E-01
          2   -1    0    0  501    0  0.00000000000E+00  0.00000000000E+00  0.74362805388E+03  0.74362805388E+03  0.00000000000E+00 0. -1.
         -2   -1    0    0    0  501 -0.00000000000E+00 -0.00000000000E+00 -0.33579972578E+03  0.33579972578E+03  0.00000000000E+00 0. -1.
         36    2    1    2    0    0  0.53290705182E-14  0.28421709430E-13  0.40782832810E+03  0.10794277797E+04  0.99942002496E+03 0.  0.
         25    2    3    3    0    0  0.12870054406E+02 -0.13730597941E+03  0.57652626217E+02  0.19517347364E+03  0.12550015627E+03 0.  0.
         35    2    3    3    0    0 -0.12870054406E+02  0.13730597941E+03  0.35017570188E+03  0.88425430601E+03  0.80016503625E+03 0.  0.
         22    1    5    5    0    0 -0.15587108734E+03 -0.10177016371E+03  0.52387002657E+03  0.55596111989E+03  0.00000000000E+00 0. -1.
         22    1    5    5    0    0  0.14300103294E+03  0.23907614312E+03 -0.17369432468E+03  0.32829318613E+03  0.00000000000E+00 0. -1.
          5    1    4    4  502    0  0.24425582781E+02 -0.15669840595E+03  0.64271674262E+02  0.17118392925E+03  0.47000000000E+01 0. -1.
         -5    1    4    4    0  502 -0.11555528375E+02  0.19392426542E+02 -0.66190480452E+01  0.23989544394E+02  0.47000000000E+01 0. -1.
<mgrwt>
<rscale>  0 0.99942002E+03</rscale>
<asrwt>0</asrwt>
<pdfrwt beam="1">  1        2 0.11440432E+00 0.99942002E+03</pdfrwt>
<pdfrwt beam="2">  1       -2 0.51661497E-01 0.99942002E+03</pdfrwt>
<totfact> 0.16241888E+02</totfact>
</mgrwt>
</event>
<event>
 9    1  0.4369420E-036  0.9997348E+03  0.7818608E-02  0.8681290E-01
         -2   -1    0    0    0  501 -0.00000000000E+00  0.00000000000E+00  0.22681349981E+03  0.22681349981E+03  0.00000000000E+00 0.  1.
          2   -1    0    0  501    0  0.00000000000E+00 -0.00000000000E+00 -0.11016427128E+04  0.11016427128E+04  0.00000000000E+00 0.  1.
         36    2    1    2    0    0  0.71054273576E-14 -0.21316282073E-13 -0.87482921297E+03  0.13284562126E+04  0.99973484330E+03 0.  0.
         25    2    3    3    0    0 -0.39010396267E+02  0.16908527070E+02  0.11667138632E+02  0.13396138748E+03  0.12649830792E+03 0.  0.
         35    2    3    3    0    0  0.39010396267E+02 -0.16908527070E+02 -0.88649635160E+03  0.11944948251E+04  0.79945881477E+03 0.  0.
         22    1    5    5    0    0 -0.79123697385E+02 -0.37838731055E+03 -0.27506356819E+03  0.47444439381E+03  0.00000000000E+00 0. -1.
         22    1    5    5    0    0  0.11813409365E+03  0.36147878348E+03 -0.61143278341E+03  0.72005043130E+03  0.00000000000E+00 0. -1.
          5    1    4    4  502    0 -0.64629861332E+02  0.56081063909E+02  0.14128941607E+02  0.86855176564E+02  0.47000000000E+01 0.  1.
         -5    1    4    4    0  502  0.25619465065E+02 -0.39172536839E+02 -0.24618029753E+01  0.47106210912E+02  0.47000000000E+01 0.  1.
<mgrwt>
<rscale>  0 0.99973484E+03</rscale>
<asrwt>0</asrwt>
<pdfrwt beam="1">  1        2 0.16948349E+00 0.99973484E+03</pdfrwt>
<pdfrwt beam="2">  1       -2 0.34894385E-01 0.99973484E+03</pdfrwt>
<totfact> 0.20209225E+02</totfact>
</mgrwt>
</event>
<event>
 9    1  0.4369420E-036  0.9989252E+03  0.7818608E-02  0.8682062E-01
         -2   -1    0    0    0  501 -0.00000000000E+00  0.00000000000E+00  0.28032947276E+03  0.28032947276E+03  0.00000000000E+00 0.  1.
          2   -1    0    0  501    0  0.00000000000E+00 -0.00000000000E+00 -0.88989169182E+03  0.88989169182E+03  0.00000000000E+00 0.  1.
         36    2    1    2    0    0  0.53290705182E-14 -0.28421709430E-13 -0.60956221906E+03  0.11702211646E+04  0.99892515993E+03 0.  0.
         25    2    3    3    0    0 -0.15080582469E+01 -0.50388937715E+02 -0.26491332523E+03  0.29723510436E+03  0.12501327168E+03 0.  0.
         35    2    3    3    0    0  0.15080582469E+01  0.50388937715E+02 -0.34464889383E+03  0.87298606023E+03  0.80048765265E+03 0.  0.
         22    1    5    5    0    0  0.11556437348E+03 -0.30414666377E+03 -0.37838064841E+03  0.49903129420E+03  0.00000000000E+00 0.  1.
         22    1    5    5    0    0 -0.11405631523E+03  0.35453560149E+03  0.33731754579E+02  0.37395476603E+03  0.00000000000E+00 0.  1.
          5    1    4    4  502    0 -0.10953583159E+02 -0.60547373236E+01  0.11166668256E+02  0.17419107555E+02  0.47000000000E+01 0.  1.
         -5    1    4    4    0  502  0.94455249117E+01 -0.44334200392E+02 -0.27607999349E+03  0.27981599681E+03  0.47000000000E+01 0.  1.
<mgrwt>
<rscale>  0 0.99892516E+03</rscale>
<asrwt>0</asrwt>
<pdfrwt beam="1">  1        2 0.13690642E+00 0.99892516E+03</pdfrwt>
<pdfrwt beam="2">  1       -2 0.43127611E-01 0.99892516E+03</pdfrwt>
<totfact> 0.18370371E+02</totfact>
</mgrwt>
</event>
<event>
 9    1  0.4369420E-036  0.9994477E+03  0.7818608E-02  0.8681564E-01
         -2   -1    0    0    0  501 -0.00000000000E+00  0.00000000000E+00  0.20513535247E+03  0.20513535247E+03  0.00000000000E+00 0. -1.
          2   -1    0    0  501    0  0.00000000000E+00 -0.00000000000E+00 -0.12173618364E+04  0.12173618364E+04  0.00000000000E+00 0. -1.
         36    2    1    2    0    0  0.00000000000E+00  0.00000000000E+00 -0.10122264840E+04  0.14224971889E+04  0.99944774631E+03 0.  0.
         25    2    3    3    0    0 -0.10840793881E+03 -0.41680990125E+02 -0.29948314754E+03  0.34477622145E+03  0.12526332694E+03 0.  0.
         35    2    3    3    0    0  0.10840793881E+03  0.41680990125E+02 -0.71274333641E+03  0.10777209674E+04  0.79999364619E+03 0.  0.
         22    1    5    5    0    0  0.26220941919E+02 -0.45304457634E+02 -0.87474603721E+03  0.87631082459E+03  0.00000000000E+00 0. -1.
         22    1    5    5    0    0  0.82186996891E+02  0.86985447759E+02  0.16200270080E+03  0.20141014286E+03  0.00000000000E+00 0. -1.
          5    1    4    4  502    0 -0.49565559092E+02  0.10985836537E+02 -0.20770656557E+02  0.55054004635E+02  0.47000000000E+01 0. -1.
         -5    1    4    4    0  502 -0.58842379717E+02 -0.52666826663E+02 -0.27871249099E+03  0.28972221681E+03  0.47000000000E+01 0. -1.
<mgrwt>
<rscale>  0 0.99944775E+03</rscale>
<asrwt>0</asrwt>
<pdfrwt beam="1">  1        2 0.18728644E+00 0.99944775E+03</pdfrwt>
<pdfrwt beam="2">  1       -2 0.31559284E-01 0.99944775E+03</pdfrwt>
<totfact> 0.20758234E+02</totfact>
</mgrwt>
</event>
<event>
 9    1  0.4369420E-036  0.9998003E+03  0.7818608E-02  0.8681228E-01
         -2   -1    0    0    0  501 -0.00000000000E+00  0.00000000000E+00  0.16345201671E+03  0.16345201671E+03  0.00000000000E+00 0. -1.
          2   -1    0    0  501    0  0.00000000000E+00 -0.00000000000E+00 -0.15288900286E+04  0.15288900286E+04  0.00000000000E+00 0. -1.
         36    2    1    2    0    0  0.00000000000E+00 -0.28421709430E-13 -0.13654380119E+04  0.16923420453E+04  0.99980029705E+03 0.  0.
         25    2    3    3    0    0 -0.61574113777E+02 -0.82991437800E+01 -0.46645720885E+03  0.48683417971E+03  0.12475954300E+03 0.  0.
         35    2    3    3    0    0  0.61574113777E+02  0.82991437800E+01 -0.89898080301E+03  0.12055078656E+04  0.80076368705E+03 0.  0.
         22    1    5    5    0    0 -0.31218750688E+01  0.36803230736E+03 -0.69625778928E+03  0.78754836962E+03  0.00000000000E+00 0. -1.
         22    1    5    5    0    0  0.64695988846E+02 -0.35973316358E+03 -0.20272301373E+03  0.41795949594E+03  0.00000000000E+00 0. -1.
          5    1    4    4  502    0 -0.36108179706E+01 -0.15196451603E+02  0.40215117881E+00  0.16316306975E+02  0.47000000000E+01 0.  1.
         -5    1    4    4    0  502 -0.57963295806E+02  0.68973078225E+01 -0.46685936003E+03  0.47051787273E+03  0.47000000000E+01 0.  1.
<mgrwt>
<rscale>  0 0.99980030E+03</rscale>
<asrwt>0</asrwt>
<pdfrwt beam="1">  1        2 0.23521385E+00 0.99980030E+03</pdfrwt>
<pdfrwt beam="2">  1       -2 0.25146464E-01 0.99980030E+03</pdfrwt>
<totfact> 0.20715321E+02</totfact>
</mgrwt>
</event>
<event>
 9    1  0.4369420E-036  0.9986401E+03  0.7818608E-02  0.8682334E-01
          2   -1    0    0  501    0  0.00000000000E+00  0.00000000000E+00  0.11436263836E+04  0.11436263836E+04  0.00000000000E+00 0.  1.
         -2   -1    0    0    0  501 -0.00000000000E+00 -0.00000000000E+00 -0.21800871169E+03  0.21800871169E+03  0.00000000000E+00 0.  1.
         36    2    1    2    0    0  0.00000000000E+00 -0.35527136788E-14  0.92561767196E+03  0.13616350953E+04  0.99864010444E+03 0.  0.
         25    2    3    3    0    0 -0.12958640519E+03  0.99809411235E+01  0.10672063686E+03  0.20942866641E+03  0.12481512883E+03 0.  0.
         35    2    3    3    0    0  0.12958640519E+03 -0.99809411235E+01  0.81889703510E+03  0.11522064289E+04  0.80005940102E+03 0.  0.
         22    1    5    5    0    0 -0.32787993982E+03  0.90853688128E+02  0.38340081220E+03  0.51259714238E+03  0.00000000000E+00 0. -1.
         22    1    5    5    0    0  0.45746634501E+03 -0.10083462925E+03  0.43549622290E+03  0.63960928655E+03  0.00000000000E+00 0. -1.
          5    1    4    4  502    0 -0.56827313060E+01 -0.31134546400E+02  0.64743168923E+02  0.72217874081E+02  0.47000000000E+01 0.  1.
         -5    1    4    4    0  502 -0.12390367389E+03  0.41115487524E+02  0.41977467934E+02  0.13721079233E+03  0.47000000000E+01 0.  1.
<mgrwt>
<rscale>  0 0.99864010E+03</rscale>
<asrwt>0</asrwt>
<pdfrwt beam="1">  1        2 0.17594252E+00 0.99864010E+03</pdfrwt>
<pdfrwt beam="2">  1       -2 0.33539802E-01 0.99864010E+03</pdfrwt>
<totfact> 0.20522705E+02</totfact>
</mgrwt>
</event>
<event>
 9    1  0.4369420E-036  0.9997474E+03  0.7818608E-02  0.8681279E-01
         -2   -1    0    0    0  501 -0.00000000000E+00  0.00000000000E+00  0.40154906026E+03  0.40154906026E+03  0.00000000000E+00 0.  1.
          2   -1    0    0  501    0  0.00000000000E+00 -0.00000000000E+00 -0.62227442630E+03  0.62227442630E+03  0.00000000000E+00 0.  1.
         36    2    1    2    0    0  0.28421709430E-13  0.00000000000E+00 -0.22072536604E+03  0.10238234866E+04  0.99974739030E+03 0.  0.
         25    2    3    3    0    0  0.80919442548E+01  0.13613768178E+03 -0.16328996753E+02  0.18732166258E+03  0.12737276464E+03 0.  0.
         35    2    3    3    0    0 -0.80919442548E+01 -0.13613768178E+03 -0.20439636929E+03  0.83650182398E+03  0.79959894808E+03 0.  0.
         22    1    5    5    0    0 -0.38378343442E+03 -0.79326061766E+01 -0.21387195982E+03  0.43942447130E+03  0.00000000000E+00 0. -1.
         22    1    5    5    0    0  0.37569149017E+03 -0.12820507561E+03  0.94755905324E+01  0.39707735268E+03  0.00000000000E+00 0. -1.
          5    1    4    4  502    0  0.89144164453E+01  0.16056276162E+03 -0.79976155784E+01  0.16107736990E+03  0.47000000000E+01 0. -1.
         -5    1    4    4    0  502 -0.82247219052E+00 -0.24425079839E+02 -0.83313811745E+01  0.26244292673E+02  0.47000000000E+01 0. -1.
<mgrwt>
<rscale>  0 0.99974739E+03</rscale>
<asrwt>0</asrwt>
<pdfrwt beam="1">  1        2 0.95734527E-01 0.99974739E+03</pdfrwt>
<pdfrwt beam="2">  1       -2 0.61776778E-01 0.99974739E+03</pdfrwt>
<totfact> 0.13973513E+02</totfact>
</mgrwt>
</event>
<event>
 9    1  0.4369420E-036  0.1000932E+04  0.7818608E-02  0.8680151E-01
          2   -1    0    0  501    0  0.00000000000E+00  0.00000000000E+00  0.55129568403E+03  0.55129568403E+03  0.00000000000E+00 0.  1.
         -2   -1    0    0    0  501 -0.00000000000E+00 -0.00000000000E+00 -0.45432288223E+03  0.45432288223E+03  0.00000000000E+00 0.  1.
         36    2    1    2    0    0  0.00000000000E+00  0.00000000000E+00  0.96972801794E+02  0.10056185663E+04  0.10009320539E+04 0.  0.
         25    2    3    3    0    0 -0.89985227392E+02 -0.10776035343E+03  0.42491352684E+02  0.19117302046E+03  0.12260495006E+03 0.  0.
         35    2    3    3    0    0  0.89985227392E+02  0.10776035343E+03  0.54481449110E+02  0.81444554580E+03  0.80040220130E+03 0.  0.
         22    1    5    5    0    0  0.14531238138E+03  0.29194255105E+03  0.33941205120E+03  0.47068745659E+03  0.00000000000E+00 0. -1.
         22    1    5    5    0    0 -0.55327153985E+02 -0.18418219762E+03 -0.28493060209E+03  0.34375808921E+03  0.00000000000E+00 0. -1.
          5    1    4    4  502    0 -0.96753394940E+01 -0.60843445372E+01 -0.37056202045E+02  0.39062559475E+02  0.47000000000E+01 0.  1.
         -5    1    4    4    0  502 -0.80309887898E+02 -0.10167600889E+03  0.79547554729E+02  0.15211046099E+03  0.47000000000E+01 0.  1.
<mgrwt>
<rscale>  0 0.10009321E+04</rscale>
<asrwt>0</asrwt>
<pdfrwt beam="1">  1        2 0.84814721E-01 0.10009321E+04</pdfrwt>
<pdfrwt beam="2">  1       -2 0.69895828E-01 0.10009321E+04</pdfrwt>
<totfact> 0.12383644E+02</totfact>
</mgrwt>
</event>
<event>
 9    1  0.4369420E-036  0.1002115E+04  0.7818608E-02  0.8679027E-01
          1   -1    0    0  501    0  0.00000000000E+00  0.00000000000E+00  0.88072334692E+03  0.88072334692E+03  0.00000000000E+00 0. -1.
         -1   -1    0    0    0  501 -0.00000000000E+00 -0.00000000000E+00 -0.28505952959E+03  0.28505952959E+03  0.00000000000E+00 0. -1.
         36    2    1    2    0    0 -0.35527136788E-14 -0.28421709430E-13  0.59566381733E+03  0.11657828765E+04  0.10021149295E+04 0.  0.
         25    2    3    3    0    0 -0.85483936868E+00 -0.12990493293E+03  0.15852634265E+03  0.24067295547E+03  0.12616199043E+03 0.  0.
         35    2    3    3    0    0  0.85483936868E+00  0.12990493293E+03  0.43713747468E+03  0.92510992104E+03  0.80489947937E+03 0.  0.
         22    1    5    5    0    0 -0.35876698637E+02 -0.21261915626E+03  0.52673528140E+03  0.56916087338E+03  0.00000000000E+00 0. -1.
         22    1    5    5    0    0  0.36731538005E+02  0.34252408919E+03 -0.89597806718E+02  0.35594904766E+03  0.00000000000E+00 0. -1.
          5    1    4    4  502    0 -0.20709956757E+02 -0.27014726274E+02 -0.15327840940E+02  0.37626193701E+02  0.47000000000E+01 0.  1.
         -5    1    4    4    0  502  0.19855117389E+02 -0.10289020666E+03  0.17385418359E+03  0.20304676177E+03  0.47000000000E+01 0.  1.
<mgrwt>
<rscale>  0 0.10021149E+04</rscale>
<asrwt>0</asrwt>
<pdfrwt beam="1">  1        1 0.13549590E+00 0.10021149E+04</pdfrwt>
<pdfrwt beam="2">  1       -1 0.43855313E-01 0.10021149E+04</pdfrwt>
<totfact> 0.10965348E+02</totfact>
</mgrwt>
</event>
<event>
 9    1  0.4369420E-036  0.1000300E+04  0.7818608E-02  0.8680753E-01
         -2   -1    0    0    0  501 -0.00000000000E+00  0.00000000000E+00  0.27935327603E+03  0.27935327603E+03  0.00000000000E+00 0. -1.
          2   -1    0    0  501    0  0.00000000000E+00 -0.00000000000E+00 -0.89546048833E+03  0.89546048833E+03  0.00000000000E+00 0. -1.
         36    2    1    2    0    0  0.71054273576E-14  0.00000000000E+00 -0.61610721231E+03  0.11748137644E+04  0.10002995971E+04 0.  0.
         25    2    3    3    0    0 -0.23387053880E+02  0.12650289548E+03 -0.56632762614E+02  0.18822252395E+03  0.12518191509E+03 0.  0.
         35    2    3    3    0    0  0.23387053880E+02 -0.12650289548E+03 -0.55947444969E+03  0.98659124041E+03  0.80237190812E+03 0.  0.
         22    1    5    5    0    0  0.30434390700E+03  0.13741698447E+03 -0.49296924980E+03  0.59542197020E+03  0.00000000000E+00 0.  1.
         22    1    5    5    0    0 -0.28095685312E+03 -0.26391987995E+03 -0.66505199890E+02  0.39116927021E+03  0.00000000000E+00 0.  1.
          5    1    4    4  502    0 -0.22740617092E+02 -0.32903576453E+01 -0.53376448867E+02  0.58301778813E+02  0.47000000000E+01 0.  1.
         -5    1    4    4    0  502 -0.64643678823E+00  0.12979325313E+03 -0.32563137468E+01  0.12992074514E+03  0.47000000000E+01 0.  1.
<mgrwt>
<rscale>  0 0.10002996E+04</rscale>
<asrwt>0</asrwt>
<pdfrwt beam="1">  1        2 0.13776315E+00 0.10002996E+04</pdfrwt>
<pdfrwt beam="2">  1       -2 0.42977426E-01 0.10002996E+04</pdfrwt>
<totfact> 0.18338656E+02</totfact>
</mgrwt>
</event>
<event>
 9    1  0.4369420E-036  0.9983434E+03  0.7818608E-02  0.8682617E-01
         -2   -1    0    0    0  501 -0.00000000000E+00  0.00000000000E+00  0.87967271914E+02  0.87967271914E+02  0.00000000000E+00 0.  1.
          2   -1    0    0  501    0  0.00000000000E+00 -0.00000000000E+00 -0.28325577208E+04  0.28325577208E+04  0.00000000000E+00 0.  1.
         36    2    1    2    0    0 -0.28421709430E-13  0.21316282073E-13 -0.27445904488E+04  0.29205249927E+04  0.99834337827E+03 0.  0.
         25    2    3    3    0    0 -0.58372324675E+02 -0.62009332797E+02 -0.83197461968E+03  0.84575053296E+03  0.12593534286E+03 0.  0.
         35    2    3    3    0    0  0.58372324675E+02  0.62009332797E+02 -0.19126158292E+04  0.20747744597E+04  0.79958568211E+03 0.  0.
         22    1    5    5    0    0  0.36118221870E+03  0.24688877243E+03 -0.87695366440E+03  0.98002774989E+03  0.00000000000E+00 0. -1.
         22    1    5    5    0    0 -0.30280989402E+03 -0.18487943964E+03 -0.10356621648E+04  0.10947467098E+04  0.00000000000E+00 0. -1.
          5    1    4    4  502    0 -0.52728551999E+02  0.10618763924E+02 -0.60320511730E+03  0.60561667900E+03  0.47000000000E+01 0. -1.
         -5    1    4    4    0  502 -0.56437726761E+01 -0.72628096721E+02 -0.22876950237E+03  0.24013385396E+03  0.47000000000E+01 0. -1.
<mgrwt>
<rscale>  0 0.99834338E+03</rscale>
<asrwt>0</asrwt>
<pdfrwt beam="1">  1        2 0.43577806E+00 0.99834338E+03</pdfrwt>
<pdfrwt beam="2">  1       -2 0.13533428E-01 0.99834338E+03</pdfrwt>
<totfact> 0.10234411E+02</totfact>
</mgrwt>
</event>
<event>
 9    1  0.4369420E-036  0.9988142E+03  0.7818608E-02  0.8682168E-01
          2   -1    0    0  501    0  0.00000000000E+00  0.00000000000E+00  0.95737061685E+03  0.95737061685E+03  0.00000000000E+00 0. -1.
         -2   -1    0    0    0  501 -0.00000000000E+00 -0.00000000000E+00 -0.26051296905E+03  0.26051296905E+03  0.00000000000E+00 0. -1.
         36    2    1    2    0    0  0.00000000000E+00  0.00000000000E+00  0.69685764779E+03  0.12178835859E+04  0.99881422073E+03 0.  0.
         25    2    3    3    0    0 -0.81189726161E+02 -0.60446933238E+02  0.15914096254E+02  0.16146098010E+03  0.12478295663E+03 0.  0.
         35    2    3    3    0    0  0.81189726161E+02  0.60446933238E+02  0.68094355154E+03  0.10564226058E+04  0.80131080006E+03 0.  0.
         22    1    5    5    0    0 -0.40148795404E+02  0.10451997576E+03  0.84233969648E+03  0.84974850125E+03  0.00000000000E+00 0.  1.
         22    1    5    5    0    0  0.12133852156E+03 -0.44073042519E+02 -0.16139614494E+03  0.20667410455E+03  0.00000000000E+00 0.  1.
          5    1    4    4  502    0 -0.18784697991E+02 -0.39938946734E+02 -0.50976424808E+02  0.67591939098E+02  0.47000000000E+01 0. -1.
         -5    1    4    4    0  502 -0.62405028169E+02 -0.20507986503E+02  0.66890521061E+02  0.93869041004E+02  0.47000000000E+01 0. -1.
<mgrwt>
<rscale>  0 0.99881422E+03</rscale>
<asrwt>0</asrwt>
<pdfrwt beam="1">  1        2 0.14728779E+00 0.99881422E+03</pdfrwt>
<pdfrwt beam="2">  1       -2 0.40078919E-01 0.99881422E+03</pdfrwt>
<totfact> 0.19124709E+02</totfact>
</mgrwt>
</event>
<event>
 9    1  0.4369420E-036  0.9964221E+03  0.7818608E-02  0.8684453E-01
          1   -1    0    0  501    0  0.00000000000E+00  0.00000000000E+00  0.74285932600E+03  0.74285932600E+03  0.00000000000E+00 0.  1.
         -1   -1    0    0    0  501 -0.00000000000E+00 -0.00000000000E+00 -0.33413358289E+03  0.33413358289E+03  0.00000000000E+00 0.  1.
         36    2    1    2    0    0  0.00000000000E+00  0.14210854715E-13  0.40872574312E+03  0.10769929089E+04  0.99642209566E+03 0.  0.
         25    2    3    3    0    0 -0.11244433468E+03  0.69900680775E+02  0.11159494191E+03  0.21334693008E+03  0.12463405610E+03 0.  0.
         35    2    3    3    0    0  0.11244433468E+03 -0.69900680775E+02  0.29713080121E+03  0.86364597881E+03  0.80004239270E+03 0.  0.
         22    1    5    5    0    0  0.28488955566E+03  0.28727923372E+03  0.21661620846E+03  0.45892700816E+03  0.00000000000E+00 0.  1.
         22    1    5    5    0    0 -0.17244522098E+03 -0.35717991450E+03  0.80514592749E+02  0.40471897065E+03  0.00000000000E+00 0.  1.
          5    1    4    4  502    0 -0.10302077936E+03 -0.69752434760E+01  0.74021521982E+02  0.12713461652E+03  0.47000000000E+01 0. -1.
         -5    1    4    4    0  502 -0.94235553197E+01  0.76875924251E+02  0.37573419924E+02  0.86212313559E+02  0.47000000000E+01 0. -1.
<mgrwt>
<rscale>  0 0.99642210E+03</rscale>
<asrwt>0</asrwt>
<pdfrwt beam="1">  1        1 0.11428605E+00 0.99642210E+03</pdfrwt>
<pdfrwt beam="2">  1       -1 0.51405167E-01 0.99642210E+03</pdfrwt>
<totfact> 0.10836891E+02</totfact>
</mgrwt>
</event>
<event>
 9    1  0.4369420E-036  0.1000837E+04  0.7818608E-02  0.8680241E-01
         -1   -1    0    0    0  501 -0.00000000000E+00  0.00000000000E+00  0.31384222590E+03  0.31384222590E+03  0.00000000000E+00 0.  1.
          1   -1    0    0  501    0  0.00000000000E+00 -0.00000000000E+00 -0.79791307065E+03  0.79791307065E+03  0.00000000000E+00 0.  1.
         36    2    1    2    0    0  0.00000000000E+00 -0.28421709430E-13 -0.48407084474E+03  0.11117552965E+04  0.10008372778E+04 0.  0.
         25    2    3    3    0    0  0.95074895819E+01  0.87748670032E+02  0.30649188077E+02  0.15596926837E+03  0.12488722310E+03 0.  0.
         35    2    3    3    0    0 -0.95074895819E+01 -0.87748670032E+02 -0.51472003282E+03  0.95578602818E+03  0.80049984262E+03 0.  0.
         22    1    5    5    0    0  0.36096127797E+03  0.17650346816E+02 -0.71158649322E+02  0.36833155215E+03  0.00000000000E+00 0. -1.
         22    1    5    5    0    0 -0.37046876755E+03 -0.10539901685E+03 -0.44356138350E+03  0.58745447604E+03  0.00000000000E+00 0. -1.
          5    1    4    4  502    0  0.64260577225E+02  0.62567679774E+02  0.32446940477E+02  0.95493613838E+02  0.47000000000E+01 0. -1.
         -5    1    4    4    0  502 -0.54753087643E+02  0.25180990258E+02 -0.17977524002E+01  0.60475654527E+02  0.47000000000E+01 0. -1.
<mgrwt>
<rscale>  0 0.10008373E+04</rscale>
<asrwt>0</asrwt>
<pdfrwt beam="1">  1        1 0.12275585E+00 0.10008373E+04</pdfrwt>
<pdfrwt beam="2">  1       -1 0.48283421E-01 0.10008373E+04</pdfrwt>
<totfact> 0.10848282E+02</totfact>
</mgrwt>
</event>
<event>
 9    1  0.4369420E-036  0.9995960E+03  0.7818608E-02  0.8681423E-01
         -1   -1    0    0    0  501 -0.00000000000E+00  0.00000000000E+00  0.46446631080E+03  0.46446631080E+03  0.00000000000E+00 0.  1.
          1   -1    0    0  501    0  0.00000000000E+00 -0.00000000000E+00 -0.53781730596E+03  0.53781730596E+03  0.00000000000E+00 0.  1.
         36    2    1    2    0    0  0.00000000000E+00 -0.21316282073E-13 -0.73350995165E+02  0.10022836168E+04  0.99959595835E+03 0.  0.
         25    2    3    3    0    0 -0.17770846564E+02  0.17990977188E+02 -0.15138714271E+03  0.19765548162E+03  0.12453972936E+03 0.  0.
         35    2    3    3    0    0  0.17770846564E+02 -0.17990977188E+02  0.78036147549E+02  0.80462813514E+03  0.80043570466E+03 0.  0.
         22    1    5    5    0    0  0.12445806095E+03  0.33258386978E+03 -0.13598874379E+03  0.38025620022E+03  0.00000000000E+00 0. -1.
         22    1    5    5    0    0 -0.10668721439E+03 -0.35057484697E+03  0.21402489133E+03  0.42437193492E+03  0.00000000000E+00 0. -1.
          5    1    4    4  502    0  0.47896946268E+02  0.20620406106E+02 -0.32196453424E+02  0.61465601948E+02  0.47000000000E+01 0. -1.
         -5    1    4    4    0  502 -0.65667792832E+02 -0.26294289182E+01 -0.11919068929E+03  0.13618987967E+03  0.47000000000E+01 0. -1.
<mgrwt>
<rscale>  0 0.99959596E+03</rscale>
<asrwt>0</asrwt>
<pdfrwt beam="1">  1        1 0.82741125E-01 0.99959596E+03</pdfrwt>
<pdfrwt beam="2">  1       -1 0.71456355E-01 0.99959596E+03</pdfrwt>
<totfact> 0.92955474E+01</totfact>
</mgrwt>
</event>
<event>
 9    1  0.4369420E-036  0.9997309E+03  0.7818608E-02  0.8681294E-01
         -2   -1    0    0    0  501 -0.00000000000E+00  0.00000000000E+00  0.20020687698E+03  0.20020687698E+03  0.00000000000E+00 0. -1.
          2   -1    0    0  501    0  0.00000000000E+00 -0.00000000000E+00 -0.12480362761E+04  0.12480362761E+04  0.00000000000E+00 0. -1.
         36    2    1    2    0    0  0.00000000000E+00 -0.35527136788E-14 -0.10478293991E+04  0.14482431530E+04  0.99973085415E+03 0.  0.
         25    2    3    3    0    0  0.60400528847E+02  0.23231335164E+02 -0.16436594968E+02  0.14142333309E+03  0.12466947770E+03 0.  0.
         35    2    3    3    0    0 -0.60400528847E+02 -0.23231335164E+02 -0.10313928041E+04  0.13068198199E+04  0.79988687113E+03 0.  0.
         22    1    5    5    0    0 -0.10758528419E+03 -0.19284230752E+02 -0.11623953863E+04  0.11675228088E+04  0.00000000000E+00 0. -1.
         22    1    5    5    0    0  0.47184755341E+02 -0.39471044118E+01  0.13100258221E+03  0.13929701115E+03  0.00000000000E+00 0. -1.
          5    1    4    4  502    0 -0.30691139889E+02  0.13650469642E+02 -0.34019457273E+02  0.48038472730E+02  0.47000000000E+01 0.  1.
         -5    1    4    4    0  502  0.91091668735E+02  0.95808655215E+01  0.17582862305E+02  0.93384860357E+02  0.47000000000E+01 0.  1.
<mgrwt>
<rscale>  0 0.99973085E+03</rscale>
<asrwt>0</asrwt>
<pdfrwt beam="1">  1        2 0.19200558E+00 0.99973085E+03</pdfrwt>
<pdfrwt beam="2">  1       -2 0.30801058E-01 0.99973085E+03</pdfrwt>
<totfact> 0.20823248E+02</totfact>
</mgrwt>
</event>
<event>
 9    1  0.4369420E-036  0.1000376E+04  0.7818608E-02  0.8680680E-01
          3   -1    0    0  501    0  0.00000000000E+00  0.00000000000E+00  0.34274581476E+03  0.34274581476E+03  0.00000000000E+00 0.  1.
         -3   -1    0    0    0  501 -0.00000000000E+00 -0.00000000000E+00 -0.72995195928E+03  0.72995195928E+03  0.00000000000E+00 0.  1.
         36    2    1    2    0    0  0.00000000000E+00 -0.14210854715E-13 -0.38720614452E+03  0.10726977740E+04  0.10003758874E+04 0.  0.
         25    2    3    3    0    0 -0.12369795554E+03 -0.48483275212E+02 -0.12157353962E+03  0.21937290327E+03  0.12526984064E+03 0.  0.
         35    2    3    3    0    0  0.12369795554E+03  0.48483275212E+02 -0.26563260490E+03  0.85332487077E+03  0.79996927572E+03 0.  0.
         22    1    5    5    0    0 -0.90612924684E+02  0.29314751875E+03 -0.39767878665E+03  0.50228934612E+03  0.00000000000E+00 0. -1.
         22    1    5    5    0    0  0.21431088023E+03 -0.24466424354E+03  0.13204618175E+03  0.35103552465E+03  0.00000000000E+00 0. -1.
          5    1    4    4  502    0 -0.12562697589E+03 -0.91528450747E+01 -0.12748501536E+03  0.17927752449E+03  0.47000000000E+01 0. -1.
         -5    1    4    4    0  502  0.19290203491E+01 -0.39330430138E+02  0.59114757416E+01  0.40095378783E+02  0.47000000000E+01 0. -1.
<mgrwt>
<rscale>  0 0.10003759E+04</rscale>
<asrwt>0</asrwt>
<pdfrwt beam="1">  1        3 0.52730126E-01 0.10003759E+04</pdfrwt>
<pdfrwt beam="2">  1       -3 0.11230030E+00 0.10003759E+04</pdfrwt>
<totfact> 0.84631622E+00</totfact>
</mgrwt>
</event>
<event>
 9    1  0.4369420E-036  0.9967346E+03  0.7818608E-02  0.8684154E-01
         -2   -1    0    0    0  501 -0.00000000000E+00  0.00000000000E+00  0.52429594488E+03  0.52429594488E+03  0.00000000000E+00 0. -1.
          2   -1    0    0  501    0  0.00000000000E+00 -0.00000000000E+00 -0.47372096485E+03  0.47372096485E+03  0.00000000000E+00 0. -1.
         36    2    1    2    0    0  0.00000000000E+00 -0.14210854715E-13  0.50574980035E+02  0.99801690973E+03  0.99673463043E+03 0.  0.
         25    2    3    3    0    0  0.18971521411E+02 -0.38874205434E+01  0.14559408819E+03  0.19351269319E+03  0.12599402068E+03 0.  0.
         35    2    3    3    0    0 -0.18971521411E+02  0.38874205434E+01 -0.95019108152E+02  0.80450421654E+03  0.79863844940E+03 0.  0.
         22    1    5    5    0    0 -0.36047306393E+03 -0.18753372565E+03 -0.27826460723E+02  0.40728864457E+03  0.00000000000E+00 0.  1.
         22    1    5    5    0    0  0.34150154252E+03  0.19142114620E+03 -0.67192647428E+02  0.39721557198E+03  0.00000000000E+00 0.  1.
          5    1    4    4  502    0 -0.32397404290E+01 -0.57349483532E+02  0.11315128972E+03  0.12698331995E+03  0.47000000000E+01 0.  1.
         -5    1    4    4    0  502  0.22211261840E+02  0.53462062989E+02  0.32442798466E+02  0.66529373241E+02  0.47000000000E+01 0.  1.
<mgrwt>
<rscale>  0 0.99673463E+03</rscale>
<asrwt>0</asrwt>
<pdfrwt beam="1">  1        2 0.72880148E-01 0.99673463E+03</pdfrwt>
<pdfrwt beam="2">  1       -2 0.80660915E-01 0.99673463E+03</pdfrwt>
<totfact> 0.10711997E+02</totfact>
</mgrwt>
</event>
<event>
 9    1  0.4369420E-036  0.9993695E+03  0.7818608E-02  0.8681639E-01
          2   -1    0    0  501    0  0.00000000000E+00  0.00000000000E+00  0.13816457027E+04  0.13816457027E+04  0.00000000000E+00 0. -1.
         -2   -1    0    0    0  501 -0.00000000000E+00 -0.00000000000E+00 -0.18071555020E+03  0.18071555020E+03  0.00000000000E+00 0. -1.
         36    2    1    2    0    0  0.00000000000E+00  0.00000000000E+00  0.12009301525E+04  0.15623612529E+04  0.99936952793E+03 0.  0.
         25    2    3    3    0    0 -0.34338376142E+02 -0.12693003941E+03  0.30467260456E+03  0.35444159122E+03  0.12455154208E+03 0.  0.
         35    2    3    3    0    0  0.34338376142E+02  0.12693003941E+03  0.89625754792E+03  0.12079196617E+04  0.79906317512E+03 0.  0.
         22    1    5    5    0    0 -0.26932965564E+03 -0.71019064511E+02  0.77842937013E+03  0.82676142581E+03  0.00000000000E+00 0. -1.
         22    1    5    5    0    0  0.30366803178E+03  0.19794910392E+03  0.11782817779E+03  0.38115823584E+03  0.00000000000E+00 0. -1.
          5    1    4    4  502    0 -0.98430373692E+01 -0.30886614428E+02 -0.12989278458E+01  0.32781786850E+02  0.47000000000E+01 0.  1.
         -5    1    4    4    0  502 -0.24495338773E+02 -0.96043424983E+02  0.30597153241E+03  0.32165980437E+03  0.47000000000E+01 0.  1.
<mgrwt>
<rscale>  0 0.99936953E+03</rscale>
<asrwt>0</asrwt>
<pdfrwt beam="1">  1        2 0.21256087E+00 0.99936953E+03</pdfrwt>
<pdfrwt beam="2">  1       -2 0.27802393E-01 0.99936953E+03</pdfrwt>
<totfact> 0.20990393E+02</totfact>
</mgrwt>
</event>
<event>
 9    1  0.4369420E-036  0.9992858E+03  0.7818608E-02  0.8681718E-01
          2   -1    0    0  501    0  0.00000000000E+00  0.00000000000E+00  0.14947243581E+04  0.14947243581E+04  0.00000000000E+00 0. -1.
         -2   -1    0    0    0  501 -0.00000000000E+00 -0.00000000000E+00 -0.16701611267E+03  0.16701611267E+03  0.00000000000E+00 0. -1.
         36    2    1    2    0    0  0.28421709430E-13  0.00000000000E+00  0.13277082454E+04  0.16617404708E+04  0.99928584861E+03 0.  0.
         25    2    3    3    0    0 -0.10597284747E+03 -0.20409022600E+02  0.39163478726E+03  0.42487534531E+03  0.12447682458E+03 0.  0.
         35    2    3    3    0    0  0.10597284747E+03  0.20409022600E+02  0.93607345818E+03  0.12368651255E+04  0.80122097257E+03 0.  0.
         22    1    5    5    0    0 -0.27907499431E+03  0.23308084499E+03  0.49234293922E+03  0.61205481990E+03  0.00000000000E+00 0. -1.
         22    1    5    5    0    0  0.38504784178E+03 -0.21267182239E+03  0.44373051896E+03  0.62481030558E+03  0.00000000000E+00 0. -1.
          5    1    4    4  502    0 -0.82881505795E+02  0.43550123791E+02  0.18690643114E+03  0.20909820967E+03  0.47000000000E+01 0.  1.
         -5    1    4    4    0  502 -0.23091341671E+02 -0.63959146391E+02  0.20472835611E+03  0.21577713564E+03  0.47000000000E+01 0.  1.
<mgrwt>
<rscale>  0 0.99928585E+03</rscale>
<asrwt>0</asrwt>
<pdfrwt beam="1">  1        2 0.22995758E+00 0.99928585E+03</pdfrwt>
<pdfrwt beam="2">  1       -2 0.25694788E-01 0.99928585E+03</pdfrwt>
<totfact> 0.20843518E+02</totfact>
</mgrwt>
</event>
<event>
 9    1  0.4369420E-036  0.9999186E+03  0.7818608E-02  0.8681115E-01
         -2   -1    0    0    0  501 -0.00000000000E+00  0.00000000000E+00  0.13220283962E+03  0.13220283962E+03  0.00000000000E+00 0. -1.
          2   -1    0    0  501    0  0.00000000000E+00 -0.00000000000E+00 -0.18907257797E+04  0.18907257797E+04  0.00000000000E+00 0. -1.
         36    2    1    2    0    0 -0.28421709430E-13 -0.21316282073E-13 -0.17585229401E+04  0.20229286193E+04  0.99991863074E+03 0.  0.
         25    2    3    3    0    0 -0.12860635907E+03  0.13400748762E+02 -0.43924706905E+03  0.47468411958E+03  0.12517128287E+03 0.  0.
         35    2    3    3    0    0  0.12860635907E+03 -0.13400748762E+02 -0.13192758710E+04  0.15482444997E+04  0.79990813937E+03 0.  0.
         22    1    5    5    0    0  0.94024189688E+02 -0.39345647735E+03 -0.86516993744E+03  0.95507464026E+03  0.00000000000E+00 0. -1.
         22    1    5    5    0    0  0.34582169384E+02  0.38005572859E+03 -0.45410593358E+03  0.59316985947E+03  0.00000000000E+00 0. -1.
          5    1    4    4  502    0 -0.88078615167E+02  0.52631182574E+02 -0.16273584036E+03  0.19243941271E+03  0.47000000000E+01 0. -1.
         -5    1    4    4    0  502 -0.40527743906E+02 -0.39230433812E+02 -0.27651122869E+03  0.28224470687E+03  0.47000000000E+01 0. -1.
<mgrwt>
<rscale>  0 0.99991863E+03</rscale>
<asrwt>0</asrwt>
<pdfrwt beam="1">  1        2 0.29088086E+00 0.99991863E+03</pdfrwt>
<pdfrwt beam="2">  1       -2 0.20338900E-01 0.99991863E+03</pdfrwt>
<totfact> 0.18783246E+02</totfact>
</mgrwt>
</event>
<event>
 9    1  0.4369420E-036  0.9997961E+03  0.7818608E-02  0.8681232E-01
         -1   -1    0    0    0  501 -0.00000000000E+00  0.00000000000E+00  0.16500139918E+03  0.16500139918E+03  0.00000000000E+00 0. -1.
          1   -1    0    0  501    0  0.00000000000E+00 -0.00000000000E+00 -0.15145209494E+04  0.15145209494E+04  0.00000000000E+00 0. -1.
         36    2    1    2    0    0 -0.71054273576E-14  0.28421709430E-13 -0.13495195502E+04  0.16795223486E+04  0.99979613072E+03 0.  0.
         25    2    3    3    0    0  0.54448682933E+02 -0.10169697657E+03 -0.38380275314E+03  0.41986935902E+03  0.12521497998E+03 0.  0.
         35    2    3    3    0    0 -0.54448682933E+02  0.10169697657E+03 -0.96571679709E+03  0.12596529896E+04  0.80050595741E+03 0.  0.
         22    1    5    5    0    0 -0.13578563040E+03 -0.32211010834E+03 -0.59808985831E+03  0.69275113709E+03  0.00000000000E+00 0. -1.
         22    1    5    5    0    0  0.81336947471E+02  0.42380708491E+03 -0.36762693878E+03  0.56690185249E+03  0.00000000000E+00 0. -1.
          5    1    4    4  502    0 -0.19596811292E+02 -0.74735404374E+01 -0.43684980699E+01  0.21933139193E+02  0.47000000000E+01 0. -1.
         -5    1    4    4    0  502  0.74045494225E+02 -0.94223436130E+02 -0.37943425507E+03  0.39793621983E+03  0.47000000000E+01 0. -1.
<mgrwt>
<rscale>  0 0.99979613E+03</rscale>
<asrwt>0</asrwt>
<pdfrwt beam="1">  1        1 0.23300322E+00 0.99979613E+03</pdfrwt>
<pdfrwt beam="2">  1       -1 0.25384831E-01 0.99979613E+03</pdfrwt>
<totfact> 0.94062627E+01</totfact>
</mgrwt>
</event>
<event>
 9    1  0.4369420E-036  0.1000076E+04  0.7818608E-02  0.8680966E-01
          2   -1    0    0  501    0  0.00000000000E+00  0.00000000000E+00  0.15630901458E+04  0.15630901458E+04  0.00000000000E+00 0. -1.
         -2   -1    0    0    0  501 -0.00000000000E+00 -0.00000000000E+00 -0.15996384263E+03  0.15996384263E+03  0.00000000000E+00 0. -1.
         36    2    1    2    0    0  0.14210854715E-13 -0.24868995752E-13  0.14031263032E+04  0.17230539884E+04  0.10000758093E+04 0.  0.
         25    2    3    3    0    0 -0.88054234025E+02  0.19045324888E+02  0.44910055703E+03  0.47473996586E+03  0.12478161853E+03 0.  0.
         35    2    3    3    0    0  0.88054234025E+02 -0.19045324888E+02  0.95402574612E+03  0.12483140226E+04  0.80000406381E+03 0.  0.
         22    1    5    5    0    0 -0.15191443284E+02 -0.40215544476E+03  0.40530219746E+03  0.57116517135E+03  0.00000000000E+00 0. -1.
         22    1    5    5    0    0  0.10324567731E+03  0.38311011987E+03  0.54872354866E+03  0.67714885121E+03  0.00000000000E+00 0. -1.
          5    1    4    4  502    0  0.30829995098E+02  0.12837831625E+02  0.77847320507E+02  0.84838634057E+02  0.47000000000E+01 0.  1.
         -5    1    4    4    0  502 -0.11888422912E+03  0.62074932627E+01  0.37125323653E+03  0.38990133180E+03  0.47000000000E+01 0.  1.
<mgrwt>
<rscale>  0 0.10000758E+04</rscale>
<asrwt>0</asrwt>
<pdfrwt beam="1">  1        2 0.24047540E+00 0.10000758E+04</pdfrwt>
<pdfrwt beam="2">  1       -2 0.24609823E-01 0.10000758E+04</pdfrwt>
<totfact> 0.20585954E+02</totfact>
</mgrwt>
</event>
<event>
 9    1  0.4369420E-036  0.1000441E+04  0.7818608E-02  0.8680618E-01
          2   -1    0    0  501    0  0.00000000000E+00  0.00000000000E+00  0.80595777186E+03  0.80595777186E+03  0.00000000000E+00 0.  1.
         -2   -1    0    0    0  501 -0.00000000000E+00 -0.00000000000E+00 -0.31046335032E+03  0.31046335032E+03  0.00000000000E+00 0.  1.
         36    2    1    2    0    0  0.00000000000E+00  0.00000000000E+00  0.49549442154E+03  0.11164211222E+04  0.10004406031E+04 0.  0.
         25    2    3    3    0    0  0.90962205062E+02 -0.83406486012E+02  0.16769721248E+03  0.24197236873E+03  0.12327817120E+03 0.  0.
         35    2    3    3    0    0 -0.90962205062E+02  0.83406486012E+02  0.32779720906E+03  0.87444875346E+03  0.80123582515E+03 0.  0.
         22    1    5    5    0    0  0.92727180535E+02 -0.21482079967E+03 -0.15302613490E+03  0.27957700896E+03  0.00000000000E+00 0. -1.
         22    1    5    5    0    0 -0.18368938560E+03  0.29822728568E+03  0.48082334395E+03  0.59487174449E+03  0.00000000000E+00 0. -1.
          5    1    4    4  502    0  0.25603082689E+02  0.25188526442E+02  0.79865907211E+02  0.87696253296E+02  0.47000000000E+01 0.  1.
         -5    1    4    4    0  502  0.65359122373E+02 -0.10859501245E+03  0.87831305270E+02  0.15427611543E+03  0.47000000000E+01 0.  1.
<mgrwt>
<rscale>  0 0.10004406E+04</rscale>
<asrwt>0</asrwt>
<pdfrwt beam="1">  1        2 0.12399350E+00 0.10004406E+04</pdfrwt>
<pdfrwt beam="2">  1       -2 0.47763593E-01 0.10004406E+04</pdfrwt>
<totfact> 0.17145446E+02</totfact>
</mgrwt>
</event>
<event>
 9    1  0.4369420E-036  0.1000810E+04  0.7818608E-02  0.8680267E-01
         -2   -1    0    0    0  501 -0.00000000000E+00  0.00000000000E+00  0.18337327129E+03  0.18337327129E+03  0.00000000000E+00 0.  1.
          2   -1    0    0  501    0  0.00000000000E+00 -0.00000000000E+00 -0.13655494993E+04  0.13655494993E+04  0.00000000000E+00 0.  1.
         36    2    1    2    0    0  0.00000000000E+00  0.28421709430E-13 -0.11821762280E+04  0.15489227706E+04  0.10008102293E+04 0.  0.
         25    2    3    3    0    0  0.42181829038E+02  0.10097029375E+03 -0.35938013738E+03  0.39631799597E+03  0.12625198560E+03 0.  0.
         35    2    3    3    0    0 -0.42181829038E+02 -0.10097029375E+03 -0.82279609063E+03  0.11526047746E+04  0.79970622905E+03 0.  0.
         22    1    5    5    0    0 -0.28661339558E+03  0.24797465986E+03 -0.34579298601E+03  0.51304138199E+03  0.00000000000E+00 0.  1.
         22    1    5    5    0    0  0.24443156654E+03 -0.34894495360E+03 -0.47700310462E+03  0.63956339262E+03  0.00000000000E+00 0.  1.
          5    1    4    4  502    0  0.57475282084E+02  0.59587317856E+01 -0.67669927696E+02  0.89107932585E+02  0.47000000000E+01 0. -1.
         -5    1    4    4    0  502 -0.15293453046E+02  0.95011561960E+02 -0.29171020968E+03  0.30721006338E+03  0.47000000000E+01 0. -1.
<mgrwt>
<rscale>  0 0.10008102E+04</rscale>
<asrwt>0</asrwt>
<pdfrwt beam="1">  1        2 0.21008454E+00 0.10008102E+04</pdfrwt>
<pdfrwt beam="2">  1       -2 0.28211273E-01 0.10008102E+04</pdfrwt>
<totfact> 0.20883438E+02</totfact>
</mgrwt>
</event>
<event>
 9    1  0.4369420E-036  0.1000473E+04  0.7818608E-02  0.8680588E-01
         -1   -1    0    0    0  501 -0.00000000000E+00  0.00000000000E+00  0.11050876941E+04  0.11050876941E+04  0.00000000000E+00 0. -1.
          1   -1    0    0  501    0  0.00000000000E+00 -0.00000000000E+00 -0.22644031698E+03  0.22644031698E+03  0.00000000000E+00 0. -1.
         36    2    1    2    0    0  0.14210854715E-13 -0.14210854715E-13  0.87864737714E+03  0.13315280111E+04  0.10004727038E+04 0.  0.
         25    2    3    3    0    0  0.91128024167E+02 -0.59337405230E+02  0.46920495660E+02  0.17214750298E+03  0.12493192314E+03 0.  0.
         35    2    3    3    0    0 -0.91128024167E+02  0.59337405230E+02  0.83172688148E+03  0.11593805081E+04  0.80035511669E+03 0.  0.
         22    1    5    5    0    0 -0.38674976640E+03  0.22938911033E+03  0.35335754074E+03  0.57188836091E+03  0.00000000000E+00 0.  1.
         22    1    5    5    0    0  0.29562174223E+03 -0.17005170510E+03  0.47836934074E+03  0.58749214722E+03  0.00000000000E+00 0.  1.
          5    1    4    4  502    0  0.51641617758E+01 -0.44724546391E+02  0.68585277134E+02  0.82176540791E+02  0.47000000000E+01 0. -1.
         -5    1    4    4    0  502  0.85963862391E+02 -0.14612858838E+02 -0.21664781474E+02  0.89970962187E+02  0.47000000000E+01 0. -1.
<mgrwt>
<rscale>  0 0.10004727E+04</rscale>
<asrwt>0</asrwt>
<pdfrwt beam="1">  1        1 0.34836973E-01 0.10004727E+04</pdfrwt>
<pdfrwt beam="2">  1       -1 0.17001349E+00 0.10004727E+04</pdfrwt>
<totfact> 0.35237397E+01</totfact>
</mgrwt>
</event>
<event>
 9    1  0.4369420E-036  0.9980868E+03  0.7818608E-02  0.8682862E-01
         -1   -1    0    0    0  501 -0.00000000000E+00  0.00000000000E+00  0.25007894293E+03  0.25007894293E+03  0.00000000000E+00 0. -1.
          1   -1    0    0  501    0  0.00000000000E+00 -0.00000000000E+00 -0.99586284541E+03  0.99586284541E+03  0.00000000000E+00 0. -1.
         36    2    1    2    0    0 -0.71054273576E-14  0.14210854715E-13 -0.74578390248E+03  0.12459417883E+04  0.99808682524E+03 0.  0.
         25    2    3    3    0    0 -0.37142253242E+02  0.55547461482E+02 -0.28919992309E+03  0.32221680213E+03  0.12538741807E+03 0.  0.
         35    2    3    3    0    0  0.37142253242E+02 -0.55547461482E+02 -0.45658397940E+03  0.92372498620E+03  0.80020863057E+03 0.  0.
         22    1    5    5    0    0 -0.53051198898E+02  0.35970653447E+03 -0.12416718493E+03  0.38421440688E+03  0.00000000000E+00 0.  1.
         22    1    5    5    0    0  0.90193452140E+02 -0.41525399595E+03 -0.33241679446E+03  0.53951057932E+03  0.00000000000E+00 0.  1.
          5    1    4    4  502    0  0.30399403885E+02  0.17941730009E+02 -0.20396795701E+03  0.20705324657E+03  0.47000000000E+01 0.  1.
         -5    1    4    4    0  502 -0.67541657126E+02  0.37605731473E+02 -0.85231966080E+02  0.11516355556E+03  0.47000000000E+01 0.  1.
<mgrwt>
<rscale>  0 0.99808683E+03</rscale>
<asrwt>0</asrwt>
<pdfrwt beam="1">  1        1 0.15320967E+00 0.99808683E+03</pdfrwt>
<pdfrwt beam="2">  1       -1 0.38473683E-01 0.99808683E+03</pdfrwt>
<totfact> 0.11162029E+02</totfact>
</mgrwt>
</event>
<event>
 9    1  0.4369420E-036  0.1000975E+04  0.7818608E-02  0.8680110E-01
         -2   -1    0    0    0  501 -0.00000000000E+00  0.00000000000E+00  0.52603072746E+03  0.52603072746E+03  0.00000000000E+00 0.  1.
          2   -1    0    0  501    0  0.00000000000E+00 -0.00000000000E+00 -0.47618423506E+03  0.47618423506E+03  0.00000000000E+00 0.  1.
         36    2    1    2    0    0  0.28421709430E-13  0.71054273576E-14  0.49846492399E+02  0.10022149625E+04  0.10009746042E+04 0.  0.
         25    2    3    3    0    0 -0.98002630704E+02  0.11267495565E+02  0.11174709153E+03  0.19377213221E+03  0.12380934808E+03 0.  0.
         35    2    3    3    0    0  0.98002630704E+02 -0.11267495565E+02 -0.61900599134E+02  0.80844283032E+03  0.80001040846E+03 0.  0.
         22    1    5    5    0    0 -0.11862932054E+03  0.35100736880E+03  0.44388736247E+02  0.37316142425E+03  0.00000000000E+00 0.  1.
         22    1    5    5    0    0  0.21663195124E+03 -0.36227486437E+03 -0.10628933538E+03  0.43528140607E+03  0.00000000000E+00 0.  1.
          5    1    4    4  502    0 -0.95575105317E+02 -0.36898787207E+02  0.46776972445E+02  0.11272220901E+03  0.47000000000E+01 0. -1.
         -5    1    4    4    0  502 -0.24275253875E+01  0.48166282773E+02  0.64970119088E+02  0.81049923195E+02  0.47000000000E+01 0. -1.
<mgrwt>
<rscale>  0 0.10009746E+04</rscale>
<asrwt>0</asrwt>
<pdfrwt beam="1">  1        2 0.73259113E-01 0.10009746E+04</pdfrwt>
<pdfrwt beam="2">  1       -2 0.80927804E-01 0.10009746E+04</pdfrwt>
<totfact> 0.10566183E+02</totfact>
</mgrwt>
</event>
<event>
 9    1  0.4369420E-036  0.1000723E+04  0.7818608E-02  0.8680350E-01
          2   -1    0    0  501    0  0.00000000000E+00  0.00000000000E+00  0.12100931146E+04  0.12100931146E+04  0.00000000000E+00 0. -1.
         -2   -1    0    0    0  501 -0.00000000000E+00 -0.00000000000E+00 -0.20689458291E+03  0.20689458291E+03  0.00000000000E+00 0. -1.
         36    2    1    2    0    0  0.00000000000E+00  0.14210854715E-13  0.10031985317E+04  0.14169876975E+04  0.10007231590E+04 0.  0.
         25    2    3    3    0    0 -0.70379319966E+02 -0.92289991076E+02  0.71195215292E+02  0.18349365865E+03  0.12300598747E+03 0.  0.
         35    2    3    3    0    0  0.70379319966E+02  0.92289991076E+02  0.93200331642E+03  0.12334940389E+04  0.79962908340E+03 0.  0.
         22    1    5    5    0    0 -0.68142250813E+02  0.10474243915E+03  0.10461397999E+04  0.10535762079E+04  0.00000000000E+00 0.  1.
         22    1    5    5    0    0  0.13852157078E+03 -0.12452448076E+02 -0.11413648350E+03  0.17991783097E+03  0.00000000000E+00 0.  1.
          5    1    4    4  502    0 -0.47639096679E+02 -0.10779397093E+03  0.91244706158E+02  0.14911978441E+03  0.47000000000E+01 0.  1.
         -5    1    4    4    0  502 -0.22740223287E+02  0.15503979850E+02 -0.20049490866E+02  0.34373874241E+02  0.47000000000E+01 0.  1.
<mgrwt>
<rscale>  0 0.10007232E+04</rscale>
<asrwt>0</asrwt>
<pdfrwt beam="1">  1        2 0.18616817E+00 0.10007232E+04</pdfrwt>
<pdfrwt beam="2">  1       -2 0.31829937E-01 0.10007232E+04</pdfrwt>
<totfact> 0.20637595E+02</totfact>
</mgrwt>
</event>
<event>
 9    1  0.4369420E-036  0.9995551E+03  0.7818608E-02  0.8681462E-01
          2   -1    0    0  501    0  0.00000000000E+00  0.00000000000E+00  0.32475723398E+04  0.32475723398E+04  0.00000000000E+00 0. -1.
         -2   -1    0    0    0  501 -0.00000000000E+00 -0.00000000000E+00 -0.76912091907E+02  0.76912091907E+02  0.00000000000E+00 0. -1.
         36    2    1    2    0    0 -0.14210854715E-13 -0.56843418861E-13  0.31706602479E+04  0.33244844317E+04  0.99955506556E+03 0.  0.
         25    2    3    3    0    0 -0.17677854888E+02 -0.67631296302E+02  0.99644343155E+03  0.10066428374E+04  0.12467474053E+03 0.  0.
         35    2    3    3    0    0  0.17677854888E+02  0.67631296302E+02  0.21742168163E+04  0.23178415943E+04  0.80017772603E+03 0.  0.
         22    1    5    5    0    0  0.19086192850E+03 -0.31787503979E+03  0.83740009308E+03  0.91581206181E+03  0.00000000000E+00 0. -1.
         22    1    5    5    0    0 -0.17318407361E+03  0.38550633609E+03  0.13368167232E+04  0.14020295325E+04  0.00000000000E+00 0. -1.
          5    1    4    4  502    0 -0.67258716798E+02 -0.25973678537E+02  0.38154620518E+03  0.38832713483E+03  0.47000000000E+01 0. -1.
         -5    1    4    4    0  502  0.49580861910E+02 -0.41657617765E+02  0.61489722638E+03  0.61831570253E+03  0.47000000000E+01 0. -1.
<mgrwt>
<rscale>  0 0.99955507E+03</rscale>
<asrwt>0</asrwt>
<pdfrwt beam="1">  1        2 0.49962641E+00 0.99955507E+03</pdfrwt>
<pdfrwt beam="2">  1       -2 0.11832632E-01 0.99955507E+03</pdfrwt>
<totfact> 0.67058447E+01</totfact>
</mgrwt>
</event>
<event>
 9    1  0.4369420E-036  0.9983520E+03  0.7818608E-02  0.8682609E-01
          2   -1    0    0  501    0  0.00000000000E+00  0.00000000000E+00  0.13280246167E+04  0.13280246167E+04  0.00000000000E+00 0.  1.
         -2   -1    0    0    0  501 -0.00000000000E+00 -0.00000000000E+00 -0.18762955310E+03  0.18762955310E+03  0.00000000000E+00 0.  1.
         36    2    1    2    0    0  0.00000000000E+00  0.00000000000E+00  0.11403950636E+04  0.15156541698E+04  0.99835197270E+03 0.  0.
         25    2    3    3    0    0 -0.10589396569E+03 -0.13779964777E+02  0.88236874931E+02  0.18950997341E+03  0.12932464779E+03 0.  0.
         35    2    3    3    0    0  0.10589396569E+03  0.13779964777E+02  0.10521581887E+04  0.13261441964E+04  0.80013633605E+03 0.  0.
         22    1    5    5    0    0  0.11137965935E+03 -0.36787805149E+03  0.31869330156E+03  0.49930462620E+03  0.00000000000E+00 0. -1.
         22    1    5    5    0    0 -0.54856936582E+01  0.38165801627E+03  0.73346488715E+03  0.82683957023E+03  0.00000000000E+00 0. -1.
          5    1    4    4  502    0  0.27712662920E+02  0.32712018313E+01 -0.22451533772E+00  0.28298990347E+02  0.47000000000E+01 0.  1.
         -5    1    4    4    0  502 -0.13360662861E+03 -0.17051166608E+02  0.88461390268E+02  0.16121098306E+03  0.47000000000E+01 0.  1.
<mgrwt>
<rscale>  0 0.99835197E+03</rscale>
<asrwt>0</asrwt>
<pdfrwt beam="1">  1        2 0.20431147E+00 0.99835197E+03</pdfrwt>
<pdfrwt beam="2">  1       -2 0.28866086E-01 0.99835197E+03</pdfrwt>
<totfact> 0.21055692E+02</totfact>
</mgrwt>
</event>
<event>
 9    1  0.4369420E-036  0.9999863E+03  0.7818608E-02  0.8681051E-01
         -2   -1    0    0    0  501 -0.00000000000E+00  0.00000000000E+00  0.37323352171E+03  0.37323352171E+03  0.00000000000E+00 0. -1.
          2   -1    0    0  501    0  0.00000000000E+00 -0.00000000000E+00 -0.66980355360E+03  0.66980355360E+03  0.00000000000E+00 0. -1.
         36    2    1    2    0    0 -0.14210854715E-13  0.71054273576E-14 -0.29657003189E+03  0.10430370753E+04  0.99998627823E+03 0.  0.
         25    2    3    3    0    0 -0.95092997565E+02 -0.45138752171E+02 -0.15233988519E+03  0.22324790558E+03  0.12470766453E+03 0.  0.
         35    2    3    3    0    0  0.95092997565E+02  0.45138752171E+02 -0.14423014670E+03  0.81978916972E+03  0.80010734432E+03 0.  0.
         22    1    5    5    0    0 -0.10146786858E+02 -0.23699995548E+03  0.23609708143E+03  0.33468457993E+03  0.00000000000E+00 0. -1.
         22    1    5    5    0    0  0.10523978442E+03  0.28213870765E+03 -0.38032722813E+03  0.48510458979E+03  0.00000000000E+00 0. -1.
          5    1    4    4  502    0 -0.56146210953E+02 -0.35291372345E+02 -0.88853547954E+00  0.66488776961E+02  0.47000000000E+01 0.  1.
         -5    1    4    4    0  502 -0.38946786612E+02 -0.98473798254E+01 -0.15145134971E+03  0.15675912862E+03  0.47000000000E+01 0.  1.
<mgrwt>
<rscale>  0 0.99998628E+03</rscale>
<asrwt>0</asrwt>
<pdfrwt beam="1">  1        2 0.10304670E+00 0.99998628E+03</pdfrwt>
<pdfrwt beam="2">  1       -2 0.57420543E-01 0.99998628E+03</pdfrwt>
<totfact> 0.14891264E+02</totfact>
</mgrwt>
</event>
<event>
 9    1  0.4369420E-036  0.9997405E+03  0.7818608E-02  0.8681285E-01
          2   -1    0    0  501    0  0.00000000000E+00  0.00000000000E+00  0.14786657302E+04  0.14786657302E+04  0.00000000000E+00 0. -1.
         -2   -1    0    0    0  501 -0.00000000000E+00 -0.00000000000E+00 -0.16898361549E+03  0.16898361549E+03  0.00000000000E+00 0. -1.
         36    2    1    2    0    0 -0.71054273576E-14 -0.14210854715E-13  0.13096821147E+04  0.16476493457E+04  0.99974052873E+03 0.  0.
         25    2    3    3    0    0  0.51911469598E+02 -0.82876850063E+02  0.40687173153E+03  0.43673835181E+03  0.12502963277E+03 0.  0.
         35    2    3    3    0    0 -0.51911469598E+02  0.82876850063E+02  0.90281038321E+03  0.12109109939E+04  0.80104648690E+03 0.  0.
         22    1    5    5    0    0 -0.51080567770E+02 -0.12565920851E+03 -0.11137341676E+03  0.17550925630E+03  0.00000000000E+00 0. -1.
         22    1    5    5    0    0 -0.83090182849E+00  0.20853605857E+03  0.10141838000E+04  0.10354017376E+04  0.00000000000E+00 0. -1.
          5    1    4    4  502    0 -0.25613751414E+02 -0.73902737591E+02  0.16749832398E+03  0.18492013796E+03  0.47000000000E+01 0.  1.
         -5    1    4    4    0  502  0.77525221012E+02 -0.89741124722E+01  0.23937340755E+03  0.25181821386E+03  0.47000000000E+01 0.  1.
<mgrwt>
<rscale>  0 0.99974053E+03</rscale>
<asrwt>0</asrwt>
<pdfrwt beam="1">  1        2 0.22748703E+00 0.99974053E+03</pdfrwt>
<pdfrwt beam="2">  1       -2 0.25997480E-01 0.99974053E+03</pdfrwt>
<totfact> 0.20844901E+02</totfact>
</mgrwt>
</event>
<event>
 9    1  0.4369420E-036  0.9955474E+03  0.7818608E-02  0.8685290E-01
         -1   -1    0    0    0  501 -0.00000000000E+00  0.00000000000E+00  0.66489063931E+03  0.66489063931E+03  0.00000000000E+00 0.  1.
          1   -1    0    0  501    0  0.00000000000E+00 -0.00000000000E+00 -0.37266078271E+03  0.37266078271E+03  0.00000000000E+00 0.  1.
         36    2    1    2    0    0  0.71054273576E-14  0.00000000000E+00  0.29222985660E+03  0.10375514220E+04  0.99554741938E+03 0.  0.
         25    2    3    3    0    0 -0.16133463063E+02 -0.12255207321E+03 -0.16526610386E+02  0.17261756515E+03  0.11934988759E+03 0.  0.
         35    2    3    3    0    0  0.16133463063E+02  0.12255207321E+03  0.30875646699E+03  0.86493385687E+03  0.79843642300E+03 0.  0.
         22    1    5    5    0    0 -0.22565053872E+03 -0.16307061030E+03 -0.11355677244E+03  0.30067479132E+03  0.00000000000E+00 0. -1.
         22    1    5    5    0    0  0.24178400178E+03  0.28562268351E+03  0.42231323943E+03  0.56425906555E+03  0.00000000000E+00 0. -1.
          5    1    4    4  502    0  0.42792914836E+02 -0.63535816262E+02  0.23122542737E+02  0.80154697248E+02  0.47000000000E+01 0. -1.
         -5    1    4    4    0  502 -0.58926377899E+02 -0.59016256947E+02 -0.39649153123E+02  0.92462867897E+02  0.47000000000E+01 0. -1.
<mgrwt>
<rscale>  0 0.99554742E+03</rscale>
<asrwt>0</asrwt>
<pdfrwt beam="1">  1        1 0.57332428E-01 0.99554742E+03</pdfrwt>
<pdfrwt beam="2">  1       -1 0.10229087E+00 0.99554742E+03</pdfrwt>
<totfact> 0.71566726E+01</totfact>
</mgrwt>
</event>
<event>
 9    1  0.4369420E-036  0.9998384E+03  0.7818608E-02  0.8681192E-01
          2   -1    0    0  501    0  0.00000000000E+00  0.00000000000E+00  0.26232324255E+04  0.26232324255E+04  0.00000000000E+00 0. -1.
         -2   -1    0    0    0  501 -0.00000000000E+00 -0.00000000000E+00 -0.95271478398E+02  0.95271478398E+02  0.00000000000E+00 0. -1.
         36    2    1    2    0    0  0.14210854715E-13  0.21316282073E-13  0.25279609471E+04  0.27185039039E+04  0.99983844967E+03 0.  0.
         25    2    3    3    0    0 -0.11602525017E+03  0.18781402609E+02  0.29137364028E+03  0.33894621417E+03  0.12716657613E+03 0.  0.
         35    2    3    3    0    0  0.11602525017E+03 -0.18781402609E+02  0.22365873068E+04  0.23795576897E+04  0.80383917420E+03 0.  0.
         22    1    5    5    0    0  0.10202665642E+03  0.25450547302E+03  0.24026539415E+03  0.36456814732E+03  0.00000000000E+00 0.  1.
         22    1    5    5    0    0  0.13998593752E+02 -0.27328687563E+03  0.19963219127E+04  0.20149895424E+04  0.00000000000E+00 0.  1.
          5    1    4    4  502    0 -0.74155829455E+02  0.71024858974E+02  0.14311166472E+03  0.17620061354E+03  0.47000000000E+01 0. -1.
         -5    1    4    4    0  502 -0.41869420717E+02 -0.52243456365E+02  0.14826197556E+03  0.16274560062E+03  0.47000000000E+01 0. -1.
<mgrwt>
<rscale>  0 0.99983845E+03</rscale>
<asrwt>0</asrwt>
<pdfrwt beam="1">  1        2 0.40357416E+00 0.99983845E+03</pdfrwt>
<pdfrwt beam="2">  1       -2 0.14657153E-01 0.99983845E+03</pdfrwt>
<totfact> 0.12157637E+02</totfact>
</mgrwt>
</event>
<event>
 9    1  0.4369420E-036  0.1002891E+04  0.7818608E-02  0.8678290E-01
         -2   -1    0    0    0  501 -0.00000000000E+00  0.00000000000E+00  0.19628688583E+03  0.19628688583E+03  0.00000000000E+00 0.  1.
          2   -1    0    0  501    0  0.00000000000E+00 -0.00000000000E+00 -0.12810211894E+04  0.12810211894E+04  0.00000000000E+00 0.  1.
         36    2    1    2    0    0  0.14210854715E-13 -0.49737991503E-13 -0.10847343036E+04  0.14773080753E+04  0.10028911406E+04 0.  0.
         25    2    3    3    0    0 -0.63912047037E+02  0.43914492624E+02 -0.29500638008E+02  0.15112233828E+03  0.12631089052E+03 0.  0.
         35    2    3    3    0    0  0.63912047037E+02 -0.43914492624E+02 -0.10552336656E+04  0.13261857370E+04  0.79952316263E+03 0.  0.
         22    1    5    5    0    0  0.13399614857E+03  0.27168069778E+03 -0.93236324936E+03  0.98034004210E+03  0.00000000000E+00 0.  1.
         22    1    5    5    0    0 -0.70084101535E+02 -0.31559519040E+03 -0.12287041624E+03  0.34584569490E+03  0.00000000000E+00 0.  1.
          5    1    4    4  502    0 -0.92134403477E+02  0.23577105267E+02  0.12886289255E+02  0.96087328236E+02  0.47000000000E+01 0. -1.
         -5    1    4    4    0  502  0.28222356440E+02  0.20337387356E+02 -0.42386927263E+02  0.55035010041E+02  0.47000000000E+01 0. -1.
<mgrwt>
<rscale>  0 0.10028911E+04</rscale>
<asrwt>0</asrwt>
<pdfrwt beam="1">  1        2 0.19708018E+00 0.10028911E+04</pdfrwt>
<pdfrwt beam="2">  1       -2 0.30197983E-01 0.10028911E+04</pdfrwt>
<totfact> 0.20653460E+02</totfact>
</mgrwt>
</event>
<event>
 9    1  0.4369420E-036  0.1000155E+04  0.7818608E-02  0.8680890E-01
          1   -1    0    0  501    0  0.00000000000E+00  0.00000000000E+00  0.10157207544E+04  0.10157207544E+04  0.00000000000E+00 0. -1.
         -1   -1    0    0    0  501 -0.00000000000E+00 -0.00000000000E+00 -0.24620692777E+03  0.24620692777E+03  0.00000000000E+00 0. -1.
         36    2    1    2    0    0  0.28421709430E-13  0.00000000000E+00  0.76951382662E+03  0.12619276822E+04  0.10001549608E+04 0.  0.
         25    2    3    3    0    0  0.66921309008E+02  0.11524114635E+03  0.93881790285E+02  0.20663795775E+03  0.12699004538E+03 0.  0.
         35    2    3    3    0    0 -0.66921309008E+02 -0.11524114635E+03  0.67563203633E+03  0.10552897244E+04  0.79962414327E+03 0.  0.
         22    1    5    5    0    0 -0.35982908057E+03 -0.21969881952E+03  0.60329790975E+03  0.73601148526E+03  0.00000000000E+00 0. -1.
         22    1    5    5    0    0  0.29290777156E+03  0.10445767317E+03  0.72334126585E+02  0.31927823915E+03  0.00000000000E+00 0. -1.
          5    1    4    4  502    0  0.60270729586E+01 -0.17631590179E+02  0.50605801769E+02  0.54131652047E+02  0.47000000000E+01 0. -1.
         -5    1    4    4    0  502  0.60894236049E+02  0.13287273653E+03  0.43275988517E+02  0.15250630570E+03  0.47000000000E+01 0. -1.
<mgrwt>
<rscale>  0 0.10001550E+04</rscale>
<asrwt>0</asrwt>
<pdfrwt beam="1">  1        1 0.15626473E+00 0.10001550E+04</pdfrwt>
<pdfrwt beam="2">  1       -1 0.37877989E-01 0.10001550E+04</pdfrwt>
<totfact> 0.11063891E+02</totfact>
</mgrwt>
</event>
<event>
 9    1  0.4369420E-036  0.9997761E+03  0.7818608E-02  0.8681251E-01
         -2   -1    0    0    0  501 -0.00000000000E+00  0.00000000000E+00  0.20045935888E+03  0.20045935888E+03  0.00000000000E+00 0.  1.
          2   -1    0    0  501    0  0.00000000000E+00 -0.00000000000E+00 -0.12465772665E+04  0.12465772665E+04  0.00000000000E+00 0.  1.
         36    2    1    2    0    0  0.14210854715E-13  0.00000000000E+00 -0.10461179076E+04  0.14470366253E+04  0.99977613419E+03 0.  0.
         25    2    3    3    0    0  0.50483225152E+02  0.92831191088E+02 -0.33336151534E+03  0.37143355622E+03  0.12516709118E+03 0.  0.
         35    2    3    3    0    0 -0.50483225152E+02 -0.92831191088E+02 -0.71275639226E+03  0.10756030691E+04  0.79858255776E+03 0.  0.
         22    1    5    5    0    0 -0.40028820207E+03 -0.51156346418E+02 -0.19201743653E+03  0.44689854825E+03  0.00000000000E+00 0.  1.
         22    1    5    5    0    0  0.34980497692E+03 -0.41674844669E+02 -0.52073895573E+03  0.62870452088E+03  0.00000000000E+00 0.  1.
          5    1    4    4  502    0 -0.18332163395E+02  0.29147270106E+02 -0.12198792825E+02  0.36831129710E+02  0.47000000000E+01 0.  1.
         -5    1    4    4    0  502  0.68815388547E+02  0.63683920982E+02 -0.32116272251E+03  0.33460242651E+03  0.47000000000E+01 0.  1.
<mgrwt>
<rscale>  0 0.99977613E+03</rscale>
<asrwt>0</asrwt>
<pdfrwt beam="1">  1        2 0.19178111E+00 0.99977613E+03</pdfrwt>
<pdfrwt beam="2">  1       -2 0.30839902E-01 0.99977613E+03</pdfrwt>
<totfact> 0.20816134E+02</totfact>
</mgrwt>
</event>
<event>
 9    1  0.4369420E-036  0.1001690E+04  0.7818608E-02  0.8679430E-01
         -1   -1    0    0    0  501 -0.00000000000E+00  0.00000000000E+00  0.63613590523E+03  0.63613590523E+03  0.00000000000E+00 0. -1.
          1   -1    0    0  501    0  0.00000000000E+00 -0.00000000000E+00 -0.39432727846E+03  0.39432727846E+03  0.00000000000E+00 0. -1.
         36    2    1    2    0    0 -0.14210854715E-13  0.00000000000E+00  0.24180862677E+03  0.10304631837E+04  0.10016900523E+04 0.  0.
         25    2    3    3    0    0  0.11278547646E+03  0.84985361488E+02  0.50976051781E+02  0.19574383164E+03  0.12559464320E+03 0.  0.
         35    2    3    3    0    0 -0.11278547646E+03 -0.84985361488E+02  0.19083257499E+03  0.83471935205E+03  0.80024761770E+03 0.  0.
         22    1    5    5    0    0  0.22302738682E+03 -0.21994956563E+03  0.32250948451E+03  0.44959025156E+03  0.00000000000E+00 0.  1.
         22    1    5    5    0    0 -0.33581286328E+03  0.13496420415E+03 -0.13167690952E+03  0.38512910049E+03  0.00000000000E+00 0.  1.
          5    1    4    4  502    0 -0.13956793665E+02 -0.19199318284E+02  0.11962476438E+01  0.24226574673E+02  0.47000000000E+01 0. -1.
         -5    1    4    4    0  502  0.12674227013E+03  0.10418467977E+03  0.49779804137E+02  0.17151725696E+03  0.47000000000E+01 0. -1.
<mgrwt>
<rscale>  0 0.10016901E+04</rscale>
<asrwt>0</asrwt>
<pdfrwt beam="1">  1        1 0.60665735E-01 0.10016901E+04</pdfrwt>
<pdfrwt beam="2">  1       -1 0.97867062E-01 0.10016901E+04</pdfrwt>
<totfact> 0.73249242E+01</totfact>
</mgrwt>
</event>
<event>
 9    1  0.4369420E-036  0.9989334E+03  0.7818608E-02  0.8682054E-01
         -2   -1    0    0    0  501 -0.00000000000E+00  0.00000000000E+00  0.24616175474E+03  0.24616175474E+03  0.00000000000E+00 0. -1.
          2   -1    0    0  501    0  0.00000000000E+00 -0.00000000000E+00 -0.10134270001E+04  0.10134270001E+04  0.00000000000E+00 0. -1.
         36    2    1    2    0    0 -0.28421709430E-13  0.00000000000E+00 -0.76726524538E+03  0.12595887549E+04  0.99893336845E+03 0.  0.
         25    2    3    3    0    0 -0.69134392402E+02  0.83315611392E+02 -0.26217518144E+03  0.30718819961E+03  0.11793094972E+03 0.  0.
         35    2    3    3    0    0  0.69134392402E+02 -0.83315611392E+02 -0.50509006394E+03  0.95240055525E+03  0.80014360563E+03 0.  0.
         22    1    5    5    0    0  0.38948053758E+03 -0.16027053548E+03 -0.45353558948E+03  0.61893155084E+03  0.00000000000E+00 0. -1.
         22    1    5    5    0    0 -0.32034614517E+03  0.76954924088E+02 -0.51554474464E+02  0.33346900442E+03  0.00000000000E+00 0. -1.
          5    1    4    4  502    0 -0.95814348770E+02  0.85382622082E+02 -0.23966838152E+03  0.27190734577E+03  0.47000000000E+01 0. -1.
         -5    1    4    4    0  502  0.26679956367E+02 -0.20670106900E+01 -0.22506799920E+02  0.35280853839E+02  0.47000000000E+01 0. -1.
<mgrwt>
<rscale>  0 0.99893337E+03</rscale>
<asrwt>0</asrwt>
<pdfrwt beam="1">  1        2 0.15591184E+00 0.99893337E+03</pdfrwt>
<pdfrwt beam="2">  1       -2 0.37871040E-01 0.99893337E+03</pdfrwt>
<totfact> 0.19634651E+02</totfact>
</mgrwt>
</event>
<event>
 9    1  0.4369420E-036  0.9997868E+03  0.7818608E-02  0.8681241E-01
         -1   -1    0    0    0  501 -0.00000000000E+00  0.00000000000E+00  0.13939499761E+03  0.13939499761E+03  0.00000000000E+00 0. -1.
          1   -1    0    0  501    0  0.00000000000E+00 -0.00000000000E+00 -0.17927000489E+04  0.17927000489E+04  0.00000000000E+00 0. -1.
         36    2    1    2    0    0 -0.56843418861E-13 -0.14210854715E-13 -0.16533050513E+04  0.19320950466E+04  0.99978681534E+03 0.  0.
         25    2    3    3    0    0  0.85756434248E+02  0.67301322409E+02 -0.14253716617E+03  0.21857723201E+03  0.12480195751E+03 0.  0.
         35    2    3    3    0    0 -0.85756434248E+02 -0.67301322409E+02 -0.15107678852E+04  0.17135178145E+04  0.80114921450E+03 0.  0.
         22    1    5    5    0    0 -0.41691979480E+03  0.11189369642E+03 -0.83096268909E+03  0.93639804851E+03  0.00000000000E+00 0. -1.
         22    1    5    5    0    0  0.33116336055E+03 -0.17919501883E+03 -0.67980519608E+03  0.77711976604E+03  0.00000000000E+00 0. -1.
          5    1    4    4  502    0  0.91833781130E+02  0.23722942082E+02 -0.14602623666E+03  0.17418947480E+03  0.47000000000E+01 0. -1.
         -5    1    4    4    0  502 -0.60773468820E+01  0.43578380327E+02  0.34890704898E+01  0.44387757208E+02  0.47000000000E+01 0. -1.
<mgrwt>
<rscale>  0 0.99978682E+03</rscale>
<asrwt>0</asrwt>
<pdfrwt beam="1">  1        1 0.27580001E+00 0.99978682E+03</pdfrwt>
<pdfrwt beam="2">  1       -1 0.21445384E-01 0.99978682E+03</pdfrwt>
<totfact> 0.79303936E+01</totfact>
</mgrwt>
</event>
<event>
 9    1  0.4369420E-036  0.1000006E+04  0.7818608E-02  0.8681033E-01
          2   -1    0    0  501    0  0.00000000000E+00  0.00000000000E+00  0.54878287563E+03  0.54878287563E+03  0.00000000000E+00 0.  1.
         -2   -1    0    0    0  501 -0.00000000000E+00 -0.00000000000E+00 -0.45555864451E+03  0.45555864451E+03  0.00000000000E+00 0.  1.
         36    2    1    2    0    0  0.00000000000E+00  0.14210854715E-13  0.93224231125E+02  0.10043415201E+04  0.10000055659E+04 0.  0.
         25    2    3    3    0    0 -0.19065000638E+02 -0.11554054606E+03 -0.59786810486E+02  0.18104810211E+03  0.12446228560E+03 0.  0.
         35    2    3    3    0    0  0.19065000638E+02  0.11554054606E+03  0.15301104161E+03  0.82329341803E+03  0.80042899828E+03 0.  0.
         22    1    5    5    0    0  0.12566997048E+03  0.26791700550E+03 -0.24486795006E+03  0.38409995611E+03  0.00000000000E+00 0. -1.
         22    1    5    5    0    0 -0.10660496984E+03 -0.15237645944E+03  0.39787899167E+03  0.43919346193E+03  0.00000000000E+00 0. -1.
          5    1    4    4  502    0 -0.13501673880E+01 -0.23307608159E+01  0.33054320823E+02  0.33495276130E+02  0.47000000000E+01 0.  1.
         -5    1    4    4    0  502 -0.17714833250E+02 -0.11320978524E+03 -0.92841131308E+02  0.14755282598E+03  0.47000000000E+01 0.  1.
<mgrwt>
<rscale>  0 0.10000056E+04</rscale>
<asrwt>0</asrwt>
<pdfrwt beam="1">  1        2 0.84428135E-01 0.10000056E+04</pdfrwt>
<pdfrwt beam="2">  1       -2 0.70085945E-01 0.10000056E+04</pdfrwt>
<totfact> 0.12376816E+02</totfact>
</mgrwt>
</event>
<event>
 9    1  0.4369420E-036  0.1000202E+04  0.7818608E-02  0.8680846E-01
          1   -1    0    0  501    0  0.00000000000E+00  0.00000000000E+00  0.11049557488E+04  0.11049557488E+04  0.00000000000E+00 0. -1.
         -1   -1    0    0    0  501 -0.00000000000E+00 -0.00000000000E+00 -0.22634461610E+03  0.22634461610E+03  0.00000000000E+00 0. -1.
         36    2    1    2    0    0  0.00000000000E+00  0.00000000000E+00  0.87861113270E+03  0.13313003649E+04  0.10002015492E+04 0.  0.
         25    2    3    3    0    0  0.85364358652E+02 -0.63385626922E+02  0.29633084901E+03  0.33858525002E+03  0.12459208654E+03 0.  0.
         35    2    3    3    0    0 -0.85364358652E+02  0.63385626922E+02  0.58228028369E+03  0.99271511488E+03  0.79694928264E+03 0.  0.
         22    1    5    5    0    0 -0.43548369906E+03  0.12261908179E+02  0.41365927295E+03  0.60075818815E+03  0.00000000000E+00 0. -1.
         22    1    5    5    0    0  0.35011934041E+03  0.51123718743E+02  0.16862101074E+03  0.39195692672E+03  0.00000000000E+00 0. -1.
          5    1    4    4  502    0 -0.17011134581E+02 -0.47144784409E+02  0.15692850391E+03  0.16480489900E+03  0.47000000000E+01 0.  1.
         -5    1    4    4    0  502  0.10237549323E+03 -0.16240842513E+02  0.13940234510E+03  0.17378035102E+03  0.47000000000E+01 0.  1.
<mgrwt>
<rscale>  0 0.10002015E+04</rscale>
<asrwt>0</asrwt>
<pdfrwt beam="1">  1        1 0.16999319E+00 0.10002015E+04</pdfrwt>
<pdfrwt beam="2">  1       -1 0.34822249E-01 0.10002015E+04</pdfrwt>
<totfact> 0.10929137E+02</totfact>
</mgrwt>
</event>
<event>
 9    1  0.4369420E-036  0.1000429E+04  0.7818608E-02  0.8680629E-01
          2   -1    0    0  501    0  0.00000000000E+00  0.00000000000E+00  0.12652358807E+04  0.12652358807E+04  0.00000000000E+00 0. -1.
         -2   -1    0    0    0  501 -0.00000000000E+00 -0.00000000000E+00 -0.19776122657E+03  0.19776122657E+03  0.00000000000E+00 0. -1.
         36    2    1    2    0    0  0.00000000000E+00  0.00000000000E+00  0.10674746541E+04  0.14629971073E+04  0.10004291073E+04 0.  0.
         25    2    3    3    0    0 -0.11660970327E+03 -0.56154316817E+02  0.12172020282E+03  0.21733518552E+03  0.12517046336E+03 0.  0.
         35    2    3    3    0    0  0.11660970327E+03  0.56154316817E+02  0.94575445133E+03  0.12456619218E+04  0.80029432770E+03 0.  0.
         22    1    5    5    0    0  0.36810155880E+02 -0.13690533502E+03  0.10155587464E+04  0.10254060784E+04  0.00000000000E+00 0.  1.
         22    1    5    5    0    0  0.79799547385E+02  0.19305965183E+03 -0.69804295033E+02  0.22025584336E+03  0.00000000000E+00 0.  1.
          5    1    4    4  502    0 -0.78723939820E+02 -0.84721726780E+02  0.39521457948E+02  0.12230807548E+03  0.47000000000E+01 0.  1.
         -5    1    4    4    0  502 -0.37885763446E+02  0.28567409963E+02  0.82198744870E+02  0.95027110038E+02  0.47000000000E+01 0.  1.
<mgrwt>
<rscale>  0 0.10004291E+04</rscale>
<asrwt>0</asrwt>
<pdfrwt beam="1">  1        2 0.19465167E+00 0.10004291E+04</pdfrwt>
<pdfrwt beam="2">  1       -2 0.30424805E-01 0.10004291E+04</pdfrwt>
<totfact> 0.20809442E+02</totfact>
</mgrwt>
</event>
<event>
 9    1  0.4369420E-036  0.1000797E+04  0.7818608E-02  0.8680280E-01
         -2   -1    0    0    0  501 -0.00000000000E+00  0.00000000000E+00  0.14808806581E+03  0.14808806581E+03  0.00000000000E+00 0. -1.
          2   -1    0    0  501    0  0.00000000000E+00 -0.00000000000E+00 -0.16908759718E+04  0.16908759718E+04  0.00000000000E+00 0. -1.
         36    2    1    2    0    0  0.14210854715E-13  0.14210854715E-13 -0.15427879060E+04  0.18389640376E+04  0.10007967869E+04 0.  0.
         25    2    3    3    0    0  0.81173222164E+02 -0.31123689956E+02 -0.49997142270E+03  0.52154098071E+03  0.12031539787E+03 0.  0.
         35    2    3    3    0    0 -0.81173222164E+02  0.31123689956E+02 -0.10428164833E+04  0.13174230569E+04  0.80036211614E+03 0.  0.
         22    1    5    5    0    0 -0.25054843019E+03  0.34284126521E+03 -0.72961930293E+03  0.84419131493E+03  0.00000000000E+00 0. -1.
         22    1    5    5    0    0  0.16937520803E+03 -0.31171757525E+03 -0.31319718034E+03  0.47323174195E+03  0.00000000000E+00 0. -1.
          5    1    4    4  502    0  0.87027300280E+02 -0.12463111510E+02 -0.49214501428E+03  0.49995788345E+03  0.47000000000E+01 0.  1.
         -5    1    4    4    0  502 -0.58540781154E+01 -0.18660578446E+02 -0.78264084253E+01  0.21583097261E+02  0.47000000000E+01 0.  1.
<mgrwt>
<rscale>  0 0.10007968E+04</rscale>
<asrwt>0</asrwt>
<pdfrwt beam="1">  1        2 0.26013478E+00 0.10007968E+04</pdfrwt>
<pdfrwt beam="2">  1       -2 0.22782778E-01 0.10007968E+04</pdfrwt>
<totfact> 0.19979643E+02</totfact>
</mgrwt>
</event>
<event>
 9    1  0.4369420E-036  0.9965184E+03  0.7818608E-02  0.8684361E-01
          2   -1    0    0  501    0  0.00000000000E+00  0.00000000000E+00  0.55088424507E+03  0.55088424507E+03  0.00000000000E+00 0. -1.
         -2   -1    0    0    0  501 -0.00000000000E+00 -0.00000000000E+00 -0.45066130463E+03  0.45066130463E+03  0.00000000000E+00 0. -1.
         36    2    1    2    0    0  0.00000000000E+00  0.17763568394E-14  0.10022294044E+03  0.10015455497E+04  0.99651836427E+03 0.  0.
         25    2    3    3    0    0 -0.56014917046E+02 -0.23194095367E+01 -0.10623587287E+03  0.17365113833E+03  0.12540178056E+03 0.  0.
         35    2    3    3    0    0  0.56014917046E+02  0.23194095367E+01  0.20645881331E+03  0.82789441136E+03  0.79977550861E+03 0.  0.
         22    1    5    5    0    0 -0.30828506899E+03 -0.13412229836E+02  0.32141467204E+03  0.44556364649E+03  0.00000000000E+00 0.  1.
         22    1    5    5    0    0  0.36429998604E+03  0.15731639373E+02 -0.11495585873E+03  0.38233076487E+03  0.00000000000E+00 0.  1.
          5    1    4    4  502    0  0.28615429717E+02  0.14472309770E+02 -0.75116873113E+02  0.81810300050E+02  0.47000000000E+01 0. -1.
         -5    1    4    4    0  502 -0.84630346763E+02 -0.16791719307E+02 -0.31118999758E+02  0.91840838282E+02  0.47000000000E+01 0. -1.
<mgrwt>
<rscale>  0 0.99651836E+03</rscale>
<asrwt>0</asrwt>
<pdfrwt beam="1">  1        2 0.84751422E-01 0.99651836E+03</pdfrwt>
<pdfrwt beam="2">  1       -2 0.69332509E-01 0.99651836E+03</pdfrwt>
<totfact> 0.12615692E+02</totfact>
</mgrwt>
</event>
<event>
 9    1  0.4369420E-036  0.1006628E+04  0.7818608E-02  0.8674752E-01
          2   -1    0    0  501    0  0.00000000000E+00  0.00000000000E+00  0.32373553988E+03  0.32373553988E+03  0.00000000000E+00 0.  1.
         -2   -1    0    0    0  501 -0.00000000000E+00 -0.00000000000E+00 -0.78250558055E+03  0.78250558055E+03  0.00000000000E+00 0.  1.
         36    2    1    2    0    0 -0.14210854715E-13 -0.49737991503E-13 -0.45877004068E+03  0.11062411204E+04  0.10066277695E+04 0.  0.
         25    2    3    3    0    0 -0.83953427442E+02  0.58917877834E+02 -0.20334211802E+03  0.25984558291E+03  0.12510881539E+03 0.  0.
         35    2    3    3    0    0  0.83953427442E+02 -0.58917877834E+02 -0.25542792265E+03  0.84639553752E+03  0.80038896041E+03 0.  0.
         22    1    5    5    0    0  0.18453622078E+03 -0.40524463976E+03 -0.16218315491E+03  0.47389894552E+03  0.00000000000E+00 0.  1.
         22    1    5    5    0    0 -0.10058279333E+03  0.34632676192E+03 -0.93244767738E+02  0.37249659200E+03  0.00000000000E+00 0.  1.
          5    1    4    4  502    0 -0.17803278437E+02  0.60228908831E+02 -0.17804410077E+03  0.18885515614E+03  0.47000000000E+01 0. -1.
         -5    1    4    4    0  502 -0.66150149005E+02 -0.13110309970E+01 -0.25298017252E+02  0.70990426767E+02  0.47000000000E+01 0. -1.
<mgrwt>
<rscale>  0 0.10066278E+04</rscale>
<asrwt>0</asrwt>
<pdfrwt beam="1">  1        2 0.49805468E-01 0.10066278E+04</pdfrwt>
<pdfrwt beam="2">  1       -2 0.12038547E+00 0.10066278E+04</pdfrwt>
<totfact> 0.61888585E+01</totfact>
</mgrwt>
</event>
<event>
 9    1  0.4369420E-036  0.1000046E+04  0.7818608E-02  0.8680994E-01
          2   -1    0    0  501    0  0.00000000000E+00  0.00000000000E+00  0.92640227864E+03  0.92640227864E+03  0.00000000000E+00 0.  1.
         -2   -1    0    0    0  501 -0.00000000000E+00 -0.00000000000E+00 -0.26988588409E+03  0.26988588409E+03  0.00000000000E+00 0.  1.
         36    2    1    2    0    0  0.14210854715E-13  0.71054273576E-14  0.65651639455E+03  0.11962881627E+04  0.10000457949E+04 0.  0.
         25    2    3    3    0    0  0.12468807144E+03 -0.51820075123E+02  0.16826211349E+03  0.24984574079E+03  0.12600920606E+03 0.  0.
         35    2    3    3    0    0 -0.12468807144E+03  0.51820075123E+02  0.48825428107E+03  0.94644242194E+03  0.79945517680E+03 0.  0.
         22    1    5    5    0    0  0.32990616082E+03 -0.59350786835E+02  0.14081001452E+03  0.36357674710E+03  0.00000000000E+00 0.  1.
         22    1    5    5    0    0 -0.45459423226E+03  0.11117086196E+03  0.34744426654E+03  0.58286567484E+03  0.00000000000E+00 0.  1.
          5    1    4    4  502    0  0.13788595652E+02  0.38383337426E+02  0.46266928260E+02  0.61855675670E+02  0.47000000000E+01 0. -1.
         -5    1    4    4    0  502  0.11089947579E+03 -0.90203412549E+02  0.12199518523E+03  0.18799006512E+03  0.47000000000E+01 0. -1.
<mgrwt>
<rscale>  0 0.10000458E+04</rscale>
<asrwt>0</asrwt>
<pdfrwt beam="1">  1        2 0.14252343E+00 0.10000458E+04</pdfrwt>
<pdfrwt beam="2">  1       -2 0.41520906E-01 0.10000458E+04</pdfrwt>
<totfact> 0.18709590E+02</totfact>
</mgrwt>
</event>
<event>
 9    1  0.4369420E-036  0.9998964E+03  0.7818608E-02  0.8681137E-01
         -2   -1    0    0    0  501 -0.00000000000E+00  0.00000000000E+00  0.24108998870E+03  0.24108998870E+03  0.00000000000E+00 0.  1.
          2   -1    0    0  501    0  0.00000000000E+00 -0.00000000000E+00 -0.10367423175E+04  0.10367423175E+04  0.00000000000E+00 0.  1.
         36    2    1    2    0    0 -0.14210854715E-13 -0.28421709430E-13 -0.79565232883E+03  0.12778323062E+04  0.99989638187E+03 0.  0.
         25    2    3    3    0    0 -0.95101928838E+02  0.10193438281E+03 -0.16881684171E+03  0.25235803205E+03  0.12550081683E+03 0.  0.
         35    2    3    3    0    0  0.95101928838E+02 -0.10193438281E+03 -0.62683548713E+03  0.10254742742E+04  0.79952471121E+03 0.  0.
         22    1    5    5    0    0  0.23964725331E+03 -0.26717840352E+03 -0.70608367473E+03  0.79206644989E+03  0.00000000000E+00 0.  1.
         22    1    5    5    0    0 -0.14454532447E+03  0.16524402070E+03  0.79248187601E+02  0.23340782430E+03  0.00000000000E+00 0.  1.
          5    1    4    4  502    0 -0.60872412181E+02  0.50182559692E+02 -0.74161863488E+01  0.79377765665E+02  0.47000000000E+01 0. -1.
         -5    1    4    4    0  502 -0.34229516657E+02  0.51751823120E+02 -0.16140065536E+03  0.17298026638E+03  0.47000000000E+01 0. -1.
<mgrwt>
<rscale>  0 0.99989638E+03</rscale>
<asrwt>0</asrwt>
<pdfrwt beam="1">  1        2 0.15949882E+00 0.99989638E+03</pdfrwt>
<pdfrwt beam="2">  1       -2 0.37090768E-01 0.99989638E+03</pdfrwt>
<totfact> 0.19751479E+02</totfact>
</mgrwt>
</event>
<event>
 9    1  0.4369420E-036  0.9980676E+03  0.7818608E-02  0.8682880E-01
         -1   -1    0    0    0  501 -0.00000000000E+00  0.00000000000E+00  0.17865595541E+03  0.17865595541E+03  0.00000000000E+00 0.  1.
          1   -1    0    0  501    0  0.00000000000E+00 -0.00000000000E+00 -0.13939347576E+04  0.13939347576E+04  0.00000000000E+00 0.  1.
         36    2    1    2    0    0  0.14210854715E-13 -0.14210854715E-13 -0.12152788022E+04  0.15725907130E+04  0.99806762474E+03 0.  0.
         25    2    3    3    0    0 -0.10926234130E+03 -0.85069972392E+02 -0.23391149322E+03  0.29879078277E+03  0.12404106490E+03 0.  0.
         35    2    3    3    0    0  0.10926234130E+03  0.85069972392E+02 -0.98136730894E+03  0.12737999302E+04  0.80019329396E+03 0.  0.
         22    1    5    5    0    0  0.13622027777E+03 -0.18301578923E+03  0.27292919492E+02  0.22977303288E+03  0.00000000000E+00 0. -1.
         22    1    5    5    0    0 -0.26957936472E+02  0.26808576162E+03 -0.10086602284E+04  0.10440268973E+04  0.00000000000E+00 0. -1.
          5    1    4    4  502    0 -0.12894802619E+02  0.35461123536E+01 -0.13215047153E+03  0.13290856998E+03  0.47000000000E+01 0.  1.
         -5    1    4    4    0  502 -0.96367538682E+02 -0.88616084746E+02 -0.10176102169E+03  0.16588221280E+03  0.47000000000E+01 0.  1.
<mgrwt>
<rscale>  0 0.99806762E+03</rscale>
<asrwt>0</asrwt>
<pdfrwt beam="1">  1        1 0.21445150E+00 0.99806762E+03</pdfrwt>
<pdfrwt beam="2">  1       -1 0.27485531E-01 0.99806762E+03</pdfrwt>
<totfact> 0.10032920E+02</totfact>
</mgrwt>
</event>
<event>
 9    1  0.4369420E-036  0.1001098E+04  0.7818608E-02  0.8679993E-01
         -1   -1    0    0    0  501 -0.00000000000E+00  0.00000000000E+00  0.29636355899E+03  0.29636355899E+03  0.00000000000E+00 0.  1.
          1   -1    0    0  501    0  0.00000000000E+00 -0.00000000000E+00 -0.84541168951E+03  0.84541168951E+03  0.00000000000E+00 0.  1.
         36    2    1    2    0    0  0.00000000000E+00 -0.71054273576E-14 -0.54904813052E+03  0.11417752485E+04  0.10010978316E+04 0.  0.
         25    2    3    3    0    0 -0.55828204434E+02  0.13075398333E+02 -0.25385006857E+03  0.29080381651E+03  0.12976612784E+03 0.  0.
         35    2    3    3    0    0  0.55828204434E+02 -0.13075398333E+02 -0.29519806195E+03  0.85097143199E+03  0.79606703728E+03 0.  0.
         22    1    5    5    0    0 -0.16039781851E+03 -0.35137349659E+03 -0.21320504349E+03  0.44118837798E+03  0.00000000000E+00 0.  1.
         22    1    5    5    0    0  0.21622602294E+03  0.33829809826E+03 -0.81993018459E+02  0.40978305402E+03  0.00000000000E+00 0.  1.
          5    1    4    4  502    0  0.14561659035E+02 -0.25835819079E+01  0.91784287823E+01  0.18029153176E+02  0.47000000000E+01 0. -1.
         -5    1    4    4    0  502 -0.70389863469E+02  0.15658980241E+02 -0.26302849735E+03  0.27277466334E+03  0.47000000000E+01 0. -1.
<mgrwt>
<rscale>  0 0.10010978E+04</rscale>
<asrwt>0</asrwt>
<pdfrwt beam="1">  1        1 0.13006333E+00 0.10010978E+04</pdfrwt>
<pdfrwt beam="2">  1       -1 0.45594395E-01 0.10010978E+04</pdfrwt>
<totfact> 0.10950699E+02</totfact>
</mgrwt>
</event>
<event>
 9    1  0.4369420E-036  0.1011357E+04  0.7818608E-02  0.8670297E-01
         -2   -1    0    0    0  501 -0.00000000000E+00  0.00000000000E+00  0.12728449222E+03  0.12728449222E+03  0.00000000000E+00 0.  1.
          2   -1    0    0  501    0  0.00000000000E+00 -0.00000000000E+00 -0.20089720240E+04  0.20089720240E+04  0.00000000000E+00 0.  1.
         36    2    1    2    0    0 -0.71054273576E-14  0.00000000000E+00 -0.18816875317E+04  0.21362565162E+04  0.10113574718E+04 0.  0.
         25    2    3    3    0    0  0.18191866084E+01 -0.84166251182E+02 -0.63893338306E+03  0.65642765386E+03  0.12479635203E+03 0.  0.
         35    2    3    3    0    0 -0.18191866084E+01  0.84166251182E+02 -0.12427541487E+04  0.14798288623E+04  0.79897954945E+03 0.  0.
         22    1    5    5    0    0  0.28510860535E+03 -0.79305571635E+02 -0.10638698899E+04  0.11042623932E+04  0.00000000000E+00 0. -1.
         22    1    5    5    0    0 -0.28692779196E+03  0.16347182282E+03 -0.17888425879E+03  0.37556646908E+03  0.00000000000E+00 0. -1.
          5    1    4    4  502    0  0.25024252459E+02 -0.43708230678E+02 -0.74492504796E+02  0.90043577844E+02  0.47000000000E+01 0.  1.
         -5    1    4    4    0  502 -0.23205065851E+02 -0.40458020504E+02 -0.56444087827E+03  0.56638407601E+03  0.47000000000E+01 0.  1.
<mgrwt>
<rscale>  0 0.10113575E+04</rscale>
<asrwt>0</asrwt>
<pdfrwt beam="1">  1        2 0.30907262E+00 0.10113575E+04</pdfrwt>
<pdfrwt beam="2">  1       -2 0.19582230E-01 0.10113575E+04</pdfrwt>
<totfact> 0.17181028E+02</totfact>
</mgrwt>
</event>
<event>
 9    1  0.4369420E-036  0.9998388E+03  0.7818608E-02  0.8681191E-01
          1   -1    0    0  501    0  0.00000000000E+00  0.00000000000E+00  0.40718296814E+03  0.40718296814E+03  0.00000000000E+00 0. -1.
         -1   -1    0    0    0  501 -0.00000000000E+00 -0.00000000000E+00 -0.61377670352E+03  0.61377670352E+03  0.00000000000E+00 0. -1.
         36    2    1    2    0    0 -0.14210854715E-13  0.14210854715E-13 -0.20659373538E+03  0.10209596717E+04  0.99983882684E+03 0.  0.
         25    2    3    3    0    0 -0.63072255264E+02  0.11823474763E+03  0.10150095361E+02  0.18303736037E+03  0.12426618979E+03 0.  0.
         35    2    3    3    0    0  0.63072255264E+02 -0.11823474763E+03 -0.21674383074E+03  0.83792231129E+03  0.79823451859E+03 0.  0.
         22    1    5    5    0    0  0.21935071811E+03 -0.30533807617E+03  0.14394563554E+03  0.40257474372E+03  0.00000000000E+00 0. -1.
         22    1    5    5    0    0 -0.15627846285E+03  0.18710332853E+03 -0.36068946628E+03  0.43534756757E+03  0.00000000000E+00 0. -1.
          5    1    4    4  502    0 -0.67274062684E+02  0.70610587091E+02 -0.47012171108E+02  0.10836922419E+03  0.47000000000E+01 0.  1.
         -5    1    4    4    0  502  0.42018074206E+01  0.47624160543E+02  0.57162266470E+02  0.74668136183E+02  0.47000000000E+01 0.  1.
<mgrwt>
<rscale>  0 0.99983883E+03</rscale>
<asrwt>0</asrwt>
<pdfrwt beam="1">  1        1 0.62643533E-01 0.99983883E+03</pdfrwt>
<pdfrwt beam="2">  1       -1 0.94427185E-01 0.99983883E+03</pdfrwt>
<totfact> 0.75931542E+01</totfact>
</mgrwt>
</event>
<event>
 9    1  0.4369420E-036  0.1000005E+04  0.7818608E-02  0.8681033E-01
          1   -1    0    0  501    0  0.00000000000E+00  0.00000000000E+00  0.24731019558E+04  0.24731019558E+04  0.00000000000E+00 0. -1.
         -1   -1    0    0    0  501 -0.00000000000E+00 -0.00000000000E+00 -0.10108867382E+03  0.10108867382E+03  0.00000000000E+00 0. -1.
         36    2    1    2    0    0  0.00000000000E+00  0.28421709430E-13  0.23720132820E+04  0.25741906297E+04  0.10000051939E+04 0.  0.
         25    2    3    3    0    0 -0.41190890326E+02 -0.13289741968E+03  0.44991122981E+03  0.48734508285E+03  0.12540614604E+03 0.  0.
         35    2    3    3    0    0  0.41190890326E+02  0.13289741968E+03  0.19221020522E+04  0.20868455468E+04  0.80068072508E+03 0.  0.
         22    1    5    5    0    0  0.40241797179E+03  0.25964378267E+02  0.12840256548E+04  0.13458589284E+04  0.00000000000E+00 0.  1.
         22    1    5    5    0    0 -0.36122708147E+03  0.10693304141E+03  0.63807639738E+03  0.74098661838E+03  0.00000000000E+00 0.  1.
          5    1    4    4  502    0 -0.22375474452E+02 -0.14891088872E+03  0.30401347707E+03  0.33929544482E+03  0.47000000000E+01 0. -1.
         -5    1    4    4    0  502 -0.18815415874E+02  0.16013469043E+02  0.14589775274E+03  0.14804963803E+03  0.47000000000E+01 0. -1.
<mgrwt>
<rscale>  0 0.10000052E+04</rscale>
<asrwt>0</asrwt>
<pdfrwt beam="1">  1        1 0.38047718E+00 0.10000052E+04</pdfrwt>
<pdfrwt beam="2">  1       -1 0.15552106E-01 0.10000052E+04</pdfrwt>
<totfact> 0.44729142E+01</totfact>
</mgrwt>
</event>
<event>
 9    1  0.4369420E-036  0.1000130E+04  0.7818608E-02  0.8680915E-01
          1   -1    0    0  501    0  0.00000000000E+00  0.00000000000E+00  0.40690643689E+03  0.40690643689E+03  0.00000000000E+00 0. -1.
         -1   -1    0    0    0  501 -0.00000000000E+00 -0.00000000000E+00 -0.61455113318E+03  0.61455113318E+03  0.00000000000E+00 0. -1.
         36    2    1    2    0    0 -0.24868995752E-13 -0.28421709430E-13 -0.20764469629E+03  0.10214575701E+04  0.10001296154E+04 0.  0.
         25    2    3    3    0    0  0.29630365238E+02 -0.13774840215E+03 -0.47546340300E+02  0.19433167484E+03  0.12510621299E+03 0.  0.
         35    2    3    3    0    0 -0.29630365238E+02  0.13774840215E+03 -0.16009835599E+03  0.82712589523E+03  0.79915779551E+03 0.  0.
         22    1    5    5    0    0  0.18912610409E+03 -0.26249175687E+03  0.45675338254E+02  0.32673665573E+03  0.00000000000E+00 0.  1.
         22    1    5    5    0    0 -0.21875646933E+03  0.40024015902E+03 -0.20577369424E+03  0.50038923950E+03  0.00000000000E+00 0.  1.
          5    1    4    4  502    0  0.37636051924E+02 -0.33210649653E+02 -0.70724905699E+02  0.86853450945E+02  0.47000000000E+01 0.  1.
         -5    1    4    4    0  502 -0.80056866859E+01 -0.10453775250E+03  0.23178565399E+02  0.10747822389E+03  0.47000000000E+01 0.  1.
<mgrwt>
<rscale>  0 0.10001296E+04</rscale>
<asrwt>0</asrwt>
<pdfrwt beam="1">  1        1 0.62600991E-01 0.10001296E+04</pdfrwt>
<pdfrwt beam="2">  1       -1 0.94546328E-01 0.10001296E+04</pdfrwt>
<totfact> 0.75789458E+01</totfact>
</mgrwt>
</event>
<event>
 9    1  0.4369420E-036  0.1000627E+04  0.7818608E-02  0.8680441E-01
         -2   -1    0    0    0  501 -0.00000000000E+00  0.00000000000E+00  0.12841741368E+04  0.12841741368E+04  0.00000000000E+00 0. -1.
          2   -1    0    0  501    0  0.00000000000E+00 -0.00000000000E+00 -0.19492183793E+03  0.19492183793E+03  0.00000000000E+00 0. -1.
         36    2    1    2    0    0  0.00000000000E+00  0.71054273576E-14  0.10892522989E+04  0.14790959747E+04  0.10006269694E+04 0.  0.
         25    2    3    3    0    0  0.99472805987E+02  0.48901590849E+02  0.82694306184E+02  0.18857736721E+03  0.12820635878E+03 0.  0.
         35    2    3    3    0    0 -0.99472805987E+02 -0.48901590849E+02  0.10065579927E+04  0.12905186075E+04  0.79999567436E+03 0.  0.
         22    1    5    5    0    0  0.25561242847E+02 -0.40000615787E+03  0.33462265193E+03  0.52214042426E+03  0.00000000000E+00 0. -1.
         22    1    5    5    0    0 -0.12503404883E+03  0.35110456702E+03  0.67193534074E+03  0.76837818325E+03  0.00000000000E+00 0. -1.
          5    1    4    4  502    0  0.59751044800E+02  0.46483399065E+02 -0.19916408933E+02  0.78419685591E+02  0.47000000000E+01 0.  1.
         -5    1    4    4    0  502  0.39721761187E+02  0.24181917839E+01  0.10261071512E+03  0.11015768162E+03  0.47000000000E+01 0.  1.
<mgrwt>
<rscale>  0 0.10006270E+04</rscale>
<asrwt>0</asrwt>
<pdfrwt beam="1">  1        2 0.29987976E-01 0.10006270E+04</pdfrwt>
<pdfrwt beam="2">  1       -2 0.19756525E+00 0.10006270E+04</pdfrwt>
<totfact> 0.26813234E+01</totfact>
</mgrwt>
</event>
<event>
 9    1  0.4369420E-036  0.1000095E+04  0.7818608E-02  0.8680947E-01
          2   -1    0    0  501    0  0.00000000000E+00  0.00000000000E+00  0.67608246413E+03  0.67608246413E+03  0.00000000000E+00 0. -1.
         -2   -1    0    0    0  501 -0.00000000000E+00 -0.00000000000E+00 -0.36984779698E+03  0.36984779698E+03  0.00000000000E+00 0. -1.
         36    2    1    2    0    0 -0.14210854715E-13  0.00000000000E+00  0.30623466715E+03  0.10459302611E+04  0.10000952153E+04 0.  0.
         25    2    3    3    0    0  0.93087879998E+02 -0.84038494754E+02 -0.11530082337E+02  0.17553768145E+03  0.12228128560E+03 0.  0.
         35    2    3    3    0    0 -0.93087879998E+02  0.84038494754E+02  0.31776474948E+03  0.87039257966E+03  0.80055042609E+03 0.  0.
         22    1    5    5    0    0 -0.30199841488E+03 -0.40897445072E+02 -0.15256119754E+03  0.34080868915E+03  0.00000000000E+00 0. -1.
         22    1    5    5    0    0  0.20891053488E+03  0.12493593983E+03  0.47032594702E+03  0.52958389051E+03  0.00000000000E+00 0. -1.
          5    1    4    4  502    0  0.10651541898E+03 -0.31209013878E+02 -0.34314278052E+02  0.11627165048E+03  0.47000000000E+01 0. -1.
         -5    1    4    4    0  502 -0.13427538979E+02 -0.52829480876E+02  0.22784195715E+02  0.59266030971E+02  0.47000000000E+01 0. -1.
<mgrwt>
<rscale>  0 0.10000952E+04</rscale>
<asrwt>0</asrwt>
<pdfrwt beam="1">  1        2 0.10401269E+00 0.10000952E+04</pdfrwt>
<pdfrwt beam="2">  1       -2 0.56899661E-01 0.10000952E+04</pdfrwt>
<totfact> 0.15002885E+02</totfact>
</mgrwt>
</event>
<event>
 9    1  0.4369420E-036  0.1001331E+04  0.7818608E-02  0.8679772E-01
          1   -1    0    0  501    0  0.00000000000E+00  0.00000000000E+00  0.10215639035E+04  0.10215639035E+04  0.00000000000E+00 0.  1.
         -1   -1    0    0    0  501 -0.00000000000E+00 -0.00000000000E+00 -0.24537455033E+03  0.24537455033E+03  0.00000000000E+00 0.  1.
         36    2    1    2    0    0 -0.14210854715E-13  0.00000000000E+00  0.77618935319E+03  0.12669384539E+04  0.10013306816E+04 0.  0.
         25    2    3    3    0    0  0.12775731816E+03  0.18814193748E+02  0.72230452823E+02  0.19348365844E+03  0.12467069238E+03 0.  0.
         35    2    3    3    0    0 -0.12775731816E+03 -0.18814193748E+02  0.70395890036E+03  0.10734547954E+04  0.80004447262E+03 0.  0.
         22    1    5    5    0    0  0.26562425753E+03 -0.21179804069E+03  0.16157097770E+03  0.37619122407E+03  0.00000000000E+00 0. -1.
         22    1    5    5    0    0 -0.39338157569E+03  0.19298384694E+03  0.54238792267E+03  0.69726357135E+03  0.00000000000E+00 0. -1.
          5    1    4    4  502    0  0.15041279827E+03  0.21101469749E+02  0.76041783620E+02  0.16992270233E+03  0.47000000000E+01 0.  1.
         -5    1    4    4    0  502 -0.22655480112E+02 -0.22872760012E+01 -0.38113307970E+01  0.23560956115E+02  0.47000000000E+01 0.  1.
<mgrwt>
<rscale>  0 0.10013307E+04</rscale>
<asrwt>0</asrwt>
<pdfrwt beam="1">  1        1 0.15716368E+00 0.10013307E+04</pdfrwt>
<pdfrwt beam="2">  1       -1 0.37749931E-01 0.10013307E+04</pdfrwt>
<totfact> 0.11011583E+02</totfact>
</mgrwt>
</event>
<event>
 9    1  0.4369420E-036  0.1000414E+04  0.7818608E-02  0.8680644E-01
          2   -1    0    0  501    0  0.00000000000E+00  0.00000000000E+00  0.11320683825E+04  0.11320683825E+04  0.00000000000E+00 0. -1.
         -2   -1    0    0    0  501 -0.00000000000E+00 -0.00000000000E+00 -0.22101767581E+03  0.22101767581E+03  0.00000000000E+00 0. -1.
         36    2    1    2    0    0  0.49737991503E-13  0.00000000000E+00  0.91105070672E+03  0.13530860583E+04  0.10004141598E+04 0.  0.
         25    2    3    3    0    0 -0.53329011656E+02  0.66981422442E+02  0.20768472282E+02  0.15322261781E+03  0.12536086602E+03 0.  0.
         35    2    3    3    0    0  0.53329011656E+02 -0.66981422442E+02  0.89028223444E+03  0.11998634405E+04  0.79983706123E+03 0.  0.
         22    1    5    5    0    0  0.39604762857E+03  0.10401259260E+03  0.35672870106E+03  0.54307247185E+03  0.00000000000E+00 0. -1.
         22    1    5    5    0    0 -0.34271861692E+03 -0.17099401504E+03  0.53355353337E+03  0.65679096868E+03  0.00000000000E+00 0. -1.
          5    1    4    4  502    0 -0.44092875984E+01 -0.15522658524E+02 -0.37361131782E+02  0.40967534864E+02  0.47000000000E+01 0. -1.
         -5    1    4    4    0  502 -0.48919724058E+02  0.82504080967E+02  0.58129604065E+02  0.11225508294E+03  0.47000000000E+01 0. -1.
<mgrwt>
<rscale>  0 0.10004142E+04</rscale>
<asrwt>0</asrwt>
<pdfrwt beam="1">  1        2 0.17416436E+00 0.10004142E+04</pdfrwt>
<pdfrwt beam="2">  1       -2 0.34002720E-01 0.10004142E+04</pdfrwt>
<totfact> 0.20329089E+02</totfact>
</mgrwt>
</event>
<event>
 9    1  0.4369420E-036  0.1000471E+04  0.7818608E-02  0.8680589E-01
          2   -1    0    0  501    0  0.00000000000E+00  0.00000000000E+00  0.13613976267E+04  0.13613976267E+04  0.00000000000E+00 0.  1.
         -2   -1    0    0    0  501 -0.00000000000E+00 -0.00000000000E+00 -0.18380800694E+03  0.18380800694E+03  0.00000000000E+00 0.  1.
         36    2    1    2    0    0  0.14210854715E-13  0.14210854715E-13  0.11775896197E+04  0.15452056336E+04  0.10004714577E+04 0.  0.
         25    2    3    3    0    0 -0.40371215985E+02  0.45845073772E+02  0.41280480482E+03  0.43599312529E+03  0.12629565530E+03 0.  0.
         35    2    3    3    0    0  0.40371215985E+02 -0.45845073772E+02  0.76478481490E+03  0.11092125083E+04  0.80107738053E+03 0.  0.
         22    1    5    5    0    0 -0.29524383692E+03 -0.14813731409E+03  0.66806434013E+03  0.74526743497E+03  0.00000000000E+00 0. -1.
         22    1    5    5    0    0  0.33561505291E+03  0.10229224032E+03  0.96720474770E+02  0.36394507334E+03  0.00000000000E+00 0. -1.
          5    1    4    4  502    0 -0.58199104754E+01 -0.26136750760E+02  0.16726369531E+02  0.31919626187E+02  0.47000000000E+01 0. -1.
         -5    1    4    4    0  502 -0.34551305509E+02  0.71981824533E+02  0.39607843529E+03  0.40407349910E+03  0.47000000000E+01 0. -1.
<mgrwt>
<rscale>  0 0.10004715E+04</rscale>
<asrwt>0</asrwt>
<pdfrwt beam="1">  1        2 0.20944578E+00 0.10004715E+04</pdfrwt>
<pdfrwt beam="2">  1       -2 0.28278156E-01 0.10004715E+04</pdfrwt>
<totfact> 0.20908677E+02</totfact>
</mgrwt>
</event>
<event>
 9    1  0.4369420E-036  0.1000683E+04  0.7818608E-02  0.8680388E-01
          2   -1    0    0  501    0  0.00000000000E+00  0.00000000000E+00  0.83583153689E+03  0.83583153689E+03  0.00000000000E+00 0. -1.
         -2   -1    0    0    0  501 -0.00000000000E+00 -0.00000000000E+00 -0.29951217213E+03  0.29951217213E+03  0.00000000000E+00 0. -1.
         36    2    1    2    0    0  0.71054273576E-14  0.00000000000E+00  0.53631936476E+03  0.11353437090E+04  0.10006832049E+04 0.  0.
         25    2    3    3    0    0  0.39214175685E+02 -0.13355352294E+03  0.12571546898E+03  0.22581474160E+03  0.12575222989E+03 0.  0.
         35    2    3    3    0    0 -0.39214175685E+02  0.13355352294E+03  0.41060389578E+03  0.90952896741E+03  0.79954555109E+03 0.  0.
         22    1    5    5    0    0 -0.11649643214E+03  0.20199714053E+03 -0.18958453623E+03  0.30052713665E+03  0.00000000000E+00 0.  1.
         22    1    5    5    0    0  0.77282256454E+02 -0.68443617596E+02  0.60018843201E+03  0.60900183076E+03  0.00000000000E+00 0.  1.
          5    1    4    4  502    0  0.24555295263E+02 -0.15542344247E+03  0.90454260149E+02  0.18155845387E+03  0.47000000000E+01 0.  1.
         -5    1    4    4    0  502  0.14658880421E+02  0.21869919531E+02  0.35261208830E+02  0.44256287730E+02  0.47000000000E+01 0.  1.
<mgrwt>
<rscale>  0 0.10006832E+04</rscale>
<asrwt>0</asrwt>
<pdfrwt beam="1">  1        2 0.12858947E+00 0.10006832E+04</pdfrwt>
<pdfrwt beam="2">  1       -2 0.46078796E-01 0.10006832E+04</pdfrwt>
<totfact> 0.17550859E+02</totfact>
</mgrwt>
</event>
<event>
 9    1  0.4369420E-036  0.1000830E+04  0.7818608E-02  0.8680248E-01
          2   -1    0    0  501    0  0.00000000000E+00  0.00000000000E+00  0.16401345267E+04  0.16401345267E+04  0.00000000000E+00 0.  1.
         -2   -1    0    0    0  501 -0.00000000000E+00 -0.00000000000E+00 -0.15267959986E+03  0.15267959986E+03  0.00000000000E+00 0.  1.
         36    2    1    2    0    0  0.28421709430E-13 -0.35527136788E-13  0.14874549268E+04  0.17928141265E+04  0.10008298222E+04 0.  0.
         25    2    3    3    0    0  0.13731141567E+03 -0.21634430321E+02  0.32089767072E+03  0.37153851665E+03  0.12547143434E+03 0.  0.
         35    2    3    3    0    0 -0.13731141567E+03  0.21634430321E+02  0.11665572561E+04  0.14212756099E+04  0.79990377799E+03 0.  0.
         22    1    5    5    0    0 -0.79211832973E+02  0.41082129865E+03  0.59889480163E+03  0.73056391735E+03  0.00000000000E+00 0. -1.
         22    1    5    5    0    0 -0.58099582697E+02 -0.38918686833E+03  0.56766245447E+03  0.69071169254E+03  0.00000000000E+00 0. -1.
          5    1    4    4  502    0  0.18233341224E+02  0.13662222877E+02 -0.40671615258E+01  0.23616580383E+02  0.47000000000E+01 0.  1.
         -5    1    4    4    0  502  0.11907807445E+03 -0.35296653199E+02  0.32496483225E+03  0.34792193627E+03  0.47000000000E+01 0.  1.
<mgrwt>
<rscale>  0 0.10008298E+04</rscale>
<asrwt>0</asrwt>
<pdfrwt beam="1">  1        2 0.25232838E+00 0.10008298E+04</pdfrwt>
<pdfrwt beam="2">  1       -2 0.23489170E-01 0.10008298E+04</pdfrwt>
<totfact> 0.20224423E+02</totfact>
</mgrwt>
</event>
<event>
 9    1  0.4369420E-036  0.1000626E+04  0.7818608E-02  0.8680442E-01
         -2   -1    0    0    0  501 -0.00000000000E+00  0.00000000000E+00  0.58092289269E+03  0.58092289269E+03  0.00000000000E+00 0. -1.
          2   -1    0    0  501    0  0.00000000000E+00 -0.00000000000E+00 -0.43088892762E+03  0.43088892762E+03  0.00000000000E+00 0. -1.
         36    2    1    2    0    0  0.00000000000E+00  0.00000000000E+00  0.15003396507E+03  0.10118118203E+04  0.10006262884E+04 0.  0.
         25    2    3    3    0    0  0.10445757707E+03 -0.83018365646E+02  0.26841190041E+01  0.18364221119E+03  0.12615000116E+03 0.  0.
         35    2    3    3    0    0 -0.10445757707E+03  0.83018365646E+02  0.14734984607E+03  0.82816960912E+03  0.80395863693E+03 0.  0.
         22    1    5    5    0    0  0.91521090806E+02  0.38338472687E+03  0.23509631982E+03  0.45894470087E+03  0.00000000000E+00 0.  1.
         22    1    5    5    0    0 -0.19597866788E+03 -0.30036636123E+03 -0.87746473752E+02  0.36922490825E+03  0.00000000000E+00 0.  1.
          5    1    4    4  502    0  0.17490375243E+02  0.66099999494E+01  0.47192453194E+02  0.50978652042E+02  0.47000000000E+01 0.  1.
         -5    1    4    4    0  502  0.86967201826E+02 -0.89628365595E+02 -0.44508334190E+02  0.13266355915E+03  0.47000000000E+01 0.  1.
<mgrwt>
<rscale>  0 0.10006263E+04</rscale>
<asrwt>0</asrwt>
<pdfrwt beam="1">  1        2 0.66290604E-01 0.10006263E+04</pdfrwt>
<pdfrwt beam="2">  1       -2 0.89372753E-01 0.10006263E+04</pdfrwt>
<totfact> 0.93844526E+01</totfact>
</mgrwt>
</event>
<event>
 9    1  0.4369420E-036  0.1000712E+04  0.7818608E-02  0.8680360E-01
          1   -1    0    0  501    0  0.00000000000E+00  0.00000000000E+00  0.20433736494E+03  0.20433736494E+03  0.00000000000E+00 0.  1.
         -1   -1    0    0    0  501 -0.00000000000E+00 -0.00000000000E+00 -0.12252099642E+04  0.12252099642E+04  0.00000000000E+00 0.  1.
         36    2    1    2    0    0 -0.71054273576E-14  0.71054273576E-14 -0.10208725993E+04  0.14295473292E+04  0.10007120976E+04 0.  0.
         25    2    3    3    0    0 -0.26581514258E+02 -0.15629218020E+02  0.38046047434E+01  0.12850838240E+03  0.12469595011E+03 0.  0.
         35    2    3    3    0    0  0.26581514258E+02  0.15629218020E+02 -0.10246772040E+04  0.13010389468E+04  0.80111679498E+03 0.  0.
         22    1    5    5    0    0 -0.15653495685E+03 -0.86122108307E+02  0.65971828578E+02  0.19045338648E+03  0.00000000000E+00 0. -1.
         22    1    5    5    0    0  0.18311647111E+03  0.10175132633E+03 -0.10906490326E+04  0.11105855603E+04  0.00000000000E+00 0. -1.
          5    1    4    4  502    0 -0.20746565577E+02  0.19193023023E+02 -0.53700409466E+02  0.60865557525E+02  0.47000000000E+01 0.  1.
         -5    1    4    4    0  502 -0.58349486817E+01 -0.34822241043E+02  0.57505014210E+02  0.67642824872E+02  0.47000000000E+01 0.  1.
<mgrwt>
<rscale>  0 0.10007121E+04</rscale>
<asrwt>0</asrwt>
<pdfrwt beam="1">  1        1 0.31436518E-01 0.10007121E+04</pdfrwt>
<pdfrwt beam="2">  1       -1 0.18849384E+00 0.10007121E+04</pdfrwt>
<totfact> 0.28180712E+01</totfact>
</mgrwt>
</event>
<event>
 9    1  0.4369420E-036  0.1000885E+04  0.7818608E-02  0.8680195E-01
         -1   -1    0    0    0  501 -0.00000000000E+00  0.00000000000E+00  0.32452471080E+03  0.32452471080E+03  0.00000000000E+00 0. -1.
          1   -1    0    0  501    0  0.00000000000E+00 -0.00000000000E+00 -0.77172185191E+03  0.77172185191E+03  0.00000000000E+00 0. -1.
         36    2    1    2    0    0  0.28421709430E-13  0.14210854715E-13 -0.44719714110E+03  0.10962465627E+04  0.10008852298E+04 0.  0.
         25    2    3    3    0    0 -0.12413375585E+03 -0.53384886701E+02 -0.44044838526E+02  0.19009861312E+03  0.12624737399E+03 0.  0.
         35    2    3    3    0    0  0.12413375585E+03  0.53384886701E+02 -0.40315230258E+03  0.90614794959E+03  0.80019572106E+03 0.  0.
         22    1    5    5    0    0 -0.24482007831E+03 -0.23729898429E+03 -0.19030354401E+03  0.39046525780E+03  0.00000000000E+00 0. -1.
         22    1    5    5    0    0  0.36895383416E+03  0.29068387099E+03 -0.21284875857E+03  0.51568269180E+03  0.00000000000E+00 0. -1.
          5    1    4    4  502    0 -0.14920002688E+03 -0.54427938669E+02 -0.32953449880E+02  0.16226850707E+03  0.47000000000E+01 0.  1.
         -5    1    4    4    0  502  0.25066271025E+02  0.10430519682E+01 -0.11091388646E+02  0.27830106047E+02  0.47000000000E+01 0.  1.
<mgrwt>
<rscale>  0 0.10008852E+04</rscale>
<asrwt>0</asrwt>
<pdfrwt beam="1">  1        1 0.11872644E+00 0.10008852E+04</pdfrwt>
<pdfrwt beam="2">  1       -1 0.49926879E-01 0.10008852E+04</pdfrwt>
<totfact> 0.10763440E+02</totfact>
</mgrwt>
</event>
<event>
 9    1  0.4369420E-036  0.9992255E+03  0.7818608E-02  0.8681776E-01
         -1   -1    0    0    0  501 -0.00000000000E+00  0.00000000000E+00  0.13083784107E+03  0.13083784107E+03  0.00000000000E+00 0.  1.
          1   -1    0    0  501    0  0.00000000000E+00 -0.00000000000E+00 -0.19078034302E+04  0.19078034302E+04  0.00000000000E+00 0.  1.
         36    2    1    2    0    0  0.28421709430E-13 -0.28421709430E-13 -0.17769655892E+04  0.20386412713E+04  0.99922546404E+03 0.  0.
         25    2    3    3    0    0  0.13512390684E+03 -0.33269478743E+02 -0.30976035546E+03  0.36165050273E+03  0.12439565866E+03 0.  0.
         35    2    3    3    0    0 -0.13512390684E+03  0.33269478743E+02 -0.14672052337E+04  0.16769907686E+04  0.80015093055E+03 0.  0.
         22    1    5    5    0    0  0.41226074928E+01 -0.29523071420E+03 -0.11874228387E+04  0.12235812880E+04  0.00000000000E+00 0. -1.
         22    1    5    5    0    0 -0.13924651433E+03  0.32850019295E+03 -0.27978239503E+03  0.45340948059E+03  0.00000000000E+00 0. -1.
          5    1    4    4  502    0 -0.10675581557E+02  0.42662916853E+01 -0.11386409606E+03  0.11453947642E+03  0.47000000000E+01 0. -1.
         -5    1    4    4    0  502  0.14579948839E+03 -0.37535770428E+02 -0.19589625940E+03  0.24711102631E+03  0.47000000000E+01 0. -1.
<mgrwt>
<rscale>  0 0.99922546E+03</rscale>
<asrwt>0</asrwt>
<pdfrwt beam="1">  1        1 0.29350822E+00 0.99922546E+03</pdfrwt>
<pdfrwt beam="2">  1       -1 0.20128899E-01 0.99922546E+03</pdfrwt>
<totfact> 0.73137261E+01</totfact>
</mgrwt>
</event>
<event>
 9    1  0.4369420E-036  0.1001715E+04  0.7818608E-02  0.8679407E-01
          2   -1    0    0  501    0  0.00000000000E+00  0.00000000000E+00  0.29757535096E+03  0.29757535096E+03  0.00000000000E+00 0. -1.
         -2   -1    0    0    0  501 -0.00000000000E+00 -0.00000000000E+00 -0.84300702635E+03  0.84300702635E+03  0.00000000000E+00 0. -1.
         36    2    1    2    0    0  0.28421709430E-13 -0.71054273576E-14 -0.54543167539E+03  0.11405823773E+04  0.10017147533E+04 0.  0.
         25    2    3    3    0    0 -0.12018394640E+03 -0.22087840277E+02 -0.18408243726E+03  0.25443165704E+03  0.12616287384E+03 0.  0.
         35    2    3    3    0    0  0.12018394640E+03  0.22087840277E+02 -0.36134923813E+03  0.88615072027E+03  0.79984859409E+03 0.  0.
         22    1    5    5    0    0  0.21872566320E+03 -0.35567015189E+03 -0.21070226140E+03  0.46769393373E+03  0.00000000000E+00 0.  1.
         22    1    5    5    0    0 -0.98541716794E+02  0.37775799217E+03 -0.15064697673E+03  0.41845678653E+03  0.00000000000E+00 0.  1.
          5    1    4    4  502    0 -0.13097421562E+03  0.67691684165E+01 -0.10070333598E+03  0.16541861647E+03  0.47000000000E+01 0.  1.
         -5    1    4    4    0  502  0.10790269219E+02 -0.28857008694E+02 -0.83379101281E+02  0.89013040567E+02  0.47000000000E+01 0.  1.
<mgrwt>
<rscale>  0 0.10017148E+04</rscale>
<asrwt>0</asrwt>
<pdfrwt beam="1">  1        2 0.45780824E-01 0.10017148E+04</pdfrwt>
<pdfrwt beam="2">  1       -2 0.12969339E+00 0.10017148E+04</pdfrwt>
<totfact> 0.55904130E+01</totfact>
</mgrwt>
</event>
<event>
 9    1  0.4369420E-036  0.9995619E+03  0.7818608E-02  0.8681455E-01
          2   -1    0    0  501    0  0.00000000000E+00  0.00000000000E+00  0.68614986366E+03  0.68614986366E+03  0.00000000000E+00 0. -1.
         -2   -1    0    0    0  501 -0.00000000000E+00 -0.00000000000E+00 -0.36403274013E+03  0.36403274013E+03  0.00000000000E+00 0. -1.
         36    2    1    2    0    0  0.00000000000E+00  0.14210854715E-13  0.32211712354E+03  0.10501826038E+04  0.99956193406E+03 0.  0.
         25    2    3    3    0    0  0.23435587201E+02 -0.80654743572E+02  0.17161717948E+03  0.22857719539E+03  0.12546180116E+03 0.  0.
         35    2    3    3    0    0 -0.23435587201E+02  0.80654743572E+02  0.15049994405E+03  0.82160540840E+03  0.80332484061E+03 0.  0.
         22    1    5    5    0    0  0.20398885675E+03 -0.20818155034E+03 -0.16694547433E+03  0.33588956962E+03  0.00000000000E+00 0.  1.
         22    1    5    5    0    0 -0.22742444395E+03  0.28883629392E+03  0.31744541838E+03  0.48571583878E+03  0.00000000000E+00 0.  1.
          5    1    4    4  502    0 -0.20700238166E+02 -0.99597351174E+02  0.12764812570E+03  0.16329196617E+03  0.47000000000E+01 0.  1.
         -5    1    4    4    0  502  0.44135825367E+02  0.18942607602E+02  0.43969053789E+02  0.65285229223E+02  0.47000000000E+01 0.  1.
<mgrwt>
<rscale>  0 0.99956193E+03</rscale>
<asrwt>0</asrwt>
<pdfrwt beam="1">  1        2 0.10556152E+00 0.99956193E+03</pdfrwt>
<pdfrwt beam="2">  1       -2 0.56005037E-01 0.99956193E+03</pdfrwt>
<totfact> 0.15223703E+02</totfact>
</mgrwt>
</event>
<event>
 9    1  0.4369420E-036  0.1000852E+04  0.7818608E-02  0.8680227E-01
          3   -1    0    0  501    0  0.00000000000E+00  0.00000000000E+00  0.28845380218E+03  0.28845380218E+03  0.00000000000E+00 0.  1.
         -3   -1    0    0    0  501 -0.00000000000E+00 -0.00000000000E+00 -0.86816721714E+03  0.86816721714E+03  0.00000000000E+00 0.  1.
         36    2    1    2    0    0 -0.14210854715E-13  0.71054273576E-14 -0.57971341496E+03  0.11566210193E+04  0.10008519065E+04 0.  0.
         25    2    3    3    0    0 -0.12729639319E+03 -0.23017620625E+02 -0.44168457324E+02  0.18563304869E+03  0.12559694888E+03 0.  0.
         35    2    3    3    0    0  0.12729639319E+03  0.23017620625E+02 -0.53554495763E+03  0.97098797062E+03  0.79954678091E+03 0.  0.
         22    1    5    5    0    0  0.45723257094E+03  0.83008926139E+02 -0.23534441921E+03  0.52090219946E+03  0.00000000000E+00 0.  1.
         22    1    5    5    0    0 -0.32993617776E+03 -0.59991305514E+02 -0.30020053842E+03  0.45008577116E+03  0.00000000000E+00 0.  1.
          5    1    4    4  502    0 -0.16896012610E+02 -0.60127794235E+02 -0.25301597609E+02  0.67550630813E+02  0.47000000000E+01 0.  1.
         -5    1    4    4    0  502 -0.11040038058E+03  0.37110173610E+02 -0.18866859715E+02  0.11808241788E+03  0.47000000000E+01 0.  1.
<mgrwt>
<rscale>  0 0.10008519E+04</rscale>
<asrwt>0</asrwt>
<pdfrwt beam="1">  1        3 0.44377509E-01 0.10008519E+04</pdfrwt>
<pdfrwt beam="2">  1       -3 0.13356418E+00 0.10008519E+04</pdfrwt>
<totfact> 0.73842059E+00</totfact>
</mgrwt>
</event>
<event>
 9    1  0.4369420E-036  0.1000108E+04  0.7818608E-02  0.8680935E-01
          1   -1    0    0  501    0  0.00000000000E+00  0.00000000000E+00  0.10724589606E+04  0.10724589606E+04  0.00000000000E+00 0.  1.
         -1   -1    0    0    0  501 -0.00000000000E+00 -0.00000000000E+00 -0.23315941904E+03  0.23315941904E+03  0.00000000000E+00 0.  1.
         36    2    1    2    0    0  0.35527136788E-14 -0.71054273576E-14  0.83929954155E+03  0.13056183796E+04  0.10001078106E+04 0.  0.
         25    2    3    3    0    0 -0.21531924440E+02 -0.53917237514E+02 -0.83718613863E+01  0.13829314004E+03  0.12523662502E+03 0.  0.
         35    2    3    3    0    0  0.21531924440E+02  0.53917237514E+02  0.84767140294E+03  0.11673252396E+04  0.80045656682E+03 0.  0.
         22    1    5    5    0    0 -0.95762035844E+02 -0.58678144555E+02 -0.13253759263E+03  0.17372307163E+03  0.00000000000E+00 0. -1.
         22    1    5    5    0    0  0.11729396028E+03  0.11259538207E+03  0.98020899557E+03  0.99360216796E+03  0.00000000000E+00 0. -1.
          5    1    4    4  502    0 -0.45513327841E+02  0.25419858906E+02  0.99503583178E+01  0.53279751018E+02  0.47000000000E+01 0. -1.
         -5    1    4    4    0  502  0.23981403401E+02 -0.79337096420E+02 -0.18322219704E+02  0.85013389018E+02  0.47000000000E+01 0. -1.
<mgrwt>
<rscale>  0 0.10001078E+04</rscale>
<asrwt>0</asrwt>
<pdfrwt beam="1">  1        1 0.16499368E+00 0.10001078E+04</pdfrwt>
<pdfrwt beam="2">  1       -1 0.35870680E-01 0.10001078E+04</pdfrwt>
<totfact> 0.10992951E+02</totfact>
</mgrwt>
</event>
<event>
 9    1  0.4369420E-036  0.9998542E+03  0.7818608E-02  0.8681177E-01
          1   -1    0    0  501    0  0.00000000000E+00  0.00000000000E+00  0.49042972249E+03  0.49042972249E+03  0.00000000000E+00 0.  1.
         -1   -1    0    0    0  501 -0.00000000000E+00 -0.00000000000E+00 -0.50960834830E+03  0.50960834830E+03  0.00000000000E+00 0.  1.
         36    2    1    2    0    0  0.28421709430E-13  0.00000000000E+00 -0.19178625814E+02  0.10000380708E+04  0.99985415103E+03 0.  0.
         25    2    3    3    0    0 -0.85007985819E+02 -0.94969196005E+02  0.51844276114E+02  0.18575735719E+03  0.12478966681E+03 0.  0.
         35    2    3    3    0    0  0.85007985819E+02  0.94969196005E+02 -0.71022901929E+02  0.81428071360E+03  0.80110131824E+03 0.  0.
         22    1    5    5    0    0 -0.31370553968E+03  0.21797994006E+03  0.35473681000E+02  0.38364671501E+03  0.00000000000E+00 0. -1.
         22    1    5    5    0    0  0.39871352550E+03 -0.12301074405E+03 -0.10649658293E+03  0.43063399859E+03  0.00000000000E+00 0. -1.
          5    1    4    4  502    0  0.27795086086E+02 -0.47892039864E+02  0.22565859527E+02  0.59979349022E+02  0.47000000000E+01 0.  1.
         -5    1    4    4    0  502 -0.11280307190E+03 -0.47077156141E+02  0.29278416587E+02  0.12577800817E+03  0.47000000000E+01 0.  1.
<mgrwt>
<rscale>  0 0.99985415E+03</rscale>
<asrwt>0</asrwt>
<pdfrwt beam="1">  1        1 0.75450726E-01 0.99985415E+03</pdfrwt>
<pdfrwt beam="2">  1       -1 0.78401284E-01 0.99985415E+03</pdfrwt>
<totfact> 0.87590418E+01</totfact>
</mgrwt>
</event>
<event>
 9    1  0.4369420E-036  0.1011092E+04  0.7818608E-02  0.8670547E-01
         -2   -1    0    0    0  501 -0.00000000000E+00  0.00000000000E+00  0.39498236155E+03  0.39498236155E+03  0.00000000000E+00 0.  1.
          2   -1    0    0  501    0  0.00000000000E+00 -0.00000000000E+00 -0.64705828580E+03  0.64705828580E+03  0.00000000000E+00 0.  1.
         36    2    1    2    0    0  0.21316282073E-13 -0.14210854715E-13 -0.25207592425E+03  0.10420406473E+04  0.10110917066E+04 0.  0.
         25    2    3    3    0    0 -0.41867884172E+02 -0.54342988693E+02 -0.18812394008E+03  0.23607649526E+03  0.12504165161E+03 0.  0.
         35    2    3    3    0    0  0.41867884172E+02  0.54342988693E+02 -0.63951984166E+02  0.80596415209E+03  0.80048877445E+03 0.  0.
         22    1    5    5    0    0 -0.21046157913E+03  0.10287679989E+03 -0.35018426110E+03  0.42131547440E+03  0.00000000000E+00 0.  1.
         22    1    5    5    0    0  0.25232946331E+03 -0.48533811193E+02  0.28623227694E+03  0.38464867768E+03  0.00000000000E+00 0.  1.
          5    1    4    4  502    0 -0.56772624005E+02 -0.13835499705E+02 -0.18323514883E+03  0.19238441116E+03  0.47000000000E+01 0. -1.
         -5    1    4    4    0  502  0.14904739834E+02 -0.40507488988E+02 -0.48887912501E+01  0.43692084106E+02  0.47000000000E+01 0. -1.
<mgrwt>
<rscale>  0 0.10110917E+04</rscale>
<asrwt>0</asrwt>
<pdfrwt beam="1">  1        2 0.99547428E-01 0.10110917E+04</pdfrwt>
<pdfrwt beam="2">  1       -2 0.60766518E-01 0.10110917E+04</pdfrwt>
<totfact> 0.13798087E+02</totfact>
</mgrwt>
</event>
<event>
 9    1  0.4369420E-036  0.9987169E+03  0.7818608E-02  0.8682261E-01
         -1   -1    0    0    0  501 -0.00000000000E+00  0.00000000000E+00  0.41695222895E+03  0.41695222895E+03  0.00000000000E+00 0. -1.
          1   -1    0    0  501    0  0.00000000000E+00 -0.00000000000E+00 -0.59805138086E+03  0.59805138086E+03  0.00000000000E+00 0. -1.
         36    2    1    2    0    0  0.28421709430E-13  0.00000000000E+00 -0.18109915191E+03  0.10150036098E+04  0.99871688936E+03 0.  0.
         25    2    3    3    0    0 -0.47277799321E+02  0.44948738789E+02 -0.15713999085E+03  0.21102333544E+03  0.12482905090E+03 0.  0.
         35    2    3    3    0    0  0.47277799321E+02 -0.44948738789E+02 -0.23959161059E+02  0.80398027437E+03  0.80097107360E+03 0.  0.
         22    1    5    5    0    0  0.29907094485E+03  0.26774230705E+03 -0.29310833862E+02  0.40247794724E+03  0.00000000000E+00 0. -1.
         22    1    5    5    0    0 -0.25179314553E+03 -0.31269104584E+03  0.53516728032E+01  0.40150232712E+03  0.00000000000E+00 0. -1.
          5    1    4    4  502    0 -0.86054958210E+02  0.52626364801E+02 -0.10995194508E+03  0.14928667165E+03  0.47000000000E+01 0. -1.
         -5    1    4    4    0  502  0.38777158889E+02 -0.76776260121E+01 -0.47188045773E+02  0.61736663795E+02  0.47000000000E+01 0. -1.
<mgrwt>
<rscale>  0 0.99871689E+03</rscale>
<asrwt>0</asrwt>
<pdfrwt beam="1">  1        1 0.92007905E-01 0.99871689E+03</pdfrwt>
<pdfrwt beam="2">  1       -1 0.64146497E-01 0.99871689E+03</pdfrwt>
<totfact> 0.98717378E+01</totfact>
</mgrwt>
</event>
<event>
 9    1  0.4369420E-036  0.9996776E+03  0.7818608E-02  0.8681345E-01
          4   -1    0    0  501    0  0.00000000000E+00  0.00000000000E+00  0.32777477822E+03  0.32777477822E+03  0.00000000000E+00 0.  1.
         -4   -1    0    0    0  501 -0.00000000000E+00 -0.00000000000E+00 -0.76222717944E+03  0.76222717944E+03  0.00000000000E+00 0.  1.
         36    2    1    2    0    0 -0.14210854715E-13  0.00000000000E+00 -0.43445240123E+03  0.10900019577E+04  0.99967763743E+03 0.  0.
         25    2    3    3    0    0  0.62643307030E+02  0.12381572050E+03 -0.60843524328E+02  0.19719355547E+03  0.12620953731E+03 0.  0.
         35    2    3    3    0    0 -0.62643307030E+02 -0.12381572050E+03 -0.37360887690E+03  0.89280840219E+03  0.79891722572E+03 0.  0.
         22    1    5    5    0    0 -0.39467894638E+03 -0.17159041217E+03 -0.35317927688E+03  0.55673184019E+03  0.00000000000E+00 0. -1.
         22    1    5    5    0    0  0.33203563935E+03  0.47774691668E+02 -0.20429600016E+02  0.33607656199E+03  0.00000000000E+00 0. -1.
          5    1    4    4  502    0  0.95177469463E+02  0.51983675994E+02 -0.33597272755E+02  0.11363062967E+03  0.47000000000E+01 0.  1.
         -5    1    4    4    0  502 -0.32534162433E+02  0.71832044508E+02 -0.27246251573E+02  0.83562925800E+02  0.47000000000E+01 0.  1.
<mgrwt>
<rscale>  0 0.99967764E+03</rscale>
<asrwt>0</asrwt>
<pdfrwt beam="1">  1        4 0.50426889E-01 0.99967764E+03</pdfrwt>
<pdfrwt beam="2">  1       -4 0.11726572E+00 0.99967764E+03</pdfrwt>
<totfact> 0.46167806E+00</totfact>
</mgrwt>
</event>
<event>
 9    1  0.4369420E-036  0.9941994E+03  0.7818608E-02  0.8686582E-01
          1   -1    0    0  501    0  0.00000000000E+00  0.00000000000E+00  0.11451667145E+04  0.11451667145E+04  0.00000000000E+00 0.  1.
         -1   -1    0    0    0  501 -0.00000000000E+00 -0.00000000000E+00 -0.21578354640E+03  0.21578354640E+03  0.00000000000E+00 0.  1.
         36    2    1    2    0    0 -0.14210854715E-13  0.00000000000E+00  0.92938316814E+03  0.13609502609E+04  0.99419944656E+03 0.  0.
         25    2    3    3    0    0 -0.46561012504E+02  0.52288423408E+02  0.16288028805E+02  0.14508479824E+03  0.12602496455E+03 0.  0.
         35    2    3    3    0    0  0.46561012504E+02 -0.52288423408E+02  0.91309513934E+03  0.12158654627E+04  0.79980252739E+03 0.  0.
         22    1    5    5    0    0  0.38426917087E+03 -0.11301729921E+03  0.71530527516E+03  0.81981543184E+03  0.00000000000E+00 0.  1.
         22    1    5    5    0    0 -0.33770815836E+03  0.60728875806E+02  0.19778986418E+03  0.39605003087E+03  0.00000000000E+00 0.  1.
          5    1    4    4  502    0 -0.27190885594E+02 -0.25506505952E+02  0.46053261162E+02  0.59438362772E+02  0.47000000000E+01 0. -1.
         -5    1    4    4    0  502 -0.19370126909E+02  0.77794929361E+02 -0.29765232357E+02  0.85646435466E+02  0.47000000000E+01 0. -1.
<mgrwt>
<rscale>  0 0.99419945E+03</rscale>
<asrwt>0</asrwt>
<pdfrwt beam="1">  1        1 0.17617949E+00 0.99419945E+03</pdfrwt>
<pdfrwt beam="2">  1       -1 0.33197469E-01 0.99419945E+03</pdfrwt>
<totfact> 0.11073202E+02</totfact>
</mgrwt>
</event>
<event>
 9    1  0.4369420E-036  0.1000610E+04  0.7818608E-02  0.8680457E-01
         -1   -1    0    0    0  501 -0.00000000000E+00  0.00000000000E+00  0.25681877788E+03  0.25681877788E+03  0.00000000000E+00 0.  1.
          1   -1    0    0  501    0  0.00000000000E+00 -0.00000000000E+00 -0.97463696106E+03  0.97463696106E+03  0.00000000000E+00 0.  1.
         36    2    1    2    0    0 -0.28421709430E-13  0.35527136788E-13 -0.71781818318E+03  0.12314557389E+04  0.10006099604E+04 0.  0.
         25    2    3    3    0    0  0.11577733214E+03 -0.50247873068E+02 -0.20978679896E+03  0.27556352889E+03  0.12647338871E+03 0.  0.
         35    2    3    3    0    0 -0.11577733214E+03  0.50247873068E+02 -0.50803138423E+03  0.95589221005E+03  0.79981547277E+03 0.  0.
         22    1    5    5    0    0 -0.18256675458E+03 -0.32994237750E+03 -0.91558022546E+02  0.38804054406E+03  0.00000000000E+00 0.  1.
         22    1    5    5    0    0  0.66789422435E+02  0.38019025056E+03 -0.41647336168E+03  0.56785166599E+03  0.00000000000E+00 0.  1.
          5    1    4    4  502    0  0.18148341844E+02 -0.63357912710E+02 -0.13982472549E+03  0.15465002836E+03  0.47000000000E+01 0. -1.
         -5    1    4    4    0  502  0.97628990296E+02  0.13110039642E+02 -0.69962073464E+02  0.12091350052E+03  0.47000000000E+01 0. -1.
<mgrwt>
<rscale>  0 0.10006100E+04</rscale>
<asrwt>0</asrwt>
<pdfrwt beam="1">  1        1 0.14994415E+00 0.10006100E+04</pdfrwt>
<pdfrwt beam="2">  1       -1 0.39510580E-01 0.10006100E+04</pdfrwt>
<totfact> 0.11069490E+02</totfact>
</mgrwt>
</event>
<event>
 9    1  0.4369420E-036  0.9999522E+03  0.7818608E-02  0.8681084E-01
         -2   -1    0    0    0  501 -0.00000000000E+00  0.00000000000E+00  0.46999519406E+03  0.46999519406E+03  0.00000000000E+00 0. -1.
          2   -1    0    0  501    0  0.00000000000E+00 -0.00000000000E+00 -0.53186943739E+03  0.53186943739E+03  0.00000000000E+00 0. -1.
         36    2    1    2    0    0 -0.14210854715E-13 -0.35527136788E-13 -0.61874243323E+02  0.10018646315E+04  0.99995215774E+03 0.  0.
         25    2    3    3    0    0  0.56860023626E+02 -0.24896605289E+02 -0.13836779395E+03  0.19669689662E+03  0.12526419877E+03 0.  0.
         35    2    3    3    0    0 -0.56860023626E+02  0.24896605289E+02  0.76493550631E+02  0.80516773483E+03  0.79911883640E+03 0.  0.
         22    1    5    5    0    0 -0.19677935578E+03  0.28666979304E+03  0.27903464758E+03  0.44582734288E+03  0.00000000000E+00 0.  1.
         22    1    5    5    0    0  0.13991933216E+03 -0.26177318775E+03 -0.20254109695E+03  0.35934039196E+03  0.00000000000E+00 0.  1.
          5    1    4    4  502    0  0.56593034973E+02 -0.49217231548E+02 -0.22838594234E+02  0.78541701505E+02  0.47000000000E+01 0. -1.
         -5    1    4    4    0  502  0.26698865268E+00  0.24320626259E+02 -0.11552919972E+03  0.11815519511E+03  0.47000000000E+01 0. -1.
<mgrwt>
<rscale>  0 0.99995216E+03</rscale>
<asrwt>0</asrwt>
<pdfrwt beam="1">  1        2 0.81826067E-01 0.99995216E+03</pdfrwt>
<pdfrwt beam="2">  1       -2 0.72306953E-01 0.99995216E+03</pdfrwt>
<totfact> 0.11989206E+02</totfact>
</mgrwt>
</event>
<event>
 9    1  0.4369420E-036  0.1001113E+04  0.7818608E-02  0.8679978E-01
         -2   -1    0    0    0  501 -0.00000000000E+00  0.00000000000E+00  0.50304288647E+03  0.50304288647E+03  0.00000000000E+00 0. -1.
          2   -1    0    0  501    0  0.00000000000E+00 -0.00000000000E+00 -0.49808273640E+03  0.49808273640E+03  0.00000000000E+00 0. -1.
         36    2    1    2    0    0  0.00000000000E+00 -0.39079850467E-13  0.49601500686E+01  0.10011256229E+04  0.10011133351E+04 0.  0.
         25    2    3    3    0    0  0.13196524940E+03 -0.14686802894E+02 -0.38018849869E+02  0.18787205373E+03  0.12735755336E+03 0.  0.
         35    2    3    3    0    0 -0.13196524940E+03  0.14686802894E+02  0.42978999938E+02  0.81325356915E+03  0.80118889413E+03 0.  0.
         22    1    5    5    0    0 -0.53593302736E+02  0.28802421675E+03 -0.26431777640E+03  0.39458088962E+03  0.00000000000E+00 0.  1.
         22    1    5    5    0    0 -0.78371946660E+02 -0.27333741386E+03  0.30729677634E+03  0.41867267953E+03  0.00000000000E+00 0.  1.
          5    1    4    4  502    0  0.10261935672E+02  0.24909124157E+02 -0.52291172383E+02  0.59010410092E+02  0.47000000000E+01 0.  1.
         -5    1    4    4    0  502  0.12170331372E+03 -0.39595927051E+02  0.14272322514E+02  0.12886164363E+03  0.47000000000E+01 0.  1.
<mgrwt>
<rscale>  0 0.10011133E+04</rscale>
<asrwt>0</asrwt>
<pdfrwt beam="1">  1        2 0.76628113E-01 0.10011133E+04</pdfrwt>
<pdfrwt beam="2">  1       -2 0.77391214E-01 0.10011133E+04</pdfrwt>
<totfact> 0.11114603E+02</totfact>
</mgrwt>
</event>
<event>
 9    1  0.4369420E-036  0.1000596E+04  0.7818608E-02  0.8680471E-01
          1   -1    0    0  501    0  0.00000000000E+00  0.00000000000E+00  0.20742611959E+04  0.20742611959E+04  0.00000000000E+00 0. -1.
         -1   -1    0    0    0  501 -0.00000000000E+00 -0.00000000000E+00 -0.12066854733E+03  0.12066854733E+03  0.00000000000E+00 0. -1.
         36    2    1    2    0    0  0.00000000000E+00  0.71054273576E-14  0.19535926485E+04  0.21949297432E+04  0.10005959930E+04 0.  0.
         25    2    3    3    0    0  0.12437293299E+03  0.43583717680E+02  0.25981695341E+03  0.31701280399E+03  0.12499640677E+03 0.  0.
         35    2    3    3    0    0 -0.12437293299E+03 -0.43583717680E+02  0.16937756951E+04  0.18779169392E+04  0.80020482268E+03 0.  0.
         22    1    5    5    0    0  0.22346147249E+03  0.38462005672E+02  0.10578688707E+03  0.25021035359E+03  0.00000000000E+00 0. -1.
         22    1    5    5    0    0 -0.34783440548E+03 -0.82045723352E+02  0.15879888081E+04  0.16277065856E+04  0.00000000000E+00 0. -1.
          5    1    4    4  502    0 -0.22349425220E+02  0.24670309263E+02  0.49262532086E+02  0.59640657561E+02  0.47000000000E+01 0.  1.
         -5    1    4    4    0  502  0.14672235821E+03  0.18913408417E+02  0.21055442132E+03  0.25737214643E+03  0.47000000000E+01 0.  1.
<mgrwt>
<rscale>  0 0.10005960E+04</rscale>
<asrwt>0</asrwt>
<pdfrwt beam="1">  1        1 0.31911708E+00 0.10005960E+04</pdfrwt>
<pdfrwt beam="2">  1       -1 0.18564393E-01 0.10005960E+04</pdfrwt>
<totfact> 0.63874815E+01</totfact>
</mgrwt>
</event>
<event>
 9    1  0.4369420E-036  0.9998135E+03  0.7818608E-02  0.8681216E-01
         -2   -1    0    0    0  501 -0.00000000000E+00  0.00000000000E+00  0.14663020883E+04  0.14663020883E+04  0.00000000000E+00 0. -1.
          2   -1    0    0  501    0  0.00000000000E+00 -0.00000000000E+00 -0.17043333805E+03  0.17043333805E+03  0.00000000000E+00 0. -1.
         36    2    1    2    0    0 -0.14210854715E-13 -0.28421709430E-13  0.12958687502E+04  0.16367354263E+04  0.99981350161E+03 0.  0.
         25    2    3    3    0    0  0.20087714487E+02  0.13349644554E+03  0.20476752273E+03  0.27546748044E+03  0.12541043485E+03 0.  0.
         35    2    3    3    0    0 -0.20087714487E+02 -0.13349644554E+03  0.10911012275E+04  0.13612679459E+04  0.80269777290E+03 0.  0.
         22    1    5    5    0    0  0.12421598038E+03 -0.13248618952E+03  0.11785972937E+04  0.11925073505E+04  0.00000000000E+00 0. -1.
         22    1    5    5    0    0 -0.14430369487E+03 -0.10102560233E+01 -0.87496066199E+02  0.16876059543E+03  0.00000000000E+00 0. -1.
          5    1    4    4  502    0 -0.37843165963E+02  0.11742092467E+03  0.12784513146E+03  0.17772519911E+03  0.47000000000E+01 0. -1.
         -5    1    4    4    0  502  0.57930880450E+02  0.16075520873E+02  0.76922391272E+02  0.97742281332E+02  0.47000000000E+01 0. -1.
<mgrwt>
<rscale>  0 0.99981350E+03</rscale>
<asrwt>0</asrwt>
<pdfrwt beam="1">  1        2 0.26220515E-01 0.99981350E+03</pdfrwt>
<pdfrwt beam="2">  1       -2 0.22558493E+00 0.99981350E+03</pdfrwt>
<totfact> 0.20373239E+01</totfact>
</mgrwt>
</event>
<event>
 9    1  0.4369420E-036  0.9995828E+03  0.7818608E-02  0.8681435E-01
          2   -1    0    0  501    0  0.00000000000E+00  0.00000000000E+00  0.13727296021E+04  0.13727296021E+04  0.00000000000E+00 0.  1.
         -2   -1    0    0    0  501 -0.00000000000E+00 -0.00000000000E+00 -0.18196698444E+03  0.18196698444E+03  0.00000000000E+00 0.  1.
         36    2    1    2    0    0 -0.71054273576E-14 -0.14210854715E-13  0.11907626176E+04  0.15546965865E+04  0.99958284528E+03 0.  0.
         25    2    3    3    0    0  0.21844111900E+02  0.12518498885E+03  0.31487335399E+03  0.36188367200E+03  0.12516435733E+03 0.  0.
         35    2    3    3    0    0 -0.21844111900E+02 -0.12518498885E+03  0.87588926363E+03  0.11928129145E+04  0.79967005711E+03 0.  0.
         22    1    5    5    0    0 -0.46915903105E+02 -0.51049357810E+02  0.10234434057E+04  0.10257892296E+04  0.00000000000E+00 0. -1.
         22    1    5    5    0    0  0.25071791205E+02 -0.74135631039E+02 -0.14755414203E+03  0.16702368495E+03  0.00000000000E+00 0. -1.
          5    1    4    4  502    0  0.59401391366E+02  0.61260765293E+02  0.85942406184E+02  0.12120063466E+03  0.47000000000E+01 0. -1.
         -5    1    4    4    0  502 -0.37557279465E+02  0.63924223555E+02  0.22893094781E+03  0.24068303734E+03  0.47000000000E+01 0. -1.
<mgrwt>
<rscale>  0 0.99958285E+03</rscale>
<asrwt>0</asrwt>
<pdfrwt beam="1">  1        2 0.21118916E+00 0.99958285E+03</pdfrwt>
<pdfrwt beam="2">  1       -2 0.27994922E-01 0.99958285E+03</pdfrwt>
<totfact> 0.20976041E+02</totfact>
</mgrwt>
</event>
<event>
 9    1  0.4369420E-036  0.9996735E+03  0.7818608E-02  0.8681349E-01
          2   -1    0    0  501    0  0.00000000000E+00  0.00000000000E+00  0.17080626752E+04  0.17080626752E+04  0.00000000000E+00 0. -1.
         -2   -1    0    0    0  501 -0.00000000000E+00 -0.00000000000E+00 -0.14626910378E+03  0.14626910378E+03  0.00000000000E+00 0. -1.
         36    2    1    2    0    0  0.28421709430E-13  0.00000000000E+00  0.15617935714E+04  0.18543317789E+04  0.99967354008E+03 0.  0.
         25    2    3    3    0    0 -0.10501599755E+03 -0.91125167431E+02  0.27843284886E+03  0.33573782856E+03  0.12594793495E+03 0.  0.
         35    2    3    3    0    0  0.10501599755E+03  0.91125167431E+02  0.12833607225E+04  0.15185939504E+04  0.79986291708E+03 0.  0.
         22    1    5    5    0    0  0.26908796463E+03  0.33186517276E+03  0.10851392788E+04  0.11662204251E+04  0.00000000000E+00 0. -1.
         22    1    5    5    0    0 -0.16407196708E+03 -0.24074000533E+03  0.19822144375E+03  0.35237352527E+03  0.00000000000E+00 0. -1.
          5    1    4    4  502    0 -0.27024576324E+02  0.82936836616E+01  0.15980985056E+03  0.16235883483E+03  0.47000000000E+01 0.  1.
         -5    1    4    4    0  502 -0.77991421228E+02 -0.99418851093E+02  0.11862299830E+03  0.17337899372E+03  0.47000000000E+01 0.  1.
<mgrwt>
<rscale>  0 0.99967354E+03</rscale>
<asrwt>0</asrwt>
<pdfrwt beam="1">  1        2 0.26277886E+00 0.99967354E+03</pdfrwt>
<pdfrwt beam="2">  1       -2 0.22502940E-01 0.99967354E+03</pdfrwt>
<totfact> 0.19967287E+02</totfact>
</mgrwt>
</event>
<event>
 9    1  0.4369420E-036  0.1000872E+04  0.7818608E-02  0.8680208E-01
          1   -1    0    0  501    0  0.00000000000E+00  0.00000000000E+00  0.17652997271E+04  0.17652997271E+04  0.00000000000E+00 0. -1.
         -1   -1    0    0    0  501 -0.00000000000E+00 -0.00000000000E+00 -0.14186606081E+03  0.14186606081E+03  0.00000000000E+00 0. -1.
         36    2    1    2    0    0 -0.28421709430E-13  0.00000000000E+00  0.16234336663E+04  0.19071657879E+04  0.10008718568E+04 0.  0.
         25    2    3    3    0    0  0.42223527827E+02 -0.76852236209E+02  0.91111367223E+02  0.17739552966E+03  0.12441382638E+03 0.  0.
         35    2    3    3    0    0 -0.42223527827E+02  0.76852236209E+02  0.15323222991E+04  0.17297702582E+04  0.79774960081E+03 0.  0.
         22    1    5    5    0    0 -0.36267447366E+03  0.23143341238E+03  0.66181814879E+03  0.78936522617E+03  0.00000000000E+00 0.  1.
         22    1    5    5    0    0  0.32045094584E+03 -0.15458117617E+03  0.87050415026E+03  0.94040503207E+03  0.00000000000E+00 0.  1.
          5    1    4    4  502    0  0.54019981512E+02  0.17515702408E+02  0.35030370470E+02  0.66889274841E+02  0.47000000000E+01 0. -1.
         -5    1    4    4    0  502 -0.11796453685E+02 -0.94367938617E+02  0.56080996752E+02  0.11050625482E+03  0.47000000000E+01 0. -1.
<mgrwt>
<rscale>  0 0.10008719E+04</rscale>
<asrwt>0</asrwt>
<pdfrwt beam="1">  1        1 0.27158456E+00 0.10008719E+04</pdfrwt>
<pdfrwt beam="2">  1       -1 0.21825549E-01 0.10008719E+04</pdfrwt>
<totfact> 0.80508684E+01</totfact>
</mgrwt>
</event>
<event>
 9    1  0.4369420E-036  0.9985643E+03  0.7818608E-02  0.8682406E-01
         -2   -1    0    0    0  501 -0.00000000000E+00  0.00000000000E+00  0.22936332566E+03  0.22936332566E+03  0.00000000000E+00 0. -1.
          2   -1    0    0  501    0  0.00000000000E+00 -0.00000000000E+00 -0.10868461668E+04  0.10868461668E+04  0.00000000000E+00 0. -1.
         36    2    1    2    0    0  0.00000000000E+00 -0.28421709430E-13 -0.85748284113E+03  0.13162094925E+04  0.99856427194E+03 0.  0.
         25    2    3    3    0    0 -0.97264444191E+02 -0.83334241943E+02 -0.24121801033E+03  0.30012725101E+03  0.12443982607E+03 0.  0.
         35    2    3    3    0    0  0.97264444191E+02  0.83334241943E+02 -0.61626483080E+03  0.10160822414E+04  0.79764391285E+03 0.  0.
         22    1    5    5    0    0 -0.13220576152E+03 -0.29808364780E+03 -0.41442534321E+03  0.52733347093E+03  0.00000000000E+00 0. -1.
         22    1    5    5    0    0  0.22947020571E+03  0.38141788975E+03 -0.20183948759E+03  0.48874877051E+03  0.00000000000E+00 0. -1.
          5    1    4    4  502    0  0.22804728994E+02 -0.44599837768E+02 -0.90254007136E+02  0.10332994241E+03  0.47000000000E+01 0.  1.
         -5    1    4    4    0  502 -0.12006917319E+03 -0.38734404175E+02 -0.15096400319E+03  0.19679730861E+03  0.47000000000E+01 0.  1.
<mgrwt>
<rscale>  0 0.99856427E+03</rscale>
<asrwt>0</asrwt>
<pdfrwt beam="1">  1        2 0.16720710E+00 0.99856427E+03</pdfrwt>
<pdfrwt beam="2">  1       -2 0.35286665E-01 0.99856427E+03</pdfrwt>
<totfact> 0.20205956E+02</totfact>
</mgrwt>
</event>
<event>
 9    1  0.4369420E-036  0.9962645E+03  0.7818608E-02  0.8684603E-01
         -1   -1    0    0    0  501 -0.00000000000E+00  0.00000000000E+00  0.19376560261E+03  0.19376560261E+03  0.00000000000E+00 0. -1.
          1   -1    0    0  501    0  0.00000000000E+00 -0.00000000000E+00 -0.12805973321E+04  0.12805973321E+04  0.00000000000E+00 0. -1.
         36    2    1    2    0    0 -0.71054273576E-14  0.42632564146E-13 -0.10868317295E+04  0.14743629347E+04  0.99626445034E+03 0.  0.
         25    2    3    3    0    0 -0.26880359400E+02 -0.45593109007E+02 -0.38972631116E+03  0.41324003795E+03  0.12680475561E+03 0.  0.
         35    2    3    3    0    0  0.26880359400E+02  0.45593109007E+02 -0.69710541829E+03  0.10611228967E+04  0.79826346054E+03 0.  0.
         22    1    5    5    0    0  0.50173478426E+01 -0.35077748546E+03 -0.51800224390E+03  0.62561676990E+03  0.00000000000E+00 0. -1.
         22    1    5    5    0    0  0.21863011558E+02  0.39637059447E+03 -0.17910317439E+03  0.43550612683E+03  0.00000000000E+00 0. -1.
          5    1    4    4  502    0 -0.49449930558E+02 -0.14164280725E+02 -0.36136072177E+03  0.36503367477E+03  0.47000000000E+01 0.  1.
         -5    1    4    4    0  502  0.22569571157E+02 -0.31428828282E+02 -0.28365589391E+02  0.48206363179E+02  0.47000000000E+01 0.  1.
<mgrwt>
<rscale>  0 0.99626445E+03</rscale>
<asrwt>0</asrwt>
<pdfrwt beam="1">  1        1 0.19701498E+00 0.99626445E+03</pdfrwt>
<pdfrwt beam="2">  1       -1 0.29810092E-01 0.99626445E+03</pdfrwt>
<totfact> 0.10562532E+02</totfact>
</mgrwt>
</event>
<event>
 9    1  0.4369420E-036  0.1000110E+04  0.7818608E-02  0.8680933E-01
          1   -1    0    0  501    0  0.00000000000E+00  0.00000000000E+00  0.72175267040E+03  0.72175267040E+03  0.00000000000E+00 0.  1.
         -1   -1    0    0    0  501 -0.00000000000E+00 -0.00000000000E+00 -0.34645556180E+03  0.34645556180E+03  0.00000000000E+00 0.  1.
         36    2    1    2    0    0  0.00000000000E+00  0.14210854715E-13  0.37529710859E+03  0.10682082322E+04  0.10001104477E+04 0.  0.
         25    2    3    3    0    0  0.13132325060E+03 -0.41859431607E+02  0.99736668165E+02  0.21102113348E+03  0.12483792547E+03 0.  0.
         35    2    3    3    0    0 -0.13132325060E+03  0.41859431607E+02  0.27556044043E+03  0.85718709872E+03  0.79989884218E+03 0.  0.
         22    1    5    5    0    0 -0.26945924102E+03  0.34784770745E+03  0.29592206133E+02  0.44100114378E+03  0.00000000000E+00 0. -1.
         22    1    5    5    0    0  0.13813599042E+03 -0.30598827585E+03  0.24596823430E+03  0.41618595494E+03  0.00000000000E+00 0. -1.
          5    1    4    4  502    0  0.49598511409E+01 -0.37568011929E+02 -0.14217723469E+02  0.40745420654E+02  0.47000000000E+01 0. -1.
         -5    1    4    4    0  502  0.12636339946E+03 -0.42914196785E+01  0.11395439163E+03  0.17027571283E+03  0.47000000000E+01 0. -1.
<mgrwt>
<rscale>  0 0.10001104E+04</rscale>
<asrwt>0</asrwt>
<pdfrwt beam="1">  1        1 0.11103887E+00 0.10001104E+04</pdfrwt>
<pdfrwt beam="2">  1       -1 0.53300856E-01 0.10001104E+04</pdfrwt>
<totfact> 0.10592825E+02</totfact>
</mgrwt>
</event>
<event>
 9    1  0.4369420E-036  0.9999689E+03  0.7818608E-02  0.8681068E-01
         -2   -1    0    0    0  501 -0.00000000000E+00  0.00000000000E+00  0.89003145363E+02  0.89003145363E+02  0.00000000000E+00 0. -1.
          2   -1    0    0  501    0  0.00000000000E+00 -0.00000000000E+00 -0.28087145672E+04  0.28087145672E+04  0.00000000000E+00 0. -1.
         36    2    1    2    0    0 -0.21316282073E-13  0.14210854715E-13 -0.27197114218E+04  0.28977177126E+04  0.99996886133E+03 0.  0.
         25    2    3    3    0    0 -0.40516237874E+01 -0.11715517996E+03 -0.27503915767E+03  0.32358967618E+03  0.12378201983E+03 0.  0.
         35    2    3    3    0    0  0.40516237874E+01  0.11715517996E+03 -0.24446722642E+04  0.25741280364E+04  0.79747784711E+03 0.  0.
         22    1    5    5    0    0 -0.37306628717E+03 -0.30713031744E+02 -0.84929078672E+03  0.92812530693E+03  0.00000000000E+00 0.  1.
         22    1    5    5    0    0  0.37711791096E+03  0.14786821171E+03 -0.15953814775E+04  0.16460027295E+04  0.00000000000E+00 0.  1.
          5    1    4    4  502    0  0.58546949940E+02 -0.40758599471E+02 -0.12116943722E+03  0.14068806380E+03  0.47000000000E+01 0. -1.
         -5    1    4    4    0  502 -0.62598573727E+02 -0.76396580491E+02 -0.15386972044E+03  0.18290161238E+03  0.47000000000E+01 0. -1.
<mgrwt>
<rscale>  0 0.99996886E+03</rscale>
<asrwt>0</asrwt>
<pdfrwt beam="1">  1        2 0.43210978E+00 0.99996886E+03</pdfrwt>
<pdfrwt beam="2">  1       -2 0.13692796E-01 0.99996886E+03</pdfrwt>
<totfact> 0.10397796E+02</totfact>
</mgrwt>
</event>
<event>
 9    1  0.4369420E-036  0.1001930E+04  0.7818608E-02  0.8679202E-01
         -2   -1    0    0    0  501 -0.00000000000E+00  0.00000000000E+00  0.16130969167E+03  0.16130969167E+03  0.00000000000E+00 0. -1.
          2   -1    0    0  501    0  0.00000000000E+00 -0.00000000000E+00 -0.15558017854E+04  0.15558017854E+04  0.00000000000E+00 0. -1.
         36    2    1    2    0    0  0.00000000000E+00 -0.71054273576E-14 -0.13944920937E+04  0.17171114771E+04  0.10019299503E+04 0.  0.
         25    2    3    3    0    0  0.85134421250E+02  0.16643104020E+02 -0.76048278029E+02  0.16982454849E+03  0.12462814323E+03 0.  0.
         35    2    3    3    0    0 -0.85134421250E+02 -0.16643104020E+02 -0.13184438157E+04  0.15472869286E+04  0.80515705400E+03 0.  0.
         22    1    5    5    0    0 -0.19457071281E+02 -0.69521541061E+02  0.10165789678E+03  0.12468420217E+03  0.00000000000E+00 0.  1.
         22    1    5    5    0    0 -0.65677349968E+02  0.52878437041E+02 -0.14201017125E+04  0.14226027264E+04  0.00000000000E+00 0.  1.
          5    1    4    4  502    0  0.63606456699E+02 -0.47818023337E+02 -0.60172777518E+02  0.99875912230E+02  0.47000000000E+01 0. -1.
         -5    1    4    4    0  502  0.21527964551E+02  0.64461127357E+02 -0.15875500511E+02  0.69948636258E+02  0.47000000000E+01 0. -1.
<mgrwt>
<rscale>  0 0.10019300E+04</rscale>
<asrwt>0</asrwt>
<pdfrwt beam="1">  1        2 0.23935412E+00 0.10019300E+04</pdfrwt>
<pdfrwt beam="2">  1       -2 0.24816876E-01 0.10019300E+04</pdfrwt>
<totfact> 0.20475728E+02</totfact>
</mgrwt>
</event>
<event>
 9    1  0.4369420E-036  0.9996478E+03  0.7818608E-02  0.8681373E-01
          2   -1    0    0  501    0  0.00000000000E+00  0.00000000000E+00  0.67796276663E+03  0.67796276663E+03  0.00000000000E+00 0. -1.
         -2   -1    0    0    0  501 -0.00000000000E+00 -0.00000000000E+00 -0.36849213329E+03  0.36849213329E+03  0.00000000000E+00 0. -1.
         36    2    1    2    0    0  0.00000000000E+00  0.28421709430E-13  0.30947063333E+03  0.10464548999E+04  0.99964783032E+03 0.  0.
         25    2    3    3    0    0 -0.84950772409E+02 -0.94314062016E+02  0.12124941500E+03  0.21505828644E+03  0.12424520072E+03 0.  0.
         35    2    3    3    0    0  0.84950772409E+02  0.94314062016E+02  0.18822121833E+03  0.83139661348E+03  0.79980080386E+03 0.  0.
         22    1    5    5    0    0  0.13299455145E+03  0.26950598238E+03  0.43269015829E+03  0.52682235937E+03  0.00000000000E+00 0.  1.
         22    1    5    5    0    0 -0.48043779041E+02 -0.17519192037E+03 -0.24446893995E+03  0.30457425411E+03  0.00000000000E+00 0.  1.
          5    1    4    4  502    0 -0.54329964284E+01 -0.34220262728E+02 -0.21384419681E+02  0.40986915430E+02  0.47000000000E+01 0. -1.
         -5    1    4    4    0  502 -0.79517775980E+02 -0.60093799288E+02  0.14263383468E+03  0.17407137101E+03  0.47000000000E+01 0. -1.
<mgrwt>
<rscale>  0 0.99964783E+03</rscale>
<asrwt>0</asrwt>
<pdfrwt beam="1">  1        2 0.10430196E+00 0.99964783E+03</pdfrwt>
<pdfrwt beam="2">  1       -2 0.56691097E-01 0.99964783E+03</pdfrwt>
<totfact> 0.15066056E+02</totfact>
</mgrwt>
</event>
<event>
 9    1  0.4369420E-036  0.1001387E+04  0.7818608E-02  0.8679718E-01
          1   -1    0    0  501    0  0.00000000000E+00  0.00000000000E+00  0.42163789928E+03  0.42163789928E+03  0.00000000000E+00 0. -1.
         -1   -1    0    0    0  501 -0.00000000000E+00 -0.00000000000E+00 -0.59457214475E+03  0.59457214475E+03  0.00000000000E+00 0. -1.
         36    2    1    2    0    0 -0.35527136788E-14  0.35527136788E-14 -0.17293424547E+03  0.10162100440E+04  0.10013873378E+04 0.  0.
         25    2    3    3    0    0 -0.85076861024E+01  0.83988872475E+01 -0.17560669102E+03  0.21592398047E+03  0.12507011386E+03 0.  0.
         35    2    3    3    0    0  0.85076861024E+01 -0.83988872475E+01  0.26724455465E+01  0.80028606356E+03  0.80019230160E+03 0.  0.
         22    1    5    5    0    0 -0.38865467147E+02 -0.55126216609E+02  0.39583091277E+03  0.40153646882E+03  0.00000000000E+00 0. -1.
         22    1    5    5    0    0  0.47373153249E+02  0.46727329362E+02 -0.39315846722E+03  0.39874959474E+03  0.00000000000E+00 0. -1.
          5    1    4    4  502    0  0.17587114778E+02 -0.47756223817E+01 -0.18414954854E+03  0.18510877722E+03  0.47000000000E+01 0.  1.
         -5    1    4    4    0  502 -0.26094800880E+02  0.13174509629E+02  0.85428575192E+01  0.30815203253E+02  0.47000000000E+01 0.  1.
<mgrwt>
<rscale>  0 0.10013873E+04</rscale>
<asrwt>0</asrwt>
<pdfrwt beam="1">  1        1 0.64867369E-01 0.10013873E+04</pdfrwt>
<pdfrwt beam="2">  1       -1 0.91472638E-01 0.10013873E+04</pdfrwt>
<totfact> 0.77611157E+01</totfact>
</mgrwt>
</event>
<event>
 9    1  0.4369420E-036  0.9998975E+03  0.7818608E-02  0.8681136E-01
         -2   -1    0    0    0  501 -0.00000000000E+00  0.00000000000E+00  0.41001807052E+03  0.41001807052E+03  0.00000000000E+00 0.  1.
          2   -1    0    0  501    0  0.00000000000E+00 -0.00000000000E+00 -0.60960424812E+03  0.60960424812E+03  0.00000000000E+00 0.  1.
         36    2    1    2    0    0  0.42632564146E-13  0.00000000000E+00 -0.19958617760E+03  0.10196223186E+04  0.99989750994E+03 0.  0.
         25    2    3    3    0    0  0.55705143274E+02 -0.38662273874E+02  0.87459361729E+02  0.16738357162E+03  0.12557979808E+03 0.  0.
         35    2    3    3    0    0 -0.55705143274E+02  0.38662273874E+02 -0.28704553932E+03  0.85223874702E+03  0.79957357752E+03 0.  0.
         22    1    5    5    0    0  0.31450179430E+03  0.22535256971E+03 -0.15899208605E+03  0.41829850910E+03  0.00000000000E+00 0.  1.
         22    1    5    5    0    0 -0.37020693757E+03 -0.18669029583E+03 -0.12805345327E+03  0.43394023792E+03  0.00000000000E+00 0.  1.
          5    1    4    4  502    0  0.44269620689E+02  0.40927409623E+02  0.50403974621E+02  0.78724220111E+02  0.47000000000E+01 0. -1.
         -5    1    4    4    0  502  0.11435522585E+02 -0.79589683498E+02  0.37055387108E+02  0.88659351508E+02  0.47000000000E+01 0. -1.
<mgrwt>
<rscale>  0 0.99989751E+03</rscale>
<asrwt>0</asrwt>
<pdfrwt beam="1">  1        2 0.93785268E-01 0.99989751E+03</pdfrwt>
<pdfrwt beam="2">  1       -2 0.63079704E-01 0.99989751E+03</pdfrwt>
<totfact> 0.13704542E+02</totfact>
</mgrwt>
</event>
<event>
 9    1  0.4369420E-036  0.9987898E+03  0.7818608E-02  0.8682191E-01
          1   -1    0    0  501    0  0.00000000000E+00  0.00000000000E+00  0.74945265657E+03  0.74945265657E+03  0.00000000000E+00 0. -1.
         -1   -1    0    0    0  501 -0.00000000000E+00 -0.00000000000E+00 -0.33276986538E+03  0.33276986538E+03  0.00000000000E+00 0. -1.
         36    2    1    2    0    0 -0.14210854715E-13  0.00000000000E+00  0.41668279119E+03  0.10822225219E+04  0.99878978696E+03 0.  0.
         25    2    3    3    0    0  0.45611263100E+02 -0.56757623139E+02  0.20158256680E+03  0.25025425632E+03  0.12918918865E+03 0.  0.
         35    2    3    3    0    0 -0.45611263100E+02  0.56757623139E+02  0.21510022439E+03  0.83196826563E+03  0.80037570763E+03 0.  0.
         22    1    5    5    0    0 -0.37598758101E+03 -0.12488988455E+03 -0.34133050357E+01  0.39620170997E+03  0.00000000000E+00 0. -1.
         22    1    5    5    0    0  0.33037631791E+03  0.18164750769E+03  0.21851352942E+03  0.43576655565E+03  0.00000000000E+00 0. -1.
          5    1    4    4  502    0  0.69546702252E+02 -0.68195419493E+02  0.20088637781E+03  0.22330424497E+03  0.47000000000E+01 0. -1.
         -5    1    4    4    0  502 -0.23935439151E+02  0.11437796354E+02  0.69618899460E+00  0.26950011353E+02  0.47000000000E+01 0. -1.
<mgrwt>
<rscale>  0 0.99878979E+03</rscale>
<asrwt>0</asrwt>
<pdfrwt beam="1">  1        1 0.11530041E+00 0.99878979E+03</pdfrwt>
<pdfrwt beam="2">  1       -1 0.51195364E-01 0.99878979E+03</pdfrwt>
<totfact> 0.10766160E+02</totfact>
</mgrwt>
</event>
<event>
 9    1  0.4369420E-036  0.1000329E+04  0.7818608E-02  0.8680725E-01
         -2   -1    0    0    0  501 -0.00000000000E+00  0.00000000000E+00  0.29580374877E+03  0.29580374877E+03  0.00000000000E+00 0. -1.
          2   -1    0    0  501    0  0.00000000000E+00 -0.00000000000E+00 -0.84571032676E+03  0.84571032676E+03  0.00000000000E+00 0. -1.
         36    2    1    2    0    0  0.28421709430E-13 -0.14210854715E-13 -0.54990657799E+03  0.11415140755E+04  0.10003285161E+04 0.  0.
         25    2    3    3    0    0  0.70317771724E+02  0.12212559109E+03 -0.10725758659E+03  0.21657078090E+03  0.12465738742E+03 0.  0.
         35    2    3    3    0    0 -0.70317771724E+02 -0.12212559109E+03 -0.44264899140E+03  0.92494329464E+03  0.79982668103E+03 0.  0.
         22    1    5    5    0    0  0.23828944646E+03 -0.67352859460E+02 -0.54221123548E+03  0.59607993747E+03  0.00000000000E+00 0. -1.
         22    1    5    5    0    0 -0.30860721818E+03 -0.54772731630E+02  0.99562244079E+02  0.32886335717E+03  0.00000000000E+00 0. -1.
          5    1    4    4  502    0  0.46092353770E+02  0.12895569455E+03 -0.12495490715E+03  0.18544512680E+03  0.47000000000E+01 0.  1.
         -5    1    4    4    0  502  0.24225417954E+02 -0.68301034596E+01  0.17697320558E+02  0.31125654102E+02  0.47000000000E+01 0.  1.
<mgrwt>
<rscale>  0 0.10003285E+04</rscale>
<asrwt>0</asrwt>
<pdfrwt beam="1">  1        2 0.13010928E+00 0.10003285E+04</pdfrwt>
<pdfrwt beam="2">  1       -2 0.45508270E-01 0.10003285E+04</pdfrwt>
<totfact> 0.17709087E+02</totfact>
</mgrwt>
</event>
<event>
 9    1  0.4369420E-036  0.9991773E+03  0.7818608E-02  0.8681822E-01
         -2   -1    0    0    0  501 -0.00000000000E+00  0.00000000000E+00  0.33337410839E+03  0.33337410839E+03  0.00000000000E+00 0.  1.
          2   -1    0    0  501    0  0.00000000000E+00 -0.00000000000E+00 -0.74867481796E+03  0.74867481796E+03  0.00000000000E+00 0.  1.
         36    2    1    2    0    0  0.00000000000E+00  0.00000000000E+00 -0.41530070957E+03  0.10820489263E+04  0.99917726137E+03 0.  0.
         25    2    3    3    0    0  0.99209701574E+01 -0.11813184518E+03 -0.54673914690E+00  0.17275199731E+03  0.12565586002E+03 0.  0.
         35    2    3    3    0    0 -0.99209701574E+01  0.11813184518E+03 -0.41475397042E+03  0.90929692903E+03  0.80046642070E+03 0.  0.
         22    1    5    5    0    0  0.20252970415E+03  0.36597815921E+03 -0.52343692327E+02  0.42154259121E+03  0.00000000000E+00 0. -1.
         22    1    5    5    0    0 -0.21245067431E+03 -0.24784631403E+03 -0.36241027809E+03  0.48775433782E+03  0.00000000000E+00 0. -1.
          5    1    4    4  502    0  0.51098494182E+02 -0.93189326784E+02 -0.36512574182E+02  0.11247472964E+03  0.47000000000E+01 0. -1.
         -5    1    4    4    0  502 -0.41177524025E+02 -0.24942518394E+02  0.35965835035E+02  0.60277267675E+02  0.47000000000E+01 0. -1.
<mgrwt>
<rscale>  0 0.99917726E+03</rscale>
<asrwt>0</asrwt>
<pdfrwt beam="1">  1        2 0.11518074E+00 0.99917726E+03</pdfrwt>
<pdfrwt beam="2">  1       -2 0.51288324E-01 0.99917726E+03</pdfrwt>
<totfact> 0.16341451E+02</totfact>
</mgrwt>
</event>
<event>
 9    1  0.4369420E-036  0.1006601E+04  0.7818608E-02  0.8674777E-01
          1   -1    0    0  501    0  0.00000000000E+00  0.00000000000E+00  0.53032379750E+03  0.53032379750E+03  0.00000000000E+00 0.  1.
         -1   -1    0    0    0  501 -0.00000000000E+00 -0.00000000000E+00 -0.47765458111E+03  0.47765458111E+03  0.00000000000E+00 0.  1.
         36    2    1    2    0    0 -0.14210854715E-13  0.00000000000E+00  0.52669216391E+02  0.10079783786E+04  0.10066013935E+04 0.  0.
         25    2    3    3    0    0  0.83825959184E+02 -0.79534529953E+02  0.10222119489E+03  0.19841509844E+03  0.12476716601E+03 0.  0.
         35    2    3    3    0    0 -0.83825959184E+02  0.79534529953E+02 -0.49551978502E+02  0.80956328018E+03  0.79974044112E+03 0.  0.
         22    1    5    5    0    0  0.29892786200E+02  0.35304643317E+03 -0.26570564396E+03  0.44287114590E+03  0.00000000000E+00 0. -1.
         22    1    5    5    0    0 -0.11371874538E+03 -0.27351190321E+03  0.21615366546E+03  0.36669213428E+03  0.00000000000E+00 0. -1.
          5    1    4    4  502    0 -0.12579033377E+02 -0.64564995349E+02  0.15374156050E+02  0.67715030675E+02  0.47000000000E+01 0.  1.
         -5    1    4    4    0  502  0.96404992561E+02 -0.14969534604E+02  0.86847038843E+02  0.13070006776E+03  0.47000000000E+01 0.  1.
<mgrwt>
<rscale>  0 0.10066014E+04</rscale>
<asrwt>0</asrwt>
<pdfrwt beam="1">  1        1 0.81588277E-01 0.10066014E+04</pdfrwt>
<pdfrwt beam="2">  1       -1 0.73485320E-01 0.10066014E+04</pdfrwt>
<totfact> 0.89573578E+01</totfact>
</mgrwt>
</event>
<event>
 9    1  0.4369420E-036  0.1000062E+04  0.7818608E-02  0.8680979E-01
         -2   -1    0    0    0  501 -0.00000000000E+00  0.00000000000E+00  0.68205015120E+02  0.68205015120E+02  0.00000000000E+00 0.  1.
          2   -1    0    0  501    0  0.00000000000E+00 -0.00000000000E+00 -0.36658768499E+04  0.36658768499E+04  0.00000000000E+00 0.  1.
         36    2    1    2    0    0  0.00000000000E+00 -0.71054273576E-14 -0.35976718348E+04  0.37340818650E+04  0.10000623700E+04 0.  0.
         25    2    3    3    0    0 -0.11578309649E+03 -0.16392070072E+02 -0.38597773348E+03  0.42228056007E+03  0.12517042494E+03 0.  0.
         35    2    3    3    0    0  0.11578309649E+03  0.16392070072E+02 -0.32116941013E+04  0.33118013049E+04  0.79960894050E+03 0.  0.
         22    1    5    5    0    0 -0.22764056633E+03  0.26118889100E+03 -0.95196025136E+03  0.10130489546E+04  0.00000000000E+00 0.  1.
         22    1    5    5    0    0  0.34342366282E+03 -0.24479682093E+03 -0.22597338499E+04  0.22987523503E+04  0.00000000000E+00 0.  1.
          5    1    4    4  502    0  0.24670125036E+02 -0.14164621009E+01 -0.29254600477E+02  0.38581641790E+02  0.47000000000E+01 0. -1.
         -5    1    4    4    0  502 -0.14045322153E+03 -0.14975607971E+02 -0.35672313300E+03  0.38369891828E+03  0.47000000000E+01 0. -1.
<mgrwt>
<rscale>  0 0.10000624E+04</rscale>
<asrwt>0</asrwt>
<pdfrwt beam="1">  1        2 0.56398097E+00 0.10000624E+04</pdfrwt>
<pdfrwt beam="2">  1       -2 0.10493081E-01 0.10000624E+04</pdfrwt>
<totfact> 0.39712396E+01</totfact>
</mgrwt>
</event>
<event>
 9    1  0.4369420E-036  0.9958542E+03  0.7818608E-02  0.8684996E-01
          2   -1    0    0  501    0  0.00000000000E+00  0.00000000000E+00  0.74929382242E+03  0.74929382242E+03  0.00000000000E+00 0.  1.
         -2   -1    0    0    0  501 -0.00000000000E+00 -0.00000000000E+00 -0.33088675588E+03  0.33088675588E+03  0.00000000000E+00 0.  1.
         36    2    1    2    0    0  0.71054273576E-14  0.28421709430E-13  0.41840706653E+03  0.10801805783E+04  0.99585421042E+03 0.  0.
         25    2    3    3    0    0 -0.54712013347E+02  0.98411267174E+02  0.16018773701E+03  0.23268686255E+03  0.12571747295E+03 0.  0.
         35    2    3    3    0    0  0.54712013347E+02 -0.98411267174E+02  0.25821932952E+03  0.84749371575E+03  0.79930607040E+03 0.  0.
         22    1    5    5    0    0 -0.90882954048E+01  0.24046161472E+03 -0.17225904676E+03  0.29593506798E+03  0.00000000000E+00 0.  1.
         22    1    5    5    0    0  0.63800308752E+02 -0.33887288190E+03  0.43047837629E+03  0.55155864777E+03  0.00000000000E+00 0.  1.
          5    1    4    4  502    0  0.40359861911E+02  0.37272103803E+02  0.61053210275E+02  0.82266108819E+02  0.47000000000E+01 0.  1.
         -5    1    4    4    0  502 -0.95071875258E+02  0.61139163371E+02  0.99134526733E+02  0.15042075373E+03  0.47000000000E+01 0.  1.
<mgrwt>
<rscale>  0 0.99585421E+03</rscale>
<asrwt>0</asrwt>
<pdfrwt beam="1">  1        2 0.11527597E+00 0.99585421E+03</pdfrwt>
<pdfrwt beam="2">  1       -2 0.50905655E-01 0.99585421E+03</pdfrwt>
<totfact> 0.16573517E+02</totfact>
</mgrwt>
</event>
<event>
 9    1  0.4369420E-036  0.1001105E+04  0.7818608E-02  0.8679986E-01
          2   -1    0    0  501    0  0.00000000000E+00  0.00000000000E+00  0.70391532247E+03  0.70391532247E+03  0.00000000000E+00 0.  1.
         -2   -1    0    0    0  501 -0.00000000000E+00 -0.00000000000E+00 -0.35594162146E+03  0.35594162146E+03  0.00000000000E+00 0.  1.
         36    2    1    2    0    0 -0.14210854715E-13  0.00000000000E+00  0.34797370101E+03  0.10598569439E+04  0.10011049121E+04 0.  0.
         25    2    3    3    0    0 -0.12493560287E+03 -0.63315729679E+02  0.84686395492E+02  0.20630004100E+03  0.12557919751E+03 0.  0.
         35    2    3    3    0    0  0.12493560287E+03  0.63315729679E+02  0.26328730552E+03  0.85355690292E+03  0.79976333674E+03 0.  0.
         22    1    5    5    0    0  0.24280231457E+03  0.16348666904E+03  0.49493342755E+03  0.57501300213E+03  0.00000000000E+00 0.  1.
         22    1    5    5    0    0 -0.11786671170E+03 -0.10017093936E+03 -0.23164612203E+03  0.27854390079E+03  0.00000000000E+00 0.  1.
          5    1    4    4  502    0 -0.74864570096E+02 -0.72116303359E+02 -0.38177191419E+01  0.10412554944E+03  0.47000000000E+01 0. -1.
         -5    1    4    4    0  502 -0.50071032774E+02  0.88005736798E+01  0.88504114633E+02  0.10217449157E+03  0.47000000000E+01 0. -1.
<mgrwt>
<rscale>  0 0.10011049E+04</rscale>
<asrwt>0</asrwt>
<pdfrwt beam="1">  1        2 0.10829466E+00 0.10011049E+04</pdfrwt>
<pdfrwt beam="2">  1       -2 0.54760250E-01 0.10011049E+04</pdfrwt>
<totfact> 0.15448521E+02</totfact>
</mgrwt>
</event>
<event>
 9    1  0.4369420E-036  0.9999449E+03  0.7818608E-02  0.8681090E-01
         -2   -1    0    0    0  501 -0.00000000000E+00  0.00000000000E+00  0.98975141695E+02  0.98975141695E+02  0.00000000000E+00 0.  1.
          2   -1    0    0  501    0  0.00000000000E+00 -0.00000000000E+00 -0.25256084920E+04  0.25256084920E+04  0.00000000000E+00 0.  1.
         36    2    1    2    0    0 -0.71054273576E-14  0.00000000000E+00 -0.24266333503E+04  0.26245836337E+04  0.99994491521E+03 0.  0.
         25    2    3    3    0    0  0.42785832701E+02  0.13107848114E+03 -0.44433332700E+03  0.48177273710E+03  0.12514259479E+03 0.  0.
         35    2    3    3    0    0 -0.42785832701E+02 -0.13107848114E+03 -0.19823000233E+04  0.21428108966E+04  0.80194324019E+03 0.  0.
         22    1    5    5    0    0  0.19161686222E+03 -0.22575856982E+02 -0.18356981747E+04  0.18458099794E+04  0.00000000000E+00 0.  1.
         22    1    5    5    0    0 -0.23440269492E+03 -0.10850262415E+03 -0.14660184857E+03  0.29700091723E+03  0.00000000000E+00 0.  1.
          5    1    4    4  502    0  0.16894155834E+01  0.13902075698E+03 -0.28757531000E+03  0.31945465080E+03  0.47000000000E+01 0. -1.
         -5    1    4    4    0  502  0.41096417118E+02 -0.79422758451E+01 -0.15675801701E+03  0.16231808631E+03  0.47000000000E+01 0. -1.
<mgrwt>
<rscale>  0 0.99994492E+03</rscale>
<asrwt>0</asrwt>
<pdfrwt beam="1">  1        2 0.38855515E+00 0.99994492E+03</pdfrwt>
<pdfrwt beam="2">  1       -2 0.15226945E-01 0.99994492E+03</pdfrwt>
<totfact> 0.13099375E+02</totfact>
</mgrwt>
</event>
<event>
 9    1  0.4369420E-036  0.9916411E+03  0.7818608E-02  0.8689039E-01
          1   -1    0    0  501    0  0.00000000000E+00  0.00000000000E+00  0.42920168520E+03  0.42920168520E+03  0.00000000000E+00 0.  1.
         -1   -1    0    0    0  501 -0.00000000000E+00 -0.00000000000E+00 -0.57277971072E+03  0.57277971072E+03  0.00000000000E+00 0.  1.
         36    2    1    2    0    0 -0.14210854715E-13 -0.28421709430E-13 -0.14357802552E+03  0.10019813959E+04  0.99164109855E+03 0.  0.
         25    2    3    3    0    0  0.58395659340E+02  0.72267894031E+02  0.66832030213E+02  0.16956592762E+03  0.12511347653E+03 0.  0.
         35    2    3    3    0    0 -0.58395659340E+02 -0.72267894031E+02 -0.21041005573E+03  0.83241546829E+03  0.80000651170E+03 0.  0.
         22    1    5    5    0    0  0.21126615252E+03 -0.35171782439E+03 -0.54293641560E+02  0.41386787108E+03  0.00000000000E+00 0.  1.
         22    1    5    5    0    0 -0.26966181186E+03  0.27944993036E+03 -0.15611641417E+03  0.41854759721E+03  0.00000000000E+00 0.  1.
          5    1    4    4  502    0  0.45580346149E+02  0.79191407984E+02  0.98473477644E+02  0.13441712262E+03  0.47000000000E+01 0. -1.
         -5    1    4    4    0  502  0.12815313192E+02 -0.69235139536E+01 -0.31641447430E+02  0.35148805003E+02  0.47000000000E+01 0. -1.
<mgrwt>
<rscale>  0 0.99164110E+03</rscale>
<asrwt>0</asrwt>
<pdfrwt beam="1">  1        1 0.66031028E-01 0.99164110E+03</pdfrwt>
<pdfrwt beam="2">  1       -1 0.88119956E-01 0.99164110E+03</pdfrwt>
<totfact> 0.82180077E+01</totfact>
</mgrwt>
</event>
<event>
 9    1  0.4369420E-036  0.9997583E+03  0.7818608E-02  0.8681268E-01
          1   -1    0    0  501    0  0.00000000000E+00  0.00000000000E+00  0.31788640820E+03  0.31788640820E+03  0.00000000000E+00 0. -1.
         -1   -1    0    0    0  501 -0.00000000000E+00 -0.00000000000E+00 -0.78606436670E+03  0.78606436670E+03  0.00000000000E+00 0. -1.
         36    2    1    2    0    0 -0.14210854715E-13  0.14210854715E-13 -0.46817795850E+03  0.11039507749E+04  0.99975832708E+03 0.  0.
         25    2    3    3    0    0 -0.88681021105E+02 -0.21672218739E+02  0.31138037929E+02  0.15764985481E+03  0.12469920106E+03 0.  0.
         35    2    3    3    0    0  0.88681021105E+02  0.21672218739E+02 -0.49931599643E+03  0.94630092009E+03  0.79864570274E+03 0.  0.
         22    1    5    5    0    0  0.29816538758E+02 -0.38646932461E+03 -0.19569469104E+03  0.43421650930E+03  0.00000000000E+00 0. -1.
         22    1    5    5    0    0  0.58864482347E+02  0.40814154335E+03 -0.30362130539E+03  0.51208441079E+03  0.00000000000E+00 0. -1.
          5    1    4    4  502    0 -0.11779747719E+03 -0.13801798297E+02  0.73023396882E+01  0.11892076957E+03  0.47000000000E+01 0. -1.
         -5    1    4    4    0  502  0.29116456087E+02 -0.78704204418E+01  0.23835698241E+02  0.38729085241E+02  0.47000000000E+01 0. -1.
<mgrwt>
<rscale>  0 0.99975833E+03</rscale>
<asrwt>0</asrwt>
<pdfrwt beam="1">  1        1 0.48905601E-01 0.99975833E+03</pdfrwt>
<pdfrwt beam="2">  1       -1 0.12093298E+00 0.99975833E+03</pdfrwt>
<totfact> 0.59329390E+01</totfact>
</mgrwt>
</event>
<event>
 9    1  0.4369420E-036  0.9993030E+03  0.7818608E-02  0.8681702E-01
          2   -1    0    0  501    0  0.00000000000E+00  0.00000000000E+00  0.19509827545E+03  0.19509827545E+03  0.00000000000E+00 0.  1.
         -2   -1    0    0    0  501 -0.00000000000E+00 -0.00000000000E+00 -0.12796199467E+04  0.12796199467E+04  0.00000000000E+00 0.  1.
         36    2    1    2    0    0  0.00000000000E+00 -0.71054273576E-14 -0.10845216712E+04  0.14747182221E+04  0.99930304677E+03 0.  0.
         25    2    3    3    0    0 -0.79573825274E+02 -0.25845211236E+01 -0.31038472741E+02  0.15152614780E+03  0.12513238293E+03 0.  0.
         35    2    3    3    0    0  0.79573825274E+02  0.25845211236E+01 -0.10534831985E+04  0.13231920743E+04  0.79666287892E+03 0.  0.
         22    1    5    5    0    0 -0.20340496285E+03  0.21900072845E+03 -0.87518673533E+03  0.92481712769E+03  0.00000000000E+00 0. -1.
         22    1    5    5    0    0  0.28297878813E+03 -0.21641620733E+03 -0.17829646314E+03  0.39837494662E+03  0.00000000000E+00 0. -1.
          5    1    4    4  502    0 -0.10970597653E+03 -0.17600525797E+02 -0.36610815196E+02  0.11707955237E+03  0.47000000000E+01 0.  1.
         -5    1    4    4    0  502  0.30132151256E+02  0.15016004674E+02  0.55723424551E+01  0.34446595422E+02  0.47000000000E+01 0.  1.
<mgrwt>
<rscale>  0 0.99930305E+03</rscale>
<asrwt>0</asrwt>
<pdfrwt beam="1">  1        2 0.30015118E-01 0.99930305E+03</pdfrwt>
<pdfrwt beam="2">  1       -2 0.19686461E+00 0.99930305E+03</pdfrwt>
<totfact> 0.27088348E+01</totfact>
</mgrwt>
</event>
<event>
 9    1  0.4369420E-036  0.1000665E+04  0.7818608E-02  0.8680405E-01
          1   -1    0    0  501    0  0.00000000000E+00  0.00000000000E+00  0.16848150485E+04  0.16848150485E+04  0.00000000000E+00 0.  1.
         -1   -1    0    0    0  501 -0.00000000000E+00 -0.00000000000E+00 -0.14858167197E+03  0.14858167197E+03  0.00000000000E+00 0.  1.
         36    2    1    2    0    0  0.00000000000E+00  0.28421709430E-13  0.15362333766E+04  0.18333967205E+04  0.10006650526E+04 0.  0.
         25    2    3    3    0    0  0.11215949197E+02 -0.13983299485E+03  0.27187540399E+03  0.33043368678E+03  0.12486441486E+03 0.  0.
         35    2    3    3    0    0 -0.11215949197E+02  0.13983299485E+03  0.12643579726E+04  0.15029630337E+04  0.80038599059E+03 0.  0.
         22    1    5    5    0    0 -0.27046715865E+03  0.26362085699E+03  0.26051778074E+03  0.45882235585E+03  0.00000000000E+00 0. -1.
         22    1    5    5    0    0  0.25925120946E+03 -0.12378786214E+03  0.10038401918E+04  0.10441406779E+04  0.00000000000E+00 0. -1.
          5    1    4    4  502    0  0.67083970893E+02 -0.74712302175E+02  0.12668439311E+03  0.16171954955E+03  0.47000000000E+01 0. -1.
         -5    1    4    4    0  502 -0.55868021696E+02 -0.65120692680E+02  0.14519101088E+03  0.16871413724E+03  0.47000000000E+01 0. -1.
<mgrwt>
<rscale>  0 0.10006651E+04</rscale>
<asrwt>0</asrwt>
<pdfrwt beam="1">  1        1 0.25920230E+00 0.10006651E+04</pdfrwt>
<pdfrwt beam="2">  1       -1 0.22858720E-01 0.10006651E+04</pdfrwt>
<totfact> 0.84926623E+01</totfact>
</mgrwt>
</event>
<event>
 9    1  0.4369420E-036  0.9996224E+03  0.7818608E-02  0.8681398E-01
         -1   -1    0    0    0  501 -0.00000000000E+00  0.00000000000E+00  0.18850930425E+03  0.18850930425E+03  0.00000000000E+00 0. -1.
          1   -1    0    0  501    0  0.00000000000E+00 -0.00000000000E+00 -0.13251931356E+04  0.13251931356E+04  0.00000000000E+00 0. -1.
         36    2    1    2    0    0 -0.56843418861E-13  0.00000000000E+00 -0.11366838313E+04  0.15137024398E+04  0.99962240067E+03 0.  0.
         25    2    3    3    0    0 -0.78512646173E+02  0.72913186364E+01 -0.38588968873E+02  0.15290098490E+03  0.12518867252E+03 0.  0.
         35    2    3    3    0    0  0.78512646173E+02 -0.72913186364E+01 -0.10980948624E+04  0.13608014549E+04  0.79984428099E+03 0.  0.
         22    1    5    5    0    0 -0.29783026184E+03  0.21056690695E+03 -0.43284933380E+03  0.56603872035E+03  0.00000000000E+00 0. -1.
         22    1    5    5    0    0  0.37634290801E+03 -0.21785822559E+03 -0.66524552864E+03  0.79476273456E+03  0.00000000000E+00 0. -1.
          5    1    4    4  502    0 -0.37576129002E+02  0.64882586310E+02 -0.72893923392E+01  0.75478081042E+02  0.47000000000E+01 0.  1.
         -5    1    4    4    0  502 -0.40936517171E+02 -0.57591267673E+02 -0.31299576534E+02  0.77422903856E+02  0.47000000000E+01 0.  1.
<mgrwt>
<rscale>  0 0.99962240E+03</rscale>
<asrwt>0</asrwt>
<pdfrwt beam="1">  1        1 0.20387587E+00 0.99962240E+03</pdfrwt>
<pdfrwt beam="2">  1       -1 0.29001431E-01 0.99962240E+03</pdfrwt>
<totfact> 0.10267185E+02</totfact>
</mgrwt>
</event>
<event>
 9    1  0.4369420E-036  0.1002804E+04  0.7818608E-02  0.8678372E-01
         -2   -1    0    0    0  501 -0.00000000000E+00  0.00000000000E+00  0.10648986490E+04  0.10648986490E+04  0.00000000000E+00 0.  1.
          2   -1    0    0  501    0  0.00000000000E+00 -0.00000000000E+00 -0.23608249849E+03  0.23608249849E+03  0.00000000000E+00 0.  1.
         36    2    1    2    0    0  0.35527136788E-14  0.00000000000E+00  0.82881615056E+03  0.13009811475E+04  0.10028039364E+04 0.  0.
         25    2    3    3    0    0 -0.15599126239E+02 -0.14250338617E+03  0.16969758367E+03  0.25474757319E+03  0.12469365795E+03 0.  0.
         35    2    3    3    0    0  0.15599126239E+02  0.14250338617E+03  0.65911856688E+03  0.10462335743E+04  0.79976050107E+03 0.  0.
         22    1    5    5    0    0 -0.97174621186E+02  0.46280163144E+03  0.38886424277E+03  0.61224476835E+03  0.00000000000E+00 0.  1.
         22    1    5    5    0    0  0.11277374743E+03 -0.32029824526E+03  0.27025432412E+03  0.43398880600E+03  0.00000000000E+00 0.  1.
          5    1    4    4  502    0 -0.24027858724E+02 -0.85260140650E+02  0.17526055236E+03  0.19643060045E+03  0.47000000000E+01 0.  1.
         -5    1    4    4    0  502  0.84287324845E+01 -0.57243245524E+02 -0.55629686886E+01  0.58316972744E+02  0.47000000000E+01 0.  1.
<mgrwt>
<rscale>  0 0.10028039E+04</rscale>
<asrwt>0</asrwt>
<pdfrwt beam="1">  1        2 0.36320385E-01 0.10028039E+04</pdfrwt>
<pdfrwt beam="2">  1       -2 0.16383056E+00 0.10028039E+04</pdfrwt>
<totfact> 0.37883344E+01</totfact>
</mgrwt>
</event>
<event>
 9    1  0.4369420E-036  0.1000228E+04  0.7818608E-02  0.8680821E-01
          2   -1    0    0  501    0  0.00000000000E+00  0.00000000000E+00  0.70445626288E+03  0.70445626288E+03  0.00000000000E+00 0.  1.
         -2   -1    0    0    0  501 -0.00000000000E+00 -0.00000000000E+00 -0.35504526873E+03  0.35504526873E+03  0.00000000000E+00 0.  1.
         36    2    1    2    0    0 -0.21316282073E-13  0.71054273576E-14  0.34941099415E+03  0.10595015316E+04  0.10002277004E+04 0.  0.
         25    2    3    3    0    0  0.49939738395E+02 -0.11757974222E+02  0.20466608116E+03  0.24549043621E+03  0.12547956832E+03 0.  0.
         35    2    3    3    0    0 -0.49939738395E+02  0.11757974222E+02  0.14474491300E+03  0.81401109540E+03  0.79939398683E+03 0.  0.
         22    1    5    5    0    0 -0.21109997704E+03  0.12107514519E+03  0.41488869527E+03  0.48099378431E+03  0.00000000000E+00 0. -1.
         22    1    5    5    0    0  0.16116023864E+03 -0.10931717097E+03 -0.27014378227E+03  0.33301731109E+03  0.00000000000E+00 0. -1.
          5    1    4    4  502    0  0.19704093684E+02  0.37362472359E+02  0.17571412876E+03  0.18078094671E+03  0.47000000000E+01 0.  1.
         -5    1    4    4    0  502  0.30235644711E+02 -0.49120446580E+02  0.28951952394E+02  0.64709489496E+02  0.47000000000E+01 0.  1.
<mgrwt>
<rscale>  0 0.10002277E+04</rscale>
<asrwt>0</asrwt>
<pdfrwt beam="1">  1        2 0.10837789E+00 0.10002277E+04</pdfrwt>
<pdfrwt beam="2">  1       -2 0.54622349E-01 0.10002277E+04</pdfrwt>
<totfact> 0.15513998E+02</totfact>
</mgrwt>
</event>
<event>
 9    1 -0.4369420E-036  0.1002907E+04  0.7818608E-02  0.8678275E-01
         -1   -1    0    0    0  501 -0.00000000000E+00  0.00000000000E+00  0.27939537547E+04  0.27939537547E+04  0.00000000000E+00 0. -1.
          1   -1    0    0  501    0  0.00000000000E+00 -0.00000000000E+00 -0.89999912416E+02  0.89999912416E+02  0.00000000000E+00 0. -1.
         36    2    1    2    0    0 -0.88817841970E-15 -0.49737991503E-13  0.27039538422E+04  0.28839536671E+04  0.10029069612E+04 0.  0.
         25    2    3    3    0    0  0.72168622381E+01  0.11743225949E+02  0.10365073073E+03  0.16301507747E+03  0.12506180491E+03 0.  0.
         35    2    3    3    0    0 -0.72168622381E+01 -0.11743225949E+02  0.26003031115E+04  0.27209385896E+04  0.80108710524E+03 0.  0.
         22    1    5    5    0    0 -0.38088691458E+01 -0.28528803736E+03  0.33872585907E+03  0.44287580578E+03  0.00000000000E+00 0. -1.
         22    1    5    5    0    0 -0.34079930923E+01  0.27354481141E+03  0.22615772524E+04  0.22780627838E+04  0.00000000000E+00 0. -1.
          5    1    4    4  502    0 -0.21570601590E+02  0.29996872333E+02  0.11947184222E+03  0.12514277560E+03  0.47000000000E+01 0. -1.
         -5    1    4    4    0  502  0.28787463828E+02 -0.18253646384E+02 -0.15821111491E+02  0.37872301868E+02  0.47000000000E+01 0. -1.
<mgrwt>
<rscale>  0 0.10029070E+04</rscale>
<asrwt>0</asrwt>
<pdfrwt beam="1">  1        1 0.13846143E-01 0.10029070E+04</pdfrwt>
<pdfrwt beam="2">  1       -1 0.42983897E+00 0.10029070E+04</pdfrwt>
<totfact>-0.24879728E+00</totfact>
</mgrwt>
</event>
<event>
 9    1  0.4369420E-036  0.9999298E+03  0.7818608E-02  0.8681105E-01
          1   -1    0    0  501    0  0.00000000000E+00  0.00000000000E+00  0.89018164575E+03  0.89018164575E+03  0.00000000000E+00 0. -1.
         -1   -1    0    0    0  501 -0.00000000000E+00 -0.00000000000E+00 -0.28080213191E+03  0.28080213191E+03  0.00000000000E+00 0. -1.
         36    2    1    2    0    0 -0.28421709430E-13 -0.56843418861E-13  0.60937951383E+03  0.11709837777E+04  0.99992980537E+03 0.  0.
         25    2    3    3    0    0 -0.42933893069E+02 -0.12467543170E+03  0.63482551655E+02  0.19250710532E+03  0.12506665738E+03 0.  0.
         35    2    3    3    0    0  0.42933893069E+02  0.12467543170E+03  0.54589696218E+03  0.97847667234E+03  0.80126513874E+03 0.  0.
         22    1    5    5    0    0  0.26214988429E+03  0.37607868625E+03  0.20710547951E+03  0.50304117101E+03  0.00000000000E+00 0. -1.
         22    1    5    5    0    0 -0.21921599123E+03 -0.25140325454E+03  0.33879148266E+03  0.47543550133E+03  0.00000000000E+00 0. -1.
          5    1    4    4  502    0  0.20849669050E+00 -0.13015616748E+03  0.21739102546E+02  0.13204298536E+03  0.47000000000E+01 0.  1.
         -5    1    4    4    0  502 -0.43142389759E+02  0.54807357751E+01  0.41743449109E+02  0.60464119958E+02  0.47000000000E+01 0.  1.
<mgrwt>
<rscale>  0 0.99992981E+03</rscale>
<asrwt>0</asrwt>
<pdfrwt beam="1">  1        1 0.13695102E+00 0.99992981E+03</pdfrwt>
<pdfrwt beam="2">  1       -1 0.43200328E-01 0.99992981E+03</pdfrwt>
<totfact> 0.11065506E+02</totfact>
</mgrwt>
</event>
<event>
 9    1  0.4369420E-036  0.1002918E+04  0.7818608E-02  0.8678264E-01
          2   -1    0    0  501    0  0.00000000000E+00  0.00000000000E+00  0.40909862101E+03  0.40909862101E+03  0.00000000000E+00 0.  1.
         -2   -1    0    0    0  501 -0.00000000000E+00 -0.00000000000E+00 -0.61467072299E+03  0.61467072299E+03  0.00000000000E+00 0.  1.
         36    2    1    2    0    0  0.00000000000E+00  0.39079850467E-13 -0.20557210197E+03  0.10237693440E+04  0.10029176340E+04 0.  0.
         25    2    3    3    0    0 -0.68576673788E+02  0.14272898312E+02 -0.16658610998E+03  0.21930113620E+03  0.12424001162E+03 0.  0.
         35    2    3    3    0    0  0.68576673788E+02 -0.14272898312E+02 -0.38985991991E+02  0.80446820779E+03  0.80046406163E+03 0.  0.
         22    1    5    5    0    0  0.16120133320E+03  0.25565575830E+03 -0.29407966792E+03  0.42169727016E+03  0.00000000000E+00 0.  1.
         22    1    5    5    0    0 -0.92624659409E+02 -0.26992865661E+03  0.25509367593E+03  0.38277093763E+03  0.00000000000E+00 0.  1.
          5    1    4    4  502    0 -0.80867185699E+02 -0.18033882304E+02 -0.48389536085E+02  0.96064352579E+02  0.47000000000E+01 0. -1.
         -5    1    4    4    0  502  0.12290511912E+02  0.32306780616E+02 -0.11819657390E+03  0.12323678362E+03  0.47000000000E+01 0. -1.
<mgrwt>
<rscale>  0 0.10029176E+04</rscale>
<asrwt>0</asrwt>
<pdfrwt beam="1">  1        2 0.62938249E-01 0.10029176E+04</pdfrwt>
<pdfrwt beam="2">  1       -2 0.94564727E-01 0.10029176E+04</pdfrwt>
<totfact> 0.87053423E+01</totfact>
</mgrwt>
</event>
<event>
 9    1  0.4369420E-036  0.9974307E+03  0.7818608E-02  0.8683489E-01
         -2   -1    0    0    0  501 -0.00000000000E+00  0.00000000000E+00  0.11767142227E+03  0.11767142227E+03  0.00000000000E+00 0.  1.
          2   -1    0    0  501    0  0.00000000000E+00 -0.00000000000E+00 -0.21136568277E+04  0.21136568277E+04  0.00000000000E+00 0.  1.
         36    2    1    2    0    0 -0.35527136788E-14  0.00000000000E+00 -0.19959854055E+04  0.22313282500E+04  0.99743070961E+03 0.  0.
         25    2    3    3    0    0  0.13758051613E+02 -0.69673198830E+02 -0.10792207122E+03  0.17989173771E+03  0.12518077016E+03 0.  0.
         35    2    3    3    0    0 -0.13758051613E+02  0.69673198830E+02 -0.18880633342E+04  0.20514365123E+04  0.79910260373E+03 0.  0.
         22    1    5    5    0    0  0.20899944616E+03  0.11570282448E+03 -0.11731863034E+03  0.26614201681E+03  0.00000000000E+00 0. -1.
         22    1    5    5    0    0 -0.22275749777E+03 -0.46029625654E+02 -0.17707447039E+04  0.17852944955E+04  0.00000000000E+00 0. -1.
          5    1    4    4  502    0  0.27806395276E+02  0.10206216437E+02  0.14225871862E+02  0.33193793131E+02  0.47000000000E+01 0.  1.
         -5    1    4    4    0  502 -0.14048343663E+02 -0.79879415266E+02 -0.12214794309E+03  0.14669794458E+03  0.47000000000E+01 0.  1.
<mgrwt>
<rscale>  0 0.99743071E+03</rscale>
<asrwt>0</asrwt>
<pdfrwt beam="1">  1        2 0.32517800E+00 0.99743071E+03</pdfrwt>
<pdfrwt beam="2">  1       -2 0.18103294E-01 0.99743071E+03</pdfrwt>
<totfact> 0.17130169E+02</totfact>
</mgrwt>
</event>
<event>
 9    1  0.4369420E-036  0.1000551E+04  0.7818608E-02  0.8680514E-01
          1   -1    0    0  501    0  0.00000000000E+00  0.00000000000E+00  0.66546112313E+03  0.66546112313E+03  0.00000000000E+00 0. -1.
         -1   -1    0    0    0  501 -0.00000000000E+00 -0.00000000000E+00 -0.37609321452E+03  0.37609321452E+03  0.00000000000E+00 0. -1.
         36    2    1    2    0    0  0.00000000000E+00  0.14210854715E-13  0.28936790861E+03  0.10415543377E+04  0.10005506743E+04 0.  0.
         25    2    3    3    0    0 -0.89230811656E+02 -0.10071439735E+03  0.10282433420E+03  0.20902027154E+03  0.12251980506E+03 0.  0.
         35    2    3    3    0    0  0.89230811656E+02  0.10071439735E+03  0.18654357441E+03  0.83253406611E+03  0.80013057590E+03 0.  0.
         22    1    5    5    0    0 -0.25292764466E+03  0.29538581068E+03 -0.17230771597E+02  0.38925835903E+03  0.00000000000E+00 0. -1.
         22    1    5    5    0    0  0.34215845631E+03 -0.19467141334E+03  0.20377434600E+03  0.44327570708E+03  0.00000000000E+00 0. -1.
          5    1    4    4  502    0 -0.17641685887E+01 -0.84614213242E+02  0.81181996665E+02  0.11736815563E+03  0.47000000000E+01 0.  1.
         -5    1    4    4    0  502 -0.87466643067E+02 -0.16100184106E+02  0.21642337533E+02  0.91652115914E+02  0.47000000000E+01 0.  1.
<mgrwt>
<rscale>  0 0.10005507E+04</rscale>
<asrwt>0</asrwt>
<pdfrwt beam="1">  1        1 0.10237863E+00 0.10005507E+04</pdfrwt>
<pdfrwt beam="2">  1       -1 0.57860495E-01 0.10005507E+04</pdfrwt>
<totfact> 0.10272294E+02</totfact>
</mgrwt>
</event>
<event>
 9    1  0.4369420E-036  0.9991946E+03  0.7818608E-02  0.8681805E-01
          2   -1    0    0  501    0  0.00000000000E+00  0.00000000000E+00  0.25635971811E+04  0.25635971811E+04  0.00000000000E+00 0.  1.
         -2   -1    0    0    0  501 -0.00000000000E+00 -0.00000000000E+00 -0.97362198275E+02  0.97362198275E+02  0.00000000000E+00 0.  1.
         36    2    1    2    0    0 -0.28421709430E-13  0.00000000000E+00  0.24662349828E+04  0.26609593794E+04  0.99919458974E+03 0.  0.
         25    2    3    3    0    0  0.77366746592E+02 -0.62753340102E+02  0.71542140807E+03  0.73310259783E+03  0.12525187682E+03 0.  0.
         35    2    3    3    0    0 -0.77366746592E+02  0.62753340102E+02  0.17508135748E+04  0.19278567816E+04  0.80084954981E+03 0.  0.
         22    1    5    5    0    0 -0.43862494556E+03  0.18009476468E+02  0.86079344784E+03  0.96627198239E+03  0.00000000000E+00 0. -1.
         22    1    5    5    0    0  0.36125819897E+03  0.44743863633E+02  0.89002012692E+03  0.96158479916E+03  0.00000000000E+00 0. -1.
          5    1    4    4  502    0  0.37780833559E+02 -0.98993119288E+02  0.46203719204E+03  0.47405430689E+03  0.47000000000E+01 0. -1.
         -5    1    4    4    0  502  0.39585913033E+02  0.36239779186E+02  0.25338421603E+03  0.25904829094E+03  0.47000000000E+01 0. -1.
<mgrwt>
<rscale>  0 0.99919459E+03</rscale>
<asrwt>0</asrwt>
<pdfrwt beam="1">  1        2 0.39439951E+00 0.99919459E+03</pdfrwt>
<pdfrwt beam="2">  1       -2 0.14978802E-01 0.99919459E+03</pdfrwt>
<totfact> 0.12762861E+02</totfact>
</mgrwt>
</event>
<event>
 9    1  0.4369420E-036  0.1000271E+04  0.7818608E-02  0.8680780E-01
         -2   -1    0    0    0  501 -0.00000000000E+00  0.00000000000E+00  0.35687034375E+03  0.35687034375E+03  0.00000000000E+00 0.  1.
          2   -1    0    0  501    0  0.00000000000E+00 -0.00000000000E+00 -0.70091410877E+03  0.70091410877E+03  0.00000000000E+00 0.  1.
         36    2    1    2    0    0  0.56843418861E-13  0.35527136788E-14 -0.34404376502E+03  0.10577844525E+04  0.10002708812E+04 0.  0.
         25    2    3    3    0    0  0.12676978617E+03  0.11032467941E+02 -0.88398719145E+00  0.17826815711E+03  0.12484574632E+03 0.  0.
         35    2    3    3    0    0 -0.12676978617E+03 -0.11032467941E+02 -0.34315977783E+03  0.87951629541E+03  0.79974870225E+03 0.  0.
         22    1    5    5    0    0  0.24731473135E+03  0.49579153278E+01 -0.42915523889E+03  0.49534167636E+03  0.00000000000E+00 0. -1.
         22    1    5    5    0    0 -0.37408451752E+03 -0.15990383269E+02  0.85995461061E+02  0.38417461906E+03  0.00000000000E+00 0. -1.
          5    1    4    4  502    0  0.35301762944E+02  0.55074123246E+02  0.29901283336E+02  0.72080165534E+02  0.47000000000E+01 0. -1.
         -5    1    4    4    0  502  0.91468023221E+02 -0.44041655305E+02 -0.30785270528E+02  0.10618799158E+03  0.47000000000E+01 0. -1.
<mgrwt>
<rscale>  0 0.10002709E+04</rscale>
<asrwt>0</asrwt>
<pdfrwt beam="1">  1        2 0.10783294E+00 0.10002709E+04</pdfrwt>
<pdfrwt beam="2">  1       -2 0.54903130E-01 0.10002709E+04</pdfrwt>
<totfact> 0.15447805E+02</totfact>
</mgrwt>
</event>
<event>
 9    1  0.4369420E-036  0.1000387E+04  0.7818608E-02  0.8680670E-01
          3   -1    0    0  501    0  0.00000000000E+00  0.00000000000E+00  0.39787927101E+03  0.39787927101E+03  0.00000000000E+00 0.  1.
         -3   -1    0    0    0  501 -0.00000000000E+00 -0.00000000000E+00 -0.62881758672E+03  0.62881758672E+03  0.00000000000E+00 0.  1.
         36    2    1    2    0    0 -0.42632564146E-13  0.00000000000E+00 -0.23093831571E+03  0.10266968577E+04  0.10003868912E+04 0.  0.
         25    2    3    3    0    0  0.12490946800E+03  0.56243161816E+02 -0.74294445186E+02  0.19994415153E+03  0.12526903328E+03 0.  0.
         35    2    3    3    0    0 -0.12490946800E+03 -0.56243161816E+02 -0.15664387052E+03  0.82675270620E+03  0.80013565511E+03 0.  0.
         22    1    5    5    0    0 -0.31274814490E+03 -0.15340191237E+03  0.20763928604E+03  0.40553374948E+03  0.00000000000E+00 0.  1.
         22    1    5    5    0    0  0.18783867690E+03  0.97158750554E+02 -0.36428315656E+03  0.42121895672E+03  0.00000000000E+00 0.  1.
          5    1    4    4  502    0  0.55450316852E+02  0.75954497305E+02  0.28183441670E+01  0.94201148420E+02  0.47000000000E+01 0.  1.
         -5    1    4    4    0  502  0.69459151151E+02 -0.19711335489E+02 -0.77112789353E+02  0.10574300311E+03  0.47000000000E+01 0.  1.
<mgrwt>
<rscale>  0 0.10003869E+04</rscale>
<asrwt>0</asrwt>
<pdfrwt beam="1">  1        3 0.61212195E-01 0.10003869E+04</pdfrwt>
<pdfrwt beam="2">  1       -3 0.96741167E-01 0.10003869E+04</pdfrwt>
<totfact> 0.91859762E+00</totfact>
</mgrwt>
</event>
<event>
 9    1  0.4369420E-036  0.1000025E+04  0.7818608E-02  0.8681014E-01
         -3   -1    0    0    0  501 -0.00000000000E+00  0.00000000000E+00  0.58176617049E+03  0.58176617049E+03  0.00000000000E+00 0. -1.
          3   -1    0    0  501    0  0.00000000000E+00 -0.00000000000E+00 -0.42974770704E+03  0.42974770704E+03  0.00000000000E+00 0. -1.
         36    2    1    2    0    0  0.00000000000E+00  0.14210854715E-13  0.15201846345E+03  0.10115138775E+04  0.10000253553E+04 0.  0.
         25    2    3    3    0    0  0.12461571657E+03  0.62126673220E+02  0.37557787635E+02  0.19073282711E+03  0.12481836237E+03 0.  0.
         35    2    3    3    0    0 -0.12461571657E+03 -0.62126673220E+02  0.11446067582E+03  0.82078105042E+03  0.80074433253E+03 0.  0.
         22    1    5    5    0    0 -0.24156556591E+03  0.20344821897E+03 -0.21476069354E+03  0.38192572043E+03  0.00000000000E+00 0. -1.
         22    1    5    5    0    0  0.11694984934E+03 -0.26557489219E+03  0.32922136936E+03  0.43885532999E+03  0.00000000000E+00 0. -1.
          5    1    4    4  502    0  0.57517431458E+02  0.79335062150E+02 -0.20506046508E+02  0.10022422338E+03  0.47000000000E+01 0.  1.
         -5    1    4    4    0  502  0.67098285111E+02 -0.17208388930E+02  0.58063834143E+02  0.90508603733E+02  0.47000000000E+01 0.  1.
<mgrwt>
<rscale>  0 0.10000254E+04</rscale>
<asrwt>0</asrwt>
<pdfrwt beam="1">  1        3 0.66115031E-01 0.10000254E+04</pdfrwt>
<pdfrwt beam="2">  1       -3 0.89502488E-01 0.10000254E+04</pdfrwt>
<totfact> 0.95039811E+00</totfact>
</mgrwt>
</event>
<event>
 9    1  0.4369420E-036  0.9997441E+03  0.7818608E-02  0.8681282E-01
         -2   -1    0    0    0  501 -0.00000000000E+00  0.00000000000E+00  0.14355772763E+03  0.14355772763E+03  0.00000000000E+00 0. -1.
          2   -1    0    0  501    0  0.00000000000E+00 -0.00000000000E+00 -0.17405686388E+04  0.17405686388E+04  0.00000000000E+00 0. -1.
         36    2    1    2    0    0  0.71054273576E-14  0.14210854715E-13 -0.15970109111E+04  0.18841263664E+04  0.99974412439E+03 0.  0.
         25    2    3    3    0    0 -0.40101007611E+02 -0.51490470249E+02 -0.53662835866E+03  0.55445609081E+03  0.12325665089E+03 0.  0.
         35    2    3    3    0    0  0.40101007611E+02  0.51490470249E+02 -0.10603825525E+04  0.13296702756E+04  0.79959522562E+03 0.  0.
         22    1    5    5    0    0 -0.32545748740E+02 -0.41997106931E+01  0.13086212067E+03  0.13491389089E+03  0.00000000000E+00 0.  1.
         22    1    5    5    0    0  0.72646756352E+02  0.55690180942E+02 -0.11912446731E+04  0.11947563847E+04  0.00000000000E+00 0.  1.
          5    1    4    4  502    0 -0.58508098617E+02 -0.31787453501E+02 -0.12318760946E+03  0.14011037409E+03  0.47000000000E+01 0.  1.
         -5    1    4    4    0  502  0.18407091005E+02 -0.19703016748E+02 -0.41344074920E+03  0.41434571672E+03  0.47000000000E+01 0.  1.
<mgrwt>
<rscale>  0 0.99974412E+03</rscale>
<asrwt>0</asrwt>
<pdfrwt beam="1">  1        2 0.26777978E+00 0.99974412E+03</pdfrwt>
<pdfrwt beam="2">  1       -2 0.22085805E-01 0.99974412E+03</pdfrwt>
<totfact> 0.19780821E+02</totfact>
</mgrwt>
</event>
<event>
 9    1  0.4369420E-036  0.9994415E+03  0.7818608E-02  0.8681570E-01
         -1   -1    0    0    0  501 -0.00000000000E+00  0.00000000000E+00  0.98671309555E+02  0.98671309555E+02  0.00000000000E+00 0.  1.
          1   -1    0    0  501    0  0.00000000000E+00 -0.00000000000E+00 -0.25308354655E+04  0.25308354655E+04  0.00000000000E+00 0.  1.
         36    2    1    2    0    0  0.14210854715E-13  0.00000000000E+00 -0.24321641559E+04  0.26295067751E+04  0.99944154336E+03 0.  0.
         25    2    3    3    0    0 -0.11911293421E+03  0.69683958783E+02 -0.40795878618E+03  0.44837657646E+03  0.12476953911E+03 0.  0.
         35    2    3    3    0    0  0.11911293421E+03 -0.69683958783E+02 -0.20242053698E+04  0.21811301986E+04  0.80054844889E+03 0.  0.
         22    1    5    5    0    0  0.48099405752E+02 -0.24195525468E+03 -0.19723471967E+04  0.19877146079E+04  0.00000000000E+00 0. -1.
         22    1    5    5    0    0  0.71013528457E+02  0.17227129589E+03 -0.51858173065E+02  0.19341559070E+03  0.00000000000E+00 0. -1.
          5    1    4    4  502    0 -0.10034718881E+03  0.26099936378E+02 -0.37816393641E+03  0.39214897397E+03  0.47000000000E+01 0.  1.
         -5    1    4    4    0  502 -0.18765745400E+02  0.43584022406E+02 -0.29794849768E+02  0.56227602493E+02  0.47000000000E+01 0.  1.
<mgrwt>
<rscale>  0 0.99944154E+03</rscale>
<asrwt>0</asrwt>
<pdfrwt beam="1">  1        1 0.38935933E+00 0.99944154E+03</pdfrwt>
<pdfrwt beam="2">  1       -1 0.15180201E-01 0.99944154E+03</pdfrwt>
<totfact> 0.42373496E+01</totfact>
</mgrwt>
</event>
<event>
 9    1  0.4369420E-036  0.1001495E+04  0.7818608E-02  0.8679616E-01
         -2   -1    0    0    0  501 -0.00000000000E+00  0.00000000000E+00  0.19057295102E+03  0.19057295102E+03  0.00000000000E+00 0. -1.
          2   -1    0    0  501    0  0.00000000000E+00 -0.00000000000E+00 -0.13157582815E+04  0.13157582815E+04  0.00000000000E+00 0. -1.
         36    2    1    2    0    0  0.00000000000E+00  0.28421709430E-13 -0.11251853305E+04  0.15063312325E+04  0.10014947599E+04 0.  0.
         25    2    3    3    0    0  0.12281482856E+03  0.44113240337E+01 -0.13974233028E+03  0.22435533016E+03  0.12531741064E+03 0.  0.
         35    2    3    3    0    0 -0.12281482856E+03 -0.44113240337E+01 -0.98544300022E+03  0.12819759024E+04  0.81071657545E+03 0.  0.
         22    1    5    5    0    0 -0.31445257051E+03  0.31208478422E+03 -0.61920525699E+03  0.76137538831E+03  0.00000000000E+00 0.  1.
         22    1    5    5    0    0  0.19163774195E+03 -0.31649610825E+03 -0.36623774323E+03  0.52060051407E+03  0.00000000000E+00 0.  1.
          5    1    4    4  502    0  0.41395754364E+01 -0.45320533925E+02 -0.47599848288E+02  0.66022135962E+02  0.47000000000E+01 0. -1.
         -5    1    4    4    0  502  0.11867525312E+03  0.49731857958E+02 -0.92142481991E+02  0.15833319420E+03  0.47000000000E+01 0. -1.
<mgrwt>
<rscale>  0 0.10014948E+04</rscale>
<asrwt>0</asrwt>
<pdfrwt beam="1">  1        2 0.20242434E+00 0.10014948E+04</pdfrwt>
<pdfrwt beam="2">  1       -2 0.29318917E-01 0.10014948E+04</pdfrwt>
<totfact> 0.20806128E+02</totfact>
</mgrwt>
</event>
<event>
 9    1  0.4369420E-036  0.9987454E+03  0.7818608E-02  0.8682234E-01
          3   -1    0    0  501    0  0.00000000000E+00  0.00000000000E+00  0.58318874176E+03  0.58318874176E+03  0.00000000000E+00 0.  1.
         -3   -1    0    0    0  501 -0.00000000000E+00 -0.00000000000E+00 -0.42760275995E+03  0.42760275995E+03  0.00000000000E+00 0.  1.
         36    2    1    2    0    0  0.00000000000E+00  0.00000000000E+00  0.15558598181E+03  0.10107915017E+04  0.99874544414E+03 0.  0.
         25    2    3    3    0    0  0.19712920835E+02 -0.67494846378E+02  0.14076736786E+03  0.20127871385E+03  0.12551300832E+03 0.  0.
         35    2    3    3    0    0 -0.19712920835E+02  0.67494846378E+02  0.14818613952E+02  0.80951278787E+03  0.80631706472E+03 0.  0.
         22    1    5    5    0    0 -0.23708427855E+02  0.80970095769E+02 -0.39274597513E+03  0.40170592096E+03  0.00000000000E+00 0. -1.
         22    1    5    5    0    0  0.39955070196E+01 -0.13475249391E+02  0.40756458908E+03  0.40780686690E+03  0.00000000000E+00 0. -1.
          5    1    4    4  502    0  0.14375447453E+02 -0.11541311668E+02  0.14355116825E+03  0.14480636474E+03  0.47000000000E+01 0.  1.
         -5    1    4    4    0  502  0.53374733815E+01 -0.55953534710E+02 -0.27838003894E+01  0.56472349104E+02  0.47000000000E+01 0.  1.
<mgrwt>
<rscale>  0 0.99874544E+03</rscale>
<asrwt>0</asrwt>
<pdfrwt beam="1">  1        3 0.89721345E-01 0.99874544E+03</pdfrwt>
<pdfrwt beam="2">  1       -3 0.65785040E-01 0.99874544E+03</pdfrwt>
<totfact> 0.10221569E+01</totfact>
</mgrwt>
</event>
<event>
 9    1  0.4369420E-036  0.1000187E+04  0.7818608E-02  0.8680860E-01
          1   -1    0    0  501    0  0.00000000000E+00  0.00000000000E+00  0.88553136577E+03  0.88553136577E+03  0.00000000000E+00 0. -1.
         -1   -1    0    0    0  501 -0.00000000000E+00 -0.00000000000E+00 -0.28242193307E+03  0.28242193307E+03  0.00000000000E+00 0. -1.
         36    2    1    2    0    0  0.14210854715E-13  0.00000000000E+00  0.60310943270E+03  0.11679532988E+04  0.10001869428E+04 0.  0.
         25    2    3    3    0    0 -0.60322276819E+02 -0.73007775639E+02 -0.97305577876E+01  0.15609833891E+03  0.12370568003E+03 0.  0.
         35    2    3    3    0    0  0.60322276819E+02  0.73007775639E+02  0.61283999049E+03  0.10118549599E+04  0.79956781677E+03 0.  0.
         22    1    5    5    0    0 -0.25416274645E+03 -0.24842695622E+03  0.26445222366E+03  0.44300071429E+03  0.00000000000E+00 0.  1.
         22    1    5    5    0    0  0.31448502327E+03  0.32143473186E+03  0.34838776683E+03  0.56885424564E+03  0.00000000000E+00 0.  1.
          5    1    4    4  502    0 -0.46668511761E+02  0.16690944996E+02  0.28683433380E+02  0.57457523313E+02  0.47000000000E+01 0. -1.
         -5    1    4    4    0  502 -0.13653765059E+02 -0.89698720635E+02 -0.38413991168E+02  0.98640815595E+02  0.47000000000E+01 0. -1.
<mgrwt>
<rscale>  0 0.10001869E+04</rscale>
<asrwt>0</asrwt>
<pdfrwt beam="1">  1        1 0.13623559E+00 0.10001869E+04</pdfrwt>
<pdfrwt beam="2">  1       -1 0.43449529E-01 0.10001869E+04</pdfrwt>
<totfact> 0.11049675E+02</totfact>
</mgrwt>
</event>
<event>
 9    1  0.4369420E-036  0.9955574E+03  0.7818608E-02  0.8685280E-01
         -2   -1    0    0    0  501 -0.00000000000E+00  0.00000000000E+00  0.12782693990E+03  0.12782693990E+03  0.00000000000E+00 0.  1.
          2   -1    0    0  501    0  0.00000000000E+00 -0.00000000000E+00 -0.19384306535E+04  0.19384306535E+04  0.00000000000E+00 0.  1.
         36    2    1    2    0    0  0.28421709430E-13  0.28421709430E-13 -0.18106037136E+04  0.20662575934E+04  0.99555744917E+03 0.  0.
         25    2    3    3    0    0  0.10411317352E+03 -0.88603890848E+02 -0.35210955820E+03  0.39706079437E+03  0.12241703751E+03 0.  0.
         35    2    3    3    0    0 -0.10411317352E+03  0.88603890848E+02 -0.14584941553E+04  0.16691967990E+04  0.80020156848E+03 0.  0.
         22    1    5    5    0    0  0.25948943027E+03  0.27702554646E+03 -0.89893411922E+03  0.97578710204E+03  0.00000000000E+00 0.  1.
         22    1    5    5    0    0 -0.36360260380E+03 -0.18842165561E+03 -0.55956003613E+03  0.69340969695E+03  0.00000000000E+00 0.  1.
          5    1    4    4  502    0  0.11257208632E+03 -0.31456639080E+02 -0.28680914008E+03  0.30974758691E+03  0.47000000000E+01 0. -1.
         -5    1    4    4    0  502 -0.84589127930E+01 -0.57147251769E+02 -0.65300418118E+02  0.87313207459E+02  0.47000000000E+01 0. -1.
<mgrwt>
<rscale>  0 0.99555745E+03</rscale>
<asrwt>0</asrwt>
<pdfrwt beam="1">  1        2 0.29822009E+00 0.99555745E+03</pdfrwt>
<pdfrwt beam="2">  1       -2 0.19665684E-01 0.99555745E+03</pdfrwt>
<totfact> 0.18707537E+02</totfact>
</mgrwt>
</event>
<event>
 9    1  0.4369420E-036  0.9977530E+03  0.7818608E-02  0.8683181E-01
         -2   -1    0    0    0  501 -0.00000000000E+00  0.00000000000E+00  0.21473398416E+03  0.21473398416E+03  0.00000000000E+00 0.  1.
          2   -1    0    0  501    0  0.00000000000E+00 -0.00000000000E+00 -0.11590049753E+04  0.11590049753E+04  0.00000000000E+00 0.  1.
         36    2    1    2    0    0 -0.28421709430E-13  0.00000000000E+00 -0.94427099116E+03  0.13737389595E+04  0.99775298749E+03 0.  0.
         25    2    3    3    0    0  0.24749874282E+02 -0.13519654947E+03 -0.17200603995E+03  0.25312142586E+03  0.12487479804E+03 0.  0.
         35    2    3    3    0    0 -0.24749874282E+02  0.13519654947E+03 -0.77226495121E+03  0.11206175336E+04  0.80031233810E+03 0.  0.
         22    1    5    5    0    0  0.24869578910E+03  0.14393319817E+03 -0.79573611093E+03  0.84602737503E+03  0.00000000000E+00 0. -1.
         22    1    5    5    0    0 -0.27344566339E+03 -0.87366487076E+01  0.23471159721E+02  0.27459015859E+03  0.00000000000E+00 0. -1.
          5    1    4    4  502    0  0.10135041486E+02 -0.12512301273E+02 -0.11631253787E+03  0.11751584240E+03  0.47000000000E+01 0. -1.
         -5    1    4    4    0  502  0.14614832796E+02 -0.12268424819E+03 -0.55693502083E+02  0.13560558346E+03  0.47000000000E+01 0. -1.
<mgrwt>
<rscale>  0 0.99775299E+03</rscale>
<asrwt>0</asrwt>
<pdfrwt beam="1">  1        2 0.17830846E+00 0.99775299E+03</pdfrwt>
<pdfrwt beam="2">  1       -2 0.33035998E-01 0.99775299E+03</pdfrwt>
<totfact> 0.20663637E+02</totfact>
</mgrwt>
</event>
<event>
 9    1  0.4369420E-036  0.9992946E+03  0.7818608E-02  0.8681710E-01
          2   -1    0    0  501    0  0.00000000000E+00  0.00000000000E+00  0.10856468624E+04  0.10856468624E+04  0.00000000000E+00 0. -1.
         -2   -1    0    0    0  501 -0.00000000000E+00 -0.00000000000E+00 -0.22995270186E+03  0.22995270186E+03  0.00000000000E+00 0. -1.
         36    2    1    2    0    0 -0.14210854715E-13  0.28421709430E-13  0.85569416055E+03  0.13155995643E+04  0.99929460977E+03 0.  0.
         25    2    3    3    0    0 -0.47783219421E+02  0.67402120310E+02  0.30742491970E+03  0.34200671223E+03  0.12502890897E+03 0.  0.
         35    2    3    3    0    0  0.47783219421E+02 -0.67402120310E+02  0.54826924085E+03  0.97359285205E+03  0.80028594840E+03 0.  0.
         22    1    5    5    0    0 -0.76990086674E+02 -0.37509794949E+03  0.66745970857E+02  0.38869135542E+03  0.00000000000E+00 0.  1.
         22    1    5    5    0    0  0.12477330609E+03  0.30769582918E+03  0.48152327000E+03  0.58490149662E+03  0.00000000000E+00 0.  1.
          5    1    4    4  502    0 -0.62047001836E+02 -0.14104277351E+02  0.16931761675E+03  0.18094006305E+03  0.47000000000E+01 0.  1.
         -5    1    4    4    0  502  0.14263782415E+02  0.81506397661E+02  0.13810730295E+03  0.16106664918E+03  0.47000000000E+01 0.  1.
<mgrwt>
<rscale>  0 0.99929461E+03</rscale>
<asrwt>0</asrwt>
<pdfrwt beam="1">  1        2 0.16702259E+00 0.99929461E+03</pdfrwt>
<pdfrwt beam="2">  1       -2 0.35377339E-01 0.99929461E+03</pdfrwt>
<totfact> 0.20143003E+02</totfact>
</mgrwt>
</event>
<event>
 9    1  0.4369420E-036  0.9998143E+03  0.7818608E-02  0.8681215E-01
         -2   -1    0    0    0  501 -0.00000000000E+00  0.00000000000E+00  0.24479213489E+03  0.24479213489E+03  0.00000000000E+00 0. -1.
          2   -1    0    0  501    0  0.00000000000E+00 -0.00000000000E+00 -0.10208952979E+04  0.10208952979E+04  0.00000000000E+00 0. -1.
         36    2    1    2    0    0  0.00000000000E+00  0.71054273576E-14 -0.77610316300E+03  0.12656874328E+04  0.99981426169E+03 0.  0.
         25    2    3    3    0    0 -0.82819581564E+02 -0.29429052443E+02 -0.74800396344E+01  0.15314995198E+03  0.12519506612E+03 0.  0.
         35    2    3    3    0    0  0.82819581564E+02  0.29429052443E+02 -0.76862312337E+03  0.11125374808E+04  0.79952047391E+03 0.  0.
         22    1    5    5    0    0 -0.25309661890E+03 -0.32916072586E+02  0.17047335068E+02  0.25579675129E+03  0.00000000000E+00 0.  1.
         22    1    5    5    0    0  0.33591620047E+03  0.62345125029E+02 -0.78567045844E+03  0.85674072952E+03  0.00000000000E+00 0.  1.
          5    1    4    4  502    0 -0.13622838366E+02 -0.63242985701E+02 -0.31811116782E+02  0.72244682271E+02  0.47000000000E+01 0.  1.
         -5    1    4    4    0  502 -0.69196743198E+02  0.33813933257E+02  0.24331077148E+02  0.80905269709E+02  0.47000000000E+01 0.  1.
<mgrwt>
<rscale>  0 0.99981426E+03</rscale>
<asrwt>0</asrwt>
<pdfrwt beam="1">  1        2 0.15706082E+00 0.99981426E+03</pdfrwt>
<pdfrwt beam="2">  1       -2 0.37660328E-01 0.99981426E+03</pdfrwt>
<totfact> 0.19631163E+02</totfact>
</mgrwt>
</event>
<event>
 9    1  0.4369420E-036  0.1001560E+04  0.7818608E-02  0.8679553E-01
          2   -1    0    0  501    0  0.00000000000E+00  0.00000000000E+00  0.42715856169E+03  0.42715856169E+03  0.00000000000E+00 0.  1.
         -2   -1    0    0    0  501 -0.00000000000E+00 -0.00000000000E+00 -0.58709070731E+03  0.58709070731E+03  0.00000000000E+00 0.  1.
         36    2    1    2    0    0 -0.28421709430E-13  0.00000000000E+00 -0.15993214562E+03  0.10142492690E+04  0.10015604268E+04 0.  0.
         25    2    3    3    0    0 -0.35321294937E+02 -0.12922709961E+03 -0.61134738004E+02  0.19446563461E+03  0.12701255727E+03 0.  0.
         35    2    3    3    0    0  0.35321294937E+02  0.12922709961E+03 -0.98797407616E+02  0.81978363438E+03  0.80270607466E+03 0.  0.
         22    1    5    5    0    0  0.40327083647E+03  0.54144924048E+02  0.61425645704E+02  0.41149987886E+03  0.00000000000E+00 0. -1.
         22    1    5    5    0    0 -0.36794954154E+03  0.75082175567E+02 -0.16022305332E+03  0.40828375552E+03  0.00000000000E+00 0. -1.
          5    1    4    4  502    0 -0.24684599956E+02 -0.10625013994E+03 -0.99858873037E+02  0.14796048877E+03  0.47000000000E+01 0.  1.
         -5    1    4    4    0  502 -0.10636694980E+02 -0.22976959670E+02  0.38724135034E+02  0.46505145843E+02  0.47000000000E+01 0.  1.
<mgrwt>
<rscale>  0 0.10015604E+04</rscale>
<asrwt>0</asrwt>
<pdfrwt beam="1">  1        2 0.65716703E-01 0.10015604E+04</pdfrwt>
<pdfrwt beam="2">  1       -2 0.90321646E-01 0.10015604E+04</pdfrwt>
<totfact> 0.92441005E+01</totfact>
</mgrwt>
</event>
<event>
 9    1  0.4369420E-036  0.9999416E+03  0.7818608E-02  0.8681094E-01
          2   -1    0    0  501    0  0.00000000000E+00  0.00000000000E+00  0.53828080701E+03  0.53828080701E+03  0.00000000000E+00 0. -1.
         -2   -1    0    0    0  501 -0.00000000000E+00 -0.00000000000E+00 -0.46438739720E+03  0.46438739720E+03  0.00000000000E+00 0. -1.
         36    2    1    2    0    0 -0.28421709430E-13  0.00000000000E+00  0.73893409808E+02  0.10026682042E+04  0.99994164416E+03 0.  0.
         25    2    3    3    0    0 -0.97101470550E+02 -0.10439510177E+03  0.24870555778E+02  0.18965749989E+03  0.12257401789E+03 0.  0.
         35    2    3    3    0    0  0.97101470550E+02  0.10439510177E+03  0.49022854030E+02  0.81301070432E+03  0.79890933920E+03 0.  0.
         22    1    5    5    0    0  0.31282335891E+03  0.12152610149E+03  0.32170912233E+03  0.46489117717E+03  0.00000000000E+00 0. -1.
         22    1    5    5    0    0 -0.21572188836E+03 -0.17130999723E+02 -0.27268626830E+03  0.34811952715E+03  0.00000000000E+00 0. -1.
          5    1    4    4  502    0 -0.79903291674E+02  0.67290018039E+00  0.22151814088E+02  0.83052884853E+02  0.47000000000E+01 0.  1.
         -5    1    4    4    0  502 -0.17198178877E+02 -0.10506800195E+03  0.27187416897E+01  0.10660461504E+03  0.47000000000E+01 0.  1.
<mgrwt>
<rscale>  0 0.99994164E+03</rscale>
<asrwt>0</asrwt>
<pdfrwt beam="1">  1        2 0.82812432E-01 0.99994164E+03</pdfrwt>
<pdfrwt beam="2">  1       -2 0.71444215E-01 0.99994164E+03</pdfrwt>
<totfact> 0.12139093E+02</totfact>
</mgrwt>
</event>
<event>
 9    1  0.4369420E-036  0.9995351E+03  0.7818608E-02  0.8681481E-01
          1   -1    0    0  501    0  0.00000000000E+00  0.00000000000E+00  0.21797440098E+04  0.21797440098E+04  0.00000000000E+00 0.  1.
         -1   -1    0    0    0  501 -0.00000000000E+00 -0.00000000000E+00 -0.11458575950E+03  0.11458575950E+03  0.00000000000E+00 0.  1.
         36    2    1    2    0    0 -0.14210854715E-13  0.14210854715E-13  0.20651582503E+04  0.22943297693E+04  0.99953513772E+03 0.  0.
         25    2    3    3    0    0  0.73520291049E+02  0.65656870324E+02  0.61333438797E+03  0.63360462465E+03  0.12473849082E+03 0.  0.
         35    2    3    3    0    0 -0.73520291049E+02 -0.65656870324E+02  0.14518238624E+04  0.16607251447E+04  0.80031207728E+03 0.  0.
         22    1    5    5    0    0 -0.29677412250E+03 -0.97246241686E+02  0.16290974177E+03  0.35223755517E+03  0.00000000000E+00 0. -1.
         22    1    5    5    0    0  0.22325383145E+03  0.31589371363E+02  0.12889141206E+04  0.13084875895E+04  0.00000000000E+00 0. -1.
          5    1    4    4  502    0  0.32831229269E+02  0.75649125127E+02  0.17797724418E+03  0.19621077747E+03  0.47000000000E+01 0.  1.
         -5    1    4    4    0  502  0.40689061781E+02 -0.99922548028E+01  0.43535714379E+03  0.43739384718E+03  0.47000000000E+01 0.  1.
<mgrwt>
<rscale>  0 0.99953514E+03</rscale>
<asrwt>0</asrwt>
<pdfrwt beam="1">  1        1 0.33534520E+00 0.99953514E+03</pdfrwt>
<pdfrwt beam="2">  1       -1 0.17628580E-01 0.99953514E+03</pdfrwt>
<totfact> 0.58635009E+01</totfact>
</mgrwt>
</event>
<event>
 9    1  0.4369420E-036  0.1000155E+04  0.7818608E-02  0.8680890E-01
          2   -1    0    0  501    0  0.00000000000E+00  0.00000000000E+00  0.42900378593E+03  0.42900378593E+03  0.00000000000E+00 0. -1.
         -2   -1    0    0    0  501 -0.00000000000E+00 -0.00000000000E+00 -0.58292667351E+03  0.58292667351E+03  0.00000000000E+00 0. -1.
         36    2    1    2    0    0  0.00000000000E+00  0.00000000000E+00 -0.15392288758E+03  0.10119304594E+04  0.10001554876E+04 0.  0.
         25    2    3    3    0    0  0.26782264625E+02 -0.13536401803E+03 -0.14904064163E+01  0.18648671600E+03  0.12543670458E+03 0.  0.
         35    2    3    3    0    0 -0.26782264625E+02  0.13536401803E+03 -0.15243248116E+03  0.82544374345E+03  0.79942542192E+03 0.  0.
         22    1    5    5    0    0 -0.15884060034E+02 -0.31367377564E+03  0.73634372308E+02  0.32259194297E+03  0.00000000000E+00 0. -1.
         22    1    5    5    0    0 -0.10898204591E+02  0.44903779367E+03 -0.22606685347E+03  0.50285180048E+03  0.00000000000E+00 0. -1.
          5    1    4    4  502    0  0.32552380185E+01 -0.15434833687E+03 -0.98587640964E+01  0.15476850745E+03  0.47000000000E+01 0. -1.
         -5    1    4    4    0  502  0.23527026607E+02  0.18984318844E+02  0.83683576801E+01  0.31718208543E+02  0.47000000000E+01 0. -1.
<mgrwt>
<rscale>  0 0.10001555E+04</rscale>
<asrwt>0</asrwt>
<pdfrwt beam="1">  1        2 0.66000583E-01 0.10001555E+04</pdfrwt>
<pdfrwt beam="2">  1       -2 0.89681027E-01 0.10001555E+04</pdfrwt>
<totfact> 0.93552438E+01</totfact>
</mgrwt>
</event>
<event>
 9    1  0.4369420E-036  0.9987148E+03  0.7818608E-02  0.8682263E-01
         -1   -1    0    0    0  501 -0.00000000000E+00  0.00000000000E+00  0.12149014737E+03  0.12149014737E+03  0.00000000000E+00 0.  1.
          1   -1    0    0  501    0  0.00000000000E+00 -0.00000000000E+00 -0.20524939880E+04  0.20524939880E+04  0.00000000000E+00 0.  1.
         36    2    1    2    0    0  0.00000000000E+00  0.00000000000E+00 -0.19310038406E+04  0.21739841353E+04  0.99871476825E+03 0.  0.
         25    2    3    3    0    0 -0.16743650997E+01  0.64439659321E+02 -0.60236177889E+03  0.62163520626E+03  0.13941070189E+03 0.  0.
         35    2    3    3    0    0  0.16743650997E+01 -0.64439659321E+02 -0.13286420617E+04  0.15523489291E+04  0.80021384410E+03 0.  0.
         22    1    5    5    0    0  0.34753662560E+03  0.16791614242E+03 -0.65463977183E+03  0.75995445119E+03  0.00000000000E+00 0.  1.
         22    1    5    5    0    0 -0.34586226050E+03 -0.23235580174E+03 -0.67400228988E+03  0.79239447790E+03  0.00000000000E+00 0.  1.
          5    1    4    4  502    0 -0.40452900811E+02 -0.26278457565E+02 -0.29021926647E+03  0.29423852084E+03  0.47000000000E+01 0. -1.
         -5    1    4    4    0  502  0.38778535711E+02  0.90718116887E+02 -0.31214251242E+03  0.32739668542E+03  0.47000000000E+01 0. -1.
<mgrwt>
<rscale>  0 0.99871477E+03</rscale>
<asrwt>0</asrwt>
<pdfrwt beam="1">  1        1 0.31576828E+00 0.99871477E+03</pdfrwt>
<pdfrwt beam="2">  1       -1 0.18690793E-01 0.99871477E+03</pdfrwt>
<totfact> 0.65433276E+01</totfact>
</mgrwt>
</event>
<event>
 9    1  0.4369420E-036  0.1000146E+04  0.7818608E-02  0.8680899E-01
         -1   -1    0    0    0  501 -0.00000000000E+00  0.00000000000E+00  0.11517232941E+03  0.11517232941E+03  0.00000000000E+00 0.  1.
          1   -1    0    0  501    0  0.00000000000E+00 -0.00000000000E+00 -0.21712944836E+04  0.21712944836E+04  0.00000000000E+00 0.  1.
         36    2    1    2    0    0 -0.28421709430E-13  0.00000000000E+00 -0.20561221542E+04  0.22864668130E+04  0.10001460763E+04 0.  0.
         25    2    3    3    0    0 -0.19142388756E+02  0.31612889473E+02 -0.76840415432E+02  0.15120390360E+03  0.12486939254E+03 0.  0.
         35    2    3    3    0    0  0.19142388756E+02 -0.31612889473E+02 -0.19792817388E+04  0.21352629094E+04  0.80026600894E+03 0.  0.
         22    1    5    5    0    0 -0.36594056638E+03 -0.14177888274E+03 -0.11315690826E+04  0.11976904185E+04  0.00000000000E+00 0. -1.
         22    1    5    5    0    0  0.38508295514E+03  0.11016599327E+03 -0.84771265613E+03  0.93757249095E+03  0.00000000000E+00 0. -1.
          5    1    4    4  502    0  0.19234996700E+01 -0.10256165239E+02  0.31258432349E+02  0.33287660917E+02  0.47000000000E+01 0.  1.
         -5    1    4    4    0  502 -0.21065888426E+02  0.41869054711E+02 -0.10809884778E+03  0.11791624269E+03  0.47000000000E+01 0.  1.
<mgrwt>
<rscale>  0 0.10001461E+04</rscale>
<asrwt>0</asrwt>
<pdfrwt beam="1">  1        1 0.33404530E+00 0.10001461E+04</pdfrwt>
<pdfrwt beam="2">  1       -1 0.17718820E-01 0.10001461E+04</pdfrwt>
<totfact> 0.58944952E+01</totfact>
</mgrwt>
</event>
<event>
 9    1  0.4369420E-036  0.9999653E+03  0.7818608E-02  0.8681071E-01
          1   -1    0    0  501    0  0.00000000000E+00  0.00000000000E+00  0.66713703453E+03  0.66713703453E+03  0.00000000000E+00 0. -1.
         -1   -1    0    0    0  501 -0.00000000000E+00 -0.00000000000E+00 -0.37470957055E+03  0.37470957055E+03  0.00000000000E+00 0. -1.
         36    2    1    2    0    0  0.00000000000E+00 -0.71054273576E-14  0.29242746398E+03  0.10418466051E+04  0.99996526281E+03 0.  0.
         25    2    3    3    0    0 -0.13098739020E+03  0.24750983829E+02  0.61215758299E+02  0.19667668758E+03  0.13101161316E+03 0.  0.
         35    2    3    3    0    0  0.13098739020E+03 -0.24750983829E+02  0.23121170568E+03  0.84516991750E+03  0.80192457813E+03 0.  0.
         22    1    5    5    0    0  0.23711894947E+03  0.18629779907E+03  0.43762827583E+03  0.53146098064E+03  0.00000000000E+00 0.  1.
         22    1    5    5    0    0 -0.10613155927E+03 -0.21104878290E+03 -0.20641657015E+03  0.31370893686E+03  0.00000000000E+00 0.  1.
          5    1    4    4  502    0 -0.12866936143E+03 -0.21384892025E+02  0.71925370060E+02  0.14902505506E+03  0.47000000000E+01 0.  1.
         -5    1    4    4    0  502 -0.23180287705E+01  0.46135875854E+02 -0.10709611762E+02  0.47651632525E+02  0.47000000000E+01 0.  1.
<mgrwt>
<rscale>  0 0.99996526E+03</rscale>
<asrwt>0</asrwt>
<pdfrwt beam="1">  1        1 0.10263647E+00 0.99996526E+03</pdfrwt>
<pdfrwt beam="2">  1       -1 0.57647626E-01 0.99996526E+03</pdfrwt>
<totfact> 0.10306014E+02</totfact>
</mgrwt>
</event>
<event>
 9    1  0.4369420E-036  0.1000926E+04  0.7818608E-02  0.8680157E-01
         -1   -1    0    0    0  501 -0.00000000000E+00  0.00000000000E+00  0.11918475664E+03  0.11918475664E+03  0.00000000000E+00 0.  1.
          1   -1    0    0  501    0  0.00000000000E+00 -0.00000000000E+00 -0.21014682894E+04  0.21014682894E+04  0.00000000000E+00 0.  1.
         36    2    1    2    0    0  0.00000000000E+00  0.28421709430E-13 -0.19822835327E+04  0.22206530460E+04  0.10009255450E+04 0.  0.
         25    2    3    3    0    0 -0.48759410192E+02 -0.13277417787E+03 -0.37913958306E+03  0.42356524908E+03  0.12511688294E+03 0.  0.
         35    2    3    3    0    0  0.48759410192E+02  0.13277417787E+03 -0.16031439497E+04  0.17970877969E+04  0.79965465305E+03 0.  0.
         22    1    5    5    0    0 -0.79939568811E+02 -0.29902912711E+03 -0.35980505248E+03  0.47462451403E+03  0.00000000000E+00 0.  1.
         22    1    5    5    0    0  0.12869897900E+03  0.43180330498E+03 -0.12433388972E+04  0.13224632829E+04  0.00000000000E+00 0.  1.
          5    1    4    4  502    0  0.19038011992E+01 -0.15831384813E+02  0.61442140660E+01  0.17722826259E+02  0.47000000000E+01 0. -1.
         -5    1    4    4    0  502 -0.50663211391E+02 -0.11694279305E+03 -0.38528379713E+03  0.40584242283E+03  0.47000000000E+01 0. -1.
<mgrwt>
<rscale>  0 0.10009255E+04</rscale>
<asrwt>0</asrwt>
<pdfrwt beam="1">  1        1 0.32330281E+00 0.10009255E+04</pdfrwt>
<pdfrwt beam="2">  1       -1 0.18336117E-01 0.10009255E+04</pdfrwt>
<totfact> 0.62383421E+01</totfact>
</mgrwt>
</event>
<event>
 9    1  0.4369420E-036  0.1000032E+04  0.7818608E-02  0.8681008E-01
         -1   -1    0    0    0  501 -0.00000000000E+00  0.00000000000E+00  0.64652595183E+03  0.64652595183E+03  0.00000000000E+00 0. -1.
          1   -1    0    0  501    0  0.00000000000E+00 -0.00000000000E+00 -0.38670646871E+03  0.38670646871E+03  0.00000000000E+00 0. -1.
         36    2    1    2    0    0  0.14210854715E-13  0.00000000000E+00  0.25981948312E+03  0.10332324205E+04  0.10000315350E+04 0.  0.
         25    2    3    3    0    0  0.62038592777E+02  0.12329912115E+03  0.77274597056E+02  0.20201842919E+03  0.12565278394E+03 0.  0.
         35    2    3    3    0    0 -0.62038592777E+02 -0.12329912115E+03  0.18254488606E+03  0.83121399135E+03  0.79908860818E+03 0.  0.
         22    1    5    5    0    0  0.78146296484E+02  0.28072481177E+02 -0.29741566607E+03  0.30878955014E+03  0.00000000000E+00 0. -1.
         22    1    5    5    0    0 -0.14018488926E+03 -0.15137160233E+03  0.47996055213E+03  0.52242444121E+03  0.00000000000E+00 0. -1.
          5    1    4    4  502    0  0.50726684850E+01 -0.25383691609E+02  0.37413940368E+01  0.26573516790E+02  0.47000000000E+01 0. -1.
         -5    1    4    4    0  502  0.56965924292E+02  0.14868281276E+03  0.73533203020E+02  0.17544491240E+03  0.47000000000E+01 0. -1.
<mgrwt>
<rscale>  0 0.10000315E+04</rscale>
<asrwt>0</asrwt>
<pdfrwt beam="1">  1        1 0.59493303E-01 0.10000315E+04</pdfrwt>
<pdfrwt beam="2">  1       -1 0.99465531E-01 0.10000315E+04</pdfrwt>
<totfact> 0.72529225E+01</totfact>
</mgrwt>
</event>
<event>
 9    1  0.4369420E-036  0.1001703E+04  0.7818608E-02  0.8679418E-01
          2   -1    0    0  501    0  0.00000000000E+00  0.00000000000E+00  0.12446350764E+04  0.12446350764E+04  0.00000000000E+00 0.  1.
         -2   -1    0    0    0  501 -0.00000000000E+00 -0.00000000000E+00 -0.20154678231E+03  0.20154678231E+03  0.00000000000E+00 0.  1.
         36    2    1    2    0    0  0.00000000000E+00  0.35527136788E-14  0.10430882941E+04  0.14461818587E+04  0.10017029396E+04 0.  0.
         25    2    3    3    0    0  0.13745133946E+03  0.30574079011E+02  0.21469651841E+03  0.28585643589E+03  0.12566487932E+03 0.  0.
         35    2    3    3    0    0 -0.13745133946E+03 -0.30574079011E+02  0.82839177567E+03  0.11603254228E+04  0.80018404621E+03 0.  0.
         22    1    5    5    0    0 -0.16607150979E+03  0.66403589952E+02  0.96998444433E+03  0.98633615232E+03  0.00000000000E+00 0. -1.
         22    1    5    5    0    0  0.28620170327E+02 -0.96977668963E+02 -0.14159266867E+03  0.17398927049E+03  0.00000000000E+00 0. -1.
          5    1    4    4  502    0  0.96599452009E+01  0.33842406782E+02 -0.50083049147E+00  0.35510053073E+02  0.47000000000E+01 0.  1.
         -5    1    4    4    0  502  0.12779139426E+03 -0.32683277711E+01  0.21519734890E+03  0.25034638282E+03  0.47000000000E+01 0.  1.
<mgrwt>
<rscale>  0 0.10017029E+04</rscale>
<asrwt>0</asrwt>
<pdfrwt beam="1">  1        2 0.19148232E+00 0.10017029E+04</pdfrwt>
<pdfrwt beam="2">  1       -2 0.31007198E-01 0.10017029E+04</pdfrwt>
<totfact> 0.20664866E+02</totfact>
</mgrwt>
</event>
<event>
 9    1  0.4369420E-036  0.1001017E+04  0.7818608E-02  0.8680070E-01
         -2   -1    0    0    0  501 -0.00000000000E+00  0.00000000000E+00  0.15664272661E+03  0.15664272661E+03  0.00000000000E+00 0. -1.
          2   -1    0    0  501    0  0.00000000000E+00 -0.00000000000E+00 -0.15992354057E+04  0.15992354057E+04  0.00000000000E+00 0. -1.
         36    2    1    2    0    0  0.00000000000E+00 -0.21316282073E-13 -0.14425926791E+04  0.17558781323E+04  0.10010166721E+04 0.  0.
         25    2    3    3    0    0  0.11445293765E+03 -0.57760337857E+02 -0.16687332919E+03  0.24480418293E+03  0.12508656370E+03 0.  0.
         35    2    3    3    0    0 -0.11445293765E+03  0.57760337857E+02 -0.12757193499E+04  0.15110739494E+04  0.79965548158E+03 0.  0.
         22    1    5    5    0    0  0.14480104625E+03  0.37114509102E+03 -0.54960268768E+03  0.67880714189E+03  0.00000000000E+00 0. -1.
         22    1    5    5    0    0 -0.25925398391E+03 -0.31338475317E+03 -0.72611666219E+03  0.83226680746E+03  0.00000000000E+00 0. -1.
          5    1    4    4  502    0  0.10665373597E+03 -0.87912734075E+01 -0.16273274429E+03  0.19482387417E+03  0.47000000000E+01 0. -1.
         -5    1    4    4    0  502  0.77992016837E+01 -0.48969064449E+02 -0.41405848997E+01  0.49980308755E+02  0.47000000000E+01 0. -1.
<mgrwt>
<rscale>  0 0.10010167E+04</rscale>
<asrwt>0</asrwt>
<pdfrwt beam="1">  1        2 0.24603621E+00 0.10010167E+04</pdfrwt>
<pdfrwt beam="2">  1       -2 0.24098881E-01 0.10010167E+04</pdfrwt>
<totfact> 0.20384160E+02</totfact>
</mgrwt>
</event>
<event>
 9    1  0.4369420E-036  0.9996569E+03  0.7818608E-02  0.8681365E-01
         -1   -1    0    0    0  501 -0.00000000000E+00  0.00000000000E+00  0.16373101440E+03  0.16373101440E+03  0.00000000000E+00 0.  1.
          1   -1    0    0  501    0  0.00000000000E+00 -0.00000000000E+00 -0.15258471196E+04  0.15258471196E+04  0.00000000000E+00 0.  1.
         36    2    1    2    0    0  0.00000000000E+00  0.14210854715E-13 -0.13621161052E+04  0.16895781340E+04  0.99965693459E+03 0.  0.
         25    2    3    3    0    0  0.53589765296E+02  0.10272186652E+03 -0.38789023865E+03  0.42380259212E+03  0.12540396739E+03 0.  0.
         35    2    3    3    0    0 -0.53589765296E+02 -0.10272186652E+03 -0.97422586659E+03  0.12657755419E+04  0.79977999387E+03 0.  0.
         22    1    5    5    0    0  0.24227304814E+03 -0.30596964957E+03 -0.74164155277E+03  0.83806076696E+03  0.00000000000E+00 0.  1.
         22    1    5    5    0    0 -0.29586281344E+03  0.20324778306E+03 -0.23258431382E+03  0.42771477497E+03  0.00000000000E+00 0.  1.
          5    1    4    4  502    0  0.27851975916E+02  0.12971316652E+03 -0.28991939918E+03  0.31886766244E+03  0.47000000000E+01 0. -1.
         -5    1    4    4    0  502  0.25737789380E+02 -0.26991300009E+02 -0.97970839475E+02  0.10493492967E+03  0.47000000000E+01 0. -1.
<mgrwt>
<rscale>  0 0.99965693E+03</rscale>
<asrwt>0</asrwt>
<pdfrwt beam="1">  1        1 0.23474572E+00 0.99965693E+03</pdfrwt>
<pdfrwt beam="2">  1       -1 0.25189386E-01 0.99965693E+03</pdfrwt>
<totfact> 0.93542292E+01</totfact>
</mgrwt>
</event>
<event>
 9    1  0.4369420E-036  0.9925868E+03  0.7818608E-02  0.8688130E-01
          1   -1    0    0  501    0  0.00000000000E+00  0.00000000000E+00  0.24393341212E+04  0.24393341212E+04  0.00000000000E+00 0. -1.
         -1   -1    0    0    0  501 -0.00000000000E+00 -0.00000000000E+00 -0.10097310494E+03  0.10097310494E+03  0.00000000000E+00 0. -1.
         36    2    1    2    0    0  0.00000000000E+00  0.00000000000E+00  0.23383610163E+04  0.25403072262E+04  0.99258680265E+03 0.  0.
         25    2    3    3    0    0  0.21016143606E+02 -0.11419027783E+03  0.26361089229E+03  0.31401700073E+03  0.12503949924E+03 0.  0.
         35    2    3    3    0    0 -0.21016143606E+02  0.11419027783E+03  0.20747501240E+04  0.22262902255E+04  0.79893616326E+03 0.  0.
         22    1    5    5    0    0  0.16228200119E+03  0.21410343653E+03  0.19780682116E+04  0.19962288394E+04  0.00000000000E+00 0. -1.
         22    1    5    5    0    0 -0.18329814480E+03 -0.99913158693E+02  0.96681912411E+02  0.23006138606E+03  0.00000000000E+00 0. -1.
          5    1    4    4  502    0  0.71375212574E+02 -0.63305439702E+02  0.11906651773E+03  0.15264640615E+03  0.47000000000E+01 0.  1.
         -5    1    4    4    0  502 -0.50359068969E+02 -0.50884838131E+02  0.14454437456E+03  0.16137059458E+03  0.47000000000E+01 0.  1.
<mgrwt>
<rscale>  0 0.99258680E+03</rscale>
<asrwt>0</asrwt>
<pdfrwt beam="1">  1        1 0.37528213E+00 0.99258680E+03</pdfrwt>
<pdfrwt beam="2">  1       -1 0.15534326E-01 0.99258680E+03</pdfrwt>
<totfact> 0.47348037E+01</totfact>
</mgrwt>
</event>
<event>
 9    1  0.4369420E-036  0.9999262E+03  0.7818608E-02  0.8681108E-01
          2   -1    0    0  501    0  0.00000000000E+00  0.00000000000E+00  0.10983997228E+04  0.10983997228E+04  0.00000000000E+00 0.  1.
         -2   -1    0    0    0  501 -0.00000000000E+00 -0.00000000000E+00 -0.22757023387E+03  0.22757023387E+03  0.00000000000E+00 0.  1.
         36    2    1    2    0    0 -0.35527136788E-14  0.71054273576E-14  0.87082948894E+03  0.13259699567E+04  0.99992616087E+03 0.  0.
         25    2    3    3    0    0  0.12193434575E+02 -0.17026506578E+02  0.34608980088E+03  0.36857866208E+03  0.12503398776E+03 0.  0.
         35    2    3    3    0    0 -0.12193434575E+02  0.17026506578E+02  0.52473968806E+03  0.95739129459E+03  0.80050469640E+03 0.  0.
         22    1    5    5    0    0 -0.33565883531E+03 -0.13918392265E+03  0.57281907010E+02  0.36785898781E+03  0.00000000000E+00 0.  1.
         22    1    5    5    0    0  0.32346540073E+03  0.15621042923E+03  0.46745778105E+03  0.58953230678E+03  0.00000000000E+00 0.  1.
          5    1    4    4  502    0 -0.27550174861E+02 -0.37770720360E+02  0.30161987266E+03  0.30525772232E+03  0.47000000000E+01 0. -1.
         -5    1    4    4    0  502  0.39743609437E+02  0.20744213783E+02  0.44469928213E+02  0.63320939758E+02  0.47000000000E+01 0. -1.
<mgrwt>
<rscale>  0 0.99992616E+03</rscale>
<asrwt>0</asrwt>
<pdfrwt beam="1">  1        2 0.16898457E+00 0.99992616E+03</pdfrwt>
<pdfrwt beam="2">  1       -2 0.35010806E-01 0.99992616E+03</pdfrwt>
<totfact> 0.20175152E+02</totfact>
</mgrwt>
</event>
<event>
 9    1  0.4369420E-036  0.9997660E+03  0.7818608E-02  0.8681261E-01
         -1   -1    0    0    0  501 -0.00000000000E+00  0.00000000000E+00  0.47006772953E+03  0.47006772953E+03  0.00000000000E+00 0.  1.
          1   -1    0    0  501    0  0.00000000000E+00 -0.00000000000E+00 -0.53158933588E+03  0.53158933588E+03  0.00000000000E+00 0.  1.
         36    2    1    2    0    0 -0.17763568394E-13 -0.56843418861E-13 -0.61521606345E+02  0.10016570654E+04  0.99976595693E+03 0.  0.
         25    2    3    3    0    0  0.78030214682E+01 -0.13683874598E+03  0.47490526036E+01  0.18543173542E+03  0.12480643193E+03 0.  0.
         35    2    3    3    0    0 -0.78030214682E+01  0.13683874598E+03 -0.66270658948E+02  0.81622533000E+03  0.80190165204E+03 0.  0.
         22    1    5    5    0    0  0.33455552513E+03 -0.14864044228E+03 -0.55944644120E+02  0.37033928185E+03  0.00000000000E+00 0. -1.
         22    1    5    5    0    0 -0.34235854659E+03  0.28547918826E+03 -0.10326014828E+02  0.44588604815E+03  0.00000000000E+00 0. -1.
          5    1    4    4  502    0  0.35336127128E+02  0.55304473575E+01 -0.14888632593E+02  0.39025493064E+02  0.47000000000E+01 0. -1.
         -5    1    4    4    0  502 -0.27533105659E+02 -0.14236919334E+03  0.19637685197E+02  0.14640624235E+03  0.47000000000E+01 0. -1.
<mgrwt>
<rscale>  0 0.99976596E+03</rscale>
<asrwt>0</asrwt>
<pdfrwt beam="1">  1        1 0.81782974E-01 0.99976596E+03</pdfrwt>
<pdfrwt beam="2">  1       -1 0.72318113E-01 0.99976596E+03</pdfrwt>
<totfact> 0.92254448E+01</totfact>
</mgrwt>
</event>
<event>
 9    1  0.4369420E-036  0.1000263E+04  0.7818608E-02  0.8680787E-01
          1   -1    0    0  501    0  0.00000000000E+00  0.00000000000E+00  0.15408535763E+04  0.15408535763E+04  0.00000000000E+00 0. -1.
         -1   -1    0    0    0  501 -0.00000000000E+00 -0.00000000000E+00 -0.16233324897E+03  0.16233324897E+03  0.00000000000E+00 0. -1.
         36    2    1    2    0    0  0.00000000000E+00 -0.71054273576E-14  0.13785203273E+04  0.17031868253E+04  0.10002634997E+04 0.  0.
         25    2    3    3    0    0 -0.99699364627E+02 -0.41760942931E+02  0.40784939991E+03  0.44072877387E+03  0.12734511947E+03 0.  0.
         35    2    3    3    0    0  0.99699364627E+02  0.41760942931E+02  0.97067092740E+03  0.12624580514E+04  0.79994646230E+03 0.  0.
         22    1    5    5    0    0  0.18937390548E+03 -0.15980538089E+03 -0.18979016686E+02  0.24851647614E+03  0.00000000000E+00 0. -1.
         22    1    5    5    0    0 -0.89674540851E+02  0.20156632382E+03  0.98964994409E+03  0.10139415752E+04  0.00000000000E+00 0. -1.
          5    1    4    4  502    0 -0.85594651573E+02  0.25762606759E+02  0.15912592718E+03  0.18257411368E+03  0.47000000000E+01 0. -1.
         -5    1    4    4    0  502 -0.14104713055E+02 -0.67523549690E+02  0.24872347273E+03  0.25815466020E+03  0.47000000000E+01 0. -1.
<mgrwt>
<rscale>  0 0.10002635E+04</rscale>
<asrwt>0</asrwt>
<pdfrwt beam="1">  1        1 0.23705439E+00 0.10002635E+04</pdfrwt>
<pdfrwt beam="2">  1       -1 0.24974347E-01 0.10002635E+04</pdfrwt>
<totfact> 0.92592283E+01</totfact>
</mgrwt>
</event>
<event>
 9    1  0.4369420E-036  0.1000265E+04  0.7818608E-02  0.8680785E-01
          2   -1    0    0  501    0  0.00000000000E+00  0.00000000000E+00  0.18830301828E+04  0.18830301828E+04  0.00000000000E+00 0.  1.
         -2   -1    0    0    0  501 -0.00000000000E+00 -0.00000000000E+00 -0.13283516132E+03  0.13283516132E+03  0.00000000000E+00 0.  1.
         36    2    1    2    0    0  0.00000000000E+00  0.14210854715E-13  0.17501950215E+04  0.20158653442E+04  0.10002652011E+04 0.  0.
         25    2    3    3    0    0 -0.13242825239E+03 -0.12100408051E+02  0.25713382581E+03  0.31682042008E+03  0.12873893078E+03 0.  0.
         35    2    3    3    0    0  0.13242825239E+03  0.12100408051E+02  0.14930611957E+04  0.16990449241E+04  0.79989890487E+03 0.  0.
         22    1    5    5    0    0 -0.69903285571E+02 -0.36650441964E+03  0.57306084317E+03  0.68382065552E+03  0.00000000000E+00 0.  1.
         22    1    5    5    0    0  0.20233153796E+03  0.37860482769E+03  0.92000035253E+03  0.10152242685E+04  0.00000000000E+00 0.  1.
          5    1    4    4  502    0 -0.69162770032E+02 -0.68629485363E+02  0.11094521259E+03  0.14773092167E+03  0.47000000000E+01 0. -1.
         -5    1    4    4    0  502 -0.63265482356E+02  0.56529077311E+02  0.14618861321E+03  0.16908949841E+03  0.47000000000E+01 0. -1.
<mgrwt>
<rscale>  0 0.10002652E+04</rscale>
<asrwt>0</asrwt>
<pdfrwt beam="1">  1        2 0.28969693E+00 0.10002652E+04</pdfrwt>
<pdfrwt beam="2">  1       -2 0.20436180E-01 0.10002652E+04</pdfrwt>
<totfact> 0.18816363E+02</totfact>
</mgrwt>
</event>
<event>
 9    1  0.4369420E-036  0.9995268E+03  0.7818608E-02  0.8681489E-01
         -2   -1    0    0    0  501 -0.00000000000E+00  0.00000000000E+00  0.59285575839E+03  0.59285575839E+03  0.00000000000E+00 0.  1.
          2   -1    0    0  501    0  0.00000000000E+00 -0.00000000000E+00 -0.42128878042E+03  0.42128878042E+03  0.00000000000E+00 0.  1.
         36    2    1    2    0    0 -0.14210854715E-13 -0.14210854715E-13  0.17156697797E+03  0.10141445388E+04  0.99952684690E+03 0.  0.
         25    2    3    3    0    0 -0.45081548892E+02 -0.96174850964E+02 -0.55045282878E+02  0.17495946215E+03  0.12766707571E+03 0.  0.
         35    2    3    3    0    0  0.45081548892E+02  0.96174850964E+02  0.22661226084E+03  0.83918507666E+03  0.80099720856E+03 0.  0.
         22    1    5    5    0    0  0.31023033973E+03  0.36474029859E+02  0.40694883123E+03  0.51301127646E+03  0.00000000000E+00 0.  1.
         22    1    5    5    0    0 -0.26514879083E+03  0.59700821105E+02 -0.18033657038E+03  0.32617380020E+03  0.00000000000E+00 0.  1.
          5    1    4    4  502    0 -0.33865501915E+02  0.25280601952E+02 -0.24724766205E+02  0.49187245490E+02  0.47000000000E+01 0. -1.
         -5    1    4    4    0  502 -0.11216046978E+02 -0.12145545292E+03 -0.30320516673E+02  0.12577221666E+03  0.47000000000E+01 0. -1.
<mgrwt>
<rscale>  0 0.99952685E+03</rscale>
<asrwt>0</asrwt>
<pdfrwt beam="1">  1        2 0.64813659E-01 0.99952685E+03</pdfrwt>
<pdfrwt beam="2">  1       -2 0.91208578E-01 0.99952685E+03</pdfrwt>
<totfact> 0.91768116E+01</totfact>
</mgrwt>
</event>
<event>
 9    1  0.4369420E-036  0.1001262E+04  0.7818608E-02  0.8679837E-01
          1   -1    0    0  501    0  0.00000000000E+00  0.00000000000E+00  0.80409278048E+03  0.80409278048E+03  0.00000000000E+00 0. -1.
         -1   -1    0    0    0  501 -0.00000000000E+00 -0.00000000000E+00 -0.31169475218E+03  0.31169475218E+03  0.00000000000E+00 0. -1.
         36    2    1    2    0    0  0.00000000000E+00  0.28421709430E-13  0.49239802830E+03  0.11157875327E+04  0.10012622033E+04 0.  0.
         25    2    3    3    0    0  0.79728493274E+02  0.53051168743E+02 -0.22329741618E+02  0.15839171913E+03  0.12417028704E+03 0.  0.
         35    2    3    3    0    0 -0.79728493274E+02 -0.53051168743E+02  0.51472776992E+03  0.95739581354E+03  0.80155536771E+03 0.  0.
         22    1    5    5    0    0 -0.53897464673E+02 -0.40541913836E+03  0.11698026365E+03  0.42538687865E+03  0.00000000000E+00 0. -1.
         22    1    5    5    0    0 -0.25831028600E+02  0.35236796962E+03  0.39774750627E+03  0.53200893488E+03  0.00000000000E+00 0. -1.
          5    1    4    4  502    0  0.70576396116E+01 -0.21700936965E+02  0.32903092699E+02  0.40316801104E+02  0.47000000000E+01 0. -1.
         -5    1    4    4    0  502  0.72670853662E+02  0.74752105709E+02 -0.55232834318E+02  0.11807491803E+03  0.47000000000E+01 0. -1.
<mgrwt>
<rscale>  0 0.10012622E+04</rscale>
<asrwt>0</asrwt>
<pdfrwt beam="1">  1        1 0.12370658E+00 0.10012622E+04</pdfrwt>
<pdfrwt beam="2">  1       -1 0.47953039E-01 0.10012622E+04</pdfrwt>
<totfact> 0.10848309E+02</totfact>
</mgrwt>
</event>
<event>
 9    1  0.4369420E-036  0.1000492E+04  0.7818608E-02  0.8680570E-01
         -2   -1    0    0    0  501 -0.00000000000E+00  0.00000000000E+00  0.17170500167E+03  0.17170500167E+03  0.00000000000E+00 0. -1.
          2   -1    0    0  501    0  0.00000000000E+00 -0.00000000000E+00 -0.14574183584E+04  0.14574183584E+04  0.00000000000E+00 0. -1.
         36    2    1    2    0    0  0.00000000000E+00  0.28421709430E-13 -0.12857133568E+04  0.16291233601E+04  0.10004919224E+04 0.  0.
         25    2    3    3    0    0 -0.48324424534E+02  0.11844172649E+03 -0.33609714029E+03  0.38096759008E+03  0.12574308889E+03 0.  0.
         35    2    3    3    0    0  0.48324424534E+02 -0.11844172649E+03 -0.94961621648E+03  0.12481557700E+04  0.79984884514E+03 0.  0.
         22    1    5    5    0    0 -0.14461648944E+03 -0.39342944823E+03 -0.29560025397E+03  0.51291341365E+03  0.00000000000E+00 0. -1.
         22    1    5    5    0    0  0.19294091397E+03  0.27498772174E+03 -0.65401596252E+03  0.73524235638E+03  0.00000000000E+00 0. -1.
          5    1    4    4  502    0  0.64065893951E+01  0.73185418518E+02 -0.28232505533E+03  0.29176476267E+03  0.47000000000E+01 0. -1.
         -5    1    4    4    0  502 -0.54731013929E+02  0.45256307975E+02 -0.53772084963E+02  0.89202827413E+02  0.47000000000E+01 0. -1.
<mgrwt>
<rscale>  0 0.10004919E+04</rscale>
<asrwt>0</asrwt>
<pdfrwt beam="1">  1        2 0.22421821E+00 0.10004919E+04</pdfrwt>
<pdfrwt beam="2">  1       -2 0.26416154E-01 0.10004919E+04</pdfrwt>
<totfact> 0.20828840E+02</totfact>
</mgrwt>
</event>
<event>
 9    1  0.4369420E-036  0.1000275E+04  0.7818608E-02  0.8680776E-01
         -2   -1    0    0    0  501 -0.00000000000E+00  0.00000000000E+00  0.32254547921E+03  0.32254547921E+03  0.00000000000E+00 0. -1.
          2   -1    0    0  501    0  0.00000000000E+00 -0.00000000000E+00 -0.77551027128E+03  0.77551027128E+03  0.00000000000E+00 0. -1.
         36    2    1    2    0    0 -0.14210854715E-13  0.14210854715E-13 -0.45296479207E+03  0.10980557505E+04  0.10002746264E+04 0.  0.
         25    2    3    3    0    0 -0.68237327275E+02  0.96185599138E+02  0.33448836710E+01  0.17002965186E+03  0.12243729803E+03 0.  0.
         35    2    3    3    0    0  0.68237327275E+02 -0.96185599138E+02 -0.45630967574E+03  0.92802609863E+03  0.79944100298E+03 0.  0.
         22    1    5    5    0    0  0.22067859394E+03 -0.35069472354E+03 -0.47554029678E+03  0.63073322792E+03  0.00000000000E+00 0. -1.
         22    1    5    5    0    0 -0.15244126666E+03  0.25450912441E+03  0.19230621035E+02  0.29729287071E+03  0.00000000000E+00 0. -1.
          5    1    4    4  502    0 -0.17773722010E+02  0.42535635598E+02  0.60837595464E+02  0.76475411157E+02  0.47000000000E+01 0. -1.
         -5    1    4    4    0  502 -0.50463605266E+02  0.53649963539E+02 -0.57492711793E+02  0.93554240703E+02  0.47000000000E+01 0. -1.
<mgrwt>
<rscale>  0 0.10002746E+04</rscale>
<asrwt>0</asrwt>
<pdfrwt beam="1">  1        2 0.11930927E+00 0.10002746E+04</pdfrwt>
<pdfrwt beam="2">  1       -2 0.49622382E-01 0.10002746E+04</pdfrwt>
<totfact> 0.16697797E+02</totfact>
</mgrwt>
</event>
<event>
 9    1  0.4369420E-036  0.9924067E+03  0.7818608E-02  0.8688303E-01
         -2   -1    0    0    0  501 -0.00000000000E+00  0.00000000000E+00  0.56801031536E+03  0.56801031536E+03  0.00000000000E+00 0. -1.
          2   -1    0    0  501    0  0.00000000000E+00 -0.00000000000E+00 -0.43347413184E+03  0.43347413184E+03  0.00000000000E+00 0. -1.
         36    2    1    2    0    0 -0.28421709430E-13  0.00000000000E+00  0.13453618352E+03  0.10014844472E+04  0.99240672777E+03 0.  0.
         25    2    3    3    0    0  0.10890518010E+03 -0.71382662146E+02  0.40882987044E+02  0.18442251785E+03  0.12403396210E+03 0.  0.
         35    2    3    3    0    0 -0.10890518010E+03  0.71382662146E+02  0.93653196478E+02  0.81706192935E+03  0.80116381127E+03 0.  0.
         22    1    5    5    0    0 -0.41476791469E+03 -0.29521303867E+02  0.22079050288E+03  0.47079972026E+03  0.00000000000E+00 0.  1.
         22    1    5    5    0    0  0.30586273459E+03  0.10090396601E+03 -0.12713730640E+03  0.34626220909E+03  0.00000000000E+00 0.  1.
          5    1    4    4  502    0 -0.35028014180E+00 -0.65916188659E+02 -0.37296581091E+01  0.66189628894E+02  0.47000000000E+01 0.  1.
         -5    1    4    4    0  502  0.10925546024E+03 -0.54664734868E+01  0.44612645153E+02  0.11823288896E+03  0.47000000000E+01 0.  1.
<mgrwt>
<rscale>  0 0.99240673E+03</rscale>
<asrwt>0</asrwt>
<pdfrwt beam="1">  1        2 0.66688328E-01 0.99240673E+03</pdfrwt>
<pdfrwt beam="2">  1       -2 0.87386203E-01 0.99240673E+03</pdfrwt>
<totfact> 0.98300166E+01</totfact>
</mgrwt>
</event>
<event>
 9    1  0.4369420E-036  0.1000379E+04  0.7818608E-02  0.8680677E-01
          2   -1    0    0  501    0  0.00000000000E+00  0.00000000000E+00  0.18274069683E+04  0.18274069683E+04  0.00000000000E+00 0.  1.
         -2   -1    0    0    0  501 -0.00000000000E+00 -0.00000000000E+00 -0.13690957943E+03  0.13690957943E+03  0.00000000000E+00 0.  1.
         36    2    1    2    0    0  0.00000000000E+00 -0.14210854715E-13  0.16904973889E+04  0.19643165477E+04  0.10003789671E+04 0.  0.
         25    2    3    3    0    0 -0.87712940769E+02 -0.81540723510E+02  0.46485007042E+03  0.49582602544E+03  0.12415880942E+03 0.  0.
         35    2    3    3    0    0  0.87712940769E+02  0.81540723510E+02  0.12256473185E+04  0.14684905223E+04  0.79994413260E+03 0.  0.
         22    1    5    5    0    0  0.20594574072E+03  0.25745017292E+02  0.13010951385E+04  0.13175450707E+04  0.00000000000E+00 0.  1.
         22    1    5    5    0    0 -0.11823279995E+03  0.55795706218E+02 -0.75447819994E+02  0.15094545160E+03  0.00000000000E+00 0.  1.
          5    1    4    4  502    0 -0.36660472990E+02 -0.88706647290E+02  0.40702054429E+03  0.41821127798E+03  0.47000000000E+01 0.  1.
         -5    1    4    4    0  502 -0.51052467779E+02  0.71659237802E+01  0.57829526131E+02  0.77614747455E+02  0.47000000000E+01 0.  1.
<mgrwt>
<rscale>  0 0.10003790E+04</rscale>
<asrwt>0</asrwt>
<pdfrwt beam="1">  1        2 0.28113952E+00 0.10003790E+04</pdfrwt>
<pdfrwt beam="2">  1       -2 0.21063014E-01 0.10003790E+04</pdfrwt>
<totfact> 0.19194431E+02</totfact>
</mgrwt>
</event>
<event>
 9    1  0.4369420E-036  0.9998588E+03  0.7818608E-02  0.8681172E-01
          1   -1    0    0  501    0  0.00000000000E+00  0.00000000000E+00  0.91999591883E+03  0.91999591883E+03  0.00000000000E+00 0.  1.
         -1   -1    0    0    0  501 -0.00000000000E+00 -0.00000000000E+00 -0.27166359152E+03  0.27166359152E+03  0.00000000000E+00 0.  1.
         36    2    1    2    0    0 -0.28421709430E-13 -0.28421709430E-13  0.64833232731E+03  0.11916595104E+04  0.99985878102E+03 0.  0.
         25    2    3    3    0    0  0.80099417491E+02  0.40766907995E+02 -0.74797693035E+01  0.15387132022E+03  0.12466987915E+03 0.  0.
         35    2    3    3    0    0 -0.80099417491E+02 -0.40766907995E+02  0.65581209661E+03  0.10377881901E+04  0.79927277199E+03 0.  0.
         22    1    5    5    0    0  0.13204319413E+02 -0.38375411937E+03  0.54263927151E+03  0.66475480982E+03  0.00000000000E+00 0.  1.
         22    1    5    5    0    0 -0.93303736904E+02  0.34298721138E+03  0.11317282510E+03  0.37303338031E+03  0.00000000000E+00 0.  1.
          5    1    4    4  502    0  0.84267186707E+02  0.72348666551E+02  0.18252397090E+02  0.11265224501E+03  0.47000000000E+01 0.  1.
         -5    1    4    4    0  502 -0.41677692160E+01 -0.31581758555E+02 -0.25732166393E+02  0.41219075208E+02  0.47000000000E+01 0.  1.
<mgrwt>
<rscale>  0 0.99985878E+03</rscale>
<asrwt>0</asrwt>
<pdfrwt beam="1">  1        1 0.14153783E+00 0.99985878E+03</pdfrwt>
<pdfrwt beam="2">  1       -1 0.41794399E-01 0.99985878E+03</pdfrwt>
<totfact> 0.11093126E+02</totfact>
</mgrwt>
</event>
<event>
 9    1  0.4369420E-036  0.9996550E+03  0.7818608E-02  0.8681367E-01
         -2   -1    0    0    0  501 -0.00000000000E+00  0.00000000000E+00  0.88927772922E+03  0.88927772922E+03  0.00000000000E+00 0.  1.
          2   -1    0    0  501    0  0.00000000000E+00 -0.00000000000E+00 -0.28093308643E+03  0.28093308643E+03  0.00000000000E+00 0.  1.
         36    2    1    2    0    0 -0.10658141036E-13  0.00000000000E+00  0.60834464280E+03  0.11702108157E+04  0.99965501482E+03 0.  0.
         25    2    3    3    0    0 -0.24378601660E+02  0.77318917367E+02 -0.18246781615E+02  0.15029134230E+03  0.12522783768E+03 0.  0.
         35    2    3    3    0    0  0.24378601660E+02 -0.77318917367E+02  0.62659142441E+03  0.10199194734E+04  0.80065372527E+03 0.  0.
         22    1    5    5    0    0  0.15654422601E+03  0.32042777191E+03  0.42508128097E+03  0.55486407988E+03  0.00000000000E+00 0.  1.
         22    1    5    5    0    0 -0.13216562435E+03 -0.39774668928E+03  0.20151014344E+03  0.46505539348E+03  0.00000000000E+00 0.  1.
          5    1    4    4  502    0 -0.29075736159E+02  0.10519995657E+03  0.10435944632E+02  0.10974255435E+03  0.47000000000E+01 0. -1.
         -5    1    4    4    0  502  0.46971344991E+01 -0.27881039198E+02 -0.28682726247E+02  0.40548787950E+02  0.47000000000E+01 0. -1.
<mgrwt>
<rscale>  0 0.99965501E+03</rscale>
<asrwt>0</asrwt>
<pdfrwt beam="1">  1        2 0.43220475E-01 0.99965501E+03</pdfrwt>
<pdfrwt beam="2">  1       -2 0.13681196E+00 0.99965501E+03</pdfrwt>
<totfact> 0.51634780E+01</totfact>
</mgrwt>
</event>
<event>
 9    1  0.4369420E-036  0.9988039E+03  0.7818608E-02  0.8682178E-01
         -2   -1    0    0    0  501 -0.00000000000E+00  0.00000000000E+00  0.12778363769E+04  0.12778363769E+04  0.00000000000E+00 0.  1.
          2   -1    0    0  501    0  0.00000000000E+00 -0.00000000000E+00 -0.19517546864E+03  0.19517546864E+03  0.00000000000E+00 0.  1.
         36    2    1    2    0    0  0.14210854715E-13 -0.28421709430E-13  0.10826609083E+04  0.14730118456E+04  0.99880391211E+03 0.  0.
         25    2    3    3    0    0  0.17730066513E+01  0.12395338140E+03  0.29960251907E+03  0.34756699485E+03  0.12519409797E+03 0.  0.
         35    2    3    3    0    0 -0.17730066513E+01 -0.12395338140E+03  0.78305838923E+03  0.11254448507E+04  0.79879790108E+03 0.  0.
         22    1    5    5    0    0 -0.32444080262E+03 -0.27790409688E+03  0.55892450822E+03  0.70348356580E+03  0.00000000000E+00 0.  1.
         22    1    5    5    0    0  0.32266779597E+03  0.15395071548E+03  0.22413388101E+03  0.42196128492E+03  0.00000000000E+00 0.  1.
          5    1    4    4  502    0  0.35847398138E+02  0.12504419130E+03  0.27791931447E+03  0.30689138320E+03  0.47000000000E+01 0. -1.
         -5    1    4    4    0  502 -0.34074391486E+02 -0.10908098997E+01  0.21683204600E+02  0.40675611650E+02  0.47000000000E+01 0. -1.
<mgrwt>
<rscale>  0 0.99880391E+03</rscale>
<asrwt>0</asrwt>
<pdfrwt beam="1">  1        2 0.30026996E-01 0.99880391E+03</pdfrwt>
<pdfrwt beam="2">  1       -2 0.19659021E+00 0.99880391E+03</pdfrwt>
<totfact> 0.27195713E+01</totfact>
</mgrwt>
</event>
<event>
 9    1  0.4369420E-036  0.1000891E+04  0.7818608E-02  0.8680190E-01
          3   -1    0    0  501    0  0.00000000000E+00  0.00000000000E+00  0.40944180322E+03  0.40944180322E+03  0.00000000000E+00 0.  1.
         -3   -1    0    0    0  501 -0.00000000000E+00 -0.00000000000E+00 -0.61167537572E+03  0.61167537572E+03  0.00000000000E+00 0.  1.
         36    2    1    2    0    0 -0.42632564146E-13  0.00000000000E+00 -0.20223357250E+03  0.10211171789E+04  0.10008905411E+04 0.  0.
         25    2    3    3    0    0 -0.10190149443E+03  0.34506974945E+02  0.64589491995E+02  0.17710480009E+03  0.12497864559E+03 0.  0.
         35    2    3    3    0    0  0.10190149443E+03 -0.34506974945E+02 -0.26682306450E+03  0.84401237885E+03  0.79346562749E+03 0.  0.
         22    1    5    5    0    0 -0.34054345901E+03 -0.24937618937E+02 -0.31811413218E+02  0.34293395621E+03  0.00000000000E+00 0. -1.
         22    1    5    5    0    0  0.44244495344E+03 -0.95693560084E+01 -0.23501165128E+03  0.50107842264E+03  0.00000000000E+00 0. -1.
          5    1    4    4  502    0 -0.64651665872E+02  0.28925601049E+02  0.10169863728E+03  0.12402109143E+03  0.47000000000E+01 0. -1.
         -5    1    4    4    0  502 -0.37249828555E+02  0.55813738970E+01 -0.37109145281E+02  0.53083708663E+02  0.47000000000E+01 0. -1.
<mgrwt>
<rscale>  0 0.10008905E+04</rscale>
<asrwt>0</asrwt>
<pdfrwt beam="1">  1        3 0.62991047E-01 0.10008905E+04</pdfrwt>
<pdfrwt beam="2">  1       -3 0.94103904E-01 0.10008905E+04</pdfrwt>
<totfact> 0.92788377E+00</totfact>
</mgrwt>
</event>
<event>
 9    1  0.4369420E-036  0.1002861E+04  0.7818608E-02  0.8678319E-01
         -1   -1    0    0    0  501 -0.00000000000E+00  0.00000000000E+00  0.54325661077E+03  0.54325661077E+03  0.00000000000E+00 0. -1.
          1   -1    0    0  501    0  0.00000000000E+00 -0.00000000000E+00 -0.46282424029E+03  0.46282424029E+03  0.00000000000E+00 0. -1.
         36    2    1    2    0    0  0.00000000000E+00  0.00000000000E+00  0.80432370477E+02  0.10060808511E+04  0.10028605649E+04 0.  0.
         25    2    3    3    0    0  0.12310318001E+03  0.53344622555E+02 -0.35622547181E+02  0.18609872506E+03  0.12395050591E+03 0.  0.
         35    2    3    3    0    0 -0.12310318001E+03 -0.53344622555E+02  0.11605491766E+03  0.81998212600E+03  0.80056348990E+03 0.  0.
         22    1    5    5    0    0  0.24117710055E+03 -0.25140180856E+03 -0.85840322273E+02  0.35880053526E+03  0.00000000000E+00 0. -1.
         22    1    5    5    0    0 -0.36428028056E+03  0.19805718600E+03  0.20189523993E+03  0.46118159074E+03  0.00000000000E+00 0. -1.
          5    1    4    4  502    0 -0.18332729633E+02  0.31841679531E+02 -0.20039192592E+02  0.42114614695E+02  0.47000000000E+01 0. -1.
         -5    1    4    4    0  502  0.14143590965E+03  0.21502943024E+02 -0.15583354589E+02  0.14398411036E+03  0.47000000000E+01 0. -1.
<mgrwt>
<rscale>  0 0.10028606E+04</rscale>
<asrwt>0</asrwt>
<pdfrwt beam="1">  1        1 0.71203730E-01 0.10028606E+04</pdfrwt>
<pdfrwt beam="2">  1       -1 0.83577940E-01 0.10028606E+04</pdfrwt>
<totfact> 0.82925088E+01</totfact>
</mgrwt>
</event>
<event>
 9    1  0.4369420E-036  0.1000620E+04  0.7818608E-02  0.8680447E-01
          2   -1    0    0  501    0  0.00000000000E+00  0.00000000000E+00  0.18141472736E+04  0.18141472736E+04  0.00000000000E+00 0.  1.
         -2   -1    0    0    0  501 -0.00000000000E+00 -0.00000000000E+00 -0.13797679601E+03  0.13797679601E+03  0.00000000000E+00 0.  1.
         36    2    1    2    0    0 -0.14210854715E-13  0.00000000000E+00  0.16761704775E+04  0.19521240696E+04  0.10006202642E+04 0.  0.
         25    2    3    3    0    0  0.10012880585E+02  0.10080234084E+03  0.48909809394E+03  0.51696395508E+03  0.13331697442E+03 0.  0.
         35    2    3    3    0    0 -0.10012880585E+02 -0.10080234084E+03  0.11870723836E+04  0.14351601145E+04  0.80017644342E+03 0.  0.
         22    1    5    5    0    0  0.36077003594E+03  0.39352141209E+02  0.32851690891E+03  0.48951707763E+03  0.00000000000E+00 0. -1.
         22    1    5    5    0    0 -0.37078291653E+03 -0.14015448205E+03  0.85855547471E+03  0.94564303687E+03  0.00000000000E+00 0. -1.
          5    1    4    4  502    0  0.31201408475E+02 -0.16268965678E+02  0.21799354058E+03  0.22086530028E+03  0.47000000000E+01 0.  1.
         -5    1    4    4    0  502 -0.21188527890E+02  0.11707130652E+03  0.27110455336E+03  0.29609865480E+03  0.47000000000E+01 0.  1.
<mgrwt>
<rscale>  0 0.10006203E+04</rscale>
<asrwt>0</asrwt>
<pdfrwt beam="1">  1        2 0.27909956E+00 0.10006203E+04</pdfrwt>
<pdfrwt beam="2">  1       -2 0.21227201E-01 0.10006203E+04</pdfrwt>
<totfact> 0.19265957E+02</totfact>
</mgrwt>
</event>
<event>
 9    1  0.4369420E-036  0.1000640E+04  0.7818608E-02  0.8680429E-01
          1   -1    0    0  501    0  0.00000000000E+00  0.00000000000E+00  0.35432636584E+03  0.35432636584E+03  0.00000000000E+00 0. -1.
         -1   -1    0    0    0  501 -0.00000000000E+00 -0.00000000000E+00 -0.70646698328E+03  0.70646698328E+03  0.00000000000E+00 0. -1.
         36    2    1    2    0    0 -0.28421709430E-13 -0.14210854715E-13 -0.35214061745E+03  0.10607933491E+04  0.10006395530E+04 0.  0.
         25    2    3    3    0    0  0.11322438853E+03 -0.84312280408E+02 -0.47339222687E+02  0.19330872045E+03  0.12328396737E+03 0.  0.
         35    2    3    3    0    0 -0.11322438853E+03  0.84312280408E+02 -0.30480139476E+03  0.86748462867E+03  0.79981083260E+03 0.  0.
         22    1    5    5    0    0 -0.26376231592E+03 -0.17787852265E+02 -0.52143046612E+03  0.58461671032E+03  0.00000000000E+00 0. -1.
         22    1    5    5    0    0  0.15053792739E+03  0.10210013267E+03  0.21662907136E+03  0.28286791835E+03  0.00000000000E+00 0. -1.
          5    1    4    4  502    0 -0.16993126601E+00 -0.51271325910E+02  0.22308968608E+02  0.56112011348E+02  0.47000000000E+01 0.  1.
         -5    1    4    4    0  502  0.11339431980E+03 -0.33040954498E+02 -0.69648191295E+02  0.13719670910E+03  0.47000000000E+01 0.  1.
<mgrwt>
<rscale>  0 0.10006396E+04</rscale>
<asrwt>0</asrwt>
<pdfrwt beam="1">  1        1 0.54511749E-01 0.10006396E+04</pdfrwt>
<pdfrwt beam="2">  1       -1 0.10868723E+00 0.10006396E+04</pdfrwt>
<totfact> 0.66515376E+01</totfact>
</mgrwt>
</event>
<event>
 9    1  0.4369420E-036  0.1003616E+04  0.7818608E-02  0.8677602E-01
         -1   -1    0    0    0  501 -0.00000000000E+00  0.00000000000E+00  0.17304160937E+03  0.17304160937E+03  0.00000000000E+00 0.  1.
          1   -1    0    0  501    0  0.00000000000E+00 -0.00000000000E+00 -0.14552054030E+04  0.14552054030E+04  0.00000000000E+00 0.  1.
         36    2    1    2    0    0  0.35527136788E-14  0.00000000000E+00 -0.12821637936E+04  0.16282470124E+04  0.10036156334E+04 0.  0.
         25    2    3    3    0    0 -0.59353168948E+01  0.91759585258E+02 -0.42308223205E+03  0.45068116100E+03  0.12513945952E+03 0.  0.
         35    2    3    3    0    0  0.59353168948E+01 -0.91759585258E+02 -0.85908156158E+03  0.11775658514E+04  0.80011571375E+03 0.  0.
         22    1    5    5    0    0 -0.80356938400E+01  0.23805249008E+03  0.19530012313E+02  0.23898740927E+03  0.00000000000E+00 0.  1.
         22    1    5    5    0    0  0.13971010735E+02 -0.32981207534E+03 -0.87861157389E+03  0.93857844209E+03  0.00000000000E+00 0.  1.
          5    1    4    4  502    0 -0.63015038325E+02  0.56093120553E+02 -0.18814041191E+03  0.20624315219E+03  0.47000000000E+01 0.  1.
         -5    1    4    4    0  502  0.57079721430E+02  0.35666464705E+02 -0.23494182014E+03  0.24443800881E+03  0.47000000000E+01 0.  1.
<mgrwt>
<rscale>  0 0.10036156E+04</rscale>
<asrwt>0</asrwt>
<pdfrwt beam="1">  1        1 0.22387775E+00 0.10036156E+04</pdfrwt>
<pdfrwt beam="2">  1       -1 0.26621787E-01 0.10036156E+04</pdfrwt>
<totfact> 0.95659728E+01</totfact>
</mgrwt>
</event>
<event>
 9    1  0.4369420E-036  0.1000105E+04  0.7818608E-02  0.8680938E-01
          2   -1    0    0  501    0  0.00000000000E+00  0.00000000000E+00  0.49761175495E+03  0.49761175495E+03  0.00000000000E+00 0. -1.
         -2   -1    0    0    0  501 -0.00000000000E+00 -0.00000000000E+00 -0.50250509351E+03  0.50250509351E+03  0.00000000000E+00 0. -1.
         36    2    1    2    0    0  0.28421709430E-13  0.00000000000E+00 -0.48933385657E+01  0.10001168485E+04  0.10001048774E+04 0.  0.
         25    2    3    3    0    0 -0.10479105163E+03 -0.89792874643E+02 -0.40817993096E+02  0.18820963673E+03  0.12129647134E+03 0.  0.
         35    2    3    3    0    0  0.10479105163E+03  0.89792874643E+02  0.35924654531E+02  0.81190721173E+03  0.79928644103E+03 0.  0.
         22    1    5    5    0    0 -0.41608357366E+02 -0.30069771590E+03 -0.16879594905E+03  0.34733621200E+03  0.00000000000E+00 0.  1.
         22    1    5    5    0    0  0.14639940900E+03  0.39049059055E+03  0.20472060358E+03  0.46457099973E+03  0.00000000000E+00 0.  1.
          5    1    4    4  502    0 -0.58788850940E+02 -0.21590837698E+01  0.30207289502E+02  0.66297518631E+02  0.47000000000E+01 0. -1.
         -5    1    4    4    0  502 -0.46002200690E+02 -0.87633790873E+02 -0.71025282599E+02  0.12191211810E+03  0.47000000000E+01 0. -1.
<mgrwt>
<rscale>  0 0.10001049E+04</rscale>
<asrwt>0</asrwt>
<pdfrwt beam="1">  1        2 0.76555654E-01 0.10001049E+04</pdfrwt>
<pdfrwt beam="2">  1       -2 0.77308476E-01 0.10001049E+04</pdfrwt>
<totfact> 0.11154011E+02</totfact>
</mgrwt>
</event>
<event>
 9    1  0.4369420E-036  0.9994083E+03  0.7818608E-02  0.8681602E-01
         -2   -1    0    0    0  501 -0.00000000000E+00  0.00000000000E+00  0.29630348646E+03  0.29630348646E+03  0.00000000000E+00 0. -1.
          2   -1    0    0  501    0  0.00000000000E+00 -0.00000000000E+00 -0.84273141825E+03  0.84273141825E+03  0.00000000000E+00 0. -1.
         36    2    1    2    0    0 -0.71054273576E-14 -0.56843418861E-13 -0.54642793179E+03  0.11390349047E+04  0.99940833972E+03 0.  0.
         25    2    3    3    0    0  0.15453427021E+02  0.13784336050E+03 -0.94722250262E+02  0.20927844942E+03  0.12484215736E+03 0.  0.
         35    2    3    3    0    0 -0.15453427021E+02 -0.13784336050E+03 -0.45170568153E+03  0.92975645529E+03  0.80073056828E+03 0.  0.
         22    1    5    5    0    0  0.60897203805E+02  0.26617945210E+03 -0.44069864833E+03  0.51843540464E+03  0.00000000000E+00 0.  1.
         22    1    5    5    0    0 -0.76350630826E+02 -0.40402281260E+03 -0.11007033203E+02  0.41132105065E+03  0.00000000000E+00 0.  1.
          5    1    4    4  502    0 -0.36466923551E+02  0.12581660740E+03 -0.52822246385E+02  0.14132209638E+03  0.47000000000E+01 0. -1.
         -5    1    4    4    0  502  0.51920350572E+02  0.12026753099E+02 -0.41900003877E+02  0.67956353040E+02  0.47000000000E+01 0. -1.
<mgrwt>
<rscale>  0 0.99940834E+03</rscale>
<asrwt>0</asrwt>
<pdfrwt beam="1">  1        2 0.12965099E+00 0.99940834E+03</pdfrwt>
<pdfrwt beam="2">  1       -2 0.45585152E-01 0.99940834E+03</pdfrwt>
<totfact> 0.17733370E+02</totfact>
</mgrwt>
</event>
<event>
 9    1  0.4369420E-036  0.1000928E+04  0.7818608E-02  0.8680155E-01
          2   -1    0    0  501    0  0.00000000000E+00  0.00000000000E+00  0.21300694892E+04  0.21300694892E+04  0.00000000000E+00 0.  1.
         -2   -1    0    0    0  501 -0.00000000000E+00 -0.00000000000E+00 -0.11758488944E+03  0.11758488944E+03  0.00000000000E+00 0.  1.
         36    2    1    2    0    0 -0.42632564146E-13  0.00000000000E+00  0.20124845997E+04  0.22476543786E+04  0.10009275406E+04 0.  0.
         25    2    3    3    0    0  0.25416597528E+02  0.87997405520E+02  0.14946919167E+03  0.21815070032E+03  0.12984275869E+03 0.  0.
         35    2    3    3    0    0 -0.25416597528E+02 -0.87997405520E+02  0.18630154081E+04  0.20295036783E+04  0.79979323748E+03 0.  0.
         22    1    5    5    0    0 -0.31952784443E+03  0.36284283329E+02  0.15477129337E+04  0.15807687743E+04  0.00000000000E+00 0. -1.
         22    1    5    5    0    0  0.29411124691E+03 -0.12428168885E+03  0.31530247435E+03  0.44873490400E+03  0.00000000000E+00 0. -1.
          5    1    4    4  502    0 -0.27694132934E+02  0.88665195004E+02  0.13309159683E+03  0.16236977844E+03  0.47000000000E+01 0. -1.
         -5    1    4    4    0  502  0.53110730463E+02 -0.66778948317E+00  0.16377594842E+02  0.55780921881E+02  0.47000000000E+01 0. -1.
<mgrwt>
<rscale>  0 0.10009275E+04</rscale>
<asrwt>0</asrwt>
<pdfrwt beam="1">  1        2 0.32770297E+00 0.10009275E+04</pdfrwt>
<pdfrwt beam="2">  1       -2 0.18089985E-01 0.10009275E+04</pdfrwt>
<totfact> 0.16781642E+02</totfact>
</mgrwt>
</event>
<event>
 9    1  0.4369420E-036  0.1011788E+04  0.7818608E-02  0.8669893E-01
         -2   -1    0    0    0  501 -0.00000000000E+00  0.00000000000E+00  0.27739846386E+03  0.27739846386E+03  0.00000000000E+00 0. -1.
          2   -1    0    0  501    0  0.00000000000E+00 -0.00000000000E+00 -0.92260350130E+03  0.92260350130E+03  0.00000000000E+00 0. -1.
         36    2    1    2    0    0  0.00000000000E+00 -0.28421709430E-13 -0.64520503744E+03  0.12000019652E+04  0.10117881083E+04 0.  0.
         25    2    3    3    0    0 -0.12967127570E+03 -0.70003735106E+02 -0.76986940786E+02  0.20825522851E+03  0.12541167601E+03 0.  0.
         35    2    3    3    0    0  0.12967127570E+03  0.70003735106E+02 -0.56821809666E+03  0.99174673665E+03  0.79935888161E+03 0.  0.
         22    1    5    5    0    0  0.17043734130E+03 -0.15369543016E+03 -0.69464777582E+03  0.73157822891E+03  0.00000000000E+00 0. -1.
         22    1    5    5    0    0 -0.40766065596E+02  0.22369916527E+03  0.12642967916E+03  0.26016850774E+03  0.00000000000E+00 0. -1.
          5    1    4    4  502    0 -0.11860472783E+03 -0.97731740644E+02 -0.86693994747E+02  0.17651207697E+03  0.47000000000E+01 0. -1.
         -5    1    4    4    0  502 -0.11066547878E+02  0.27728005539E+02  0.97070539613E+01  0.31743151540E+02  0.47000000000E+01 0. -1.
<mgrwt>
<rscale>  0 0.10117881E+04</rscale>
<asrwt>0</asrwt>
<pdfrwt beam="1">  1        2 0.14193900E+00 0.10117881E+04</pdfrwt>
<pdfrwt beam="2">  1       -2 0.42676687E-01 0.10117881E+04</pdfrwt>
<totfact> 0.17840970E+02</totfact>
</mgrwt>
</event>
<event>
 9    1  0.4369420E-036  0.9963232E+03  0.7818608E-02  0.8684547E-01
         -2   -1    0    0    0  501 -0.00000000000E+00  0.00000000000E+00  0.15121525256E+03  0.15121525256E+03  0.00000000000E+00 0.  1.
          2   -1    0    0  501    0  0.00000000000E+00 -0.00000000000E+00 -0.16411370620E+04  0.16411370620E+04  0.00000000000E+00 0.  1.
         36    2    1    2    0    0 -0.28421709430E-13 -0.31086244690E-14 -0.14899218094E+04  0.17923523145E+04  0.99632315101E+03 0.  0.
         25    2    3    3    0    0 -0.13080459981E+03 -0.36940419703E+01 -0.21094862524E+03  0.27800433616E+03  0.12515430139E+03 0.  0.
         35    2    3    3    0    0  0.13080459981E+03  0.36940419703E+01 -0.12789731842E+04  0.15143479784E+04  0.80022115973E+03 0.  0.
         22    1    5    5    0    0  0.46131534356E+03 -0.28757242026E+02 -0.58982976053E+03  0.74935837327E+03  0.00000000000E+00 0.  1.
         22    1    5    5    0    0 -0.33051074375E+03  0.32451283996E+02 -0.68914342366E+03  0.76498960512E+03  0.00000000000E+00 0.  1.
          5    1    4    4  502    0 -0.98514077490E+01  0.16124110786E+01 -0.13404410515E+03  0.13449744321E+03  0.47000000000E+01 0.  1.
         -5    1    4    4    0  502 -0.12095319206E+03 -0.53064530490E+01 -0.76904520088E+02  0.14350689295E+03  0.47000000000E+01 0.  1.
<mgrwt>
<rscale>  0 0.99632315E+03</rscale>
<asrwt>0</asrwt>
<pdfrwt beam="1">  1        2 0.25248260E+00 0.99632315E+03</pdfrwt>
<pdfrwt beam="2">  1       -2 0.23263887E-01 0.99632315E+03</pdfrwt>
<totfact> 0.20543644E+02</totfact>
</mgrwt>
</event>
<event>
 9    1  0.4369420E-036  0.1000178E+04  0.7818608E-02  0.8680868E-01
          1   -1    0    0  501    0  0.00000000000E+00  0.00000000000E+00  0.55479616129E+03  0.55479616129E+03  0.00000000000E+00 0. -1.
         -1   -1    0    0    0  501 -0.00000000000E+00 -0.00000000000E+00 -0.45077667589E+03  0.45077667589E+03  0.00000000000E+00 0. -1.
         36    2    1    2    0    0  0.00000000000E+00 -0.14210854715E-13  0.10401948540E+03  0.10055728372E+04  0.10001783229E+04 0.  0.
         25    2    3    3    0    0 -0.43327496976E+02 -0.73795462966E+02  0.13060603601E+03  0.20012756781E+03  0.12518012785E+03 0.  0.
         35    2    3    3    0    0  0.43327496976E+02  0.73795462966E+02 -0.26586550607E+02  0.80544526937E+03  0.80044499807E+03 0.  0.
         22    1    5    5    0    0  0.25864417438E+02  0.17610781357E+03  0.36191508106E+03  0.40331805810E+03  0.00000000000E+00 0.  1.
         22    1    5    5    0    0  0.17463079539E+02 -0.10231235060E+03 -0.38850163167E+03  0.40212721127E+03  0.00000000000E+00 0.  1.
          5    1    4    4  502    0 -0.79337106105E+02 -0.59298658080E+02  0.51159704470E+02  0.11158007267E+03  0.47000000000E+01 0.  1.
         -5    1    4    4    0  502  0.36009609129E+02 -0.14496804886E+02  0.79446331538E+02  0.88547495144E+02  0.47000000000E+01 0.  1.
<mgrwt>
<rscale>  0 0.10001783E+04</rscale>
<asrwt>0</asrwt>
<pdfrwt beam="1">  1        1 0.85353256E-01 0.10001783E+04</pdfrwt>
<pdfrwt beam="2">  1       -1 0.69350258E-01 0.10001783E+04</pdfrwt>
<totfact> 0.94390234E+01</totfact>
</mgrwt>
</event>
<event>
 9    1  0.4369420E-036  0.1000118E+04  0.7818608E-02  0.8680925E-01
         -2   -1    0    0    0  501 -0.00000000000E+00  0.00000000000E+00  0.39181627419E+03  0.39181627419E+03  0.00000000000E+00 0. -1.
          2   -1    0    0  501    0  0.00000000000E+00 -0.00000000000E+00 -0.63820498777E+03  0.63820498777E+03  0.00000000000E+00 0. -1.
         36    2    1    2    0    0  0.14210854715E-13 -0.35527136788E-14 -0.24638871357E+03  0.10300212620E+04  0.10001181940E+04 0.  0.
         25    2    3    3    0    0  0.11941654615E+03 -0.26111870747E+02 -0.11820840555E+03  0.21099105896E+03  0.12490739981E+03 0.  0.
         35    2    3    3    0    0 -0.11941654615E+03  0.26111870747E+02 -0.12818030802E+03  0.81903020300E+03  0.79964876088E+03 0.  0.
         22    1    5    5    0    0 -0.15316832888E+02 -0.57008704516E+02 -0.45880015604E+03  0.46258208022E+03  0.00000000000E+00 0.  1.
         22    1    5    5    0    0 -0.10409971327E+03  0.83120575263E+02  0.33061984802E+03  0.35644812278E+03  0.00000000000E+00 0.  1.
          5    1    4    4  502    0  0.35911746807E+01  0.28665089172E+02 -0.66664463490E+02  0.72806761809E+02  0.47000000000E+01 0.  1.
         -5    1    4    4    0  502  0.11582537147E+03 -0.54776959919E+02 -0.51543942062E+02  0.13818429715E+03  0.47000000000E+01 0.  1.
<mgrwt>
<rscale>  0 0.10001182E+04</rscale>
<asrwt>0</asrwt>
<pdfrwt beam="1">  1        2 0.98185382E-01 0.10001182E+04</pdfrwt>
<pdfrwt beam="2">  1       -2 0.60279427E-01 0.10001182E+04</pdfrwt>
<totfact> 0.14271290E+02</totfact>
</mgrwt>
</event>
<event>
 9    1  0.4369420E-036  0.9997071E+03  0.7818608E-02  0.8681317E-01
         -2   -1    0    0    0  501 -0.00000000000E+00  0.00000000000E+00  0.11615405134E+04  0.11615405134E+04  0.00000000000E+00 0.  1.
          2   -1    0    0  501    0  0.00000000000E+00 -0.00000000000E+00 -0.21510533558E+03  0.21510533558E+03  0.00000000000E+00 0.  1.
         36    2    1    2    0    0 -0.35527136788E-14  0.21316282073E-13  0.94643517778E+03  0.13766458489E+04  0.99970708094E+03 0.  0.
         25    2    3    3    0    0 -0.12477550932E+02 -0.50185414262E+02  0.35692223980E+03  0.38180409148E+03  0.12532603052E+03 0.  0.
         35    2    3    3    0    0  0.12477550932E+02  0.50185414262E+02  0.58951293798E+03  0.99484175747E+03  0.79969391223E+03 0.  0.
         22    1    5    5    0    0 -0.13886755011E+03  0.30982371668E+03  0.72539344426E+01  0.33959910402E+03  0.00000000000E+00 0.  1.
         22    1    5    5    0    0  0.15134510104E+03 -0.25963830241E+03  0.58225900354E+03  0.65524265344E+03  0.00000000000E+00 0.  1.
          5    1    4    4  502    0 -0.33381715877E+02 -0.23781409517E+02  0.25198238800E+02  0.48341862109E+02  0.47000000000E+01 0. -1.
         -5    1    4    4    0  502  0.20904164945E+02 -0.26404004745E+02  0.33172400100E+03  0.33346222937E+03  0.47000000000E+01 0. -1.
<mgrwt>
<rscale>  0 0.99970708E+03</rscale>
<asrwt>0</asrwt>
<pdfrwt beam="1">  1        2 0.33093129E-01 0.99970708E+03</pdfrwt>
<pdfrwt beam="2">  1       -2 0.17869854E+00 0.99970708E+03</pdfrwt>
<totfact> 0.32593459E+01</totfact>
</mgrwt>
</event>
<event>
 9    1  0.4369420E-036  0.9997699E+03  0.7818608E-02  0.8681257E-01
         -2   -1    0    0    0  501 -0.00000000000E+00  0.00000000000E+00  0.97864993240E+02  0.97864993240E+02  0.00000000000E+00 0. -1.
          2   -1    0    0  501    0  0.00000000000E+00 -0.00000000000E+00 -0.25533639618E+04  0.25533639618E+04  0.00000000000E+00 0. -1.
         36    2    1    2    0    0  0.14210854715E-13 -0.14210854715E-13 -0.24554989686E+04  0.26512289551E+04  0.99976986725E+03 0.  0.
         25    2    3    3    0    0  0.86343531774E+02  0.60548285299E+02 -0.24113838616E+03  0.29415623331E+03  0.13137301087E+03 0.  0.
         35    2    3    3    0    0 -0.86343531774E+02 -0.60548285299E+02 -0.22143605824E+04  0.23570727218E+04  0.80079818075E+03 0.  0.
         22    1    5    5    0    0 -0.28031149884E+03 -0.32917516450E+03 -0.85735999423E+03  0.96020674077E+03  0.00000000000E+00 0.  1.
         22    1    5    5    0    0  0.19396796706E+03  0.26862687920E+03 -0.13570005882E+04  0.13968659810E+04  0.00000000000E+00 0.  1.
          5    1    4    4  502    0  0.29300494492E+02  0.95142137465E+02 -0.16550073609E+03  0.19319194845E+03  0.47000000000E+01 0.  1.
         -5    1    4    4    0  502  0.57043037282E+02 -0.34593852167E+02 -0.75637650065E+02  0.10096428486E+03  0.47000000000E+01 0.  1.
<mgrwt>
<rscale>  0 0.99976987E+03</rscale>
<asrwt>0</asrwt>
<pdfrwt beam="1">  1        2 0.39282522E+00 0.99976987E+03</pdfrwt>
<pdfrwt beam="2">  1       -2 0.15056153E-01 0.99976987E+03</pdfrwt>
<totfact> 0.12837326E+02</totfact>
</mgrwt>
</event>
<event>
 9    1  0.4369420E-036  0.1000371E+04  0.7818608E-02  0.8680684E-01
         -1   -1    0    0    0  501 -0.00000000000E+00  0.00000000000E+00  0.17671818381E+04  0.17671818381E+04  0.00000000000E+00 0. -1.
          1   -1    0    0  501    0  0.00000000000E+00 -0.00000000000E+00 -0.14157325505E+03  0.14157325505E+03  0.00000000000E+00 0. -1.
         36    2    1    2    0    0  0.00000000000E+00 -0.28421709430E-13  0.16256085830E+04  0.19087550931E+04  0.10003713012E+04 0.  0.
         25    2    3    3    0    0  0.68773556518E+02 -0.12358484152E+03  0.25457802476E+03  0.31449211295E+03  0.11871100745E+03 0.  0.
         35    2    3    3    0    0 -0.68773556518E+02  0.12358484152E+03  0.13710305583E+04  0.15942629802E+04  0.80121572820E+03 0.  0.
         22    1    5    5    0    0 -0.17960204243E+03 -0.31416363866E+03  0.59403076660E+03  0.69557762843E+03  0.00000000000E+00 0. -1.
         22    1    5    5    0    0  0.11082848591E+03  0.43774848018E+03  0.77699979169E+03  0.89868535176E+03  0.00000000000E+00 0. -1.
          5    1    4    4  502    0  0.92769109756E+02 -0.47475818660E+02  0.13391619631E+03  0.16975187397E+03  0.47000000000E+01 0. -1.
         -5    1    4    4    0  502 -0.23995553238E+02 -0.76109022861E+02  0.12066182845E+03  0.14474023898E+03  0.47000000000E+01 0. -1.
<mgrwt>
<rscale>  0 0.10003713E+04</rscale>
<asrwt>0</asrwt>
<pdfrwt beam="1">  1        1 0.21780502E-01 0.10003713E+04</pdfrwt>
<pdfrwt beam="2">  1       -1 0.27187411E+00 0.10003713E+04</pdfrwt>
<totfact> 0.79825234E+00</totfact>
</mgrwt>
</event>
<event>
 9    1  0.4369420E-036  0.1000714E+04  0.7818608E-02  0.8680358E-01
          2   -1    0    0  501    0  0.00000000000E+00  0.00000000000E+00  0.17316482864E+04  0.17316482864E+04  0.00000000000E+00 0.  1.
         -2   -1    0    0    0  501 -0.00000000000E+00 -0.00000000000E+00 -0.14457733210E+03  0.14457733210E+03  0.00000000000E+00 0.  1.
         36    2    1    2    0    0 -0.14210854715E-13 -0.28421709430E-13  0.15870709543E+04  0.18762256185E+04  0.10007139239E+04 0.  0.
         25    2    3    3    0    0  0.10741486554E+03  0.50047628412E+02  0.15826974711E+03  0.23391863406E+03  0.12500358420E+03 0.  0.
         35    2    3    3    0    0 -0.10741486554E+03 -0.50047628412E+02  0.14288012072E+04  0.16423069844E+04  0.80103472024E+03 0.  0.
         22    1    5    5    0    0  0.89312081195E+02 -0.39913904697E+03  0.72947339230E+03  0.83631337233E+03  0.00000000000E+00 0.  1.
         22    1    5    5    0    0 -0.19672694673E+03  0.34909141856E+03  0.69932781490E+03  0.80599361212E+03  0.00000000000E+00 0.  1.
          5    1    4    4  502    0  0.12128872004E+03  0.57736587260E+02  0.85520452488E+02  0.15931197353E+03  0.47000000000E+01 0.  1.
         -5    1    4    4    0  502 -0.13873854502E+02 -0.76889588473E+01  0.72749294621E+02  0.74606660526E+02  0.47000000000E+01 0.  1.
<mgrwt>
<rscale>  0 0.10007139E+04</rscale>
<asrwt>0</asrwt>
<pdfrwt beam="1">  1        2 0.26640741E+00 0.10007139E+04</pdfrwt>
<pdfrwt beam="2">  1       -2 0.22242668E-01 0.10007139E+04</pdfrwt>
<totfact> 0.19764719E+02</totfact>
</mgrwt>
</event>
<event>
 9    1  0.4369420E-036  0.1000128E+04  0.7818608E-02  0.8680916E-01
         -2   -1    0    0    0  501 -0.00000000000E+00  0.00000000000E+00  0.17372395263E+03  0.17372395263E+03  0.00000000000E+00 0. -1.
          2   -1    0    0  501    0  0.00000000000E+00 -0.00000000000E+00 -0.14394333431E+04  0.14394333431E+04  0.00000000000E+00 0. -1.
         36    2    1    2    0    0  0.56843418861E-13  0.00000000000E+00 -0.12657093905E+04  0.16131572958E+04  0.10001280916E+04 0.  0.
         25    2    3    3    0    0  0.14220722683E+03 -0.20897619971E+01 -0.22325676114E+03  0.29256862677E+03  0.12460159512E+03 0.  0.
         35    2    3    3    0    0 -0.14220722683E+03  0.20897619971E+01 -0.10424526294E+04  0.13205886690E+04  0.79813512999E+03 0.  0.
         22    1    5    5    0    0  0.25468217721E+03 -0.15300228831E+03 -0.15267460124E+03  0.33403928733E+03  0.00000000000E+00 0. -1.
         22    1    5    5    0    0 -0.39688940405E+03  0.15509205030E+03 -0.88977802813E+03  0.98654938167E+03  0.00000000000E+00 0. -1.
          5    1    4    4  502    0  0.99942756886E+02  0.55044500737E+02 -0.10858963821E+03  0.15758252200E+03  0.47000000000E+01 0.  1.
         -5    1    4    4    0  502  0.42264469949E+02 -0.57134262734E+02 -0.11466712294E+03  0.13498610477E+03  0.47000000000E+01 0.  1.
<mgrwt>
<rscale>  0 0.10001281E+04</rscale>
<asrwt>0</asrwt>
<pdfrwt beam="1">  1        2 0.22145128E+00 0.10001281E+04</pdfrwt>
<pdfrwt beam="2">  1       -2 0.26726762E-01 0.10001281E+04</pdfrwt>
<totfact> 0.20883839E+02</totfact>
</mgrwt>
</event>
<event>
 9    1  0.4369420E-036  0.1001421E+04  0.7818608E-02  0.8679686E-01
          2   -1    0    0  501    0  0.00000000000E+00  0.00000000000E+00  0.38569376398E+04  0.38569376398E+04  0.00000000000E+00 0.  1.
         -2   -1    0    0    0  501 -0.00000000000E+00 -0.00000000000E+00 -0.65002577516E+02  0.65002577516E+02  0.00000000000E+00 0.  1.
         36    2    1    2    0    0 -0.28421709430E-13  0.00000000000E+00  0.37919350623E+04  0.39219402173E+04  0.10014207665E+04 0.  0.
         25    2    3    3    0    0 -0.10584266350E+03 -0.86799156065E+02  0.66629260085E+03  0.69145886039E+03  0.12422867123E+03 0.  0.
         35    2    3    3    0    0  0.10584266350E+03  0.86799156065E+02  0.31256424614E+04  0.32304813569E+04  0.80475601136E+03 0.  0.
         22    1    5    5    0    0  0.34646162694E+03  0.29390320860E+03  0.23291831537E+04  0.23730800489E+04  0.00000000000E+00 0. -1.
         22    1    5    5    0    0 -0.24061896344E+03 -0.20710405254E+03  0.79645930778E+03  0.85740130808E+03  0.00000000000E+00 0. -1.
          5    1    4    4  502    0 -0.13409806982E+03 -0.67182945608E+02  0.54855811890E+03  0.56871252872E+03  0.47000000000E+01 0.  1.
         -5    1    4    4    0  502  0.28255406323E+02 -0.19616210457E+02  0.11773448195E+03  0.12274633167E+03  0.47000000000E+01 0.  1.
<mgrwt>
<rscale>  0 0.10014208E+04</rscale>
<asrwt>0</asrwt>
<pdfrwt beam="1">  1        2 0.59337484E+00 0.10014208E+04</pdfrwt>
<pdfrwt beam="2">  1       -2 0.10000400E-01 0.10014208E+04</pdfrwt>
<totfact> 0.30044804E+01</totfact>
</mgrwt>
</event>
<event>
 9    1  0.4369420E-036  0.1000058E+04  0.7818608E-02  0.8680983E-01
         -2   -1    0    0    0  501 -0.00000000000E+00  0.00000000000E+00  0.56467162247E+03  0.56467162247E+03  0.00000000000E+00 0. -1.
          2   -1    0    0  501    0  0.00000000000E+00 -0.00000000000E+00 -0.44278614311E+03  0.44278614311E+03  0.00000000000E+00 0. -1.
         36    2    1    2    0    0  0.35527136788E-14  0.14210854715E-13  0.12188547936E+03  0.10074577656E+04  0.10000575380E+04 0.  0.
         25    2    3    3    0    0 -0.29049468594E+02 -0.16167085009E+02  0.15966610350E+03  0.20530468436E+03  0.12470566367E+03 0.  0.
         35    2    3    3    0    0  0.29049468594E+02  0.16167085009E+02 -0.37780624139E+02  0.80215308121E+03  0.80057288480E+03 0.  0.
         22    1    5    5    0    0 -0.12350804821E+02 -0.33069259257E+03  0.19337003758E+03  0.38327810347E+03  0.00000000000E+00 0. -1.
         22    1    5    5    0    0  0.41400273414E+02  0.34685967758E+03 -0.23115066172E+03  0.41887497775E+03  0.00000000000E+00 0. -1.
          5    1    4    4  502    0 -0.11759407198E+02  0.54414873257E+02  0.61663873318E+02  0.83209286512E+02  0.47000000000E+01 0.  1.
         -5    1    4    4    0  502 -0.17290061395E+02 -0.70581958266E+02  0.98002230179E+02  0.12209539785E+03  0.47000000000E+01 0.  1.
<mgrwt>
<rscale>  0 0.10000575E+04</rscale>
<asrwt>0</asrwt>
<pdfrwt beam="1">  1        2 0.68120945E-01 0.10000575E+04</pdfrwt>
<pdfrwt beam="2">  1       -2 0.86872557E-01 0.10000575E+04</pdfrwt>
<totfact> 0.97263230E+01</totfact>
</mgrwt>
</event>
<event>
 9    1  0.4369420E-036  0.9994457E+03  0.7818608E-02  0.8681566E-01
         -2   -1    0    0    0  501 -0.00000000000E+00  0.00000000000E+00  0.59263392445E+03  0.59263392445E+03  0.00000000000E+00 0. -1.
          2   -1    0    0  501    0  0.00000000000E+00 -0.00000000000E+00 -0.42137801487E+03  0.42137801487E+03  0.00000000000E+00 0. -1.
         36    2    1    2    0    0 -0.14210854715E-13 -0.42632564146E-13  0.17125590958E+03  0.10140119393E+04  0.99944565962E+03 0.  0.
         25    2    3    3    0    0 -0.49187928596E+02 -0.62127476339E+02 -0.83938427586E+02  0.17072216118E+03  0.12578203790E+03 0.  0.
         35    2    3    3    0    0  0.49187928596E+02  0.62127476339E+02  0.25519433716E+03  0.84328977814E+03  0.79983387310E+03 0.  0.
         22    1    5    5    0    0  0.22825647163E+03  0.37727103016E+03  0.12789606482E+03  0.45912073623E+03  0.00000000000E+00 0.  1.
         22    1    5    5    0    0 -0.17906854303E+03 -0.31514355383E+03  0.12729827235E+03  0.38416904191E+03  0.00000000000E+00 0.  1.
          5    1    4    4  502    0 -0.74568760800E+00 -0.89244530130E+02 -0.69370414240E+02  0.11313481595E+03  0.47000000000E+01 0. -1.
         -5    1    4    4    0  502 -0.48442240988E+02  0.27117053791E+02 -0.14568013346E+02  0.57587345234E+02  0.47000000000E+01 0. -1.
<mgrwt>
<rscale>  0 0.99944566E+03</rscale>
<asrwt>0</asrwt>
<pdfrwt beam="1">  1        2 0.64827387E-01 0.99944566E+03</pdfrwt>
<pdfrwt beam="2">  1       -2 0.91174450E-01 0.99944566E+03</pdfrwt>
<totfact> 0.91827614E+01</totfact>
</mgrwt>
</event>
<event>
 9    1  0.4369420E-036  0.1001335E+04  0.7818608E-02  0.8679768E-01
         -2   -1    0    0    0  501 -0.00000000000E+00  0.00000000000E+00  0.67254727969E+02  0.67254727969E+02  0.00000000000E+00 0. -1.
          2   -1    0    0  501    0  0.00000000000E+00 -0.00000000000E+00 -0.37271433787E+04  0.37271433787E+04  0.00000000000E+00 0. -1.
         36    2    1    2    0    0  0.00000000000E+00 -0.71054273576E-14 -0.36598886508E+04  0.37943981067E+04  0.10013351368E+04 0.  0.
         25    2    3    3    0    0 -0.13955249432E+03 -0.18412320151E+02 -0.75996456780E+03  0.78300991192E+03  0.12547695265E+03 0.  0.
         35    2    3    3    0    0  0.13955249432E+03  0.18412320151E+02 -0.28999240830E+04  0.30113881948E+04  0.79942808339E+03 0.  0.
         22    1    5    5    0    0 -0.94927543211E-01 -0.84245460584E+02 -0.28187357900E+04  0.28199944611E+04  0.00000000000E+00 0. -1.
         22    1    5    5    0    0  0.13964742187E+03  0.10265778074E+03 -0.81188292916E+02  0.19139373366E+03  0.00000000000E+00 0. -1.
          5    1    4    4  502    0 -0.12881131158E+03  0.32074715279E+02 -0.61144494109E+03  0.62570611898E+03  0.47000000000E+01 0.  1.
         -5    1    4    4    0  502 -0.10741182740E+02 -0.50487035430E+02 -0.14851962671E+03  0.15730379294E+03  0.47000000000E+01 0.  1.
<mgrwt>
<rscale>  0 0.10013351E+04</rscale>
<asrwt>0</asrwt>
<pdfrwt beam="1">  1        2 0.57340684E+00 0.10013351E+04</pdfrwt>
<pdfrwt beam="2">  1       -2 0.10346878E-01 0.10013351E+04</pdfrwt>
<totfact> 0.36304248E+01</totfact>
</mgrwt>
</event>
<event>
 9    1  0.4369420E-036  0.9997117E+03  0.7818608E-02  0.8681313E-01
         -1   -1    0    0    0  501 -0.00000000000E+00  0.00000000000E+00  0.24489213469E+03  0.24489213469E+03  0.00000000000E+00 0.  1.
          1   -1    0    0  501    0  0.00000000000E+00 -0.00000000000E+00 -0.10202691584E+04  0.10202691584E+04  0.00000000000E+00 0.  1.
         36    2    1    2    0    0 -0.35527136788E-14 -0.14210854715E-13 -0.77537702375E+03  0.12651612931E+04  0.99971174278E+03 0.  0.
         25    2    3    3    0    0  0.16877238648E+02 -0.12374190024E+03 -0.67479788148E+02  0.18906730860E+03  0.12488405147E+03 0.  0.
         35    2    3    3    0    0 -0.16877238648E+02  0.12374190024E+03 -0.70789723561E+03  0.10760939845E+04  0.80078890371E+03 0.  0.
         22    1    5    5    0    0  0.20205416610E+02 -0.29869071890E+03 -0.65661685648E+02  0.30648957793E+03  0.00000000000E+00 0. -1.
         22    1    5    5    0    0 -0.37082655258E+02  0.42243261914E+03 -0.64223554996E+03  0.76960440660E+03  0.00000000000E+00 0. -1.
          5    1    4    4  502    0 -0.13639648048E+02 -0.55442462913E+02 -0.93558987560E+02  0.10970542761E+03  0.47000000000E+01 0.  1.
         -5    1    4    4    0  502  0.30516886696E+02 -0.68299437326E+02  0.26079199412E+02  0.79361880993E+02  0.47000000000E+01 0.  1.
<mgrwt>
<rscale>  0 0.99971174E+03</rscale>
<asrwt>0</asrwt>
<pdfrwt beam="1">  1        1 0.15696448E+00 0.99971174E+03</pdfrwt>
<pdfrwt beam="2">  1       -1 0.37675713E-01 0.99971174E+03</pdfrwt>
<totfact> 0.11077489E+02</totfact>
</mgrwt>
</event>
<event>
 9    1  0.4369420E-036  0.9997345E+03  0.7818608E-02  0.8681291E-01
          1   -1    0    0  501    0  0.00000000000E+00  0.00000000000E+00  0.12155418996E+04  0.12155418996E+04  0.00000000000E+00 0.  1.
         -1   -1    0    0    0  501 -0.00000000000E+00 -0.00000000000E+00 -0.20556038823E+03  0.20556038823E+03  0.00000000000E+00 0.  1.
         36    2    1    2    0    0 -0.71054273576E-14  0.28421709430E-13  0.10099815113E+04  0.14211022878E+04  0.99973449433E+03 0.  0.
         25    2    3    3    0    0 -0.42511563562E+00  0.14010684410E+03  0.20965978795E+03  0.28141153960E+03  0.12492045249E+03 0.  0.
         35    2    3    3    0    0  0.42511563562E+00 -0.14010684410E+03  0.80032172340E+03  0.11396907482E+04  0.79921838827E+03 0.  0.
         22    1    5    5    0    0  0.16771941882E+03  0.24466181940E+03  0.81902887745E+02  0.30772925169E+03  0.00000000000E+00 0. -1.
         22    1    5    5    0    0 -0.16729430318E+03 -0.38476866350E+03  0.71841883565E+03  0.83196149653E+03  0.00000000000E+00 0. -1.
          5    1    4    4  502    0  0.28920346006E+02  0.59889334104E+02  0.14364983965E+02  0.68202357121E+02  0.47000000000E+01 0. -1.
         -5    1    4    4    0  502 -0.29345461642E+02  0.80217509992E+02  0.19529480399E+03  0.21320918248E+03  0.47000000000E+01 0. -1.
<mgrwt>
<rscale>  0 0.99973449E+03</rscale>
<asrwt>0</asrwt>
<pdfrwt beam="1">  1        1 0.18700644E+00 0.99973449E+03</pdfrwt>
<pdfrwt beam="2">  1       -1 0.31624676E-01 0.99973449E+03</pdfrwt>
<totfact> 0.10656846E+02</totfact>
</mgrwt>
</event>
<event>
 9    1  0.4369420E-036  0.1000961E+04  0.7818608E-02  0.8680123E-01
          1   -1    0    0  501    0  0.00000000000E+00  0.00000000000E+00  0.61454871193E+03  0.61454871193E+03  0.00000000000E+00 0.  1.
         -1   -1    0    0    0  501 -0.00000000000E+00 -0.00000000000E+00 -0.40758476413E+03  0.40758476413E+03  0.00000000000E+00 0.  1.
         36    2    1    2    0    0  0.14210854715E-13  0.00000000000E+00  0.20696394780E+03  0.10221334761E+04  0.10009609219E+04 0.  0.
         25    2    3    3    0    0  0.95311735515E+02 -0.63837872300E+02 -0.44278545082E+02  0.17613588353E+03  0.12610971036E+03 0.  0.
         35    2    3    3    0    0 -0.95311735515E+02  0.63837872300E+02  0.25124249288E+03  0.84599759253E+03  0.79964338018E+03 0.  0.
         22    1    5    5    0    0  0.22405836799E+03 -0.21131504679E+03 -0.70184255154E+02  0.31588293866E+03  0.00000000000E+00 0.  1.
         22    1    5    5    0    0 -0.31937010350E+03  0.27515291909E+03  0.32142674803E+03  0.53011465387E+03  0.00000000000E+00 0.  1.
          5    1    4    4  502    0  0.10218771361E+03 -0.25591318065E+02  0.13539577941E+02  0.10631394332E+03  0.47000000000E+01 0.  1.
         -5    1    4    4    0  502 -0.68759780921E+01 -0.38246554235E+02 -0.57818123023E+02  0.69821940215E+02  0.47000000000E+01 0.  1.
<mgrwt>
<rscale>  0 0.10009609E+04</rscale>
<asrwt>0</asrwt>
<pdfrwt beam="1">  1        1 0.94545956E-01 0.10009609E+04</pdfrwt>
<pdfrwt beam="2">  1       -1 0.62705348E-01 0.10009609E+04</pdfrwt>
<totfact> 0.99112134E+01</totfact>
</mgrwt>
</event>
<event>
 9    1  0.4369420E-036  0.1000382E+04  0.7818608E-02  0.8680674E-01
         -1   -1    0    0    0  501 -0.00000000000E+00  0.00000000000E+00  0.14994750381E+03  0.14994750381E+03  0.00000000000E+00 0.  1.
          1   -1    0    0  501    0  0.00000000000E+00 -0.00000000000E+00 -0.16685257139E+04  0.16685257139E+04  0.00000000000E+00 0.  1.
         36    2    1    2    0    0 -0.24868995752E-13  0.14210854715E-13 -0.15185782101E+04  0.18184732177E+04  0.10003824585E+04 0.  0.
         25    2    3    3    0    0 -0.21901359844E+02 -0.77310200171E+02 -0.76596999316E+02  0.16730304208E+03  0.12516657291E+03 0.  0.
         35    2    3    3    0    0  0.21901359844E+02  0.77310200171E+02 -0.14419812108E+04  0.16511701756E+04  0.80037278816E+03 0.  0.
         22    1    5    5    0    0  0.34102913557E+03 -0.18791807421E+03 -0.70843325385E+03  0.80838836526E+03  0.00000000000E+00 0.  1.
         22    1    5    5    0    0 -0.31912777573E+03  0.26522827438E+03 -0.73354795695E+03  0.84278181039E+03  0.00000000000E+00 0.  1.
          5    1    4    4  502    0 -0.40365944376E+02  0.22801094455E+02 -0.28416807583E+02  0.54579339744E+02  0.47000000000E+01 0.  1.
         -5    1    4    4    0  502  0.18464584532E+02 -0.10011129463E+03 -0.48180191733E+02  0.11272370234E+03  0.47000000000E+01 0.  1.
<mgrwt>
<rscale>  0 0.10003825E+04</rscale>
<asrwt>0</asrwt>
<pdfrwt beam="1">  1        1 0.25669628E+00 0.10003825E+04</pdfrwt>
<pdfrwt beam="2">  1       -1 0.23068845E-01 0.10003825E+04</pdfrwt>
<totfact> 0.85885046E+01</totfact>
</mgrwt>
</event>
<event>
 9    1  0.4369420E-036  0.1001202E+04  0.7818608E-02  0.8679894E-01
         -2   -1    0    0    0  501 -0.00000000000E+00  0.00000000000E+00  0.23046705677E+03  0.23046705677E+03  0.00000000000E+00 0. -1.
          2   -1    0    0  501    0  0.00000000000E+00 -0.00000000000E+00 -0.10873635504E+04  0.10873635504E+04  0.00000000000E+00 0. -1.
         36    2    1    2    0    0 -0.71054273576E-14  0.00000000000E+00 -0.85689649363E+03  0.13178306072E+04  0.10012022315E+04 0.  0.
         25    2    3    3    0    0 -0.12436073665E+02  0.10250786947E+02 -0.34576661489E+03  0.36797753333E+03  0.12487264912E+03 0.  0.
         35    2    3    3    0    0  0.12436073665E+02 -0.10250786947E+02 -0.51112987874E+03  0.94985307383E+03  0.80044198689E+03 0.  0.
         22    1    5    5    0    0 -0.18294998318E+03 -0.16688059901E+02 -0.67201370298E+03  0.69667180558E+03  0.00000000000E+00 0. -1.
         22    1    5    5    0    0  0.19538605684E+03  0.64372729532E+01  0.16088382425E+03  0.25318126826E+03  0.00000000000E+00 0. -1.
          5    1    4    4  502    0 -0.86696324553E+01 -0.14503677061E+02  0.34146496953E+01  0.17868100284E+02  0.47000000000E+01 0.  1.
         -5    1    4    4    0  502 -0.37664412100E+01  0.24754464009E+02 -0.34918126459E+03  0.35010943304E+03  0.47000000000E+01 0.  1.
<mgrwt>
<rscale>  0 0.10012022E+04</rscale>
<asrwt>0</asrwt>
<pdfrwt beam="1">  1        2 0.16728670E+00 0.10012022E+04</pdfrwt>
<pdfrwt beam="2">  1       -2 0.35456470E-01 0.10012022E+04</pdfrwt>
<totfact> 0.20010472E+02</totfact>
</mgrwt>
</event>
<event>
 9    1  0.4369420E-036  0.9998574E+03  0.7818608E-02  0.8681174E-01
          2   -1    0    0  501    0  0.00000000000E+00  0.00000000000E+00  0.29346685655E+03  0.29346685655E+03  0.00000000000E+00 0.  1.
         -2   -1    0    0    0  501 -0.00000000000E+00 -0.00000000000E+00 -0.85164207442E+03  0.85164207442E+03  0.00000000000E+00 0.  1.
         36    2    1    2    0    0  0.00000000000E+00 -0.71054273576E-13 -0.55817521787E+03  0.11451089310E+04  0.99985743482E+03 0.  0.
         25    2    3    3    0    0 -0.33549555511E+02  0.89649514297E+02 -0.22092059868E+03  0.27105750456E+03  0.12451366098E+03 0.  0.
         35    2    3    3    0    0  0.33549555511E+02 -0.89649514297E+02 -0.33725461919E+03  0.87405142642E+03  0.80066385566E+03 0.  0.
         22    1    5    5    0    0  0.17944868191E+03  0.32236762745E+03 -0.14191322858E+03  0.39529998876E+03  0.00000000000E+00 0. -1.
         22    1    5    5    0    0 -0.14589912640E+03 -0.41201714174E+03 -0.19534139062E+03  0.47875143766E+03  0.00000000000E+00 0. -1.
          5    1    4    4  502    0 -0.49090290667E+02  0.12227394552E+02 -0.19086647365E+02  0.54274818498E+02  0.47000000000E+01 0. -1.
         -5    1    4    4    0  502  0.15540735156E+02  0.77422119745E+02 -0.20183395131E+03  0.21678268606E+03  0.47000000000E+01 0. -1.
<mgrwt>
<rscale>  0 0.99985743E+03</rscale>
<asrwt>0</asrwt>
<pdfrwt beam="1">  1        2 0.45148748E-01 0.99985743E+03</pdfrwt>
<pdfrwt beam="2">  1       -2 0.13102186E+00 0.99985743E+03</pdfrwt>
<totfact> 0.55263416E+01</totfact>
</mgrwt>
</event>
<event>
 9    1  0.4369420E-036  0.9984936E+03  0.7818608E-02  0.8682474E-01
         -2   -1    0    0    0  501 -0.00000000000E+00  0.00000000000E+00  0.29613086156E+03  0.29613086156E+03  0.00000000000E+00 0.  1.
          2   -1    0    0  501    0  0.00000000000E+00 -0.00000000000E+00 -0.84167978435E+03  0.84167978435E+03  0.00000000000E+00 0.  1.
         36    2    1    2    0    0  0.00000000000E+00  0.17763568394E-13 -0.54554892279E+03  0.11378106459E+04  0.99849358474E+03 0.  0.
         25    2    3    3    0    0 -0.13808484936E+03  0.11807672567E+02 -0.11100855370E+03  0.21680875086E+03  0.12440373267E+03 0.  0.
         35    2    3    3    0    0  0.13808484936E+03 -0.11807672567E+02 -0.43454036909E+03  0.92100189504E+03  0.80013268371E+03 0.  0.
         22    1    5    5    0    0  0.39025487297E+03 -0.23004017585E+03 -0.13488986374E+03  0.47266544587E+03  0.00000000000E+00 0.  1.
         22    1    5    5    0    0 -0.25217002361E+03  0.21823250329E+03 -0.29965050535E+03  0.44833644917E+03  0.00000000000E+00 0.  1.
          5    1    4    4  502    0 -0.63162352203E+02  0.28091682202E+02 -0.12091216927E+03  0.13935733932E+03  0.47000000000E+01 0. -1.
         -5    1    4    4    0  502 -0.74922497152E+02 -0.16284009635E+02  0.99036155642E+01  0.77451411547E+02  0.47000000000E+01 0. -1.
<mgrwt>
<rscale>  0 0.99849358E+03</rscale>
<asrwt>0</asrwt>
<pdfrwt beam="1">  1        2 0.12948920E+00 0.99849358E+03</pdfrwt>
<pdfrwt beam="2">  1       -2 0.45558594E-01 0.99849358E+03</pdfrwt>
<totfact> 0.17783266E+02</totfact>
</mgrwt>
</event>
<event>
 9    1  0.4369420E-036  0.1003085E+04  0.7818608E-02  0.8678106E-01
         -2   -1    0    0    0  501 -0.00000000000E+00  0.00000000000E+00  0.85592247374E+02  0.85592247374E+02  0.00000000000E+00 0.  1.
          2   -1    0    0  501    0  0.00000000000E+00 -0.00000000000E+00 -0.29388725834E+04  0.29388725834E+04  0.00000000000E+00 0.  1.
         36    2    1    2    0    0  0.53290705182E-14  0.28421709430E-13 -0.28532803360E+04  0.30244648307E+04  0.10030846607E+04 0.  0.
         25    2    3    3    0    0 -0.41815689794E+01  0.67267157430E+02 -0.93354774360E+03  0.94421939597E+03  0.12448502789E+03 0.  0.
         35    2    3    3    0    0  0.41815689794E+01 -0.67267157430E+02 -0.19197325924E+04  0.20802454348E+04  0.79843940696E+03 0.  0.
         22    1    5    5    0    0 -0.63214854623E+02  0.32593613832E+03 -0.13113661967E+04  0.13527423206E+04  0.00000000000E+00 0.  1.
         22    1    5    5    0    0  0.67396423602E+02 -0.39320329575E+03 -0.60836639568E+03  0.72750311414E+03  0.00000000000E+00 0.  1.
          5    1    4    4  502    0  0.98668796080E+01  0.11848666381E+02 -0.10165707129E+02  0.19057224605E+02  0.47000000000E+01 0. -1.
         -5    1    4    4    0  502 -0.14048448587E+02  0.55418491049E+02 -0.92338203647E+03  0.92516217137E+03  0.47000000000E+01 0. -1.
<mgrwt>
<rscale>  0 0.10030847E+04</rscale>
<asrwt>0</asrwt>
<pdfrwt beam="1">  1        2 0.45213422E+00 0.10030847E+04</pdfrwt>
<pdfrwt beam="2">  1       -2 0.13168039E-01 0.10030847E+04</pdfrwt>
<totfact> 0.91276925E+01</totfact>
</mgrwt>
</event>
<event>
 9    1  0.4369420E-036  0.9997606E+03  0.7818608E-02  0.8681266E-01
          2   -1    0    0  501    0  0.00000000000E+00  0.00000000000E+00  0.18190842216E+04  0.18190842216E+04  0.00000000000E+00 0.  1.
         -2   -1    0    0    0  501 -0.00000000000E+00 -0.00000000000E+00 -0.13736599252E+03  0.13736599252E+03  0.00000000000E+00 0.  1.
         36    2    1    2    0    0  0.14210854715E-13  0.21316282073E-13  0.16817182291E+04  0.19564502141E+04  0.99976059050E+03 0.  0.
         25    2    3    3    0    0  0.97219658548E+02  0.61292875378E+00  0.12264549626E+03  0.20120897204E+03  0.12645590135E+03 0.  0.
         35    2    3    3    0    0 -0.97219658548E+02 -0.61292875378E+00  0.15590727328E+04  0.17552412421E+04  0.80044487256E+03 0.  0.
         22    1    5    5    0    0 -0.36948340967E+03 -0.17218759369E+03  0.48273179067E+03  0.63182002118E+03  0.00000000000E+00 0. -1.
         22    1    5    5    0    0  0.27226375113E+03  0.17157466493E+03  0.10763409421E+04  0.11234212209E+04  0.00000000000E+00 0. -1.
          5    1    4    4  502    0  0.10481871761E+03  0.40771685359E+02  0.11182258184E+03  0.15866843951E+03  0.47000000000E+01 0. -1.
         -5    1    4    4    0  502 -0.75990590648E+01 -0.40158756605E+02  0.10822914422E+02  0.42540532523E+02  0.47000000000E+01 0. -1.
<mgrwt>
<rscale>  0 0.99976059E+03</rscale>
<asrwt>0</asrwt>
<pdfrwt beam="1">  1        2 0.27985909E+00 0.99976059E+03</pdfrwt>
<pdfrwt beam="2">  1       -2 0.21133231E-01 0.99976059E+03</pdfrwt>
<totfact> 0.19291156E+02</totfact>
</mgrwt>
</event>
<event>
 9    1  0.4369420E-036  0.9998480E+03  0.7818608E-02  0.8681183E-01
          2   -1    0    0  501    0  0.00000000000E+00  0.00000000000E+00  0.57828609554E+03  0.57828609554E+03  0.00000000000E+00 0.  1.
         -2   -1    0    0    0  501 -0.00000000000E+00 -0.00000000000E+00 -0.43218054831E+03  0.43218054831E+03  0.00000000000E+00 0.  1.
         36    2    1    2    0    0  0.00000000000E+00 -0.21316282073E-13  0.14610554724E+03  0.10104666439E+04  0.99984799215E+03 0.  0.
         25    2    3    3    0    0  0.86038898792E+01  0.62907221095E+02 -0.99984390000E+02  0.17163336155E+03  0.12421669440E+03 0.  0.
         35    2    3    3    0    0 -0.86038898792E+01 -0.62907221095E+02  0.24608993724E+03  0.83883328230E+03  0.79940582491E+03 0.  0.
         22    1    5    5    0    0 -0.18953988230E+03  0.30493620502E+03 -0.31871826174E+01  0.35905656135E+03  0.00000000000E+00 0.  1.
         22    1    5    5    0    0  0.18093599242E+03 -0.36784342612E+03  0.24927711985E+03  0.47977672096E+03  0.00000000000E+00 0.  1.
          5    1    4    4  502    0  0.13562632779E+02 -0.18681950055E+02  0.16851268895E+02  0.28965764777E+02  0.47000000000E+01 0.  1.
         -5    1    4    4    0  502 -0.49587428997E+01  0.81589171150E+02 -0.11683565889E+03  0.14266759677E+03  0.47000000000E+01 0.  1.
<mgrwt>
<rscale>  0 0.99984799E+03</rscale>
<asrwt>0</asrwt>
<pdfrwt beam="1">  1        2 0.88967092E-01 0.99984799E+03</pdfrwt>
<pdfrwt beam="2">  1       -2 0.66489315E-01 0.99984799E+03</pdfrwt>
<totfact> 0.13042202E+02</totfact>
</mgrwt>
</event>
<event>
 9    1  0.4369420E-036  0.1000094E+04  0.7818608E-02  0.8680949E-01
         -2   -1    0    0    0  501 -0.00000000000E+00  0.00000000000E+00  0.26914697597E+03  0.26914697597E+03  0.00000000000E+00 0.  1.
          2   -1    0    0  501    0  0.00000000000E+00 -0.00000000000E+00 -0.92903492365E+03  0.92903492365E+03  0.00000000000E+00 0.  1.
         36    2    1    2    0    0  0.00000000000E+00 -0.28421709430E-13 -0.65988794768E+03  0.11981818996E+04  0.10000938761E+04 0.  0.
         25    2    3    3    0    0  0.12030127909E+03  0.43467072960E+02 -0.19003512948E+03  0.26130826259E+03  0.12572538917E+03 0.  0.
         35    2    3    3    0    0 -0.12030127909E+03 -0.43467072960E+02 -0.46985281820E+03  0.93687363703E+03  0.80038038257E+03 0.  0.
         22    1    5    5    0    0 -0.15090998361E+03  0.19739194484E+03 -0.60850342920E+03  0.65727758702E+03  0.00000000000E+00 0. -1.
         22    1    5    5    0    0  0.30608704520E+02 -0.24085901780E+03  0.13865061101E+03  0.27959605001E+03  0.00000000000E+00 0. -1.
          5    1    4    4  502    0 -0.18098129853E+02 -0.19103782027E+02 -0.20873137358E+02  0.33915699242E+02  0.47000000000E+01 0.  1.
         -5    1    4    4    0  502  0.13839940894E+03  0.62570854987E+02 -0.16916199212E+03  0.22739256335E+03  0.47000000000E+01 0.  1.
<mgrwt>
<rscale>  0 0.10000939E+04</rscale>
<asrwt>0</asrwt>
<pdfrwt beam="1">  1        2 0.14292845E+00 0.10000939E+04</pdfrwt>
<pdfrwt beam="2">  1       -2 0.41407227E-01 0.10000939E+04</pdfrwt>
<totfact> 0.18734813E+02</totfact>
</mgrwt>
</event>
<event>
 9    1  0.4369420E-036  0.1000100E+04  0.7818608E-02  0.8680942E-01
          2   -1    0    0  501    0  0.00000000000E+00  0.00000000000E+00  0.33470466560E+04  0.33470466560E+04  0.00000000000E+00 0. -1.
         -2   -1    0    0    0  501 -0.00000000000E+00 -0.00000000000E+00 -0.74707693381E+02  0.74707693381E+02  0.00000000000E+00 0. -1.
         36    2    1    2    0    0  0.14210854715E-13  0.00000000000E+00  0.32723389626E+04  0.34217543494E+04  0.10001002656E+04 0.  0.
         25    2    3    3    0    0  0.70975886388E+02 -0.88491161921E+02  0.33828404035E+03  0.37827606641E+03  0.12565201264E+03 0.  0.
         35    2    3    3    0    0 -0.70975886388E+02  0.88491161921E+02  0.29340549223E+04  0.30434782830E+04  0.80075808445E+03 0.  0.
         22    1    5    5    0    0 -0.32627610363E+03  0.24416063289E+03  0.90513930642E+03  0.99264680249E+03  0.00000000000E+00 0. -1.
         22    1    5    5    0    0  0.25530021724E+03 -0.15566947096E+03  0.20289156158E+04  0.20508314805E+04  0.00000000000E+00 0. -1.
          5    1    4    4  502    0  0.16040492921E+02 -0.98437643101E+02  0.13819423491E+03  0.17049047936E+03  0.47000000000E+01 0. -1.
         -5    1    4    4    0  502  0.54935393467E+02  0.99464811796E+01  0.20008980544E+03  0.20778558705E+03  0.47000000000E+01 0. -1.
<mgrwt>
<rscale>  0 0.10001003E+04</rscale>
<asrwt>0</asrwt>
<pdfrwt beam="1">  1        2 0.51493014E+00 0.10001003E+04</pdfrwt>
<pdfrwt beam="2">  1       -2 0.11493494E-01 0.10001003E+04</pdfrwt>
<totfact> 0.59691390E+01</totfact>
</mgrwt>
</event>
<event>
 9    1  0.4369420E-036  0.1000085E+04  0.7818608E-02  0.8680957E-01
          1   -1    0    0  501    0  0.00000000000E+00  0.00000000000E+00  0.14661053339E+04  0.14661053339E+04  0.00000000000E+00 0. -1.
         -1   -1    0    0    0  501 -0.00000000000E+00 -0.00000000000E+00 -0.17054876157E+03  0.17054876157E+03  0.00000000000E+00 0. -1.
         36    2    1    2    0    0  0.00000000000E+00 -0.17763568394E-14  0.12955565723E+04  0.16366540955E+04  0.10000848944E+04 0.  0.
         25    2    3    3    0    0 -0.13737776694E+03 -0.10566362583E+02  0.28325109111E+03  0.33901478993E+03  0.12536167001E+03 0.  0.
         35    2    3    3    0    0  0.13737776694E+03  0.10566362583E+02  0.10123054812E+04  0.12976393055E+04  0.80007567210E+03 0.  0.
         22    1    5    5    0    0  0.29826066118E+02 -0.39278258362E+03  0.51420011061E+03  0.64774185133E+03  0.00000000000E+00 0. -1.
         22    1    5    5    0    0  0.10755170083E+03  0.40334894620E+03  0.49810537062E+03  0.64989745421E+03  0.00000000000E+00 0. -1.
          5    1    4    4  502    0 -0.15773770908E+03 -0.15496576927E+02  0.27182635533E+03  0.31469506862E+03  0.47000000000E+01 0. -1.
         -5    1    4    4    0  502  0.20359942131E+02  0.49302143434E+01  0.11424735783E+02  0.24319721313E+02  0.47000000000E+01 0. -1.
<mgrwt>
<rscale>  0 0.10000849E+04</rscale>
<asrwt>0</asrwt>
<pdfrwt beam="1">  1        1 0.22555466E+00 0.10000849E+04</pdfrwt>
<pdfrwt beam="2">  1       -1 0.26238272E-01 0.10000849E+04</pdfrwt>
<totfact> 0.96318516E+01</totfact>
</mgrwt>
</event>
<event>
 9    1  0.4369420E-036  0.9997713E+03  0.7818608E-02  0.8681256E-01
         -2   -1    0    0    0  501 -0.00000000000E+00  0.00000000000E+00  0.10294862908E+03  0.10294862908E+03  0.00000000000E+00 0.  1.
          2   -1    0    0  501    0  0.00000000000E+00 -0.00000000000E+00 -0.24272852371E+04  0.24272852371E+04  0.00000000000E+00 0.  1.
         36    2    1    2    0    0  0.00000000000E+00 -0.71054273576E-14 -0.23243366080E+04  0.25302338662E+04  0.99977134894E+03 0.  0.
         25    2    3    3    0    0 -0.80258080287E+01 -0.86310806617E+01 -0.83410459785E+02  0.15077327476E+03  0.12504545747E+03 0.  0.
         35    2    3    3    0    0  0.80258080287E+01  0.86310806617E+01 -0.22409261482E+04  0.23794605914E+04  0.79996487115E+03 0.  0.
         22    1    5    5    0    0 -0.11376558511E+03  0.20174376894E+03 -0.14963156287E+03  0.27574038744E+03  0.00000000000E+00 0. -1.
         22    1    5    5    0    0  0.12179139314E+03 -0.19311268827E+03 -0.20912945854E+04  0.21037202040E+04  0.00000000000E+00 0. -1.
          5    1    4    4  502    0  0.45662275920E+02  0.24021185356E+02 -0.78728460456E+01  0.52403554202E+02  0.47000000000E+01 0.  1.
         -5    1    4    4    0  502 -0.53688083949E+02 -0.32652266018E+02 -0.75537613739E+02  0.98369720563E+02  0.47000000000E+01 0.  1.
<mgrwt>
<rscale>  0 0.99977135E+03</rscale>
<asrwt>0</asrwt>
<pdfrwt beam="1">  1        2 0.37342849E+00 0.99977135E+03</pdfrwt>
<pdfrwt beam="2">  1       -2 0.15838251E-01 0.99977135E+03</pdfrwt>
<totfact> 0.14062992E+02</totfact>
</mgrwt>
</event>
<event>
 9    1  0.4369420E-036  0.9993591E+03  0.7818608E-02  0.8681649E-01
          1   -1    0    0  501    0  0.00000000000E+00  0.00000000000E+00  0.16890333915E+04  0.16890333915E+04  0.00000000000E+00 0.  1.
         -1   -1    0    0    0  501 -0.00000000000E+00 -0.00000000000E+00 -0.14782397924E+03  0.14782397924E+03  0.00000000000E+00 0.  1.
         36    2    1    2    0    0  0.00000000000E+00  0.00000000000E+00  0.15412094122E+04  0.18368573707E+04  0.99935906860E+03 0.  0.
         25    2    3    3    0    0 -0.58127369628E+02 -0.12359615539E+03  0.37058815163E+03  0.41349133018E+03  0.12241201443E+03 0.  0.
         35    2    3    3    0    0  0.58127369628E+02  0.12359615539E+03  0.11706212606E+04  0.14233660405E+04  0.79809895931E+03 0.  0.
         22    1    5    5    0    0 -0.30224170949E+03  0.25644140774E+03  0.78342506783E+03  0.87799036639E+03  0.00000000000E+00 0. -1.
         22    1    5    5    0    0  0.36036907912E+03 -0.13284525235E+03  0.38719619278E+03  0.54537567415E+03  0.00000000000E+00 0. -1.
          5    1    4    4  502    0 -0.25941197932E+02  0.37602499888E+01  0.18007227870E+03  0.18203076879E+03  0.47000000000E+01 0. -1.
         -5    1    4    4    0  502 -0.32186171696E+02 -0.12735640538E+03  0.19051587293E+03  0.23146056139E+03  0.47000000000E+01 0. -1.
<mgrwt>
<rscale>  0 0.99935907E+03</rscale>
<asrwt>0</asrwt>
<pdfrwt beam="1">  1        1 0.25985128E+00 0.99935907E+03</pdfrwt>
<pdfrwt beam="2">  1       -1 0.22742152E-01 0.99935907E+03</pdfrwt>
<totfact> 0.85076724E+01</totfact>
</mgrwt>
</event>
<event>
 9    1  0.4369420E-036  0.1000874E+04  0.7818608E-02  0.8680206E-01
          2   -1    0    0  501    0  0.00000000000E+00  0.00000000000E+00  0.14629388682E+04  0.14629388682E+04  0.00000000000E+00 0.  1.
         -2   -1    0    0    0  501 -0.00000000000E+00 -0.00000000000E+00 -0.17118777002E+03  0.17118777002E+03  0.00000000000E+00 0.  1.
         36    2    1    2    0    0  0.14210854715E-13  0.00000000000E+00  0.12917510982E+04  0.16341266382E+04  0.10008741030E+04 0.  0.
         25    2    3    3    0    0  0.76343877802E+01  0.31243838876E+01  0.18950871241E+02  0.12994312680E+03  0.12828887337E+03 0.  0.
         35    2    3    3    0    0 -0.76343877802E+01 -0.31243838876E+01  0.12728002269E+04  0.15041835114E+04  0.80154823478E+03 0.  0.
         22    1    5    5    0    0  0.19510397435E+03  0.94087764721E+02  0.12605341263E+04  0.12790091289E+04  0.00000000000E+00 0.  1.
         22    1    5    5    0    0 -0.20273836213E+03 -0.97212148609E+02  0.12266100642E+02  0.22517438251E+03  0.00000000000E+00 0.  1.
          5    1    4    4  502    0  0.42359944774E+02  0.38637650731E+02  0.45575206177E+02  0.73392250227E+02  0.47000000000E+01 0.  1.
         -5    1    4    4    0  502 -0.34725556994E+02 -0.35513266844E+02 -0.26624334936E+02  0.56550876574E+02  0.47000000000E+01 0.  1.
<mgrwt>
<rscale>  0 0.10008741E+04</rscale>
<asrwt>0</asrwt>
<pdfrwt beam="1">  1        2 0.22506751E+00 0.10008741E+04</pdfrwt>
<pdfrwt beam="2">  1       -2 0.26336581E-01 0.10008741E+04</pdfrwt>
<totfact> 0.20790767E+02</totfact>
</mgrwt>
</event>
<event>
 9    1  0.4369420E-036  0.9969300E+03  0.7818608E-02  0.8683967E-01
         -2   -1    0    0    0  501 -0.00000000000E+00  0.00000000000E+00  0.10728467674E+03  0.10728467674E+03  0.00000000000E+00 0.  1.
          2   -1    0    0  501    0  0.00000000000E+00 -0.00000000000E+00 -0.23159632074E+04  0.23159632074E+04  0.00000000000E+00 0.  1.
         36    2    1    2    0    0  0.00000000000E+00 -0.28421709430E-13 -0.22086785306E+04  0.24232478841E+04  0.99693001571E+03 0.  0.
         25    2    3    3    0    0 -0.19389369635E+00 -0.10105835600E+03 -0.63049741644E+03  0.65064275153E+03  0.12488462302E+03 0.  0.
         35    2    3    3    0    0  0.19389369635E+00  0.10105835600E+03 -0.15781811142E+04  0.17726051326E+04  0.80078742372E+03 0.  0.
         22    1    5    5    0    0  0.13877369631E+03 -0.16384896120E+03 -0.56769637829E+02  0.22209775473E+03  0.00000000000E+00 0.  1.
         22    1    5    5    0    0 -0.13857980262E+03  0.26490731721E+03 -0.15214114763E+04  0.15505073778E+04  0.00000000000E+00 0.  1.
          5    1    4    4  502    0  0.32588533924E+02 -0.43272345169E+01 -0.43081770759E+02  0.54395463723E+02  0.47000000000E+01 0.  1.
         -5    1    4    4    0  502 -0.32782427621E+02 -0.96731121486E+02 -0.58741564568E+03  0.59624728781E+03  0.47000000000E+01 0.  1.
<mgrwt>
<rscale>  0 0.99693002E+03</rscale>
<asrwt>0</asrwt>
<pdfrwt beam="1">  1        2 0.35630200E+00 0.99693002E+03</pdfrwt>
<pdfrwt beam="2">  1       -2 0.16505336E-01 0.99693002E+03</pdfrwt>
<totfact> 0.15281062E+02</totfact>
</mgrwt>
</event>
<event>
 9    1  0.4369420E-036  0.9993758E+03  0.7818608E-02  0.8681633E-01
         -4   -1    0    0    0  501 -0.00000000000E+00  0.00000000000E+00  0.65977679012E+03  0.65977679012E+03  0.00000000000E+00 0.  1.
          4   -1    0    0  501    0  0.00000000000E+00 -0.00000000000E+00 -0.37844314417E+03  0.37844314417E+03  0.00000000000E+00 0.  1.
         36    2    1    2    0    0  0.00000000000E+00 -0.14210854715E-13  0.28133364594E+03  0.10382199343E+04  0.99937581100E+03 0.  0.
         25    2    3    3    0    0 -0.65835148116E+02 -0.96872809842E+02 -0.26583156788E+02  0.17313960685E+03  0.12470786351E+03 0.  0.
         35    2    3    3    0    0  0.65835148116E+02  0.96872809842E+02  0.30791680273E+03  0.86508032744E+03  0.79989537285E+03 0.  0.
         22    1    5    5    0    0 -0.21561883309E+03  0.33872543041E+03  0.32290835759E+02  0.40282638502E+03  0.00000000000E+00 0. -1.
         22    1    5    5    0    0  0.28145398121E+03 -0.24185262057E+03  0.27562596697E+03  0.46225394242E+03  0.00000000000E+00 0. -1.
          5    1    4    4  502    0  0.52783537348E+01  0.26995569284E+02 -0.79951258328E+01  0.29028155577E+02  0.47000000000E+01 0.  1.
         -5    1    4    4    0  502 -0.71113501851E+02 -0.12386837913E+03 -0.18588030955E+02  0.14411145127E+03  0.47000000000E+01 0.  1.
<mgrwt>
<rscale>  0 0.99937581E+03</rscale>
<asrwt>0</asrwt>
<pdfrwt beam="1">  1        4 0.58222022E-01 0.99937581E+03</pdfrwt>
<pdfrwt beam="2">  1       -4 0.10150412E+00 0.99937581E+03</pdfrwt>
<totfact> 0.49901699E+00</totfact>
</mgrwt>
</event>
<event>
 9    1  0.4369420E-036  0.1002297E+04  0.7818608E-02  0.8678854E-01
         -2   -1    0    0    0  501 -0.00000000000E+00  0.00000000000E+00  0.33633602462E+03  0.33633602462E+03  0.00000000000E+00 0.  1.
          2   -1    0    0  501    0  0.00000000000E+00 -0.00000000000E+00 -0.74672235461E+03  0.74672235461E+03  0.00000000000E+00 0.  1.
         36    2    1    2    0    0 -0.14210854715E-13  0.00000000000E+00 -0.41038632999E+03  0.10830583792E+04  0.10022966193E+04 0.  0.
         25    2    3    3    0    0 -0.83789850072E+02  0.15999034494E+02 -0.20374647967E+03  0.25322152402E+03  0.12382166277E+03 0.  0.
         35    2    3    3    0    0  0.83789850072E+02 -0.15999034494E+02 -0.20663985032E+03  0.82983685521E+03  0.79915735024E+03 0.  0.
         22    1    5    5    0    0  0.28100366414E+03  0.12352559292E+03 -0.41130371554E+03  0.51321767096E+03  0.00000000000E+00 0.  1.
         22    1    5    5    0    0 -0.19721381407E+03 -0.13952462741E+03  0.20466386522E+03  0.31661918426E+03  0.00000000000E+00 0.  1.
          5    1    4    4  502    0  0.13585197722E+02  0.39307583212E+02 -0.10265889358E+03  0.11086289788E+03  0.47000000000E+01 0. -1.
         -5    1    4    4    0  502 -0.97375047794E+02 -0.23308548718E+02 -0.10108758609E+03  0.14235862614E+03  0.47000000000E+01 0. -1.
<mgrwt>
<rscale>  0 0.10022966E+04</rscale>
<asrwt>0</asrwt>
<pdfrwt beam="1">  1        2 0.11488036E+00 0.10022966E+04</pdfrwt>
<pdfrwt beam="2">  1       -2 0.51744004E-01 0.10022966E+04</pdfrwt>
<totfact> 0.16104346E+02</totfact>
</mgrwt>
</event>
<event>
 9    1  0.4369420E-036  0.1003714E+04  0.7818608E-02  0.8677509E-01
          2   -1    0    0  501    0  0.00000000000E+00  0.00000000000E+00  0.91095982823E+03  0.91095982823E+03  0.00000000000E+00 0.  1.
         -2   -1    0    0    0  501 -0.00000000000E+00 -0.00000000000E+00 -0.27647825920E+03  0.27647825920E+03  0.00000000000E+00 0.  1.
         36    2    1    2    0    0  0.71054273576E-14  0.00000000000E+00  0.63448156903E+03  0.11874380874E+04  0.10037142771E+04 0.  0.
         25    2    3    3    0    0 -0.42955210276E+02 -0.13114693841E+03  0.16018812289E+03  0.24579062238E+03  0.12533206211E+03 0.  0.
         35    2    3    3    0    0  0.42955210276E+02  0.13114693841E+03  0.47429344615E+03  0.94164746505E+03  0.80168635128E+03 0.  0.
         22    1    5    5    0    0  0.38755305375E+03  0.13666359761E+03  0.81240870363E+02  0.41889663092E+03  0.00000000000E+00 0. -1.
         22    1    5    5    0    0 -0.34459784347E+03 -0.55166591973E+01  0.39305257578E+03  0.52275083413E+03  0.00000000000E+00 0. -1.
          5    1    4    4  502    0 -0.61902270664E+02 -0.94711937948E+01  0.61704858596E+02  0.88040753061E+02  0.47000000000E+01 0. -1.
         -5    1    4    4    0  502  0.18947060387E+02 -0.12167574462E+03  0.98483264291E+02  0.15774986932E+03  0.47000000000E+01 0. -1.
<mgrwt>
<rscale>  0 0.10037143E+04</rscale>
<asrwt>0</asrwt>
<pdfrwt beam="1">  1        2 0.14014766E+00 0.10037143E+04</pdfrwt>
<pdfrwt beam="2">  1       -2 0.42535117E-01 0.10037143E+04</pdfrwt>
<totfact> 0.18275324E+02</totfact>
</mgrwt>
</event>
<event>
 9    1  0.4369420E-036  0.9991550E+03  0.7818608E-02  0.8681843E-01
          1   -1    0    0  501    0  0.00000000000E+00  0.00000000000E+00  0.56141383193E+03  0.56141383193E+03  0.00000000000E+00 0. -1.
         -1   -1    0    0    0  501 -0.00000000000E+00 -0.00000000000E+00 -0.44455203991E+03  0.44455203991E+03  0.00000000000E+00 0. -1.
         36    2    1    2    0    0  0.00000000000E+00 -0.14210854715E-13  0.11686179202E+03  0.10059658718E+04  0.99915497140E+03 0.  0.
         25    2    3    3    0    0 -0.68346632015E+02  0.10552349110E+03 -0.26621640443E+02  0.17988730917E+03  0.12587399643E+03 0.  0.
         35    2    3    3    0    0  0.68346632015E+02 -0.10552349110E+03  0.14348343246E+03  0.82607856267E+03  0.80374860935E+03 0.  0.
         22    1    5    5    0    0  0.19233342623E+02 -0.38813733081E+03  0.30758175345E+03  0.49560775225E+03  0.00000000000E+00 0.  1.
         22    1    5    5    0    0  0.49113289392E+02  0.28261383970E+03 -0.16409832099E+03  0.33047081042E+03  0.00000000000E+00 0.  1.
          5    1    4    4  502    0  0.67128229223E+01  0.78406277702E+02  0.27333811213E+02  0.83437603094E+02  0.47000000000E+01 0. -1.
         -5    1    4    4    0  502 -0.75059454937E+02  0.27117213401E+02 -0.53955451656E+02  0.96449706073E+02  0.47000000000E+01 0. -1.
<mgrwt>
<rscale>  0 0.99915497E+03</rscale>
<asrwt>0</asrwt>
<pdfrwt beam="1">  1        1 0.86371359E-01 0.99915497E+03</pdfrwt>
<pdfrwt beam="2">  1       -1 0.68392622E-01 0.99915497E+03</pdfrwt>
<totfact> 0.95400006E+01</totfact>
</mgrwt>
</event>
<event>
 9    1  0.4369420E-036  0.1002903E+04  0.7818608E-02  0.8678278E-01
         -2   -1    0    0    0  501 -0.00000000000E+00  0.00000000000E+00  0.43950479349E+03  0.43950479349E+03  0.00000000000E+00 0. -1.
          2   -1    0    0  501    0  0.00000000000E+00 -0.00000000000E+00 -0.57212982035E+03  0.57212982035E+03  0.00000000000E+00 0. -1.
         36    2    1    2    0    0  0.35527136788E-14  0.00000000000E+00 -0.13262502686E+03  0.10116346138E+04  0.10029033823E+04 0.  0.
         25    2    3    3    0    0 -0.28626804775E+02  0.10727492483E+03  0.66758850664E+02  0.17970259310E+03  0.12453463123E+03 0.  0.
         35    2    3    3    0    0  0.28626804775E+02 -0.10727492483E+03 -0.19938387752E+03  0.83193202073E+03  0.80001847045E+03 0.  0.
         22    1    5    5    0    0 -0.28132761691E+02  0.21265631184E+03 -0.39727403137E+03  0.45148733675E+03  0.00000000000E+00 0.  1.
         22    1    5    5    0    0  0.56759566466E+02 -0.31993123667E+03  0.19789015385E+03  0.38044468398E+03  0.00000000000E+00 0.  1.
          5    1    4    4  502    0  0.66759179586E+00 -0.21970231514E+02  0.37788488436E+02  0.43968131753E+02  0.47000000000E+01 0. -1.
         -5    1    4    4    0  502 -0.29294396570E+02  0.12924515635E+03  0.28970362228E+02  0.13573446135E+03  0.47000000000E+01 0. -1.
<mgrwt>
<rscale>  0 0.10029034E+04</rscale>
<asrwt>0</asrwt>
<pdfrwt beam="1">  1        2 0.88019973E-01 0.10029034E+04</pdfrwt>
<pdfrwt beam="2">  1       -2 0.67616122E-01 0.10029034E+04</pdfrwt>
<totfact> 0.12738351E+02</totfact>
</mgrwt>
</event>
<event>
 9    1  0.4369420E-036  0.1000275E+04  0.7818608E-02  0.8680776E-01
         -1   -1    0    0    0  501 -0.00000000000E+00  0.00000000000E+00  0.21773801476E+03  0.21773801476E+03  0.00000000000E+00 0.  1.
          1   -1    0    0  501    0  0.00000000000E+00 -0.00000000000E+00 -0.11487998533E+04  0.11487998533E+04  0.00000000000E+00 0.  1.
         36    2    1    2    0    0  0.00000000000E+00  0.49737991503E-13 -0.93106183853E+03  0.13665378680E+04  0.10002747611E+04 0.  0.
         25    2    3    3    0    0  0.96627683533E+02 -0.42212606368E+02 -0.44939276867E+02  0.16950355791E+03  0.12487235153E+03 0.  0.
         35    2    3    3    0    0 -0.96627683533E+02  0.42212606368E+02 -0.88612256166E+03  0.11970343101E+04  0.79784655918E+03 0.  0.
         22    1    5    5    0    0 -0.25650616855E+03  0.36328165114E+03 -0.45527342718E+03  0.63642978093E+03  0.00000000000E+00 0. -1.
         22    1    5    5    0    0  0.15987848502E+03 -0.32106904477E+03 -0.43084913448E+03  0.56060452920E+03  0.00000000000E+00 0. -1.
          5    1    4    4  502    0  0.40933518618E+02  0.26426680286E+02 -0.62372090718E+02  0.79286127904E+02  0.47000000000E+01 0.  1.
         -5    1    4    4    0  502  0.55694164914E+02 -0.68639286654E+02  0.17432813851E+02  0.90217430005E+02  0.47000000000E+01 0.  1.
<mgrwt>
<rscale>  0 0.10002748E+04</rscale>
<asrwt>0</asrwt>
<pdfrwt beam="1">  1        1 0.17673844E+00 0.10002748E+04</pdfrwt>
<pdfrwt beam="2">  1       -1 0.33498156E-01 0.10002748E+04</pdfrwt>
<totfact> 0.10826887E+02</totfact>
</mgrwt>
</event>
<event>
 9    1  0.4369420E-036  0.9995175E+03  0.7818608E-02  0.8681498E-01
          2   -1    0    0  501    0  0.00000000000E+00  0.00000000000E+00  0.43131782716E+03  0.43131782716E+03  0.00000000000E+00 0.  1.
         -2   -1    0    0    0  501 -0.00000000000E+00 -0.00000000000E+00 -0.57905980504E+03  0.57905980504E+03  0.00000000000E+00 0.  1.
         36    2    1    2    0    0 -0.71054273576E-14  0.00000000000E+00 -0.14774197788E+03  0.10103776322E+04  0.99951751742E+03 0.  0.
         25    2    3    3    0    0  0.18074618792E+02  0.11641043499E+03 -0.10202251093E+03  0.19997440824E+03  0.12531197067E+03 0.  0.
         35    2    3    3    0    0 -0.18074618792E+02 -0.11641043499E+03 -0.45719466958E+02  0.81040322397E+03  0.80049049622E+03 0.  0.
         22    1    5    5    0    0  0.14764571164E+03  0.19711091857E+03  0.24831745962E+03  0.34973351446E+03  0.00000000000E+00 0.  1.
         22    1    5    5    0    0 -0.16572033043E+03 -0.31352135357E+03 -0.29403692658E+03  0.46066970950E+03  0.00000000000E+00 0.  1.
          5    1    4    4  502    0  0.56654902752E+02  0.11752834436E+03 -0.92323853764E+02  0.15990144999E+03  0.47000000000E+01 0. -1.
         -5    1    4    4    0  502 -0.38580283960E+02 -0.11179093706E+01 -0.96986571618E+01  0.40072958245E+02  0.47000000000E+01 0. -1.
<mgrwt>
<rscale>  0 0.99951752E+03</rscale>
<asrwt>0</asrwt>
<pdfrwt beam="1">  1        2 0.66356589E-01 0.99951752E+03</pdfrwt>
<pdfrwt beam="2">  1       -2 0.89086124E-01 0.99951752E+03</pdfrwt>
<totfact> 0.94454496E+01</totfact>
</mgrwt>
</event>
<event>
 9    1  0.4369420E-036  0.9999564E+03  0.7818608E-02  0.8681079E-01
          2   -1    0    0  501    0  0.00000000000E+00  0.00000000000E+00  0.55514176157E+03  0.55514176157E+03  0.00000000000E+00 0. -1.
         -2   -1    0    0    0  501 -0.00000000000E+00 -0.00000000000E+00 -0.45029614752E+03  0.45029614752E+03  0.00000000000E+00 0. -1.
         36    2    1    2    0    0  0.28421709430E-13  0.28421709430E-13  0.10484561405E+03  0.10054379091E+04  0.99995639217E+03 0.  0.
         25    2    3    3    0    0 -0.73947219601E+02 -0.70846911828E+02  0.11600537606E+03  0.19925121029E+03  0.12552418620E+03 0.  0.
         35    2    3    3    0    0  0.73947219601E+02  0.70846911828E+02 -0.11159762014E+02  0.80618669880E+03  0.79957799922E+03 0.  0.
         22    1    5    5    0    0  0.36190180628E+03  0.15540999383E+03 -0.20983531156E+03  0.44626902374E+03  0.00000000000E+00 0.  1.
         22    1    5    5    0    0 -0.28795458668E+03 -0.84563082000E+02  0.19867554955E+03  0.35991767506E+03  0.00000000000E+00 0.  1.
          5    1    4    4  502    0 -0.24697943767E+02 -0.93157677459E+02  0.36871538479E+02  0.10329540961E+03  0.47000000000E+01 0. -1.
         -5    1    4    4    0  502 -0.49249275834E+02  0.22310765631E+02  0.79133837585E+02  0.95955800679E+02  0.47000000000E+01 0. -1.
<mgrwt>
<rscale>  0 0.99995639E+03</rscale>
<asrwt>0</asrwt>
<pdfrwt beam="1">  1        2 0.85406425E-01 0.99995639E+03</pdfrwt>
<pdfrwt beam="2">  1       -2 0.69276330E-01 0.99995639E+03</pdfrwt>
<totfact> 0.12523576E+02</totfact>
</mgrwt>
</event>
<event>
 9    1  0.4369420E-036  0.9980072E+03  0.7818608E-02  0.8682938E-01
          1   -1    0    0  501    0  0.00000000000E+00  0.00000000000E+00  0.18333925101E+04  0.18333925101E+04  0.00000000000E+00 0. -1.
         -1   -1    0    0    0  501 -0.00000000000E+00 -0.00000000000E+00 -0.13581630526E+03  0.13581630526E+03  0.00000000000E+00 0. -1.
         36    2    1    2    0    0  0.00000000000E+00 -0.14210854715E-13  0.16975762049E+04  0.19692088154E+04  0.99800720805E+03 0.  0.
         25    2    3    3    0    0  0.52167651114E+02 -0.98647495908E+02  0.16233678747E+03  0.23327082984E+03  0.12493700500E+03 0.  0.
         35    2    3    3    0    0 -0.52167651114E+02  0.98647495908E+02  0.15352394174E+04  0.17359379856E+04  0.80253836586E+03 0.  0.
         22    1    5    5    0    0  0.16828890740E+03 -0.14416058345E+03  0.66976456316E+02  0.23149357632E+03  0.00000000000E+00 0.  1.
         22    1    5    5    0    0 -0.22045655852E+03  0.24280807936E+03  0.14682629611E+04  0.15044444093E+04  0.00000000000E+00 0.  1.
          5    1    4    4  502    0 -0.36902340278E+02 -0.87616991965E+01  0.21396744466E+02  0.43800237038E+02  0.47000000000E+01 0. -1.
         -5    1    4    4    0  502  0.89069991392E+02 -0.89885796712E+02  0.14094004300E+03  0.18947059281E+03  0.47000000000E+01 0. -1.
<mgrwt>
<rscale>  0 0.99800721E+03</rscale>
<asrwt>0</asrwt>
<pdfrwt beam="1">  1        1 0.28206037E+00 0.99800721E+03</pdfrwt>
<pdfrwt beam="2">  1       -1 0.20894818E-01 0.99800721E+03</pdfrwt>
<totfact> 0.77537593E+01</totfact>
</mgrwt>
</event>
<event>
 9    1  0.4369420E-036  0.9993194E+03  0.7818608E-02  0.8681686E-01
         -1   -1    0    0    0  501 -0.00000000000E+00  0.00000000000E+00  0.20765670668E+03  0.20765670668E+03  0.00000000000E+00 0.  1.
          1   -1    0    0  501    0  0.00000000000E+00 -0.00000000000E+00 -0.12022719022E+04  0.12022719022E+04  0.00000000000E+00 0.  1.
         36    2    1    2    0    0 -0.71054273576E-14  0.00000000000E+00 -0.99461519556E+03  0.14099286089E+04  0.99931941590E+03 0.  0.
         25    2    3    3    0    0 -0.27929755810E+02 -0.47699848164E+02 -0.36566807164E+03  0.39056080895E+03  0.12557571459E+03 0.  0.
         35    2    3    3    0    0  0.27929755810E+02  0.47699848164E+02 -0.62894712392E+03  0.10193678000E+04  0.80030049365E+03 0.  0.
         22    1    5    5    0    0 -0.27373092527E+03  0.39562057345E+01 -0.65848453268E+03  0.71312421835E+03  0.00000000000E+00 0. -1.
         22    1    5    5    0    0  0.30166068108E+03  0.43743642430E+02  0.29537408764E+02  0.30624358161E+03  0.00000000000E+00 0. -1.
          5    1    4    4  502    0 -0.16631360771E+02 -0.70457751139E+02 -0.99487377334E+02  0.12312889631E+03  0.47000000000E+01 0. -1.
         -5    1    4    4    0  502 -0.11298395039E+02  0.22757902974E+02 -0.26618069431E+03  0.26743191264E+03  0.47000000000E+01 0. -1.
<mgrwt>
<rscale>  0 0.99931942E+03</rscale>
<asrwt>0</asrwt>
<pdfrwt beam="1">  1        1 0.18496491E+00 0.99931942E+03</pdfrwt>
<pdfrwt beam="2">  1       -1 0.31947186E-01 0.99931942E+03</pdfrwt>
<totfact> 0.10713817E+02</totfact>
</mgrwt>
</event>
<event>
 9    1  0.4369420E-036  0.1000434E+04  0.7818608E-02  0.8680624E-01
         -1   -1    0    0    0  501 -0.00000000000E+00  0.00000000000E+00  0.97512567830E+03  0.97512567830E+03  0.00000000000E+00 0. -1.
          1   -1    0    0  501    0  0.00000000000E+00 -0.00000000000E+00 -0.25659996419E+03  0.25659996419E+03  0.00000000000E+00 0. -1.
         36    2    1    2    0    0  0.00000000000E+00  0.28421709430E-13  0.71852571411E+03  0.12317256425E+04  0.10004343340E+04 0.  0.
         25    2    3    3    0    0  0.13408586452E+02 -0.11055611693E+03  0.32293525522E+02  0.17048577664E+03  0.12498033070E+03 0.  0.
         35    2    3    3    0    0 -0.13408586452E+02  0.11055611693E+03  0.68623218859E+03  0.10612398659E+04  0.80181855245E+03 0.  0.
         22    1    5    5    0    0  0.12105658685E+03 -0.16650293626E+03 -0.91106936056E+02  0.22511863273E+03  0.00000000000E+00 0. -1.
         22    1    5    5    0    0 -0.13446517330E+03  0.27705905320E+03  0.77733912464E+03  0.83612123313E+03  0.00000000000E+00 0. -1.
          5    1    4    4  502    0 -0.12981278880E+02  0.22193757293E+02  0.22867904661E+02  0.34729058837E+02  0.47000000000E+01 0. -1.
         -5    1    4    4    0  502  0.26389865332E+02 -0.13274987423E+03  0.94256208607E+01  0.13575671780E+03  0.47000000000E+01 0. -1.
<mgrwt>
<rscale>  0 0.10004343E+04</rscale>
<asrwt>0</asrwt>
<pdfrwt beam="1">  1        1 0.39476918E-01 0.10004343E+04</pdfrwt>
<pdfrwt beam="2">  1       -1 0.15001933E+00 0.10004343E+04</pdfrwt>
<totfact> 0.44038352E+01</totfact>
</mgrwt>
</event>
<event>
 9    1  0.4369420E-036  0.9999269E+03  0.7818608E-02  0.8681108E-01
          2   -1    0    0  501    0  0.00000000000E+00  0.00000000000E+00  0.16505494322E+04  0.16505494322E+04  0.00000000000E+00 0.  1.
         -2   -1    0    0    0  501 -0.00000000000E+00 -0.00000000000E+00 -0.15144257176E+03  0.15144257176E+03  0.00000000000E+00 0.  1.
         36    2    1    2    0    0 -0.28421709430E-13  0.00000000000E+00  0.14991068604E+04  0.18019920040E+04  0.99992689900E+03 0.  0.
         25    2    3    3    0    0  0.60093373130E+02 -0.12604453361E+03  0.22975436353E+03  0.29630442774E+03  0.12454239595E+03 0.  0.
         35    2    3    3    0    0 -0.60093373130E+02  0.12604453361E+03  0.12693524969E+04  0.15056875762E+04  0.79770977044E+03 0.  0.
         22    1    5    5    0    0 -0.19986456831E+03  0.36535699559E+03  0.11110239646E+04  0.11865099366E+04  0.00000000000E+00 0.  1.
         22    1    5    5    0    0  0.13977119518E+03 -0.23931246199E+03  0.15832853235E+03  0.31917763960E+03  0.00000000000E+00 0.  1.
          5    1    4    4  502    0  0.87923991109E+02 -0.76994382085E+02  0.20165441168E+03  0.23312090176E+03  0.47000000000E+01 0. -1.
         -5    1    4    4    0  502 -0.27830617980E+02 -0.49050151522E+02  0.28099951848E+02  0.63183525980E+02  0.47000000000E+01 0. -1.
<mgrwt>
<rscale>  0 0.99992690E+03</rscale>
<asrwt>0</asrwt>
<pdfrwt beam="1">  1        2 0.25393067E+00 0.99992690E+03</pdfrwt>
<pdfrwt beam="2">  1       -2 0.23298858E-01 0.99992690E+03</pdfrwt>
<totfact> 0.20240638E+02</totfact>
</mgrwt>
</event>
<event>
 9    1  0.4369420E-036  0.9994372E+03  0.7818608E-02  0.8681574E-01
          2   -1    0    0  501    0  0.00000000000E+00  0.00000000000E+00  0.85489389874E+03  0.85489389874E+03  0.00000000000E+00 0.  1.
         -2   -1    0    0    0  501 -0.00000000000E+00 -0.00000000000E+00 -0.29210486290E+03  0.29210486290E+03  0.00000000000E+00 0.  1.
         36    2    1    2    0    0 -0.28421709430E-13  0.14210854715E-13  0.56278903584E+03  0.11469987616E+04  0.99943717178E+03 0.  0.
         25    2    3    3    0    0  0.11906411849E+03 -0.72758699167E+02  0.84188716800E+02  0.20387234541E+03  0.12249939008E+03 0.  0.
         35    2    3    3    0    0 -0.11906411849E+03  0.72758699167E+02  0.47860031904E+03  0.94312641623E+03  0.80059919997E+03 0.  0.
         22    1    5    5    0    0  0.21298467153E+03 -0.17630567010E+03 -0.39461641978E+02  0.27929085342E+03  0.00000000000E+00 0. -1.
         22    1    5    5    0    0 -0.33204879003E+03  0.24906436927E+03  0.51806196101E+03  0.66383556281E+03  0.00000000000E+00 0. -1.
          5    1    4    4  502    0  0.13562041883E+03 -0.46364395909E+02  0.93285883608E+02  0.17107571801E+03  0.47000000000E+01 0. -1.
         -5    1    4    4    0  502 -0.16556300334E+02 -0.26394303258E+02 -0.90971668087E+01  0.32796627405E+02  0.47000000000E+01 0. -1.
<mgrwt>
<rscale>  0 0.99943717E+03</rscale>
<asrwt>0</asrwt>
<pdfrwt beam="1">  1        2 0.13152214E+00 0.99943717E+03</pdfrwt>
<pdfrwt beam="2">  1       -2 0.44939210E-01 0.99943717E+03</pdfrwt>
<totfact> 0.17893228E+02</totfact>
</mgrwt>
</event>
<event>
 9    1  0.4369420E-036  0.9999997E+03  0.7818608E-02  0.8681038E-01
         -2   -1    0    0    0  501 -0.00000000000E+00  0.00000000000E+00  0.83458214536E+02  0.83458214536E+02  0.00000000000E+00 0.  1.
          2   -1    0    0  501    0  0.00000000000E+00 -0.00000000000E+00 -0.29955094450E+04  0.29955094450E+04  0.00000000000E+00 0.  1.
         36    2    1    2    0    0  0.14210854715E-13  0.71054273576E-14 -0.29120512305E+04  0.30789676596E+04  0.99999973981E+03 0.  0.
         25    2    3    3    0    0  0.96240989277E+02 -0.57979899161E+02 -0.28796580022E+03  0.33356291866E+03  0.12536315999E+03 0.  0.
         35    2    3    3    0    0 -0.96240989277E+02  0.57979899161E+02 -0.26240854303E+04  0.27454047409E+04  0.79924892825E+03 0.  0.
         22    1    5    5    0    0 -0.86961504712E+02 -0.11303353131E+03 -0.25577796707E+04  0.25617524717E+04  0.00000000000E+00 0.  1.
         22    1    5    5    0    0 -0.92794845652E+01  0.17101343047E+03 -0.66305759609E+02  0.18365226923E+03  0.00000000000E+00 0.  1.
          5    1    4    4  502    0 -0.36581668644E+01  0.26175215686E+02 -0.14602813660E+02  0.30559061959E+02  0.47000000000E+01 0. -1.
         -5    1    4    4    0  502  0.99899156141E+02 -0.84155114847E+02 -0.27336298656E+03  0.30300385670E+03  0.47000000000E+01 0. -1.
<mgrwt>
<rscale>  0 0.99999974E+03</rscale>
<asrwt>0</asrwt>
<pdfrwt beam="1">  1        2 0.46084767E+00 0.99999974E+03</pdfrwt>
<pdfrwt beam="2">  1       -2 0.12839723E-01 0.99999974E+03</pdfrwt>
<totfact> 0.87300328E+01</totfact>
</mgrwt>
</event>
<event>
 9    1  0.4369420E-036  0.9998625E+03  0.7818608E-02  0.8681169E-01
          3   -1    0    0  501    0  0.00000000000E+00  0.00000000000E+00  0.79519948758E+03  0.79519948758E+03  0.00000000000E+00 0. -1.
         -3   -1    0    0    0  501 -0.00000000000E+00 -0.00000000000E+00 -0.31430005667E+03  0.31430005667E+03  0.00000000000E+00 0. -1.
         36    2    1    2    0    0  0.00000000000E+00 -0.35527136788E-14  0.48089943091E+03  0.11094995443E+04  0.99986247857E+03 0.  0.
         25    2    3    3    0    0  0.81116809442E+02 -0.28743046908E+02 -0.40728828902E+02  0.15680601129E+03  0.12459208704E+03 0.  0.
         35    2    3    3    0    0 -0.81116809442E+02  0.28743046908E+02  0.52162825981E+03  0.95269353296E+03  0.79254200317E+03 0.  0.
         22    1    5    5    0    0 -0.30462701303E+03 -0.19579794051E+03  0.24191717891E+02  0.36293207324E+03  0.00000000000E+00 0.  1.
         22    1    5    5    0    0  0.22351020359E+03  0.22454098742E+03  0.49743654192E+03  0.58976145972E+03  0.00000000000E+00 0.  1.
          5    1    4    4  502    0  0.69616132880E+02 -0.46256588421E+02  0.25234745672E+02  0.87435463736E+02  0.47000000000E+01 0. -1.
         -5    1    4    4    0  502  0.11500676562E+02  0.17513541513E+02 -0.65963574575E+02  0.69370547557E+02  0.47000000000E+01 0. -1.
<mgrwt>
<rscale>  0 0.99986248E+03</rscale>
<asrwt>0</asrwt>
<pdfrwt beam="1">  1        3 0.12233838E+00 0.99986248E+03</pdfrwt>
<pdfrwt beam="2">  1       -3 0.48353855E-01 0.99986248E+03</pdfrwt>
<totfact> 0.96208121E+00</totfact>
</mgrwt>
</event>
<event>
 9    1  0.4369420E-036  0.9990621E+03  0.7818608E-02  0.8681932E-01
         -1   -1    0    0    0  501 -0.00000000000E+00  0.00000000000E+00  0.11540206379E+04  0.11540206379E+04  0.00000000000E+00 0.  1.
          1   -1    0    0  501    0  0.00000000000E+00 -0.00000000000E+00 -0.21622775322E+03  0.21622775322E+03  0.00000000000E+00 0.  1.
         36    2    1    2    0    0  0.00000000000E+00 -0.28421709430E-13  0.93779288471E+03  0.13702483911E+04  0.99906213961E+03 0.  0.
         25    2    3    3    0    0  0.65130583882E+02  0.10336407149E+03  0.26206219947E+03  0.31500404109E+03  0.12499930111E+03 0.  0.
         35    2    3    3    0    0 -0.65130583882E+02 -0.10336407149E+03  0.67573068524E+03  0.10552443500E+04  0.80125061941E+03 0.  0.
         22    1    5    5    0    0 -0.10073133495E+03  0.53805957587E+02  0.82662443919E+03  0.83447579137E+03  0.00000000000E+00 0.  1.
         22    1    5    5    0    0  0.35600751071E+02 -0.15717002908E+03 -0.15089375396E+03  0.22076855868E+03  0.00000000000E+00 0.  1.
          5    1    4    4  502    0  0.24076232033E+02 -0.27297661735E+02  0.70360388997E+02  0.79356799488E+02  0.47000000000E+01 0. -1.
         -5    1    4    4    0  502  0.41054351849E+02  0.13066173323E+03  0.19170181047E+03  0.23564724160E+03  0.47000000000E+01 0. -1.
<mgrwt>
<rscale>  0 0.99906214E+03</rscale>
<asrwt>0</asrwt>
<pdfrwt beam="1">  1        1 0.33265809E-01 0.99906214E+03</pdfrwt>
<pdfrwt beam="2">  1       -1 0.17754163E+00 0.99906214E+03</pdfrwt>
<totfact> 0.32369332E+01</totfact>
</mgrwt>
</event>
<event>
 9    1  0.4369420E-036  0.1000334E+04  0.7818608E-02  0.8680720E-01
          1   -1    0    0  501    0  0.00000000000E+00  0.00000000000E+00  0.14206516651E+04  0.14206516651E+04  0.00000000000E+00 0.  1.
         -1   -1    0    0    0  501 -0.00000000000E+00 -0.00000000000E+00 -0.17609312616E+03  0.17609312616E+03  0.00000000000E+00 0.  1.
         36    2    1    2    0    0  0.14210854715E-13  0.14210854715E-13  0.12445585389E+04  0.15967447912E+04  0.10003339300E+04 0.  0.
         25    2    3    3    0    0  0.11634625179E+03  0.42428833314E+02  0.33512402516E+03  0.37856476637E+03  0.12516594543E+03 0.  0.
         35    2    3    3    0    0 -0.11634625179E+03 -0.42428833314E+02  0.90943451374E+03  0.12181800249E+04  0.80097114928E+03 0.  0.
         22    1    5    5    0    0 -0.42728095677E+03 -0.40694571279E+02  0.76084333324E+03  0.87356032527E+03  0.00000000000E+00 0. -1.
         22    1    5    5    0    0  0.31093470497E+03 -0.17342620346E+01  0.14859118050E+03  0.34461969959E+03  0.00000000000E+00 0. -1.
          5    1    4    4  502    0 -0.57508315137E+01 -0.29835890075E+02  0.35169862549E+02  0.46714683252E+02  0.47000000000E+01 0.  1.
         -5    1    4    4    0  502  0.12209708331E+03  0.72264723388E+02  0.29995416261E+03  0.33185008312E+03  0.47000000000E+01 0.  1.
<mgrwt>
<rscale>  0 0.10003339E+04</rscale>
<asrwt>0</asrwt>
<pdfrwt beam="1">  1        1 0.21856179E+00 0.10003339E+04</pdfrwt>
<pdfrwt beam="2">  1       -1 0.27091251E-01 0.10003339E+04</pdfrwt>
<totfact> 0.98348198E+01</totfact>
</mgrwt>
</event>
<event>
 9    1  0.4369420E-036  0.9995022E+03  0.7818608E-02  0.8681512E-01
          1   -1    0    0  501    0  0.00000000000E+00  0.00000000000E+00  0.67086546308E+03  0.67086546308E+03  0.00000000000E+00 0. -1.
         -1   -1    0    0    0  501 -0.00000000000E+00 -0.00000000000E+00 -0.37228203962E+03  0.37228203962E+03  0.00000000000E+00 0. -1.
         36    2    1    2    0    0  0.71054273576E-14  0.00000000000E+00  0.29858342345E+03  0.10431475027E+04  0.99950220191E+03 0.  0.
         25    2    3    3    0    0  0.14194644704E+02 -0.12253209693E+03  0.11752283296E+03  0.21383684605E+03  0.12922452455E+03 0.  0.
         35    2    3    3    0    0 -0.14194644704E+02  0.12253209693E+03  0.18106059050E+03  0.82931065665E+03  0.79984850134E+03 0.  0.
         22    1    5    5    0    0  0.84334571714E+02  0.16964520416E+03  0.47733022136E+03  0.51355229092E+03  0.00000000000E+00 0.  1.
         22    1    5    5    0    0 -0.98529216418E+02 -0.47113107231E+02 -0.29626963086E+03  0.31575836574E+03  0.00000000000E+00 0.  1.
          5    1    4    4  502    0 -0.19776264705E+02  0.15303168837E+02 -0.53817774843E+01  0.26006559769E+02  0.47000000000E+01 0.  1.
         -5    1    4    4    0  502  0.33970909409E+02 -0.13783526577E+03  0.12290461044E+03  0.18783028628E+03  0.47000000000E+01 0.  1.
<mgrwt>
<rscale>  0 0.99950220E+03</rscale>
<asrwt>0</asrwt>
<pdfrwt beam="1">  1        1 0.10321007E+00 0.99950220E+03</pdfrwt>
<pdfrwt beam="2">  1       -1 0.57274160E-01 0.99950220E+03</pdfrwt>
<totfact> 0.10347194E+02</totfact>
</mgrwt>
</event>
<event>
 9    1  0.4369420E-036  0.9995131E+03  0.7818608E-02  0.8681502E-01
          2   -1    0    0  501    0  0.00000000000E+00  0.00000000000E+00  0.31099376299E+03  0.31099376299E+03  0.00000000000E+00 0. -1.
         -2   -1    0    0    0  501 -0.00000000000E+00 -0.00000000000E+00 -0.80309197229E+03  0.80309197229E+03  0.00000000000E+00 0. -1.
         36    2    1    2    0    0 -0.14210854715E-13 -0.14210854715E-13 -0.49209820930E+03  0.11140857353E+04  0.99951307043E+03 0.  0.
         25    2    3    3    0    0 -0.72831722918E+02  0.89997284631E+02 -0.17946456158E+03  0.24766785328E+03  0.12541078733E+03 0.  0.
         35    2    3    3    0    0  0.72831722918E+02 -0.89997284631E+02 -0.31263364772E+03  0.86641788200E+03  0.79971005837E+03 0.  0.
         22    1    5    5    0    0  0.54498061508E+02 -0.31455655983E+03  0.14932843465E+03  0.35244127090E+03  0.00000000000E+00 0.  1.
         22    1    5    5    0    0  0.18333661409E+02  0.22455927520E+03 -0.46196208237E+03  0.51397661110E+03  0.00000000000E+00 0.  1.
          5    1    4    4  502    0 -0.10641365277E+03  0.63485703968E+02 -0.15377019112E+03  0.19753901332E+03  0.47000000000E+01 0. -1.
         -5    1    4    4    0  502  0.33581929857E+02  0.26511580663E+02 -0.25694370461E+02  0.50128839958E+02  0.47000000000E+01 0. -1.
<mgrwt>
<rscale>  0 0.99951307E+03</rscale>
<asrwt>0</asrwt>
<pdfrwt beam="1">  1        2 0.47845195E-01 0.99951307E+03</pdfrwt>
<pdfrwt beam="2">  1       -2 0.12355261E+00 0.99951307E+03</pdfrwt>
<totfact> 0.60504911E+01</totfact>
</mgrwt>
</event>
<event>
 9    1  0.4369420E-036  0.1000433E+04  0.7818608E-02  0.8680626E-01
         -4   -1    0    0    0  501 -0.00000000000E+00  0.00000000000E+00  0.56818460826E+03  0.56818460826E+03  0.00000000000E+00 0.  1.
          4   -1    0    0  501    0  0.00000000000E+00 -0.00000000000E+00 -0.44037884436E+03  0.44037884436E+03  0.00000000000E+00 0.  1.
         36    2    1    2    0    0 -0.71054273576E-14 -0.14210854715E-13  0.12780576390E+03  0.10085634526E+04  0.10004328687E+04 0.  0.
         25    2    3    3    0    0 -0.59627097166E+02 -0.12275356105E+03  0.42620892893E+02  0.19284828628E+03  0.12942215244E+03 0.  0.
         35    2    3    3    0    0  0.59627097166E+02  0.12275356105E+03  0.85184871003E+02  0.81571516635E+03  0.79969428089E+03 0.  0.
         22    1    5    5    0    0  0.33171392559E+03 -0.40811202309E+02 -0.19955912008E+03  0.38926022796E+03  0.00000000000E+00 0. -1.
         22    1    5    5    0    0 -0.27208682843E+03  0.16356476336E+03  0.28474399108E+03  0.42645493839E+03  0.00000000000E+00 0. -1.
          5    1    4    4  502    0 -0.49524101045E+02 -0.13436930421E+03  0.71238261851E+02  0.16001476947E+03  0.47000000000E+01 0.  1.
         -5    1    4    4    0  502 -0.10102996122E+02  0.11615743155E+02 -0.28617368958E+02  0.32833516805E+02  0.47000000000E+01 0.  1.
<mgrwt>
<rscale>  0 0.10004329E+04</rscale>
<asrwt>0</asrwt>
<pdfrwt beam="1">  1        4 0.67750592E-01 0.10004329E+04</pdfrwt>
<pdfrwt beam="2">  1       -4 0.87413016E-01 0.10004329E+04</pdfrwt>
<totfact> 0.51994077E+00</totfact>
</mgrwt>
</event>
<event>
 9    1  0.4369420E-036  0.1001033E+04  0.7818608E-02  0.8680055E-01
         -2   -1    0    0    0  501 -0.00000000000E+00  0.00000000000E+00  0.91212791274E+02  0.91212791274E+02  0.00000000000E+00 0.  1.
          2   -1    0    0  501    0  0.00000000000E+00 -0.00000000000E+00 -0.27465069191E+04  0.27465069191E+04  0.00000000000E+00 0.  1.
         36    2    1    2    0    0 -0.14210854715E-13  0.14210854715E-13 -0.26552941278E+04  0.28377197104E+04  0.10010325916E+04 0.  0.
         25    2    3    3    0    0  0.85604104621E+02  0.43645929290E+02 -0.79244312555E+03  0.80806387224E+03  0.12557103375E+03 0.  0.
         35    2    3    3    0    0 -0.85604104621E+02 -0.43645929290E+02 -0.18628510023E+04  0.20296558382E+04  0.80003495844E+03 0.  0.
         22    1    5    5    0    0 -0.17900501026E+03 -0.27273094954E+03 -0.17055922527E+04  0.17365108399E+04  0.00000000000E+00 0. -1.
         22    1    5    5    0    0  0.93400905643E+02  0.22908502025E+03 -0.15725874955E+03  0.29314499823E+03  0.00000000000E+00 0. -1.
          5    1    4    4  502    0 -0.18945136795E+02  0.47373873133E+02 -0.32663982531E+03  0.33063403869E+03  0.47000000000E+01 0. -1.
         -5    1    4    4    0  502  0.10454924142E+03 -0.37279438426E+01 -0.46580330024E+03  0.47742983355E+03  0.47000000000E+01 0. -1.
<mgrwt>
<rscale>  0 0.10010326E+04</rscale>
<asrwt>0</asrwt>
<pdfrwt beam="1">  1        2 0.42253953E+00 0.10010326E+04</pdfrwt>
<pdfrwt beam="2">  1       -2 0.14032737E-01 0.10010326E+04</pdfrwt>
<totfact> 0.10938015E+02</totfact>
</mgrwt>
</event>
<event>
 9    1  0.4369420E-036  0.9986073E+03  0.7818608E-02  0.8682365E-01
          2   -1    0    0  501    0  0.00000000000E+00  0.00000000000E+00  0.30769243473E+03  0.30769243473E+03  0.00000000000E+00 0.  1.
         -2   -1    0    0    0  501 -0.00000000000E+00 -0.00000000000E+00 -0.81023807334E+03  0.81023807334E+03  0.00000000000E+00 0.  1.
         36    2    1    2    0    0  0.00000000000E+00 -0.14210854715E-13 -0.50254563861E+03  0.11179305081E+04  0.99860728117E+03 0.  0.
         25    2    3    3    0    0 -0.73076676423E+02  0.31927650568E+02 -0.21596751005E+03  0.26321547508E+03  0.12759641616E+03 0.  0.
         35    2    3    3    0    0  0.73076676423E+02 -0.31927650568E+02 -0.28657812856E+03  0.85471503299E+03  0.80128096717E+03 0.  0.
         22    1    5    5    0    0 -0.17619216980E+02  0.98154449829E+02 -0.54362076031E+03  0.55269183445E+03  0.00000000000E+00 0. -1.
         22    1    5    5    0    0  0.90695893402E+02 -0.13008210040E+03  0.25704263175E+03  0.30202319855E+03  0.00000000000E+00 0. -1.
          5    1    4    4  502    0 -0.45514698777E+02 -0.42842712149E+02 -0.13828728836E+03  0.15183066196E+03  0.47000000000E+01 0.  1.
         -5    1    4    4    0  502 -0.27561977645E+02  0.74770362717E+02 -0.77680221691E+02  0.11138481312E+03  0.47000000000E+01 0.  1.
<mgrwt>
<rscale>  0 0.99860728E+03</rscale>
<asrwt>0</asrwt>
<pdfrwt beam="1">  1        2 0.47337297E-01 0.99860728E+03</pdfrwt>
<pdfrwt beam="2">  1       -2 0.12465201E+00 0.99860728E+03</pdfrwt>
<totfact> 0.59825456E+01</totfact>
</mgrwt>
</event>
<event>
 9    1  0.4369420E-036  0.9955414E+03  0.7818608E-02  0.8685296E-01
         -2   -1    0    0    0  501 -0.00000000000E+00  0.00000000000E+00  0.80819251403E+03  0.80819251403E+03  0.00000000000E+00 0. -1.
          2   -1    0    0  501    0  0.00000000000E+00 -0.00000000000E+00 -0.30657999188E+03  0.30657999188E+03  0.00000000000E+00 0. -1.
         36    2    1    2    0    0 -0.14210854715E-13  0.71054273576E-14  0.50161252215E+03  0.11147725059E+04  0.99554136908E+03 0.  0.
         25    2    3    3    0    0  0.12189009520E+03 -0.51594464953E+02  0.10684246355E+03  0.21185035391E+03  0.12627777442E+03 0.  0.
         35    2    3    3    0    0 -0.12189009520E+03  0.51594464953E+02  0.39477005859E+03  0.90292215200E+03  0.80119025786E+03 0.  0.
         22    1    5    5    0    0  0.25443118932E+03  0.25050095468E+03  0.30114871291E+03  0.46709367977E+03  0.00000000000E+00 0.  1.
         22    1    5    5    0    0 -0.37632128452E+03 -0.19890648972E+03  0.93621345685E+02  0.43582847223E+03  0.00000000000E+00 0.  1.
          5    1    4    4  502    0  0.21467086652E+02 -0.75002761249E+02  0.32502730657E+02  0.84644949669E+02  0.47000000000E+01 0.  1.
         -5    1    4    4    0  502  0.10042300855E+03  0.23408296296E+02  0.74339732897E+02  0.12720540424E+03  0.47000000000E+01 0.  1.
<mgrwt>
<rscale>  0 0.99554137E+03</rscale>
<asrwt>0</asrwt>
<pdfrwt beam="1">  1        2 0.47166153E-01 0.99554137E+03</pdfrwt>
<pdfrwt beam="2">  1       -2 0.12433731E+00 0.99554137E+03</pdfrwt>
<totfact> 0.60481596E+01</totfact>
</mgrwt>
</event>
<event>
 9    1  0.4369420E-036  0.9999251E+03  0.7818608E-02  0.8681109E-01
         -1   -1    0    0    0  501 -0.00000000000E+00  0.00000000000E+00  0.18694217813E+03  0.18694217813E+03  0.00000000000E+00 0. -1.
          1   -1    0    0  501    0  0.00000000000E+00 -0.00000000000E+00 -0.13371114697E+04  0.13371114697E+04  0.00000000000E+00 0. -1.
         36    2    1    2    0    0  0.56843418861E-13  0.00000000000E+00 -0.11501692916E+04  0.15240536479E+04  0.99992505829E+03 0.  0.
         25    2    3    3    0    0  0.10560523063E+03 -0.75093235465E+02 -0.31059007796E+03  0.35825837476E+03  0.12284709116E+03 0.  0.
         35    2    3    3    0    0 -0.10560523063E+03  0.75093235465E+02 -0.83957921364E+03  0.11657952731E+04  0.79836952850E+03 0.  0.
         22    1    5    5    0    0 -0.37931952328E+03 -0.40315126175E+02 -0.77208236299E+03  0.86117349320E+03  0.00000000000E+00 0.  1.
         22    1    5    5    0    0  0.27371429265E+03  0.11540836164E+03 -0.67496850642E+02  0.30462177989E+03  0.00000000000E+00 0.  1.
          5    1    4    4  502    0  0.88046511574E+02  0.10309643121E+02 -0.12685761486E+03  0.15483352799E+03  0.47000000000E+01 0.  1.
         -5    1    4    4    0  502  0.17558719058E+02 -0.85402878586E+02 -0.18373246310E+03  0.20342484677E+03  0.47000000000E+01 0.  1.
<mgrwt>
<rscale>  0 0.99992506E+03</rscale>
<asrwt>0</asrwt>
<pdfrwt beam="1">  1        1 0.20570945E+00 0.99992506E+03</pdfrwt>
<pdfrwt beam="2">  1       -1 0.28760336E-01 0.99992506E+03</pdfrwt>
<totfact> 0.10208343E+02</totfact>
</mgrwt>
</event>
<event>
 9    1  0.4369420E-036  0.9996839E+03  0.7818608E-02  0.8681339E-01
         -1   -1    0    0    0  501 -0.00000000000E+00  0.00000000000E+00  0.14677772258E+03  0.14677772258E+03  0.00000000000E+00 0. -1.
          1   -1    0    0  501    0  0.00000000000E+00 -0.00000000000E+00 -0.17021791467E+04  0.17021791467E+04  0.00000000000E+00 0. -1.
         36    2    1    2    0    0  0.71054273576E-14  0.14210854715E-13 -0.15554014241E+04  0.18489568693E+04  0.99968390721E+03 0.  0.
         25    2    3    3    0    0  0.51632760073E+02  0.10129985690E+03 -0.47989211813E+03  0.50927605840E+03  0.12703564734E+03 0.  0.
         35    2    3    3    0    0 -0.51632760073E+02 -0.10129985690E+03 -0.10755093060E+04  0.13396808109E+04  0.79063063745E+03 0.  0.
         22    1    5    5    0    0  0.17992655307E+03  0.27990657174E+03 -0.61082087066E+03  0.69557414374E+03  0.00000000000E+00 0.  1.
         22    1    5    5    0    0 -0.23155931314E+03 -0.38120642864E+03 -0.46468843532E+03  0.64410666714E+03  0.00000000000E+00 0.  1.
          5    1    4    4  502    0  0.59122935449E+01  0.11198577278E+03 -0.40895564895E+03  0.42407850845E+03  0.47000000000E+01 0. -1.
         -5    1    4    4    0  502  0.45720466528E+02 -0.10685915884E+02 -0.70936469184E+02  0.85197549954E+02  0.47000000000E+01 0. -1.
<mgrwt>
<rscale>  0 0.99968391E+03</rscale>
<asrwt>0</asrwt>
<pdfrwt beam="1">  1        1 0.26187373E+00 0.99968391E+03</pdfrwt>
<pdfrwt beam="2">  1       -1 0.22581187E-01 0.99968391E+03</pdfrwt>
<totfact> 0.84270593E+01</totfact>
</mgrwt>
</event>
<event>
 9    1  0.4369420E-036  0.1000140E+04  0.7818608E-02  0.8680905E-01
          1   -1    0    0  501    0  0.00000000000E+00  0.00000000000E+00  0.40936181128E+03  0.40936181128E+03  0.00000000000E+00 0. -1.
         -1   -1    0    0    0  501 -0.00000000000E+00 -0.00000000000E+00 -0.61087740755E+03  0.61087740755E+03  0.00000000000E+00 0. -1.
         36    2    1    2    0    0  0.00000000000E+00  0.71054273576E-14 -0.20151559626E+03  0.10202392188E+04  0.10001397543E+04 0.  0.
         25    2    3    3    0    0 -0.91004723702E+02  0.23176780534E+02  0.68863380206E+02  0.17092668692E+03  0.12511892053E+03 0.  0.
         35    2    3    3    0    0  0.91004723702E+02 -0.23176780534E+02 -0.27037897647E+03  0.84931253191E+03  0.79962989130E+03 0.  0.
         22    1    5    5    0    0 -0.97848890776E+02 -0.11672217544E+03 -0.50879354713E+03  0.53110201022E+03  0.00000000000E+00 0. -1.
         22    1    5    5    0    0  0.18885361448E+03  0.93545394902E+02  0.23841457066E+03  0.31821052169E+03  0.00000000000E+00 0. -1.
          5    1    4    4  502    0  0.14628616262E+02 -0.74018486557E+01 -0.22252367005E+02  0.28036433699E+02  0.47000000000E+01 0.  1.
         -5    1    4    4    0  502 -0.10563333996E+03  0.30578629189E+02  0.91115747211E+02  0.14289025322E+03  0.47000000000E+01 0.  1.
<mgrwt>
<rscale>  0 0.10001398E+04</rscale>
<asrwt>0</asrwt>
<pdfrwt beam="1">  1        1 0.62978740E-01 0.10001398E+04</pdfrwt>
<pdfrwt beam="2">  1       -1 0.93981139E-01 0.10001398E+04</pdfrwt>
<totfact> 0.76169263E+01</totfact>
</mgrwt>
</event>
<event>
 9    1  0.4369420E-036  0.1002323E+04  0.7818608E-02  0.8678829E-01
          2   -1    0    0  501    0  0.00000000000E+00  0.00000000000E+00  0.12953493046E+04  0.12953493046E+04  0.00000000000E+00 0.  1.
         -2   -1    0    0    0  501 -0.00000000000E+00 -0.00000000000E+00 -0.19389591944E+03  0.19389591944E+03  0.00000000000E+00 0.  1.
         36    2    1    2    0    0  0.56843418861E-13  0.00000000000E+00  0.11014533852E+04  0.14892452241E+04  0.10023231902E+04 0.  0.
         25    2    3    3    0    0  0.11892598790E+03  0.74204138583E+02  0.25124142787E+03  0.31355391017E+03  0.12467619953E+03 0.  0.
         35    2    3    3    0    0 -0.11892598790E+03 -0.74204138583E+02  0.85021195734E+03  0.11756913139E+04  0.79983751376E+03 0.  0.
         22    1    5    5    0    0 -0.38353336998E+03 -0.40720371326E+01  0.81364261878E+03  0.89951583558E+03  0.00000000000E+00 0. -1.
         22    1    5    5    0    0  0.26460738208E+03 -0.70132101450E+02  0.36569338565E+02  0.27617547833E+03  0.00000000000E+00 0. -1.
          5    1    4    4  502    0  0.22777092492E+02  0.87356685824E+02  0.11776122114E+03  0.14845801327E+03  0.47000000000E+01 0. -1.
         -5    1    4    4    0  502  0.96148895404E+02 -0.13152547241E+02  0.13348020672E+03  0.16509589690E+03  0.47000000000E+01 0. -1.
<mgrwt>
<rscale>  0 0.10023232E+04</rscale>
<asrwt>0</asrwt>
<pdfrwt beam="1">  1        2 0.19928450E+00 0.10023232E+04</pdfrwt>
<pdfrwt beam="2">  1       -2 0.29830142E-01 0.10023232E+04</pdfrwt>
<totfact> 0.20718883E+02</totfact>
</mgrwt>
</event>
<event>
 9    1  0.4369420E-036  0.9996604E+03  0.7818608E-02  0.8681361E-01
          2   -1    0    0  501    0  0.00000000000E+00  0.00000000000E+00  0.23879747920E+04  0.23879747920E+04  0.00000000000E+00 0.  1.
         -2   -1    0    0    0  501 -0.00000000000E+00 -0.00000000000E+00 -0.10462012175E+03  0.10462012175E+03  0.00000000000E+00 0.  1.
         36    2    1    2    0    0  0.00000000000E+00 -0.14210854715E-13  0.22833546703E+04  0.24925949138E+04  0.99966036929E+03 0.  0.
         25    2    3    3    0    0 -0.13992426265E+03  0.36625344484E+02  0.40130976065E+03  0.44235180921E+03  0.11706999608E+03 0.  0.
         35    2    3    3    0    0  0.13992426265E+03 -0.36625344484E+02  0.18820449096E+04  0.20502431046E+04  0.80030214971E+03 0.  0.
         22    1    5    5    0    0  0.15512801401E+03 -0.30344805513E+03  0.16826104908E+04  0.17167770637E+04  0.00000000000E+00 0. -1.
         22    1    5    5    0    0 -0.15203751353E+02  0.26682271065E+03  0.19943441888E+03  0.33346604086E+03  0.00000000000E+00 0. -1.
          5    1    4    4  502    0  0.13714807008E+02 -0.16975201734E+02  0.64749015617E+02  0.68489257760E+02  0.47000000000E+01 0.  1.
         -5    1    4    4    0  502 -0.15363906966E+03  0.53600546219E+02  0.33656074503E+03  0.37386255145E+03  0.47000000000E+01 0.  1.
<mgrwt>
<rscale>  0 0.99966037E+03</rscale>
<asrwt>0</asrwt>
<pdfrwt beam="1">  1        2 0.36738070E+00 0.99966037E+03</pdfrwt>
<pdfrwt beam="2">  1       -2 0.16095405E-01 0.99966037E+03</pdfrwt>
<totfact> 0.14448864E+02</totfact>
</mgrwt>
</event>
<event>
 9    1  0.4369420E-036  0.1001537E+04  0.7818608E-02  0.8679576E-01
         -2   -1    0    0    0  501 -0.00000000000E+00  0.00000000000E+00  0.32354473178E+03  0.32354473178E+03  0.00000000000E+00 0. -1.
          2   -1    0    0  501    0  0.00000000000E+00 -0.00000000000E+00 -0.77506739804E+03  0.77506739804E+03  0.00000000000E+00 0. -1.
         36    2    1    2    0    0  0.56843418861E-13 -0.14210854715E-13 -0.45152266627E+03  0.10986121298E+04  0.10015367660E+04 0.  0.
         25    2    3    3    0    0 -0.12983377359E+03  0.53372533019E+02 -0.65305036557E+02  0.19908911495E+03  0.12516505840E+03 0.  0.
         35    2    3    3    0    0  0.12983377359E+03 -0.53372533019E+02 -0.38621762971E+03  0.89952301487E+03  0.80017008238E+03 0.  0.
         22    1    5    5    0    0  0.38966429815E+03  0.18024216311E+03 -0.83840446821E+02  0.43744110820E+03  0.00000000000E+00 0.  1.
         22    1    5    5    0    0 -0.25983052456E+03 -0.23361469613E+03 -0.30237718289E+03  0.46208190667E+03  0.00000000000E+00 0.  1.
          5    1    4    4  502    0 -0.92035420273E+02  0.15113249659E+02  0.22459646416E+02  0.96049230175E+02  0.47000000000E+01 0. -1.
         -5    1    4    4    0  502 -0.37798353321E+02  0.38259283360E+02 -0.87764682973E+02  0.10303988477E+03  0.47000000000E+01 0. -1.
<mgrwt>
<rscale>  0 0.10015368E+04</rscale>
<asrwt>0</asrwt>
<pdfrwt beam="1">  1        2 0.11924114E+00 0.10015368E+04</pdfrwt>
<pdfrwt beam="2">  1       -2 0.49776113E-01 0.10015368E+04</pdfrwt>
<totfact> 0.16606494E+02</totfact>
</mgrwt>
</event>
<event>
 9    1  0.4369420E-036  0.9992516E+03  0.7818608E-02  0.8681751E-01
         -2   -1    0    0    0  501 -0.00000000000E+00  0.00000000000E+00  0.12095506339E+03  0.12095506339E+03  0.00000000000E+00 0. -1.
          2   -1    0    0  501    0  0.00000000000E+00 -0.00000000000E+00 -0.20637907470E+04  0.20637907470E+04  0.00000000000E+00 0. -1.
         36    2    1    2    0    0 -0.14210854715E-13  0.28421709430E-13 -0.19428356836E+04  0.21847458104E+04  0.99925160120E+03 0.  0.
         25    2    3    3    0    0  0.10055567511E+03  0.80038608399E+02 -0.46904758133E+03  0.50246555499E+03  0.12628688680E+03 0.  0.
         35    2    3    3    0    0 -0.10055567511E+03 -0.80038608399E+02 -0.14737881023E+04  0.16822802554E+04  0.80093561828E+03 0.  0.
         22    1    5    5    0    0 -0.89639372148E+01 -0.38275590098E+03 -0.36389983562E+03  0.52820973322E+03  0.00000000000E+00 0. -1.
         22    1    5    5    0    0 -0.91591737892E+02  0.30271729258E+03 -0.11098882667E+04  0.11540705222E+04  0.00000000000E+00 0. -1.
          5    1    4    4  502    0  0.17183463730E+02 -0.29849942432E+02 -0.16407105455E+03  0.16771312241E+03  0.47000000000E+01 0.  1.
         -5    1    4    4    0  502  0.83372211376E+02  0.10988855083E+03 -0.30497652678E+03  0.33475243258E+03  0.47000000000E+01 0.  1.
<mgrwt>
<rscale>  0 0.99925160E+03</rscale>
<asrwt>0</asrwt>
<pdfrwt beam="1">  1        2 0.31750624E+00 0.99925160E+03</pdfrwt>
<pdfrwt beam="2">  1       -2 0.18608473E-01 0.99925160E+03</pdfrwt>
<totfact> 0.17453778E+02</totfact>
</mgrwt>
</event>
<event>
 9    1  0.4369420E-036  0.1000817E+04  0.7818608E-02  0.8680261E-01
         -1   -1    0    0    0  501 -0.00000000000E+00  0.00000000000E+00  0.17662426678E+03  0.17662426678E+03  0.00000000000E+00 0. -1.
          1   -1    0    0  501    0  0.00000000000E+00 -0.00000000000E+00 -0.14177469485E+04  0.14177469485E+04  0.00000000000E+00 0. -1.
         36    2    1    2    0    0  0.14210854715E-13  0.21316282073E-13 -0.12411226817E+04  0.15943712153E+04  0.10008166970E+04 0.  0.
         25    2    3    3    0    0 -0.68623306965E+02  0.45072648469E+02 -0.49723803651E+02  0.15681187717E+03  0.12400325105E+03 0.  0.
         35    2    3    3    0    0  0.68623306965E+02 -0.45072648469E+02 -0.11913988781E+04  0.14375593381E+04  0.80025299877E+03 0.  0.
         22    1    5    5    0    0  0.14897411867E+03 -0.40709439914E+03 -0.65476168050E+03  0.78525919040E+03  0.00000000000E+00 0. -1.
         22    1    5    5    0    0 -0.80350811705E+02  0.36202175067E+03 -0.53663719758E+03  0.65230014773E+03  0.00000000000E+00 0. -1.
          5    1    4    4  502    0 -0.40909442184E+02  0.76033244303E+02  0.65338587423E+01  0.86714577835E+02  0.47000000000E+01 0. -1.
         -5    1    4    4    0  502 -0.27713864781E+02 -0.30960595835E+02 -0.56257662394E+02  0.70097299331E+02  0.47000000000E+01 0. -1.
<mgrwt>
<rscale>  0 0.10008167E+04</rscale>
<asrwt>0</asrwt>
<pdfrwt beam="1">  1        1 0.21811492E+00 0.10008167E+04</pdfrwt>
<pdfrwt beam="2">  1       -1 0.27172963E-01 0.10008167E+04</pdfrwt>
<totfact> 0.98314885E+01</totfact>
</mgrwt>
</event>
<event>
 9    1  0.4369420E-036  0.9998003E+03  0.7818608E-02  0.8681228E-01
          1   -1    0    0  501    0  0.00000000000E+00  0.00000000000E+00  0.36448690840E+04  0.36448690840E+04  0.00000000000E+00 0. -1.
         -1   -1    0    0    0  501 -0.00000000000E+00 -0.00000000000E+00 -0.68562176423E+02  0.68562176423E+02  0.00000000000E+00 0. -1.
         36    2    1    2    0    0  0.14210854715E-13  0.14210854715E-13  0.35763069076E+04  0.37134312604E+04  0.99980029441E+03 0.  0.
         25    2    3    3    0    0  0.87143139953E+02 -0.52360673426E+02  0.10247369211E+04  0.10374083590E+04  0.12567728047E+03 0.  0.
         35    2    3    3    0    0 -0.87143139953E+02  0.52360673426E+02  0.25515699864E+04  0.26760229014E+04  0.80015848821E+03 0.  0.
         22    1    5    5    0    0 -0.87505973443E+02 -0.37122552576E+03  0.11249378853E+04  0.11878345559E+04  0.00000000000E+00 0. -1.
         22    1    5    5    0    0  0.36283349039E+00  0.42358619918E+03  0.14266321011E+04  0.14881883455E+04  0.00000000000E+00 0. -1.
          5    1    4    4  502    0  0.78795202381E+02  0.24276637396E+02  0.60694216890E+03  0.61253483610E+03  0.47000000000E+01 0.  1.
         -5    1    4    4    0  502  0.83479375715E+01 -0.76637310822E+02  0.41779475225E+03  0.42487352292E+03  0.47000000000E+01 0.  1.
<mgrwt>
<rscale>  0 0.99980029E+03</rscale>
<asrwt>0</asrwt>
<pdfrwt beam="1">  1        1 0.56074894E+00 0.99980029E+03</pdfrwt>
<pdfrwt beam="2">  1       -1 0.10548030E-01 0.99980029E+03</pdfrwt>
<totfact> 0.11804959E+01</totfact>
</mgrwt>
</event>
<event>
 9    1  0.4369420E-036  0.9995615E+03  0.7818608E-02  0.8681456E-01
          2   -1    0    0  501    0  0.00000000000E+00  0.00000000000E+00  0.63766600097E+03  0.63766600097E+03  0.00000000000E+00 0. -1.
         -2   -1    0    0    0  501 -0.00000000000E+00 -0.00000000000E+00 -0.39171105189E+03  0.39171105189E+03  0.00000000000E+00 0. -1.
         36    2    1    2    0    0  0.71054273576E-14  0.00000000000E+00  0.24595494908E+03  0.10293770529E+04  0.99956154386E+03 0.  0.
         25    2    3    3    0    0 -0.17341834828E+02 -0.96253493250E+02 -0.58156924226E+02  0.16867548291E+03  0.12451392091E+03 0.  0.
         35    2    3    3    0    0  0.17341834828E+02  0.96253493250E+02  0.30411187331E+03  0.86070156995E+03  0.79922317711E+03 0.  0.
         22    1    5    5    0    0 -0.12922429574E+03 -0.30964893416E+03  0.49002071157E+01  0.33556727056E+03  0.00000000000E+00 0. -1.
         22    1    5    5    0    0  0.14656613057E+03  0.40590242741E+03  0.29921166619E+03  0.52513429939E+03  0.00000000000E+00 0. -1.
          5    1    4    4  502    0  0.38897270295E+01 -0.12265312172E+03 -0.36189827513E+02  0.12802621551E+03  0.47000000000E+01 0.  1.
         -5    1    4    4    0  502 -0.21231561857E+02  0.26399628465E+02 -0.21967096713E+02  0.40649267398E+02  0.47000000000E+01 0.  1.
<mgrwt>
<rscale>  0 0.99956154E+03</rscale>
<asrwt>0</asrwt>
<pdfrwt beam="1">  1        2 0.98102462E-01 0.99956154E+03</pdfrwt>
<pdfrwt beam="2">  1       -2 0.60263239E-01 0.99956154E+03</pdfrwt>
<totfact> 0.14294021E+02</totfact>
</mgrwt>
</event>
<event>
 9    1  0.4369420E-036  0.9998202E+03  0.7818608E-02  0.8681209E-01
          2   -1    0    0  501    0  0.00000000000E+00  0.00000000000E+00  0.61771757649E+03  0.61771757649E+03  0.00000000000E+00 0.  1.
         -2   -1    0    0    0  501 -0.00000000000E+00 -0.00000000000E+00 -0.40457013743E+03  0.40457013743E+03  0.00000000000E+00 0.  1.
         36    2    1    2    0    0  0.00000000000E+00  0.56843418861E-13  0.21314743906E+03  0.10222877139E+04  0.99982015346E+03 0.  0.
         25    2    3    3    0    0 -0.52188511630E+02  0.84687554415E+02  0.13990538467E+03  0.21380523032E+03  0.12745013626E+03 0.  0.
         35    2    3    3    0    0  0.52188511630E+02 -0.84687554415E+02  0.73242054384E+02  0.80848248360E+03  0.79898930227E+03 0.  0.
         22    1    5    5    0    0  0.22520931508E+03 -0.38723691925E+03  0.99789770939E+02  0.45894407678E+03  0.00000000000E+00 0.  1.
         22    1    5    5    0    0 -0.17302080345E+03  0.30254936483E+03 -0.26547716556E+02  0.34953840682E+03  0.00000000000E+00 0.  1.
          5    1    4    4  502    0 -0.26360766579E+02  0.56784858712E+02  0.15903896696E+03  0.17098214294E+03  0.47000000000E+01 0.  1.
         -5    1    4    4    0  502 -0.25827745051E+02  0.27902695704E+02 -0.19133582285E+02  0.42823087383E+02  0.47000000000E+01 0.  1.
<mgrwt>
<rscale>  0 0.99982015E+03</rscale>
<asrwt>0</asrwt>
<pdfrwt beam="1">  1        2 0.95033473E-01 0.99982015E+03</pdfrwt>
<pdfrwt beam="2">  1       -2 0.62241560E-01 0.99982015E+03</pdfrwt>
<totfact> 0.13876230E+02</totfact>
</mgrwt>
</event>
<event>
 9    1  0.4369420E-036  0.9994418E+03  0.7818608E-02  0.8681570E-01
          2   -1    0    0  501    0  0.00000000000E+00  0.00000000000E+00  0.22056307726E+04  0.22056307726E+04  0.00000000000E+00 0. -1.
         -2   -1    0    0    0  501 -0.00000000000E+00 -0.00000000000E+00 -0.11321976463E+03  0.11321976463E+03  0.00000000000E+00 0. -1.
         36    2    1    2    0    0  0.00000000000E+00  0.88817841970E-15  0.20924110080E+04  0.23188505372E+04  0.99944183808E+03 0.  0.
         25    2    3    3    0    0  0.13502218451E+03  0.33617252484E+00  0.30550425058E+03  0.35639805644E+03  0.12432065071E+03 0.  0.
         35    2    3    3    0    0 -0.13502218451E+03 -0.33617252484E+00  0.17869067574E+04  0.19624524808E+04  0.79997054721E+03 0.  0.
         22    1    5    5    0    0 -0.11697335510E+03 -0.30317677389E+03  0.29137899131E+03  0.43646378843E+03  0.00000000000E+00 0. -1.
         22    1    5    5    0    0 -0.18048829407E+02  0.30284060137E+03  0.14955277661E+04  0.15259886923E+04  0.00000000000E+00 0. -1.
          5    1    4    4  502    0  0.87677396848E+02  0.56739269585E+01  0.60547161712E+02  0.10680621778E+03  0.47000000000E+01 0.  1.
         -5    1    4    4    0  502  0.47344787660E+02 -0.53377544336E+01  0.24495708886E+03  0.24959183866E+03  0.47000000000E+01 0.  1.
<mgrwt>
<rscale>  0 0.99944184E+03</rscale>
<asrwt>0</asrwt>
<pdfrwt beam="1">  1        2 0.33932778E+00 0.99944184E+03</pdfrwt>
<pdfrwt beam="2">  1       -2 0.17418427E-01 0.99944184E+03</pdfrwt>
<totfact> 0.16185050E+02</totfact>
</mgrwt>
</event>
<event>
 9    1  0.4369420E-036  0.9995363E+03  0.7818608E-02  0.8681480E-01
          1   -1    0    0  501    0  0.00000000000E+00  0.00000000000E+00  0.18488750219E+04  0.18488750219E+04  0.00000000000E+00 0. -1.
         -1   -1    0    0    0  501 -0.00000000000E+00 -0.00000000000E+00 -0.13509200143E+03  0.13509200143E+03  0.00000000000E+00 0. -1.
         36    2    1    2    0    0  0.00000000000E+00  0.35527136788E-14  0.17137830205E+04  0.19839670234E+04  0.99953634672E+03 0.  0.
         25    2    3    3    0    0 -0.13644975328E+03 -0.18953110347E+02  0.26456449332E+03  0.32296208336E+03  0.12382399042E+03 0.  0.
         35    2    3    3    0    0  0.13644975328E+03  0.18953110347E+02  0.14492185272E+04  0.16610049400E+04  0.79982830383E+03 0.  0.
         22    1    5    5    0    0  0.44077650485E+03  0.83527933214E+01  0.51245649879E+03  0.67599212978E+03  0.00000000000E+00 0. -1.
         22    1    5    5    0    0 -0.30432675157E+03  0.10600317026E+02  0.93676202840E+03  0.98501281021E+03  0.00000000000E+00 0. -1.
          5    1    4    4  502    0 -0.38562135889E+02 -0.10248595993E+01 -0.14659803127E+01  0.38888658499E+02  0.47000000000E+01 0. -1.
         -5    1    4    4    0  502 -0.97887617386E+02 -0.17928250748E+02  0.26603047363E+03  0.28407342486E+03  0.47000000000E+01 0. -1.
<mgrwt>
<rscale>  0 0.99953635E+03</rscale>
<asrwt>0</asrwt>
<pdfrwt beam="1">  1        1 0.28444229E+00 0.99953635E+03</pdfrwt>
<pdfrwt beam="2">  1       -1 0.20783386E-01 0.99953635E+03</pdfrwt>
<totfact> 0.76288846E+01</totfact>
</mgrwt>
</event>
<event>
 9    1  0.4369420E-036  0.1000121E+04  0.7818608E-02  0.8680922E-01
         -2   -1    0    0    0  501 -0.00000000000E+00  0.00000000000E+00  0.19154463977E+03  0.19154463977E+03  0.00000000000E+00 0. -1.
          2   -1    0    0  501    0  0.00000000000E+00 -0.00000000000E+00 -0.13054959134E+04  0.13054959134E+04  0.00000000000E+00 0. -1.
         36    2    1    2    0    0  0.14210854715E-13  0.14210854715E-13 -0.11139512736E+04  0.14970405531E+04  0.10001214815E+04 0.  0.
         25    2    3    3    0    0 -0.52879268162E+02 -0.46959416997E+02 -0.30547416323E+02  0.14821225476E+03  0.12661881366E+03 0.  0.
         35    2    3    3    0    0  0.52879268162E+02  0.46959416997E+02 -0.10834038573E+04  0.13488282984E+04  0.80035770545E+03 0.  0.
         22    1    5    5    0    0  0.27057595741E+03  0.15738709272E+03 -0.10580855815E+04  0.11034161243E+04  0.00000000000E+00 0. -1.
         22    1    5    5    0    0 -0.21769668924E+03 -0.11042767572E+03 -0.25318275775E+02  0.24541217403E+03  0.00000000000E+00 0. -1.
          5    1    4    4  502    0 -0.19312437279E+02 -0.88867771119E+02 -0.21369767985E+02  0.93537200947E+02  0.47000000000E+01 0. -1.
         -5    1    4    4    0  502 -0.33566830883E+02  0.41908354122E+02 -0.91776483383E+01  0.54675053816E+02  0.47000000000E+01 0. -1.
<mgrwt>
<rscale>  0 0.10001215E+04</rscale>
<asrwt>0</asrwt>
<pdfrwt beam="1">  1        2 0.20084552E+00 0.10001215E+04</pdfrwt>
<pdfrwt beam="2">  1       -2 0.29468406E-01 0.10001215E+04</pdfrwt>
<totfact> 0.20898871E+02</totfact>
</mgrwt>
</event>
<event>
 9    1  0.4369420E-036  0.1000528E+04  0.7818608E-02  0.8680535E-01
          3   -1    0    0  501    0  0.00000000000E+00  0.00000000000E+00  0.72494050656E+03  0.72494050656E+03  0.00000000000E+00 0. -1.
         -3   -1    0    0    0  501 -0.00000000000E+00 -0.00000000000E+00 -0.34522036489E+03  0.34522036489E+03  0.00000000000E+00 0. -1.
         36    2    1    2    0    0  0.49737991503E-13  0.00000000000E+00  0.37972014167E+03  0.10701608715E+04  0.10005283128E+04 0.  0.
         25    2    3    3    0    0 -0.22092641115E+02 -0.13929565873E+03  0.70043118446E+02  0.20111515342E+03  0.12509956500E+03 0.  0.
         35    2    3    3    0    0  0.22092641115E+02  0.13929565873E+03  0.30967702323E+03  0.86904571803E+03  0.79965569839E+03 0.  0.
         22    1    5    5    0    0 -0.32543968110E+03  0.47480648186E+02 -0.80434711333E+02  0.33857811620E+03  0.00000000000E+00 0.  1.
         22    1    5    5    0    0  0.34753232221E+03  0.91815010539E+02  0.39011173456E+03  0.53046760182E+03  0.00000000000E+00 0.  1.
          5    1    4    4  502    0  0.85603562330E+01 -0.15123362410E+03  0.72092690978E+02  0.16782233121E+03  0.47000000000E+01 0. -1.
         -5    1    4    4    0  502 -0.30652997348E+02  0.11937965379E+02 -0.20495725319E+01  0.33292822220E+02  0.47000000000E+01 0. -1.
<mgrwt>
<rscale>  0 0.10005283E+04</rscale>
<asrwt>0</asrwt>
<pdfrwt beam="1">  1        3 0.11152931E+00 0.10005283E+04</pdfrwt>
<pdfrwt beam="2">  1       -3 0.53110826E-01 0.10005283E+04</pdfrwt>
<totfact> 0.98904436E+00</totfact>
</mgrwt>
</event>
<event>
 9    1  0.4369420E-036  0.1000100E+04  0.7818608E-02  0.8680942E-01
          2   -1    0    0  501    0  0.00000000000E+00  0.00000000000E+00  0.14071914505E+04  0.14071914505E+04  0.00000000000E+00 0. -1.
         -2   -1    0    0    0  501 -0.00000000000E+00 -0.00000000000E+00 -0.17769453025E+03  0.17769453025E+03  0.00000000000E+00 0. -1.
         36    2    1    2    0    0 -0.14210854715E-13 -0.71054273576E-14  0.12294969203E+04  0.15848859808E+04  0.10001004425E+04 0.  0.
         25    2    3    3    0    0  0.94875806453E+02 -0.17998615721E+01  0.55140863802E+02  0.16007130310E+03  0.11652316964E+03 0.  0.
         35    2    3    3    0    0 -0.94875806453E+02  0.17998615721E+01  0.11743560565E+04  0.14248146777E+04  0.80123658191E+03 0.  0.
         22    1    5    5    0    0  0.17378289146E+03 -0.26573892875E+03  0.90675505843E+03  0.96074055166E+03  0.00000000000E+00 0.  1.
         22    1    5    5    0    0 -0.26865869791E+03  0.26753879032E+03  0.26760099806E+03  0.46407412603E+03  0.00000000000E+00 0.  1.
          5    1    4    4  502    0  0.46292935211E+02 -0.23721167199E+02 -0.29464436132E+02  0.59966429111E+02  0.47000000000E+01 0. -1.
         -5    1    4    4    0  502  0.48582871242E+02  0.21921305627E+02  0.84605299935E+02  0.10010487398E+03  0.47000000000E+01 0. -1.
<mgrwt>
<rscale>  0 0.10001004E+04</rscale>
<asrwt>0</asrwt>
<pdfrwt beam="1">  1        2 0.21649099E+00 0.10001004E+04</pdfrwt>
<pdfrwt beam="2">  1       -2 0.27337621E-01 0.10001004E+04</pdfrwt>
<totfact> 0.20921186E+02</totfact>
</mgrwt>
</event>
<event>
 9    1  0.4369420E-036  0.1003767E+04  0.7818608E-02  0.8677459E-01
         -2   -1    0    0    0  501 -0.00000000000E+00  0.00000000000E+00  0.27898449040E+03  0.27898449040E+03  0.00000000000E+00 0. -1.
          2   -1    0    0  501    0  0.00000000000E+00 -0.00000000000E+00 -0.90287025759E+03  0.90287025759E+03  0.00000000000E+00 0. -1.
         36    2    1    2    0    0  0.28421709430E-13  0.35527136788E-14 -0.62388576719E+03  0.11818547480E+04  0.10037665042E+04 0.  0.
         25    2    3    3    0    0 -0.13802437069E+03  0.10131079862E+02 -0.17018367905E+03  0.25238247363E+03  0.12482412706E+03 0.  0.
         35    2    3    3    0    0  0.13802437069E+03 -0.10131079862E+02 -0.45370208814E+03  0.92947227437E+03  0.79932456384E+03 0.  0.
         22    1    5    5    0    0 -0.34691526328E+02  0.38145488592E+03 -0.20388078695E+03  0.43391094395E+03  0.00000000000E+00 0.  1.
         22    1    5    5    0    0  0.17271589702E+03 -0.39158596578E+03 -0.24982130119E+03  0.49556133042E+03  0.00000000000E+00 0.  1.
          5    1    4    4  502    0 -0.13536718171E+03  0.15708495588E+01 -0.71479028891E+02  0.15316031804E+03  0.47000000000E+01 0.  1.
         -5    1    4    4    0  502 -0.26571889852E+01  0.85602303036E+01 -0.98704650160E+02  0.99222155587E+02  0.47000000000E+01 0.  1.
<mgrwt>
<rscale>  0 0.10037665E+04</rscale>
<asrwt>0</asrwt>
<pdfrwt beam="1">  1        2 0.13890312E+00 0.10037665E+04</pdfrwt>
<pdfrwt beam="2">  1       -2 0.42920691E-01 0.10037665E+04</pdfrwt>
<totfact> 0.18179278E+02</totfact>
</mgrwt>
</event>
<event>
 9    1  0.4369420E-036  0.1000859E+04  0.7818608E-02  0.8680221E-01
         -1   -1    0    0    0  501 -0.00000000000E+00  0.00000000000E+00  0.15029622108E+03  0.15029622108E+03  0.00000000000E+00 0.  1.
          1   -1    0    0  501    0  0.00000000000E+00 -0.00000000000E+00 -0.16662392979E+04  0.16662392979E+04  0.00000000000E+00 0.  1.
         36    2    1    2    0    0  0.00000000000E+00 -0.53290705182E-14 -0.15159430768E+04  0.18165355190E+04  0.10008585712E+04 0.  0.
         25    2    3    3    0    0 -0.14572600160E+03 -0.32062176087E+01 -0.34154621702E+03  0.39194738778E+03  0.12538974859E+03 0.  0.
         35    2    3    3    0    0  0.14572600160E+03  0.32062176087E+01 -0.11743968598E+04  0.14245881312E+04  0.79309331851E+03 0.  0.
         22    1    5    5    0    0  0.42459978652E+03  0.15780419910E+03 -0.47730910054E+03  0.65803580558E+03  0.00000000000E+00 0.  1.
         22    1    5    5    0    0 -0.27887378492E+03 -0.15459798149E+03 -0.69708775927E+03  0.76655232563E+03  0.00000000000E+00 0.  1.
          5    1    4    4  502    0  0.19398557020E+02 -0.21829124709E+01 -0.12202812288E+02  0.23496122001E+02  0.47000000000E+01 0.  1.
         -5    1    4    4    0  502 -0.16512455862E+03 -0.10233051378E+01 -0.32934340473E+03  0.36845126578E+03  0.47000000000E+01 0.  1.
<mgrwt>
<rscale>  0 0.10008586E+04</rscale>
<asrwt>0</asrwt>
<pdfrwt beam="1">  1        1 0.25634449E+00 0.10008586E+04</pdfrwt>
<pdfrwt beam="2">  1       -1 0.23122497E-01 0.10008586E+04</pdfrwt>
<totfact> 0.85868400E+01</totfact>
</mgrwt>
</event>
<event>
 9    1  0.4369420E-036  0.9995501E+03  0.7818608E-02  0.8681467E-01
          1   -1    0    0  501    0  0.00000000000E+00  0.00000000000E+00  0.97244413969E+03  0.97244413969E+03  0.00000000000E+00 0. -1.
         -1   -1    0    0    0  501 -0.00000000000E+00 -0.00000000000E+00 -0.25685289941E+03  0.25685289941E+03  0.00000000000E+00 0. -1.
         36    2    1    2    0    0  0.14210854715E-13  0.00000000000E+00  0.71559124028E+03  0.12292970391E+04  0.99955009237E+03 0.  0.
         25    2    3    3    0    0 -0.49231157619E+02  0.12650582202E+03  0.19805721332E+03  0.26714918751E+03  0.11710934528E+03 0.  0.
         35    2    3    3    0    0  0.49231157619E+02 -0.12650582202E+03  0.51753402696E+03  0.96214785159E+03  0.79966217202E+03 0.  0.
         22    1    5    5    0    0 -0.17836527710E+03  0.27681561370E+03  0.11578879277E+03  0.34906747284E+03  0.00000000000E+00 0. -1.
         22    1    5    5    0    0  0.22759643472E+03 -0.40332143572E+03  0.40174523419E+03  0.61308037875E+03  0.00000000000E+00 0. -1.
          5    1    4    4  502    0  0.17404031416E+02 -0.14462679965E+02  0.21739308188E+02  0.31729433367E+02  0.47000000000E+01 0. -1.
         -5    1    4    4    0  502 -0.66635189035E+02  0.14096850198E+03  0.17631790513E+03  0.23541975414E+03  0.47000000000E+01 0. -1.
<mgrwt>
<rscale>  0 0.99955009E+03</rscale>
<asrwt>0</asrwt>
<pdfrwt beam="1">  1        1 0.14960679E+00 0.99955009E+03</pdfrwt>
<pdfrwt beam="2">  1       -1 0.39515831E-01 0.99955009E+03</pdfrwt>
<totfact> 0.11112951E+02</totfact>
</mgrwt>
</event>
<event>
 9    1  0.4369420E-036  0.9999092E+03  0.7818608E-02  0.8681124E-01
         -1   -1    0    0    0  501 -0.00000000000E+00  0.00000000000E+00  0.76429477563E+03  0.76429477563E+03  0.00000000000E+00 0.  1.
          1   -1    0    0  501    0  0.00000000000E+00 -0.00000000000E+00 -0.32703949804E+03  0.32703949804E+03  0.00000000000E+00 0.  1.
         36    2    1    2    0    0  0.00000000000E+00  0.00000000000E+00  0.43725527759E+03  0.10913342737E+04  0.99990915543E+03 0.  0.
         25    2    3    3    0    0  0.89883475304E+02  0.82670257192E+02  0.15493546026E+03  0.23354994887E+03  0.12500868455E+03 0.  0.
         35    2    3    3    0    0 -0.89883475304E+02 -0.82670257192E+02  0.28231981733E+03  0.85778432480E+03  0.80073469893E+03 0.  0.
         22    1    5    5    0    0  0.31038229876E+03 -0.14892207251E+03 -0.30312583829E+02  0.34559196721E+03  0.00000000000E+00 0. -1.
         22    1    5    5    0    0 -0.40026577406E+03  0.66251815313E+02  0.31263240116E+03  0.51219235759E+03  0.00000000000E+00 0. -1.
          5    1    4    4  502    0  0.87241594059E+02  0.67928473874E+02  0.17562175118E+03  0.20758242407E+03  0.47000000000E+01 0.  1.
         -5    1    4    4    0  502  0.26418812454E+01  0.14741783318E+02 -0.20686290918E+02  0.25967524793E+02  0.47000000000E+01 0.  1.
<mgrwt>
<rscale>  0 0.99990916E+03</rscale>
<asrwt>0</asrwt>
<pdfrwt beam="1">  1        1 0.50313769E-01 0.99990916E+03</pdfrwt>
<pdfrwt beam="2">  1       -1 0.11758381E+00 0.99990916E+03</pdfrwt>
<totfact> 0.61262718E+01</totfact>
</mgrwt>
</event>
<event>
 9    1  0.4369420E-036  0.1000392E+04  0.7818608E-02  0.8680664E-01
         -1   -1    0    0    0  501 -0.00000000000E+00  0.00000000000E+00  0.69461763789E+02  0.69461763789E+02  0.00000000000E+00 0. -1.
          1   -1    0    0  501    0  0.00000000000E+00 -0.00000000000E+00 -0.36019276417E+04  0.36019276417E+04  0.00000000000E+00 0. -1.
         36    2    1    2    0    0  0.14210854715E-13  0.00000000000E+00 -0.35324658780E+04  0.36713894055E+04  0.10003924171E+04 0.  0.
         25    2    3    3    0    0 -0.92864661846E+02  0.10569824040E+03 -0.70614143498E+03  0.73077847676E+03  0.12492194542E+03 0.  0.
         35    2    3    3    0    0  0.92864661846E+02 -0.10569824040E+03 -0.28263244430E+04  0.29406109288E+04  0.79955413453E+03 0.  0.
         22    1    5    5    0    0  0.16093027116E+03  0.29140527276E+03 -0.68368965083E+03  0.76042562017E+03  0.00000000000E+00 0.  1.
         22    1    5    5    0    0 -0.68065609318E+02 -0.39710351316E+03 -0.21426347921E+04  0.21801853086E+04  0.00000000000E+00 0.  1.
          5    1    4    4  502    0 -0.23739413024E+02  0.93332671530E+02 -0.22894416280E+03  0.24841913571E+03  0.47000000000E+01 0.  1.
         -5    1    4    4    0  502 -0.69125248822E+02  0.12365568874E+02 -0.47719727218E+03  0.48235934105E+03  0.47000000000E+01 0.  1.
<mgrwt>
<rscale>  0 0.10003924E+04</rscale>
<asrwt>0</asrwt>
<pdfrwt beam="1">  1        1 0.55414270E+00 0.10003924E+04</pdfrwt>
<pdfrwt beam="2">  1       -1 0.10686425E-01 0.10003924E+04</pdfrwt>
<totfact> 0.12438266E+01</totfact>
</mgrwt>
</event>
<event>
 9    1  0.4369420E-036  0.9983377E+03  0.7818608E-02  0.8682623E-01
          2   -1    0    0  501    0  0.00000000000E+00  0.00000000000E+00  0.30643939828E+04  0.30643939828E+04  0.00000000000E+00 0. -1.
         -2   -1    0    0    0  501 -0.00000000000E+00 -0.00000000000E+00 -0.81311203534E+02  0.81311203534E+02  0.00000000000E+00 0. -1.
         36    2    1    2    0    0  0.14210854715E-13  0.00000000000E+00  0.29830827793E+04  0.31457051863E+04  0.99833774414E+03 0.  0.
         25    2    3    3    0    0  0.81006079281E+02  0.27735603944E+01  0.91450393946E+03  0.92654340673E+03  0.12488215143E+03 0.  0.
         35    2    3    3    0    0 -0.81006079281E+02 -0.27735603944E+01  0.20685788398E+04  0.22191617796E+04  0.79943161687E+03 0.  0.
         22    1    5    5    0    0  0.21494807809E+03  0.97656070523E+02  0.16008643164E+03  0.28524910163E+03  0.00000000000E+00 0.  1.
         22    1    5    5    0    0 -0.29595415737E+03 -0.10042963092E+03  0.19084924082E+04  0.19339126780E+04  0.00000000000E+00 0.  1.
          5    1    4    4  502    0  0.77218749942E+01  0.42005199134E+02  0.58883368757E+03  0.59039924266E+03  0.47000000000E+01 0.  1.
         -5    1    4    4    0  502  0.73284204287E+02 -0.39231638739E+02  0.32567025189E+03  0.33614416407E+03  0.47000000000E+01 0.  1.
<mgrwt>
<rscale>  0 0.99833774E+03</rscale>
<asrwt>0</asrwt>
<pdfrwt beam="1">  1        2 0.47144514E+00 0.99833774E+03</pdfrwt>
<pdfrwt beam="2">  1       -2 0.12509418E-01 0.99833774E+03</pdfrwt>
<totfact> 0.81932365E+01</totfact>
</mgrwt>
</event>
<event>
 9    1  0.4369420E-036  0.1000626E+04  0.7818608E-02  0.8680442E-01
          2   -1    0    0  501    0  0.00000000000E+00  0.00000000000E+00  0.83718355278E+03  0.83718355278E+03  0.00000000000E+00 0. -1.
         -2   -1    0    0    0  501 -0.00000000000E+00 -0.00000000000E+00 -0.29899424008E+03  0.29899424008E+03  0.00000000000E+00 0. -1.
         36    2    1    2    0    0  0.71054273576E-14 -0.71054273576E-14  0.53818931270E+03  0.11361777929E+04  0.10006259245E+04 0.  0.
         25    2    3    3    0    0 -0.61092474525E+02 -0.37506671027E+02 -0.35685639932E+02  0.15008574049E+03  0.12693787373E+03 0.  0.
         35    2    3    3    0    0  0.61092474525E+02  0.37506671027E+02  0.57387495263E+03  0.98609205237E+03  0.79869019881E+03 0.  0.
         22    1    5    5    0    0 -0.18841939913E+03 -0.91590306856E+01  0.68389607275E+03  0.70943611138E+03  0.00000000000E+00 0. -1.
         22    1    5    5    0    0  0.24951187365E+03  0.46665701712E+02 -0.11002112012E+03  0.27665594098E+03  0.00000000000E+00 0. -1.
          5    1    4    4  502    0 -0.23569615301E+02  0.12257814729E+02  0.42283273990E+02  0.50157213306E+02  0.47000000000E+01 0. -1.
         -5    1    4    4    0  502 -0.37522859224E+02 -0.49764485756E+02 -0.77968913922E+02  0.99928527184E+02  0.47000000000E+01 0. -1.
<mgrwt>
<rscale>  0 0.10006259E+04</rscale>
<asrwt>0</asrwt>
<pdfrwt beam="1">  1        2 0.12879747E+00 0.10006259E+04</pdfrwt>
<pdfrwt beam="2">  1       -2 0.45999114E-01 0.10006259E+04</pdfrwt>
<totfact> 0.17573281E+02</totfact>
</mgrwt>
</event>
<event>
 9    1  0.4369420E-036  0.9991006E+03  0.7818608E-02  0.8681895E-01
          2   -1    0    0  501    0  0.00000000000E+00  0.00000000000E+00  0.11989613952E+04  0.11989613952E+04  0.00000000000E+00 0.  1.
         -2   -1    0    0    0  501 -0.00000000000E+00 -0.00000000000E+00 -0.20813889564E+03  0.20813889564E+03  0.00000000000E+00 0.  1.
         36    2    1    2    0    0  0.00000000000E+00  0.00000000000E+00  0.99082249958E+03  0.14071002909E+04  0.99910059698E+03 0.  0.
         25    2    3    3    0    0  0.72761577363E+02 -0.11300349129E+03  0.13584560439E+03  0.22873687179E+03  0.12570796355E+03 0.  0.
         35    2    3    3    0    0 -0.72761577363E+02  0.11300349129E+03  0.85497689519E+03  0.11783634191E+04  0.79968169913E+03 0.  0.
         22    1    5    5    0    0  0.18014973673E+03 -0.15457643587E+03 -0.10723341429E+02  0.23761900644E+03  0.00000000000E+00 0. -1.
         22    1    5    5    0    0 -0.25291131410E+03  0.26757992716E+03  0.86570023662E+03  0.94074441264E+03  0.00000000000E+00 0. -1.
          5    1    4    4  502    0  0.48383891836E+02 -0.13940664621E+03  0.10536197736E+03  0.18137929945E+03  0.47000000000E+01 0. -1.
         -5    1    4    4    0  502  0.24377685527E+02  0.26403154914E+02  0.30483627024E+02  0.47357572337E+02  0.47000000000E+01 0. -1.
<mgrwt>
<rscale>  0 0.99910060E+03</rscale>
<asrwt>0</asrwt>
<pdfrwt beam="1">  1        2 0.18445560E+00 0.99910060E+03</pdfrwt>
<pdfrwt beam="2">  1       -2 0.32021369E-01 0.99910060E+03</pdfrwt>
<totfact> 0.20722764E+02</totfact>
</mgrwt>
</event>
<event>
 9    1  0.4369420E-036  0.1000994E+04  0.7818608E-02  0.8680092E-01
         -2   -1    0    0    0  501 -0.00000000000E+00  0.00000000000E+00  0.27254697334E+03  0.27254697334E+03  0.00000000000E+00 0.  1.
          2   -1    0    0  501    0  0.00000000000E+00 -0.00000000000E+00 -0.91909822208E+03  0.91909822208E+03  0.00000000000E+00 0.  1.
         36    2    1    2    0    0 -0.56843418861E-13 -0.35527136788E-14 -0.64655124874E+03  0.11916451954E+04  0.10009943829E+04 0.  0.
         25    2    3    3    0    0 -0.14215785932E+03 -0.71127045140E+01 -0.15083839461E+03  0.24172077873E+03  0.12416628386E+03 0.  0.
         35    2    3    3    0    0  0.14215785932E+03  0.71127045140E+01 -0.49571285413E+03  0.94992441669E+03  0.79772533878E+03 0.  0.
         22    1    5    5    0    0  0.43330620312E+03 -0.16380252278E+03 -0.21426108545E+03  0.51038548654E+03  0.00000000000E+00 0. -1.
         22    1    5    5    0    0 -0.29114834380E+03  0.17091522729E+03 -0.28145176868E+03  0.43953893014E+03  0.00000000000E+00 0. -1.
          5    1    4    4  502    0  0.16742583427E+02  0.21130188053E+02 -0.23996657569E+02  0.36396820210E+02  0.47000000000E+01 0.  1.
         -5    1    4    4    0  502 -0.15890044275E+03 -0.28242892567E+02 -0.12684173704E+03  0.20532395852E+03  0.47000000000E+01 0.  1.
<mgrwt>
<rscale>  0 0.10009944E+04</rscale>
<asrwt>0</asrwt>
<pdfrwt beam="1">  1        2 0.14139973E+00 0.10009944E+04</pdfrwt>
<pdfrwt beam="2">  1       -2 0.41930304E-01 0.10009944E+04</pdfrwt>
<totfact> 0.18560572E+02</totfact>
</mgrwt>
</event>
<event>
 9    1  0.4369420E-036  0.1001164E+04  0.7818608E-02  0.8679931E-01
         -2   -1    0    0    0  501 -0.00000000000E+00  0.00000000000E+00  0.34867209550E+03  0.34867209550E+03  0.00000000000E+00 0. -1.
          2   -1    0    0  501    0  0.00000000000E+00 -0.00000000000E+00 -0.71867559961E+03  0.71867559961E+03  0.00000000000E+00 0. -1.
         36    2    1    2    0    0  0.28421709430E-13 -0.42632564146E-13 -0.37000350411E+03  0.10673476951E+04  0.10011635776E+04 0.  0.
         25    2    3    3    0    0 -0.13931416012E+03  0.21415076699E+02 -0.76284766364E+02  0.20385872559E+03  0.12598402160E+03 0.  0.
         35    2    3    3    0    0  0.13931416012E+03 -0.21415076699E+02 -0.29371873775E+03  0.86348896952E+03  0.79967209709E+03 0.  0.
         22    1    5    5    0    0 -0.23107828631E+02  0.29952298726E+03 -0.38889426427E+03  0.49141300392E+03  0.00000000000E+00 0. -1.
         22    1    5    5    0    0  0.16242198875E+03 -0.32093806396E+03  0.95175526520E+02  0.37207596560E+03  0.00000000000E+00 0. -1.
          5    1    4    4  502    0 -0.94684239247E+02 -0.24852642124E+02  0.73366958100E+01  0.98278563725E+02  0.47000000000E+01 0.  1.
         -5    1    4    4    0  502 -0.44629920875E+02  0.46267718823E+02 -0.83621462174E+02  0.10558016186E+03  0.47000000000E+01 0.  1.
<mgrwt>
<rscale>  0 0.10011636E+04</rscale>
<asrwt>0</asrwt>
<pdfrwt beam="1">  1        2 0.11056548E+00 0.10011636E+04</pdfrwt>
<pdfrwt beam="2">  1       -2 0.53641861E-01 0.10011636E+04</pdfrwt>
<totfact> 0.15704425E+02</totfact>
</mgrwt>
</event>
<event>
 9    1  0.4369420E-036  0.1000787E+04  0.7818608E-02  0.8680289E-01
          2   -1    0    0  501    0  0.00000000000E+00  0.00000000000E+00  0.38945395175E+03  0.38945395175E+03  0.00000000000E+00 0. -1.
         -2   -1    0    0    0  501 -0.00000000000E+00 -0.00000000000E+00 -0.64293540553E+03  0.64293540553E+03  0.00000000000E+00 0. -1.
         36    2    1    2    0    0  0.00000000000E+00  0.00000000000E+00 -0.25348145378E+03  0.10323893573E+04  0.10007871590E+04 0.  0.
         25    2    3    3    0    0  0.47055981306E+02 -0.12956941661E+03 -0.79170374162E+02  0.20263966989E+03  0.12566777062E+03 0.  0.
         35    2    3    3    0    0 -0.47055981306E+02  0.12956941661E+03 -0.17431107962E+03  0.82974968738E+03  0.79943585868E+03 0.  0.
         22    1    5    5    0    0  0.20454567691E+03 -0.24916392288E+03  0.44016179669E+02  0.32535982923E+03  0.00000000000E+00 0.  1.
         22    1    5    5    0    0 -0.25160165821E+03  0.37873333949E+03 -0.21832725928E+03  0.50438985815E+03  0.00000000000E+00 0.  1.
          5    1    4    4  502    0  0.12525470817E+02  0.24761659494E+02 -0.88842002981E+01  0.29513492085E+02  0.47000000000E+01 0. -1.
         -5    1    4    4    0  502  0.34530510488E+02 -0.15433107611E+03 -0.70286173864E+02  0.17312617781E+03  0.47000000000E+01 0. -1.
<mgrwt>
<rscale>  0 0.10007872E+04</rscale>
<asrwt>0</asrwt>
<pdfrwt beam="1">  1        2 0.59915992E-01 0.10007872E+04</pdfrwt>
<pdfrwt beam="2">  1       -2 0.98913140E-01 0.10007872E+04</pdfrwt>
<totfact> 0.82587141E+01</totfact>
</mgrwt>
</event>
<event>
 9    1  0.4369420E-036  0.1001249E+04  0.7818608E-02  0.8679849E-01
          2   -1    0    0  501    0  0.00000000000E+00  0.00000000000E+00  0.11511209896E+04  0.11511209896E+04  0.00000000000E+00 0. -1.
         -2   -1    0    0    0  501 -0.00000000000E+00 -0.00000000000E+00 -0.21772265171E+03  0.21772265171E+03  0.00000000000E+00 0. -1.
         36    2    1    2    0    0  0.00000000000E+00 -0.28421709430E-13  0.93339833791E+03  0.13688436413E+04  0.10012494480E+04 0.  0.
         25    2    3    3    0    0 -0.44275198401E+02  0.11483155981E+02 -0.98414737910E+01  0.13152927197E+03  0.12292655821E+03 0.  0.
         35    2    3    3    0    0  0.44275198401E+02 -0.11483155981E+02  0.94323981170E+03  0.12373143694E+04  0.79947066874E+03 0.  0.
         22    1    5    5    0    0  0.14069283082E+03 -0.36947315219E+03  0.66548465573E+03  0.77406376343E+03  0.00000000000E+00 0.  1.
         22    1    5    5    0    0 -0.96417632417E+02  0.35798999621E+03  0.27775515597E+03  0.46325060593E+03  0.00000000000E+00 0.  1.
          5    1    4    4  502    0 -0.70172408532E+02  0.76749488300E+01  0.35354693687E+02  0.79089292097E+02  0.47000000000E+01 0.  1.
         -5    1    4    4    0  502  0.25897210131E+02  0.38082071512E+01 -0.45196167478E+02  0.52439979872E+02  0.47000000000E+01 0.  1.
<mgrwt>
<rscale>  0 0.10012494E+04</rscale>
<asrwt>0</asrwt>
<pdfrwt beam="1">  1        2 0.17709553E+00 0.10012494E+04</pdfrwt>
<pdfrwt beam="2">  1       -2 0.33495793E-01 0.10012494E+04</pdfrwt>
<totfact> 0.20360994E+02</totfact>
</mgrwt>
</event>
<event>
 9    1  0.4369420E-036  0.1002783E+04  0.7818608E-02  0.8678392E-01
          2   -1    0    0  501    0  0.00000000000E+00  0.00000000000E+00  0.56992442684E+03  0.56992442684E+03  0.00000000000E+00 0. -1.
         -2   -1    0    0    0  501 -0.00000000000E+00 -0.00000000000E+00 -0.44109971088E+03  0.44109971088E+03  0.00000000000E+00 0. -1.
         36    2    1    2    0    0 -0.28421709430E-13  0.14210854715E-13  0.12882471596E+03  0.10110241377E+04  0.10027831269E+04 0.  0.
         25    2    3    3    0    0  0.60660739132E+02 -0.67685115629E+02  0.15658145575E+03  0.21991032939E+03  0.12482708255E+03 0.  0.
         35    2    3    3    0    0 -0.60660739132E+02  0.67685115629E+02 -0.27756739787E+02  0.79111380833E+03  0.78538501449E+03 0.  0.
         22    1    5    5    0    0 -0.36078205880E+03 -0.12983770303E+03 -0.14980916885E+03  0.41166043063E+03  0.00000000000E+00 0. -1.
         22    1    5    5    0    0  0.30012131966E+03  0.19752281866E+03  0.12205242906E+03  0.37945337770E+03  0.00000000000E+00 0. -1.
          5    1    4    4  502    0  0.61602521486E+02 -0.10224100395E+03  0.12385189797E+03  0.17207404270E+03  0.47000000000E+01 0. -1.
         -5    1    4    4    0  502 -0.94178235450E+00  0.34555888316E+02  0.32729557778E+02  0.47836286684E+02  0.47000000000E+01 0. -1.
<mgrwt>
<rscale>  0 0.10027831E+04</rscale>
<asrwt>0</asrwt>
<pdfrwt beam="1">  1        2 0.87680682E-01 0.10027831E+04</pdfrwt>
<pdfrwt beam="2">  1       -2 0.67861494E-01 0.10027831E+04</pdfrwt>
<totfact> 0.12696865E+02</totfact>
</mgrwt>
</event>
<event>
 9    1  0.4369420E-036  0.9986201E+03  0.7818608E-02  0.8682353E-01
         -2   -1    0    0    0  501 -0.00000000000E+00  0.00000000000E+00  0.10759621963E+03  0.10759621963E+03  0.00000000000E+00 0. -1.
          2   -1    0    0  501    0  0.00000000000E+00 -0.00000000000E+00 -0.23170936100E+04  0.23170936100E+04  0.00000000000E+00 0. -1.
         36    2    1    2    0    0  0.21316282073E-13 -0.28421709430E-13 -0.22094973904E+04  0.24246898297E+04  0.99862007383E+03 0.  0.
         25    2    3    3    0    0 -0.29176870336E+02 -0.13387594791E+03 -0.49355570367E+03  0.52728077186E+03  0.12511482948E+03 0.  0.
         35    2    3    3    0    0  0.29176870336E+02  0.13387594791E+03 -0.17159416867E+04  0.18974090578E+04  0.79807969599E+03 0.  0.
         22    1    5    5    0    0  0.37586978885E+03  0.18308970708E+03 -0.62749981353E+03  0.75402649489E+03  0.00000000000E+00 0. -1.
         22    1    5    5    0    0 -0.34669291851E+03 -0.49213759163E+02 -0.10884418732E+04  0.11433825629E+04  0.00000000000E+00 0. -1.
          5    1    4    4  502    0 -0.21318729729E+02 -0.15794143903E+03 -0.43556434939E+03  0.46383011854E+03  0.47000000000E+01 0.  1.
         -5    1    4    4    0  502 -0.78581406073E+01  0.24065491112E+02 -0.57991354273E+02  0.63450653319E+02  0.47000000000E+01 0.  1.
<mgrwt>
<rscale>  0 0.99862007E+03</rscale>
<asrwt>0</asrwt>
<pdfrwt beam="1">  1        2 0.35647592E+00 0.99862007E+03</pdfrwt>
<pdfrwt beam="2">  1       -2 0.16553265E-01 0.99862007E+03</pdfrwt>
<totfact> 0.15182532E+02</totfact>
</mgrwt>
</event>
<event>
 9    1  0.4369420E-036  0.9977873E+03  0.7818608E-02  0.8683148E-01
         -2   -1    0    0    0  501 -0.00000000000E+00  0.00000000000E+00  0.11233182576E+03  0.11233182576E+03  0.00000000000E+00 0. -1.
          2   -1    0    0  501    0  0.00000000000E+00 -0.00000000000E+00 -0.22157110763E+04  0.22157110763E+04  0.00000000000E+00 0. -1.
         36    2    1    2    0    0  0.14210854715E-13  0.45297099405E-13 -0.21033792506E+04  0.23280429021E+04  0.99778729310E+03 0.  0.
         25    2    3    3    0    0  0.10542982808E+03 -0.15123871977E+01 -0.18526850812E+03  0.24723833237E+03  0.12523832051E+03 0.  0.
         35    2    3    3    0    0 -0.10542982808E+03  0.15123871977E+01 -0.19181107425E+04  0.20808045697E+04  0.79967562247E+03 0.  0.
         22    1    5    5    0    0 -0.11748910624E+03  0.39435611247E+03 -0.10556410425E+04  0.11330041678E+04  0.00000000000E+00 0.  1.
         22    1    5    5    0    0  0.12059278165E+02 -0.39284372527E+03 -0.86246969992E+03  0.94780040196E+03  0.00000000000E+00 0.  1.
          5    1    4    4  502    0  0.10842961795E+03 -0.21685004517E+00 -0.64330037672E+02  0.12616446734E+03  0.47000000000E+01 0.  1.
         -5    1    4    4    0  502 -0.29997898762E+01 -0.12955371526E+01 -0.12093847045E+03  0.12107386502E+03  0.47000000000E+01 0.  1.
<mgrwt>
<rscale>  0 0.99778729E+03</rscale>
<asrwt>0</asrwt>
<pdfrwt beam="1">  1        2 0.34087859E+00 0.99778729E+03</pdfrwt>
<pdfrwt beam="2">  1       -2 0.17281821E-01 0.99778729E+03</pdfrwt>
<totfact> 0.16183664E+02</totfact>
</mgrwt>
</event>
<event>
 9    1  0.4369420E-036  0.9964277E+03  0.7818608E-02  0.8684447E-01
         -2   -1    0    0    0  501 -0.00000000000E+00  0.00000000000E+00  0.35685248509E+03  0.35685248509E+03  0.00000000000E+00 0.  1.
          2   -1    0    0  501    0  0.00000000000E+00 -0.00000000000E+00 -0.69557318081E+03  0.69557318081E+03  0.00000000000E+00 0.  1.
         36    2    1    2    0    0  0.14210854715E-13 -0.28421709430E-13 -0.33872069572E+03  0.10524256659E+04  0.99642765545E+03 0.  0.
         25    2    3    3    0    0 -0.31925559509E+02 -0.12700880980E+03 -0.10316935238E+03  0.20856728214E+03  0.12532324921E+03 0.  0.
         35    2    3    3    0    0  0.31925559509E+02  0.12700880980E+03 -0.23555134334E+03  0.84385838377E+03  0.79966371519E+03 0.  0.
         22    1    5    5    0    0  0.32955282849E+03  0.30845089401E+03 -0.65818501401E+02  0.45615687642E+03  0.00000000000E+00 0. -1.
         22    1    5    5    0    0 -0.29762726899E+03 -0.18144208421E+03 -0.16973284194E+03  0.38770150735E+03  0.00000000000E+00 0. -1.
          5    1    4    4  502    0 -0.64923014564E+02 -0.23964565683E+02 -0.60917423995E+02  0.92316416604E+02  0.47000000000E+01 0. -1.
         -5    1    4    4    0  502  0.32997455055E+02 -0.10304424411E+03 -0.42251928384E+02  0.11625086553E+03  0.47000000000E+01 0. -1.
<mgrwt>
<rscale>  0 0.99642766E+03</rscale>
<asrwt>0</asrwt>
<pdfrwt beam="1">  1        2 0.10701126E+00 0.99642766E+03</pdfrwt>
<pdfrwt beam="2">  1       -2 0.54900384E-01 0.99642766E+03</pdfrwt>
<totfact> 0.15596875E+02</totfact>
</mgrwt>
</event>
<event>
 9    1  0.4369420E-036  0.1002240E+04  0.7818608E-02  0.8678908E-01
          2   -1    0    0  501    0  0.00000000000E+00  0.00000000000E+00  0.21761793349E+04  0.21761793349E+04  0.00000000000E+00 0.  1.
         -2   -1    0    0    0  501 -0.00000000000E+00 -0.00000000000E+00 -0.11539537954E+03  0.11539537954E+03  0.00000000000E+00 0.  1.
         36    2    1    2    0    0 -0.42632564146E-13  0.00000000000E+00  0.20607839554E+04  0.22915747144E+04  0.10022395728E+04 0.  0.
         25    2    3    3    0    0  0.96225499045E+02 -0.97003575067E+02  0.30488311715E+03  0.35695068905E+03  0.12566240108E+03 0.  0.
         35    2    3    3    0    0 -0.96225499045E+02  0.97003575067E+02  0.17559008382E+04  0.19346240254E+04  0.80057062510E+03 0.  0.
         22    1    5    5    0    0  0.34493311500E+03  0.12549357001E+03  0.71420691655E+03  0.80300623259E+03  0.00000000000E+00 0. -1.
         22    1    5    5    0    0 -0.44115861405E+03 -0.28489994940E+02  0.10416939217E+04  0.11316177928E+04  0.00000000000E+00 0. -1.
          5    1    4    4  502    0  0.58016641147E+02 -0.59709402520E+02  0.28938011460E+03  0.30115458510E+03  0.47000000000E+01 0. -1.
         -5    1    4    4    0  502  0.38208857898E+02 -0.37294172547E+02  0.15503002550E+02  0.55796103949E+02  0.47000000000E+01 0. -1.
<mgrwt>
<rscale>  0 0.10022396E+04</rscale>
<asrwt>0</asrwt>
<pdfrwt beam="1">  1        2 0.33479679E+00 0.10022396E+04</pdfrwt>
<pdfrwt beam="2">  1       -2 0.17753137E-01 0.10022396E+04</pdfrwt>
<totfact> 0.16296919E+02</totfact>
</mgrwt>
</event>
<event>
 9    1  0.4369420E-036  0.1000656E+04  0.7818608E-02  0.8680413E-01
         -2   -1    0    0    0  501 -0.00000000000E+00  0.00000000000E+00  0.11986344325E+03  0.11986344325E+03  0.00000000000E+00 0.  1.
          2   -1    0    0  501    0  0.00000000000E+00 -0.00000000000E+00 -0.20884444370E+04  0.20884444370E+04  0.00000000000E+00 0.  1.
         36    2    1    2    0    0  0.00000000000E+00 -0.28421709430E-13 -0.19685809937E+04  0.22083078802E+04  0.10006560673E+04 0.  0.
         25    2    3    3    0    0 -0.81214354718E+02  0.87823676307E+01 -0.62650203128E+03  0.64423855517E+03  0.12595880030E+03 0.  0.
         35    2    3    3    0    0  0.81214354718E+02 -0.87823676307E+01 -0.13420789624E+04  0.15640693250E+04  0.79903943003E+03 0.  0.
         22    1    5    5    0    0  0.12539667264E+03 -0.39486233337E+03 -0.71417941747E+03  0.82564691495E+03  0.00000000000E+00 0. -1.
         22    1    5    5    0    0 -0.44182317925E+02  0.38607996574E+03 -0.62789954497E+03  0.73842241010E+03  0.00000000000E+00 0. -1.
          5    1    4    4  502    0 -0.77189046922E+02 -0.48692900052E+02 -0.34787560668E+03  0.35967857207E+03  0.47000000000E+01 0.  1.
         -5    1    4    4    0  502 -0.40253077960E+01  0.57475267682E+02 -0.27862642460E+03  0.28455998310E+03  0.47000000000E+01 0.  1.
<mgrwt>
<rscale>  0 0.10006561E+04</rscale>
<asrwt>0</asrwt>
<pdfrwt beam="1">  1        2 0.32129912E+00 0.10006561E+04</pdfrwt>
<pdfrwt beam="2">  1       -2 0.18440531E-01 0.10006561E+04</pdfrwt>
<totfact> 0.17159740E+02</totfact>
</mgrwt>
</event>
<event>
 9    1  0.4369420E-036  0.9984292E+03  0.7818608E-02  0.8682535E-01
          1   -1    0    0  501    0  0.00000000000E+00  0.00000000000E+00  0.21049758614E+03  0.21049758614E+03  0.00000000000E+00 0.  1.
         -1   -1    0    0    0  501 -0.00000000000E+00 -0.00000000000E+00 -0.11839338959E+04  0.11839338959E+04  0.00000000000E+00 0.  1.
         36    2    1    2    0    0 -0.14210854715E-13 -0.28421709430E-13 -0.97343630981E+03  0.13944314821E+04  0.99842922081E+03 0.  0.
         25    2    3    3    0    0  0.44527854027E+02 -0.12883154500E+03 -0.18596470429E+03  0.26358777913E+03  0.12773155167E+03 0.  0.
         35    2    3    3    0    0 -0.44527854027E+02  0.12883154500E+03 -0.78747160551E+03  0.11308437030E+04  0.80007228064E+03 0.  0.
         22    1    5    5    0    0 -0.38585327177E+03  0.19643530787E+03 -0.28030958275E+03  0.51579360183E+03  0.00000000000E+00 0.  1.
         22    1    5    5    0    0  0.34132541774E+03 -0.67603762874E+02 -0.50716202277E+03  0.61505010112E+03  0.00000000000E+00 0.  1.
          5    1    4    4  502    0  0.85394394054E+01 -0.94151441428E+01 -0.12309275550E+03  0.12383651894E+03  0.47000000000E+01 0.  1.
         -5    1    4    4    0  502  0.35988414621E+02 -0.11941640085E+03 -0.62871948789E+02  0.13975126019E+03  0.47000000000E+01 0.  1.
<mgrwt>
<rscale>  0 0.99842922E+03</rscale>
<asrwt>0</asrwt>
<pdfrwt beam="1">  1        1 0.32384244E-01 0.99842922E+03</pdfrwt>
<pdfrwt beam="2">  1       -1 0.18214368E+00 0.99842922E+03</pdfrwt>
<totfact> 0.30670820E+01</totfact>
</mgrwt>
</event>
<event>
 9    1  0.4369420E-036  0.1000710E+04  0.7818608E-02  0.8680362E-01
          2   -1    0    0  501    0  0.00000000000E+00  0.00000000000E+00  0.49469518453E+03  0.49469518453E+03  0.00000000000E+00 0.  1.
         -2   -1    0    0    0  501 -0.00000000000E+00 -0.00000000000E+00 -0.50607927176E+03  0.50607927176E+03  0.00000000000E+00 0.  1.
         36    2    1    2    0    0  0.14210854715E-13 -0.30198066270E-13 -0.11384087226E+02  0.10007744563E+04  0.10007097056E+04 0.  0.
         25    2    3    3    0    0  0.60992151449E+02 -0.59327774508E+01 -0.12924466322E+03  0.19017854028E+03  0.12533337075E+03 0.  0.
         35    2    3    3    0    0 -0.60992151449E+02  0.59327774508E+01  0.11786057599E+03  0.81059591601E+03  0.79963703222E+03 0.  0.
         22    1    5    5    0    0  0.11482810280E+03 -0.35687638246E+03 -0.41272766287E+02  0.37716002809E+03  0.00000000000E+00 0.  1.
         22    1    5    5    0    0 -0.17582025425E+03  0.36280915991E+03  0.15913334228E+03  0.43343588793E+03  0.00000000000E+00 0.  1.
          5    1    4    4  502    0  0.95425469129E+02  0.34516882561E+01 -0.62126090085E+02  0.11401611895E+03  0.47000000000E+01 0.  1.
         -5    1    4    4    0  502 -0.34433317679E+02 -0.93844657069E+01 -0.67118573136E+02  0.76162421330E+02  0.47000000000E+01 0.  1.
<mgrwt>
<rscale>  0 0.10007097E+04</rscale>
<asrwt>0</asrwt>
<pdfrwt beam="1">  1        2 0.76106951E-01 0.10007097E+04</pdfrwt>
<pdfrwt beam="2">  1       -2 0.77858350E-01 0.10007097E+04</pdfrwt>
<totfact> 0.11050594E+02</totfact>
</mgrwt>
</event>
<event>
 9    1  0.4369420E-036  0.1001562E+04  0.7818608E-02  0.8679552E-01
          2   -1    0    0  501    0  0.00000000000E+00  0.00000000000E+00  0.81334223762E+03  0.81334223762E+03  0.00000000000E+00 0.  1.
         -2   -1    0    0    0  501 -0.00000000000E+00 -0.00000000000E+00 -0.30833466696E+03  0.30833466696E+03  0.00000000000E+00 0.  1.
         36    2    1    2    0    0  0.00000000000E+00 -0.71054273576E-14  0.50500757065E+03  0.11216769046E+04  0.10015619960E+04 0.  0.
         25    2    3    3    0    0  0.84745149244E+02  0.62674219456E+02 -0.17462281710E+02  0.16467458623E+03  0.12531157154E+03 0.  0.
         35    2    3    3    0    0 -0.84745149244E+02 -0.62674219456E+02  0.52246985236E+03  0.95700231835E+03  0.79483890984E+03 0.  0.
         22    1    5    5    0    0  0.10026426524E+02 -0.23005393745E+03  0.67392724442E+03  0.71218205126E+03  0.00000000000E+00 0. -1.
         22    1    5    5    0    0 -0.94771575768E+02  0.16737971799E+03 -0.15145739206E+03  0.24482026709E+03  0.00000000000E+00 0. -1.
          5    1    4    4  502    0  0.10821908667E+03  0.74746150235E+02 -0.30144130534E+02  0.13501524469E+03  0.47000000000E+01 0. -1.
         -5    1    4    4    0  502 -0.23473937421E+02 -0.12071930779E+02  0.12681848825E+02  0.29659341537E+02  0.47000000000E+01 0. -1.
<mgrwt>
<rscale>  0 0.10015620E+04</rscale>
<asrwt>0</asrwt>
<pdfrwt beam="1">  1        2 0.12512957E+00 0.10015620E+04</pdfrwt>
<pdfrwt beam="2">  1       -2 0.47436103E-01 0.10015620E+04</pdfrwt>
<totfact> 0.17175681E+02</totfact>
</mgrwt>
</event>
<event>
 9    1  0.4369420E-036  0.1000113E+04  0.7818608E-02  0.8680930E-01
          1   -1    0    0  501    0  0.00000000000E+00  0.00000000000E+00  0.18850616207E+04  0.18850616207E+04  0.00000000000E+00 0. -1.
         -1   -1    0    0    0  501 -0.00000000000E+00 -0.00000000000E+00 -0.13265161499E+03  0.13265161499E+03  0.00000000000E+00 0. -1.
         36    2    1    2    0    0  0.42632564146E-13  0.71054273576E-14  0.17524100057E+04  0.20177132357E+04  0.10001129303E+04 0.  0.
         25    2    3    3    0    0  0.12725564613E+03 -0.19942397513E+02  0.22594107415E+03  0.28866143682E+03  0.12523720464E+03 0.  0.
         35    2    3    3    0    0 -0.12725564613E+03  0.19942397513E+02  0.15264689316E+04  0.17290517989E+04  0.80182356255E+03 0.  0.
         22    1    5    5    0    0 -0.29102375498E+03 -0.16499456695E+03  0.22223362646E+03  0.40162895540E+03  0.00000000000E+00 0.  1.
         22    1    5    5    0    0  0.16376810885E+03  0.18493696447E+03  0.13042353051E+04  0.13274228435E+04  0.00000000000E+00 0.  1.
          5    1    4    4  502    0  0.14962574203E+03 -0.51432196510E+01  0.17089201904E+03  0.22724543463E+03  0.47000000000E+01 0.  1.
         -5    1    4    4    0  502 -0.22370095907E+02 -0.14799177862E+02  0.55049055111E+02  0.61416002189E+02  0.47000000000E+01 0.  1.
<mgrwt>
<rscale>  0 0.10001129E+04</rscale>
<asrwt>0</asrwt>
<pdfrwt beam="1">  1        1 0.29000946E+00 0.10001129E+04</pdfrwt>
<pdfrwt beam="2">  1       -1 0.20407942E-01 0.10001129E+04</pdfrwt>
<totfact> 0.74161067E+01</totfact>
</mgrwt>
</event>
<event>
 9    1  0.4369420E-036  0.1001174E+04  0.7818608E-02  0.8679921E-01
          2   -1    0    0  501    0  0.00000000000E+00  0.00000000000E+00  0.13164558881E+04  0.13164558881E+04  0.00000000000E+00 0. -1.
         -2   -1    0    0    0  501 -0.00000000000E+00 -0.00000000000E+00 -0.19034997154E+03  0.19034997154E+03  0.00000000000E+00 0. -1.
         36    2    1    2    0    0  0.14210854715E-13  0.28421709430E-13  0.11261059165E+04  0.15068058596E+04  0.10011739925E+04 0.  0.
         25    2    3    3    0    0  0.53707800774E+02  0.99849161345E+02  0.33875952156E+03  0.37840700561E+03  0.12481772937E+03 0.  0.
         35    2    3    3    0    0 -0.53707800774E+02 -0.99849161345E+02  0.78734639497E+03  0.11283988540E+04  0.80032196343E+03 0.  0.
         22    1    5    5    0    0  0.20787894230E+03  0.20980934043E+03  0.62587228713E+03  0.69206194360E+03  0.00000000000E+00 0.  1.
         22    1    5    5    0    0 -0.26158674308E+03 -0.30965850178E+03  0.16147410785E+03  0.43633691040E+03  0.00000000000E+00 0.  1.
          5    1    4    4  502    0  0.29099098615E+02 -0.21886050053E+02  0.37323031169E+02  0.52353179299E+02  0.47000000000E+01 0. -1.
         -5    1    4    4    0  502  0.24608702159E+02  0.12173521140E+03  0.30143649039E+03  0.32605382631E+03  0.47000000000E+01 0. -1.
<mgrwt>
<rscale>  0 0.10011740E+04</rscale>
<asrwt>0</asrwt>
<pdfrwt beam="1">  1        2 0.20253167E+00 0.10011740E+04</pdfrwt>
<pdfrwt beam="2">  1       -2 0.29284612E-01 0.10011740E+04</pdfrwt>
<totfact> 0.20831065E+02</totfact>
</mgrwt>
</event>
<event>
 9    1  0.4369420E-036  0.9994129E+03  0.7818608E-02  0.8681597E-01
         -2   -1    0    0    0  501 -0.00000000000E+00  0.00000000000E+00  0.29849622016E+03  0.29849622016E+03  0.00000000000E+00 0. -1.
          2   -1    0    0  501    0  0.00000000000E+00 -0.00000000000E+00 -0.83654832785E+03  0.83654832785E+03  0.00000000000E+00 0. -1.
         36    2    1    2    0    0  0.00000000000E+00 -0.71054273576E-14 -0.53805210769E+03  0.11350445480E+04  0.99941285533E+03 0.  0.
         25    2    3    3    0    0  0.51174846850E+02  0.56203132489E+02 -0.23070183965E+03  0.27322871315E+03  0.12511168539E+03 0.  0.
         35    2    3    3    0    0 -0.51174846850E+02 -0.56203132489E+02 -0.30735026804E+03  0.86181583487E+03  0.80155142624E+03 0.  0.
         22    1    5    5    0    0  0.18847685668E+02 -0.47647097158E+02  0.27270992599E+03  0.27748186401E+03  0.00000000000E+00 0.  1.
         22    1    5    5    0    0 -0.70022532518E+02 -0.85560353317E+01 -0.58006019403E+03  0.58433397086E+03  0.00000000000E+00 0.  1.
          5    1    4    4  502    0 -0.39845011832E+02  0.72232155548E+01 -0.87786133572E+02  0.96789953292E+02  0.47000000000E+01 0. -1.
         -5    1    4    4    0  502  0.91019858682E+02  0.48979916935E+02 -0.14291570608E+03  0.17643875986E+03  0.47000000000E+01 0. -1.
<mgrwt>
<rscale>  0 0.99941286E+03</rscale>
<asrwt>0</asrwt>
<pdfrwt beam="1">  1        2 0.12869974E+00 0.99941286E+03</pdfrwt>
<pdfrwt beam="2">  1       -2 0.45922496E-01 0.99941286E+03</pdfrwt>
<totfact> 0.17649007E+02</totfact>
</mgrwt>
</event>
<event>
 9    1  0.4369420E-036  0.9994735E+03  0.7818608E-02  0.8681539E-01
         -1   -1    0    0    0  501 -0.00000000000E+00  0.00000000000E+00  0.20794977654E+03  0.20794977654E+03  0.00000000000E+00 0. -1.
          1   -1    0    0  501    0  0.00000000000E+00 -0.00000000000E+00 -0.12009478676E+04  0.12009478676E+04  0.00000000000E+00 0. -1.
         36    2    1    2    0    0  0.71054273576E-14  0.28421709430E-13 -0.99299809108E+03  0.14088976442E+04  0.99947354284E+03 0.  0.
         25    2    3    3    0    0 -0.54757740435E+02 -0.11439081493E+03 -0.27101270575E+03  0.32406625358E+03  0.12444830795E+03 0.  0.
         35    2    3    3    0    0  0.54757740435E+02  0.11439081493E+03 -0.72198538533E+03  0.10848313906E+04  0.79969530491E+03 0.  0.
         22    1    5    5    0    0  0.94786171655E+02  0.45074297941E+03 -0.50014879829E+03  0.67992828464E+03  0.00000000000E+00 0. -1.
         22    1    5    5    0    0 -0.40028431220E+02 -0.33635216448E+03 -0.22183658704E+03  0.40490310595E+03  0.00000000000E+00 0. -1.
          5    1    4    4  502    0 -0.36371727801E+02 -0.13753535034E+03 -0.24935679706E+03  0.28712327913E+03  0.47000000000E+01 0. -1.
         -5    1    4    4    0  502 -0.18386012634E+02  0.23144535410E+02 -0.21655908688E+02  0.36942974447E+02  0.47000000000E+01 0. -1.
<mgrwt>
<rscale>  0 0.99947354E+03</rscale>
<asrwt>0</asrwt>
<pdfrwt beam="1">  1        1 0.18476121E+00 0.99947354E+03</pdfrwt>
<pdfrwt beam="2">  1       -1 0.31992273E-01 0.99947354E+03</pdfrwt>
<totfact> 0.10712015E+02</totfact>
</mgrwt>
</event>
<event>
 9    1  0.4369420E-036  0.1000302E+04  0.7818608E-02  0.8680751E-01
          2   -1    0    0  501    0  0.00000000000E+00  0.00000000000E+00  0.65898502173E+03  0.65898502173E+03  0.00000000000E+00 0. -1.
         -2   -1    0    0    0  501 -0.00000000000E+00 -0.00000000000E+00 -0.37960025022E+03  0.37960025022E+03  0.00000000000E+00 0. -1.
         36    2    1    2    0    0 -0.71054273576E-14 -0.21316282073E-13  0.27938477151E+03  0.10385852719E+04  0.10003017128E+04 0.  0.
         25    2    3    3    0    0  0.33228219883E+02  0.40566086107E+02  0.18667570510E+03  0.23166100448E+03  0.12676466457E+03 0.  0.
         35    2    3    3    0    0 -0.33228219883E+02 -0.40566086107E+02  0.92709066418E+02  0.80692426747E+03  0.79986378871E+03 0.  0.
         22    1    5    5    0    0 -0.19585089553E+02 -0.39681408484E+03 -0.88455563786E+02  0.40702503661E+03  0.00000000000E+00 0.  1.
         22    1    5    5    0    0 -0.13643130330E+02  0.35624799873E+03  0.18116463020E+03  0.39989923086E+03  0.00000000000E+00 0.  1.
          5    1    4    4  502    0  0.57754352104E+02  0.14255245721E+02  0.18604474694E+03  0.19538043679E+03  0.47000000000E+01 0.  1.
         -5    1    4    4    0  502 -0.24526132221E+02  0.26310840386E+02  0.63095815750E+00  0.36280567688E+02  0.47000000000E+01 0.  1.
<mgrwt>
<rscale>  0 0.10003017E+04</rscale>
<asrwt>0</asrwt>
<pdfrwt beam="1">  1        2 0.10138231E+00 0.10003017E+04</pdfrwt>
<pdfrwt beam="2">  1       -2 0.58400039E-01 0.10003017E+04</pdfrwt>
<totfact> 0.14665429E+02</totfact>
</mgrwt>
</event>
<event>
 9    1  0.4369420E-036  0.9996776E+03  0.7818608E-02  0.8681345E-01
          1   -1    0    0  501    0  0.00000000000E+00  0.00000000000E+00  0.31496600971E+03  0.31496600971E+03  0.00000000000E+00 0.  1.
         -1   -1    0    0    0  501 -0.00000000000E+00 -0.00000000000E+00 -0.79322468315E+03  0.79322468315E+03  0.00000000000E+00 0.  1.
         36    2    1    2    0    0 -0.14210854715E-13  0.00000000000E+00 -0.47825867344E+03  0.11081906929E+04  0.99967757453E+03 0.  0.
         25    2    3    3    0    0  0.10884146004E+03  0.26072759229E+02  0.34284165453E+01  0.16827132649E+03  0.12560745631E+03 0.  0.
         35    2    3    3    0    0 -0.10884146004E+03 -0.26072759229E+02 -0.48168708999E+03  0.93991936637E+03  0.79931202319E+03 0.  0.
         22    1    5    5    0    0 -0.32436938330E+03 -0.29283626025E+02  0.82485256522E+02  0.33597149450E+03  0.00000000000E+00 0.  1.
         22    1    5    5    0    0  0.21552792325E+03  0.32108667957E+01 -0.56417234651E+03  0.60394787187E+03  0.00000000000E+00 0.  1.
          5    1    4    4  502    0  0.11792492944E+03  0.39353641455E+02  0.37806186537E+02  0.13002459698E+03  0.47000000000E+01 0.  1.
         -5    1    4    4    0  502 -0.90834693926E+01 -0.13280882226E+02 -0.34377769992E+02  0.38246729514E+02  0.47000000000E+01 0.  1.
<mgrwt>
<rscale>  0 0.99967757E+03</rscale>
<asrwt>0</asrwt>
<pdfrwt beam="1">  1        1 0.48456309E-01 0.99967757E+03</pdfrwt>
<pdfrwt beam="2">  1       -1 0.12203457E+00 0.99967757E+03</pdfrwt>
<totfact> 0.58708535E+01</totfact>
</mgrwt>
</event>
<event>
 9    1  0.4369420E-036  0.9994211E+03  0.7818608E-02  0.8681589E-01
          1   -1    0    0  501    0  0.00000000000E+00  0.00000000000E+00  0.77282283037E+03  0.77282283037E+03  0.00000000000E+00 0. -1.
         -1   -1    0    0    0  501 -0.00000000000E+00 -0.00000000000E+00 -0.32311500412E+03  0.32311500412E+03  0.00000000000E+00 0. -1.
         36    2    1    2    0    0  0.14210854715E-13  0.00000000000E+00  0.44970782625E+03  0.10959378345E+04  0.99942113649E+03 0.  0.
         25    2    3    3    0    0 -0.80283787868E+02 -0.74536419454E+01 -0.42777789847E+02  0.15437255396E+03  0.12449860537E+03 0.  0.
         35    2    3    3    0    0  0.80283787868E+02  0.74536419454E+01  0.49248561610E+03  0.94156528052E+03  0.79843725618E+03 0.  0.
         22    1    5    5    0    0 -0.12624979119E+03 -0.45669371456E+02 -0.18654517713E+03  0.22983429765E+03  0.00000000000E+00 0.  1.
         22    1    5    5    0    0  0.20653357906E+03  0.53123013402E+02  0.67903079323E+03  0.71173098288E+03  0.00000000000E+00 0.  1.
          5    1    4    4  502    0 -0.13245109208E+02  0.52651851267E+02 -0.32938961518E+02  0.63676648354E+02  0.47000000000E+01 0.  1.
         -5    1    4    4    0  502 -0.67038678661E+02 -0.60105493212E+02 -0.98388283289E+01  0.90695905606E+02  0.47000000000E+01 0.  1.
<mgrwt>
<rscale>  0 0.99942114E+03</rscale>
<asrwt>0</asrwt>
<pdfrwt beam="1">  1        1 0.11889582E+00 0.99942114E+03</pdfrwt>
<pdfrwt beam="2">  1       -1 0.49710001E-01 0.99942114E+03</pdfrwt>
<totfact> 0.10827036E+02</totfact>
</mgrwt>
</event>
<event>
 9    1  0.4369420E-036  0.1000265E+04  0.7818608E-02  0.8680785E-01
         -2   -1    0    0    0  501 -0.00000000000E+00  0.00000000000E+00  0.16378991197E+03  0.16378991197E+03  0.00000000000E+00 0. -1.
          2   -1    0    0  501    0  0.00000000000E+00 -0.00000000000E+00 -0.15271551872E+04  0.15271551872E+04  0.00000000000E+00 0. -1.
         36    2    1    2    0    0  0.00000000000E+00  0.14210854715E-13 -0.13633652752E+04  0.16909450991E+04  0.10002651922E+04 0.  0.
         25    2    3    3    0    0  0.59263548789E+02 -0.12072661416E+03 -0.19742588609E+03  0.26968952918E+03  0.12517339201E+03 0.  0.
         35    2    3    3    0    0 -0.59263548789E+02  0.12072661416E+03 -0.11659393891E+04  0.14212555700E+04  0.80153955142E+03 0.  0.
         22    1    5    5    0    0 -0.82532957295E+02 -0.27056730837E+03 -0.91039326612E+03  0.95332798993E+03  0.00000000000E+00 0.  1.
         22    1    5    5    0    0  0.23269408505E+02  0.39129392252E+03 -0.25554612299E+03  0.46792758003E+03  0.00000000000E+00 0.  1.
          5    1    4    4  502    0  0.17017292532E+02 -0.44719672401E+02  0.59574712949E+01  0.48446040178E+02  0.47000000000E+01 0.  1.
         -5    1    4    4    0  502  0.42246256258E+02 -0.76006941757E+02 -0.20338335739E+03  0.22124348900E+03  0.47000000000E+01 0.  1.
<mgrwt>
<rscale>  0 0.10002652E+04</rscale>
<asrwt>0</asrwt>
<pdfrwt beam="1">  1        2 0.23494695E+00 0.10002652E+04</pdfrwt>
<pdfrwt beam="2">  1       -2 0.25198449E-01 0.10002652E+04</pdfrwt>
<totfact> 0.20686149E+02</totfact>
</mgrwt>
</event>
<event>
 9    1  0.4369420E-036  0.1000734E+04  0.7818608E-02  0.8680340E-01
         -2   -1    0    0    0  501 -0.00000000000E+00  0.00000000000E+00  0.23818093915E+03  0.23818093915E+03  0.00000000000E+00 0.  1.
          2   -1    0    0  501    0  0.00000000000E+00 -0.00000000000E+00 -0.10511629243E+04  0.10511629243E+04  0.00000000000E+00 0.  1.
         36    2    1    2    0    0  0.14210854715E-13  0.42632564146E-13 -0.81298198514E+03  0.12893438634E+04  0.10007336759E+04 0.  0.
         25    2    3    3    0    0  0.11964867731E+03  0.47900109353E+02 -0.22796243099E+03  0.28994218964E+03  0.12445632540E+03 0.  0.
         35    2    3    3    0    0 -0.11964867731E+03 -0.47900109353E+02 -0.58501955415E+03  0.99940167380E+03  0.79996599952E+03 0.  0.
         22    1    5    5    0    0 -0.32158623940E+03 -0.32698534019E+03 -0.26766110178E+03  0.53101750204E+03  0.00000000000E+00 0.  1.
         22    1    5    5    0    0  0.20193756209E+03  0.27908523084E+03 -0.31735845237E+03  0.46838417175E+03  0.00000000000E+00 0.  1.
          5    1    4    4  502    0 -0.42756031761E+01  0.63988860002E+01 -0.12006465984E+03  0.12040282001E+03  0.47000000000E+01 0.  1.
         -5    1    4    4    0  502  0.12392428049E+03  0.41501223352E+02 -0.10789777115E+03  0.16953936963E+03  0.47000000000E+01 0.  1.
<mgrwt>
<rscale>  0 0.10007337E+04</rscale>
<asrwt>0</asrwt>
<pdfrwt beam="1">  1        2 0.16171737E+00 0.10007337E+04</pdfrwt>
<pdfrwt beam="2">  1       -2 0.36643222E-01 0.10007337E+04</pdfrwt>
<totfact> 0.19797746E+02</totfact>
</mgrwt>
</event>
<event>
 9    1  0.4369420E-036  0.9989908E+03  0.7818608E-02  0.8682000E-01
         -2   -1    0    0    0  501 -0.00000000000E+00  0.00000000000E+00  0.77737605353E+02  0.77737605353E+02  0.00000000000E+00 0. -1.
          2   -1    0    0  501    0  0.00000000000E+00 -0.00000000000E+00 -0.32094591671E+04  0.32094591671E+04  0.00000000000E+00 0. -1.
         36    2    1    2    0    0  0.28421709430E-13  0.35527136788E-14 -0.31317215618E+04  0.32871967725E+04  0.99899083105E+03 0.  0.
         25    2    3    3    0    0  0.13757233234E+03 -0.16129499546E+02 -0.57172335204E+03  0.60181746079E+03  0.12700534425E+03 0.  0.
         35    2    3    3    0    0 -0.13757233234E+03  0.16129499546E+02 -0.25599982097E+04  0.26853793117E+04  0.79905250541E+03 0.  0.
         22    1    5    5    0    0  0.19966538038E+02 -0.23529326464E+02  0.56214474883E+02  0.64127677578E+02  0.00000000000E+00 0.  1.
         22    1    5    5    0    0 -0.15753887038E+03  0.39658826010E+02 -0.26162126846E+04  0.26212516341E+04  0.00000000000E+00 0.  1.
          5    1    4    4  502    0  0.13263961144E+03 -0.44066819355E+02 -0.33027232513E+03  0.35866007561E+03  0.47000000000E+01 0.  1.
         -5    1    4    4    0  502  0.49327209038E+01  0.27937319809E+02 -0.24145102691E+03  0.24315738518E+03  0.47000000000E+01 0.  1.
<mgrwt>
<rscale>  0 0.99899083E+03</rscale>
<asrwt>0</asrwt>
<pdfrwt beam="1">  1        2 0.49376300E+00 0.99899083E+03</pdfrwt>
<pdfrwt beam="2">  1       -2 0.11959630E-01 0.99899083E+03</pdfrwt>
<totfact> 0.70093617E+01</totfact>
</mgrwt>
</event>
<event>
 9    1  0.4369420E-036  0.1000020E+04  0.7818608E-02  0.8681019E-01
         -2   -1    0    0    0  501 -0.00000000000E+00  0.00000000000E+00  0.10511359017E+03  0.10511359017E+03  0.00000000000E+00 0.  1.
          2   -1    0    0  501    0  0.00000000000E+00 -0.00000000000E+00 -0.23784733286E+04  0.23784733286E+04  0.00000000000E+00 0.  1.
         36    2    1    2    0    0  0.71054273576E-14  0.00000000000E+00 -0.22733597385E+04  0.24835869188E+04  0.10000197412E+04 0.  0.
         25    2    3    3    0    0  0.54000394005E+02  0.10300344501E+03 -0.23125324875E+03  0.28752643242E+03  0.12517041203E+03 0.  0.
         35    2    3    3    0    0 -0.54000394005E+02 -0.10300344501E+03 -0.20421064897E+04  0.21960604864E+04  0.79934785438E+03 0.  0.
         22    1    5    5    0    0 -0.10668641381E+02 -0.45353307223E+03 -0.10962608986E+04  0.11864206781E+04  0.00000000000E+00 0. -1.
         22    1    5    5    0    0 -0.43331752624E+02  0.35052962722E+03 -0.94584559109E+03  0.10096398083E+04  0.00000000000E+00 0. -1.
          5    1    4    4  502    0  0.14705457471E+02 -0.14611555174E+01  0.12158214772E+02  0.19705269380E+02  0.47000000000E+01 0. -1.
         -5    1    4    4    0  502  0.39294936533E+02  0.10446460053E+03 -0.24341146352E+03  0.26782116304E+03  0.47000000000E+01 0. -1.
<mgrwt>
<rscale>  0 0.10000197E+04</rscale>
<asrwt>0</asrwt>
<pdfrwt beam="1">  1        2 0.36591896E+00 0.10000197E+04</pdfrwt>
<pdfrwt beam="2">  1       -2 0.16171322E-01 0.10000197E+04</pdfrwt>
<totfact> 0.14522894E+02</totfact>
</mgrwt>
</event>
<event>
 9    1  0.4369420E-036  0.9930537E+03  0.7818608E-02  0.8687681E-01
          2   -1    0    0  501    0  0.00000000000E+00  0.00000000000E+00  0.81287937990E+03  0.81287937990E+03  0.00000000000E+00 0.  1.
         -2   -1    0    0    0  501 -0.00000000000E+00 -0.00000000000E+00 -0.30329090496E+03  0.30329090496E+03  0.00000000000E+00 0.  1.
         36    2    1    2    0    0  0.00000000000E+00 -0.14210854715E-13  0.50958847494E+03  0.11161702849E+04  0.99305372010E+03 0.  0.
         25    2    3    3    0    0  0.76859359808E+02  0.80100768023E+02  0.17367177327E+03  0.24131428171E+03  0.12548786196E+03 0.  0.
         35    2    3    3    0    0 -0.76859359808E+02 -0.80100768023E+02  0.33591670167E+03  0.87485600315E+03  0.80013092776E+03 0.  0.
         22    1    5    5    0    0 -0.10988007276E+03 -0.29812806800E+03 -0.14237895984E+03  0.34817487492E+03  0.00000000000E+00 0.  1.
         22    1    5    5    0    0  0.33020712948E+02  0.21802729998E+03  0.47829566151E+03  0.52668112823E+03  0.00000000000E+00 0.  1.
          5    1    4    4  502    0  0.54748868116E+02  0.96882922652E+02  0.18072521842E+03  0.21229091793E+03  0.47000000000E+01 0. -1.
         -5    1    4    4    0  502  0.22110491692E+02 -0.16782154629E+02 -0.70534451505E+01  0.29023363784E+02  0.47000000000E+01 0. -1.
<mgrwt>
<rscale>  0 0.99305372E+03</rscale>
<asrwt>0</asrwt>
<pdfrwt beam="1">  1        2 0.12505837E+00 0.99305372E+03</pdfrwt>
<pdfrwt beam="2">  1       -2 0.46660140E-01 0.99305372E+03</pdfrwt>
<totfact> 0.17760647E+02</totfact>
</mgrwt>
</event>
<event>
 9    1  0.4369420E-036  0.1009395E+04  0.7818608E-02  0.8672143E-01
          2   -1    0    0  501    0  0.00000000000E+00  0.00000000000E+00  0.56355629005E+03  0.56355629005E+03  0.00000000000E+00 0.  1.
         -2   -1    0    0    0  501 -0.00000000000E+00 -0.00000000000E+00 -0.45198558845E+03  0.45198558845E+03  0.00000000000E+00 0.  1.
         36    2    1    2    0    0  0.00000000000E+00  0.00000000000E+00  0.11157070160E+03  0.10155418785E+04  0.10093945143E+04 0.  0.
         25    2    3    3    0    0  0.14264447256E+03  0.46153428312E+02  0.39232747407E+01  0.19531631365E+03  0.12512188376E+03 0.  0.
         35    2    3    3    0    0 -0.14264447256E+03 -0.46153428312E+02  0.10764742686E+03  0.82022556485E+03  0.79918985493E+03 0.  0.
         22    1    5    5    0    0  0.32433936033E+03 -0.10840341546E+03  0.41220763216E+02  0.34445097251E+03  0.00000000000E+00 0.  1.
         22    1    5    5    0    0 -0.46698383289E+03  0.62249987144E+02  0.66426663642E+02  0.47577459234E+03  0.00000000000E+00 0.  1.
          5    1    4    4  502    0  0.15021679311E+03  0.56208877391E+02  0.32520383577E+02  0.16371984662E+03  0.47000000000E+01 0.  1.
         -5    1    4    4    0  502 -0.75723205502E+01 -0.10055449079E+02 -0.28597108836E+02  0.31596467026E+02  0.47000000000E+01 0.  1.
<mgrwt>
<rscale>  0 0.10093945E+04</rscale>
<asrwt>0</asrwt>
<pdfrwt beam="1">  1        2 0.86700968E-01 0.10093945E+04</pdfrwt>
<pdfrwt beam="2">  1       -2 0.69536244E-01 0.10093945E+04</pdfrwt>
<totfact> 0.12202330E+02</totfact>
</mgrwt>
</event>
<event>
 9    1  0.4369420E-036  0.9997866E+03  0.7818608E-02  0.8681241E-01
         -1   -1    0    0    0  501 -0.00000000000E+00  0.00000000000E+00  0.93197527645E+02  0.93197527645E+02  0.00000000000E+00 0. -1.
          1   -1    0    0  501    0  0.00000000000E+00 -0.00000000000E+00 -0.26813298881E+04  0.26813298881E+04  0.00000000000E+00 0. -1.
         36    2    1    2    0    0  0.00000000000E+00  0.28421709430E-13 -0.25881323604E+04  0.27745274157E+04  0.99978660997E+03 0.  0.
         25    2    3    3    0    0  0.56566507739E+02  0.48196322522E+02 -0.15726520053E+03  0.21437304862E+03  0.12530285462E+03 0.  0.
         35    2    3    3    0    0 -0.56566507739E+02 -0.48196322522E+02 -0.24308671599E+04  0.25601543671E+04  0.79984534691E+03 0.  0.
         22    1    5    5    0    0  0.97743842115E+02 -0.34774068820E+03 -0.18801344534E+04  0.19145190016E+04  0.00000000000E+00 0.  1.
         22    1    5    5    0    0 -0.15431034985E+03  0.29954436568E+03 -0.55073270653E+03  0.64563536545E+03  0.00000000000E+00 0.  1.
          5    1    4    4  502    0 -0.18328930365E+02  0.27795868726E+02  0.54174621482E+01  0.34058756623E+02  0.47000000000E+01 0. -1.
         -5    1    4    4    0  502  0.74895438104E+02  0.20400453796E+02 -0.16268266268E+03  0.18031429200E+03  0.47000000000E+01 0. -1.
<mgrwt>
<rscale>  0 0.99978661E+03</rscale>
<asrwt>0</asrwt>
<pdfrwt beam="1">  1        1 0.41251225E+00 0.99978661E+03</pdfrwt>
<pdfrwt beam="2">  1       -1 0.14338082E-01 0.99978661E+03</pdfrwt>
<totfact> 0.36412307E+01</totfact>
</mgrwt>
</event>
<event>
 9    1  0.4369420E-036  0.1000416E+04  0.7818608E-02  0.8680642E-01
          2   -1    0    0  501    0  0.00000000000E+00  0.00000000000E+00  0.71382032660E+03  0.71382032660E+03  0.00000000000E+00 0.  1.
         -2   -1    0    0    0  501 -0.00000000000E+00 -0.00000000000E+00 -0.35051981481E+03  0.35051981481E+03  0.00000000000E+00 0.  1.
         36    2    1    2    0    0  0.14210854715E-13 -0.28421709430E-13  0.36330051180E+03  0.10643401414E+04  0.10004162507E+04 0.  0.
         25    2    3    3    0    0 -0.40045340903E+02  0.87133499014E+02  0.17367669258E+03  0.23340023568E+03  0.12294795847E+03 0.  0.
         35    2    3    3    0    0  0.40045340903E+02 -0.87133499014E+02  0.18962381921E+03  0.83093990573E+03  0.80331068594E+03 0.  0.
         22    1    5    5    0    0 -0.33498825564E+03 -0.81149632530E+01  0.28055997967E+03  0.43703190529E+03  0.00000000000E+00 0. -1.
         22    1    5    5    0    0  0.37503359654E+03 -0.79018535761E+02 -0.90936160460E+02  0.39390800044E+03  0.00000000000E+00 0. -1.
          5    1    4    4  502    0 -0.34480168315E+02 -0.19403226768E+02  0.15932413631E+02  0.42910360289E+02  0.47000000000E+01 0. -1.
         -5    1    4    4    0  502 -0.55651725878E+01  0.10653672578E+03  0.15774427895E+03  0.19048987540E+03  0.47000000000E+01 0. -1.
<mgrwt>
<rscale>  0 0.10004163E+04</rscale>
<asrwt>0</asrwt>
<pdfrwt beam="1">  1        2 0.10981851E+00 0.10004163E+04</pdfrwt>
<pdfrwt beam="2">  1       -2 0.53926125E-01 0.10004163E+04</pdfrwt>
<totfact> 0.15667686E+02</totfact>
</mgrwt>
</event>
<event>
 9    1  0.4369420E-036  0.1000676E+04  0.7818608E-02  0.8680394E-01
         -2   -1    0    0    0  501 -0.00000000000E+00  0.00000000000E+00  0.37803125687E+03  0.37803125687E+03  0.00000000000E+00 0. -1.
          2   -1    0    0  501    0  0.00000000000E+00 -0.00000000000E+00 -0.66221543096E+03  0.66221543096E+03  0.00000000000E+00 0. -1.
         36    2    1    2    0    0 -0.28421709430E-13  0.00000000000E+00 -0.28418417409E+03  0.10402466878E+04  0.10006760349E+04 0.  0.
         25    2    3    3    0    0  0.40274522083E+02 -0.75013681706E+02 -0.17006713108E+03  0.22775381888E+03  0.12529917546E+03 0.  0.
         35    2    3    3    0    0 -0.40274522083E+02  0.75013681706E+02 -0.11411704302E+03  0.81249286895E+03  0.79992054169E+03 0.  0.
         22    1    5    5    0    0  0.24259675776E+03 -0.26220967651E+03 -0.10465793729E+03  0.37223700134E+03  0.00000000000E+00 0.  1.
         22    1    5    5    0    0 -0.28287127984E+03  0.33722335821E+03 -0.94591057260E+01  0.44025586761E+03  0.00000000000E+00 0.  1.
          5    1    4    4  502    0 -0.12206884486E+02  0.29104655061E+02 -0.56691070470E+02  0.65054257709E+02  0.47000000000E+01 0. -1.
         -5    1    4    4    0  502  0.52481406569E+02 -0.10411833677E+03 -0.11337606061E+03  0.16269956117E+03  0.47000000000E+01 0. -1.
<mgrwt>
<rscale>  0 0.10006760E+04</rscale>
<asrwt>0</asrwt>
<pdfrwt beam="1">  1        2 0.10187930E+00 0.10006760E+04</pdfrwt>
<pdfrwt beam="2">  1       -2 0.58158656E-01 0.10006760E+04</pdfrwt>
<totfact> 0.14704372E+02</totfact>
</mgrwt>
</event>
<event>
 9    1  0.4369420E-036  0.1012964E+04  0.7818608E-02  0.8668790E-01
         -1   -1    0    0    0  501 -0.00000000000E+00  0.00000000000E+00  0.60748273236E+03  0.60748273236E+03  0.00000000000E+00 0. -1.
          1   -1    0    0  501    0  0.00000000000E+00 -0.00000000000E+00 -0.42227370851E+03  0.42227370851E+03  0.00000000000E+00 0. -1.
         36    2    1    2    0    0  0.14210854715E-13  0.00000000000E+00  0.18520902385E+03  0.10297564409E+04  0.10129639406E+04 0.  0.
         25    2    3    3    0    0  0.11511096862E+03 -0.59750536302E+02  0.12750311576E+03  0.21937080559E+03  0.12266150225E+03 0.  0.
         35    2    3    3    0    0 -0.11511096862E+03  0.59750536302E+02  0.57705908090E+02  0.81038563528E+03  0.79785602985E+03 0.  0.
         22    1    5    5    0    0  0.82511597110E+02 -0.12577847886E+03  0.36848268102E+03  0.39800486883E+03  0.00000000000E+00 0.  1.
         22    1    5    5    0    0 -0.19762256573E+03  0.18552901516E+03 -0.31077677293E+03  0.41238076646E+03  0.00000000000E+00 0.  1.
          5    1    4    4  502    0  0.98048140794E+02 -0.17184234180E+02  0.13977892527E+03  0.17166529576E+03  0.47000000000E+01 0.  1.
         -5    1    4    4    0  502  0.17062827825E+02 -0.42566302121E+02 -0.12275809511E+02  0.47705509837E+02  0.47000000000E+01 0.  1.
<mgrwt>
<rscale>  0 0.10129639E+04</rscale>
<asrwt>0</asrwt>
<pdfrwt beam="1">  1        1 0.64965186E-01 0.10129639E+04</pdfrwt>
<pdfrwt beam="2">  1       -1 0.93458882E-01 0.10129639E+04</pdfrwt>
<totfact> 0.73840479E+01</totfact>
</mgrwt>
</event>
<event>
 9    1  0.4369420E-036  0.9995628E+03  0.7818608E-02  0.8681454E-01
          1   -1    0    0  501    0  0.00000000000E+00  0.00000000000E+00  0.80210743449E+03  0.80210743449E+03  0.00000000000E+00 0.  1.
         -1   -1    0    0    0  501 -0.00000000000E+00 -0.00000000000E+00 -0.31140645423E+03  0.31140645423E+03  0.00000000000E+00 0.  1.
         36    2    1    2    0    0  0.00000000000E+00  0.28421709430E-13  0.49070098026E+03  0.11135138887E+04  0.99956276859E+03 0.  0.
         25    2    3    3    0    0  0.11416926715E+03  0.80077811757E+02  0.10987574746E+03  0.21708194756E+03  0.12491923223E+03 0.  0.
         35    2    3    3    0    0 -0.11416926715E+03 -0.80077811757E+02  0.38082523280E+03  0.89643194116E+03  0.79944686484E+03 0.  0.
         22    1    5    5    0    0 -0.36332740553E+03 -0.25609617928E+03  0.38983357354E+03  0.59123791464E+03  0.00000000000E+00 0. -1.
         22    1    5    5    0    0  0.24915813838E+03  0.17601836752E+03 -0.90083407387E+01  0.30519402653E+03  0.00000000000E+00 0. -1.
          5    1    4    4  502    0  0.22055341833E+02  0.86866840817E+02  0.29261265500E+02  0.94395962814E+02  0.47000000000E+01 0. -1.
         -5    1    4    4    0  502  0.92113925314E+02 -0.67890290605E+01  0.80614481961E+02  0.12268598475E+03  0.47000000000E+01 0. -1.
<mgrwt>
<rscale>  0 0.99956277E+03</rscale>
<asrwt>0</asrwt>
<pdfrwt beam="1">  1        1 0.12340114E+00 0.99956277E+03</pdfrwt>
<pdfrwt beam="2">  1       -1 0.47908686E-01 0.99956277E+03</pdfrwt>
<totfact> 0.10912267E+02</totfact>
</mgrwt>
</event>
<event>
 9    1  0.4369420E-036  0.9995181E+03  0.7818608E-02  0.8681497E-01
          2   -1    0    0  501    0  0.00000000000E+00  0.00000000000E+00  0.10035395911E+04  0.10035395911E+04  0.00000000000E+00 0. -1.
         -2   -1    0    0    0  501 -0.00000000000E+00 -0.00000000000E+00 -0.24887815795E+03  0.24887815795E+03  0.00000000000E+00 0. -1.
         36    2    1    2    0    0  0.00000000000E+00  0.00000000000E+00  0.75466143310E+03  0.12524177490E+04  0.99951805357E+03 0.  0.
         25    2    3    3    0    0 -0.97026323468E+02 -0.58373420685E+02  0.41597415416E+02  0.17416611163E+03  0.12562613495E+03 0.  0.
         35    2    3    3    0    0  0.97026323468E+02  0.58373420685E+02  0.71306401769E+03  0.10782516374E+04  0.80084001930E+03 0.  0.
         22    1    5    5    0    0 -0.27889320905E+03 -0.20547061749E+03  0.35386190443E+03  0.49519475373E+03  0.00000000000E+00 0. -1.
         22    1    5    5    0    0  0.37591953252E+03  0.26384403818E+03  0.35920211325E+03  0.58305688366E+03  0.00000000000E+00 0. -1.
          5    1    4    4  502    0 -0.80929615297E+02  0.21269147326E+02  0.24341763303E+01  0.83845062314E+02  0.47000000000E+01 0.  1.
         -5    1    4    4    0  502 -0.16096708172E+02 -0.79642568011E+02  0.39163239086E+02  0.90321049313E+02  0.47000000000E+01 0.  1.
<mgrwt>
<rscale>  0 0.99951805E+03</rscale>
<asrwt>0</asrwt>
<pdfrwt beam="1">  1        2 0.15439070E+00 0.99951805E+03</pdfrwt>
<pdfrwt beam="2">  1       -2 0.38288948E-01 0.99951805E+03</pdfrwt>
<totfact> 0.19506276E+02</totfact>
</mgrwt>
</event>
<event>
 9    1  0.4369420E-036  0.1000003E+04  0.7818608E-02  0.8681035E-01
          2   -1    0    0  501    0  0.00000000000E+00  0.00000000000E+00  0.30354450401E+04  0.30354450401E+04  0.00000000000E+00 0.  1.
         -2   -1    0    0    0  501 -0.00000000000E+00 -0.00000000000E+00 -0.82360703742E+02  0.82360703742E+02  0.00000000000E+00 0.  1.
         36    2    1    2    0    0 -0.14210854715E-13 -0.14210854715E-13  0.29530843364E+04  0.31178057439E+04  0.10000027793E+04 0.  0.
         25    2    3    3    0    0  0.65353266220E+02  0.10534868867E+03  0.76125293394E+03  0.78134584554E+03  0.12500362115E+03 0.  0.
         35    2    3    3    0    0 -0.65353266220E+02 -0.10534868867E+03  0.21918314024E+04  0.23364598983E+04  0.79971905326E+03 0.  0.
         22    1    5    5    0    0  0.22548020341E+03  0.25860061210E+03  0.89851766013E+03  0.96179498038E+03  0.00000000000E+00 0. -1.
         22    1    5    5    0    0 -0.29083346963E+03 -0.36394930078E+03  0.12933137423E+04  0.13746649180E+04  0.00000000000E+00 0. -1.
          5    1    4    4  502    0  0.25806638330E+02  0.34807969816E+02  0.53658258177E+02  0.69129414978E+02  0.47000000000E+01 0.  1.
         -5    1    4    4    0  502  0.39546627890E+02  0.70540718858E+02  0.70759467577E+03  0.71221643057E+03  0.47000000000E+01 0.  1.
<mgrwt>
<rscale>  0 0.10000028E+04</rscale>
<asrwt>0</asrwt>
<pdfrwt beam="1">  1        2 0.46699146E+00 0.10000028E+04</pdfrwt>
<pdfrwt beam="2">  1       -2 0.12670880E-01 0.10000028E+04</pdfrwt>
<totfact> 0.83900698E+01</totfact>
</mgrwt>
</event>
<event>
 9    1  0.4369420E-036  0.1000246E+04  0.7818608E-02  0.8680804E-01
         -2   -1    0    0    0  501 -0.00000000000E+00  0.00000000000E+00  0.10202139379E+03  0.10202139379E+03  0.00000000000E+00 0.  1.
          2   -1    0    0  501    0  0.00000000000E+00 -0.00000000000E+00 -0.24516700385E+04  0.24516700385E+04  0.00000000000E+00 0.  1.
         36    2    1    2    0    0  0.00000000000E+00 -0.14210854715E-13 -0.23496486447E+04  0.25536914323E+04  0.10002455587E+04 0.  0.
         25    2    3    3    0    0 -0.75178121250E+02 -0.11440885045E+03 -0.34933468982E+03  0.39498405874E+03  0.12343640538E+03 0.  0.
         35    2    3    3    0    0  0.75178121250E+02  0.11440885045E+03 -0.20003139549E+04  0.21587073736E+04  0.80001279459E+03 0.  0.
         22    1    5    5    0    0  0.19011094077E+03  0.29509224572E+03 -0.35403732469E+03  0.49856196260E+03  0.00000000000E+00 0.  1.
         22    1    5    5    0    0 -0.11493281952E+03 -0.18068339527E+03 -0.16462766302E+04  0.16601454110E+04  0.00000000000E+00 0.  1.
          5    1    4    4  502    0 -0.64601412703E+02 -0.12564925997E+03 -0.20075829065E+03  0.24553423452E+03  0.47000000000E+01 0.  1.
         -5    1    4    4    0  502 -0.10576708547E+02  0.11240409527E+02 -0.14857639917E+03  0.14944982423E+03  0.47000000000E+01 0.  1.
<mgrwt>
<rscale>  0 0.10002456E+04</rscale>
<asrwt>0</asrwt>
<pdfrwt beam="1">  1        2 0.37717999E+00 0.10002456E+04</pdfrwt>
<pdfrwt beam="2">  1       -2 0.15695600E-01 0.10002456E+04</pdfrwt>
<totfact> 0.13804473E+02</totfact>
</mgrwt>
</event>
<event>
 9    1  0.4369420E-036  0.9999603E+03  0.7818608E-02  0.8681076E-01
         -2   -1    0    0    0  501 -0.00000000000E+00  0.00000000000E+00  0.31422719363E+03  0.31422719363E+03  0.00000000000E+00 0. -1.
          2   -1    0    0  501    0  0.00000000000E+00 -0.00000000000E+00 -0.79553957520E+03  0.79553957520E+03  0.00000000000E+00 0. -1.
         36    2    1    2    0    0 -0.14210854715E-13  0.56843418861E-13 -0.48131238157E+03  0.11097667688E+04  0.99996033548E+03 0.  0.
         25    2    3    3    0    0  0.42527963191E+02  0.12766951146E+03 -0.48904689608E+02  0.19075678833E+03  0.12604900563E+03 0.  0.
         35    2    3    3    0    0 -0.42527963191E+02 -0.12766951146E+03 -0.43240769196E+03  0.91900998049E+03  0.79968418790E+03 0.  0.
         22    1    5    5    0    0 -0.33423498859E+03  0.16153765637E+03 -0.32753395602E+03  0.49506154604E+03  0.00000000000E+00 0. -1.
         22    1    5    5    0    0  0.29170702539E+03 -0.28920716783E+03 -0.10487373594E+03  0.42394843446E+03  0.00000000000E+00 0. -1.
          5    1    4    4  502    0  0.70760962275E+02  0.12604866691E+03 -0.64230476701E+02  0.15824987946E+03  0.47000000000E+01 0.  1.
         -5    1    4    4    0  502 -0.28232999084E+02  0.16208445502E+01  0.15325787093E+02  0.32506908871E+02  0.47000000000E+01 0.  1.
<mgrwt>
<rscale>  0 0.99996034E+03</rscale>
<asrwt>0</asrwt>
<pdfrwt beam="1">  1        2 0.12239070E+00 0.99996034E+03</pdfrwt>
<pdfrwt beam="2">  1       -2 0.48342646E-01 0.99996034E+03</pdfrwt>
<totfact> 0.17024334E+02</totfact>
</mgrwt>
</event>
<event>
 9    1  0.4369420E-036  0.9997029E+03  0.7818608E-02  0.8681321E-01
          2   -1    0    0  501    0  0.00000000000E+00  0.00000000000E+00  0.63858147459E+03  0.63858147459E+03  0.00000000000E+00 0.  1.
         -2   -1    0    0    0  501 -0.00000000000E+00 -0.00000000000E+00 -0.39126009669E+03  0.39126009669E+03  0.00000000000E+00 0.  1.
         36    2    1    2    0    0  0.71054273576E-14 -0.28421709430E-13  0.24732137790E+03  0.10298415713E+04  0.99970285485E+03 0.  0.
         25    2    3    3    0    0  0.29919609100E+00 -0.75471580042E+02  0.16923153641E+03  0.22318164108E+03  0.12439727927E+03 0.  0.
         35    2    3    3    0    0 -0.29919609100E+00  0.75471580042E+02  0.78089841492E+02  0.80665993021E+03  0.79931606436E+03 0.  0.
         22    1    5    5    0    0  0.74816412306E+02 -0.22522801428E+03  0.33054028888E+03  0.40691772699E+03  0.00000000000E+00 0. -1.
         22    1    5    5    0    0 -0.75115608397E+02  0.30069959432E+03 -0.25245044738E+03  0.39974220322E+03  0.00000000000E+00 0. -1.
          5    1    4    4  502    0 -0.34219790625E+02 -0.83025647203E+02  0.59553830929E+02  0.10785639036E+03  0.47000000000E+01 0.  1.
         -5    1    4    4    0  502  0.34518986716E+02  0.75540671608E+01  0.10967770548E+03  0.11532525072E+03  0.47000000000E+01 0.  1.
<mgrwt>
<rscale>  0 0.99970285E+03</rscale>
<asrwt>0</asrwt>
<pdfrwt beam="1">  1        2 0.98243304E-01 0.99970285E+03</pdfrwt>
<pdfrwt beam="2">  1       -2 0.60193861E-01 0.99970285E+03</pdfrwt>
<totfact> 0.14303699E+02</totfact>
</mgrwt>
</event>
<event>
 9    1  0.4369420E-036  0.9988105E+03  0.7818608E-02  0.8682172E-01
          2   -1    0    0  501    0  0.00000000000E+00  0.00000000000E+00  0.46563702758E+03  0.46563702758E+03  0.00000000000E+00 0. -1.
         -2   -1    0    0    0  501 -0.00000000000E+00 -0.00000000000E+00 -0.53562238882E+03  0.53562238882E+03  0.00000000000E+00 0. -1.
         36    2    1    2    0    0 -0.14210854715E-13  0.00000000000E+00 -0.69985361240E+02  0.10012594164E+04  0.99881052666E+03 0.  0.
         25    2    3    3    0    0 -0.32343342460E+02  0.12226717929E+03 -0.82810300807E+02  0.19258836899E+03  0.11932048867E+03 0.  0.
         35    2    3    3    0    0  0.32343342460E+02 -0.12226717929E+03  0.12824939566E+02  0.80867104742E+03  0.79861694756E+03 0.  0.
         22    1    5    5    0    0 -0.16518951422E+03 -0.29097427999E+03  0.27980224449E+03  0.43616843449E+03  0.00000000000E+00 0.  1.
         22    1    5    5    0    0  0.19753285668E+03  0.16870710070E+03 -0.26697730492E+03  0.37250261293E+03  0.00000000000E+00 0.  1.
          5    1    4    4  502    0 -0.33119630650E+02  0.96502047159E+02  0.36947237899E+01  0.10220223101E+03  0.47000000000E+01 0. -1.
         -5    1    4    4    0  502  0.77628819069E+00  0.25765132131E+02 -0.86505024596E+02  0.90386137972E+02  0.47000000000E+01 0. -1.
<mgrwt>
<rscale>  0 0.99881053E+03</rscale>
<asrwt>0</asrwt>
<pdfrwt beam="1">  1        2 0.71636465E-01 0.99881053E+03</pdfrwt>
<pdfrwt beam="2">  1       -2 0.82403445E-01 0.99881053E+03</pdfrwt>
<totfact> 0.10395280E+02</totfact>
</mgrwt>
</event>
<event>
 9    1  0.4369420E-036  0.1002346E+04  0.7818608E-02  0.8678807E-01
          1   -1    0    0  501    0  0.00000000000E+00  0.00000000000E+00  0.87305379440E+03  0.87305379440E+03  0.00000000000E+00 0. -1.
         -1   -1    0    0    0  501 -0.00000000000E+00 -0.00000000000E+00 -0.28769646129E+03  0.28769646129E+03  0.00000000000E+00 0. -1.
         36    2    1    2    0    0  0.28421709430E-13  0.00000000000E+00  0.58535733311E+03  0.11607502557E+04  0.10023462219E+04 0.  0.
         25    2    3    3    0    0 -0.10974572709E+03  0.92383312667E+02  0.97005504773E+02  0.21358268287E+03  0.12501477269E+03 0.  0.
         35    2    3    3    0    0  0.10974572709E+03 -0.92383312667E+02  0.48835182834E+03  0.94716757282E+03  0.79878664340E+03 0.  0.
         22    1    5    5    0    0  0.27823759956E+03 -0.27008328209E+03 -0.14311038193E+02  0.38802828104E+03  0.00000000000E+00 0. -1.
         22    1    5    5    0    0 -0.16849187246E+03  0.17769996942E+03  0.50266286653E+03  0.55913929178E+03  0.00000000000E+00 0. -1.
          5    1    4    4  502    0 -0.12687592293E+01 -0.27852892714E+02  0.14157966671E+02  0.31621691966E+02  0.47000000000E+01 0. -1.
         -5    1    4    4    0  502 -0.10847696786E+03  0.12023620538E+03  0.82847538101E+02  0.18196099090E+03  0.47000000000E+01 0. -1.
<mgrwt>
<rscale>  0 0.10023462E+04</rscale>
<asrwt>0</asrwt>
<pdfrwt beam="1">  1        1 0.13431597E+00 0.10023462E+04</pdfrwt>
<pdfrwt beam="2">  1       -1 0.44260995E-01 0.10023462E+04</pdfrwt>
<totfact> 0.10945709E+02</totfact>
</mgrwt>
</event>
<event>
 9    1  0.4369420E-036  0.1000850E+04  0.7818608E-02  0.8680229E-01
          2   -1    0    0  501    0  0.00000000000E+00  0.00000000000E+00  0.17342853362E+04  0.17342853362E+04  0.00000000000E+00 0.  1.
         -2   -1    0    0    0  501 -0.00000000000E+00 -0.00000000000E+00 -0.14439669705E+03  0.14439669705E+03  0.00000000000E+00 0.  1.
         36    2    1    2    0    0  0.28421709430E-13  0.71054273576E-14  0.15898886391E+04  0.18786820332E+04  0.10008497875E+04 0.  0.
         25    2    3    3    0    0 -0.13452591826E+03 -0.44715252337E+02  0.31713083271E+03  0.36870954708E+03  0.12360456535E+03 0.  0.
         35    2    3    3    0    0  0.13452591826E+03  0.44715252337E+02  0.12727578064E+04  0.15099724861E+04  0.80000487413E+03 0.  0.
         22    1    5    5    0    0  0.42019096174E+03 -0.58441040396E+02  0.38938001953E+03  0.57584077586E+03  0.00000000000E+00 0.  1.
         22    1    5    5    0    0 -0.28566504348E+03  0.10315629273E+03  0.88337778687E+03  0.93413171027E+03  0.00000000000E+00 0.  1.
          5    1    4    4  502    0 -0.35939529211E+02  0.40941360395E+02  0.66854575770E+02  0.86368217837E+02  0.47000000000E+01 0. -1.
         -5    1    4    4    0  502 -0.98586389053E+02 -0.85656612732E+02  0.25027625694E+03  0.28234132925E+03  0.47000000000E+01 0. -1.
<mgrwt>
<rscale>  0 0.10008498E+04</rscale>
<asrwt>0</asrwt>
<pdfrwt beam="1">  1        2 0.26681311E+00 0.10008498E+04</pdfrwt>
<pdfrwt beam="2">  1       -2 0.22214878E-01 0.10008498E+04</pdfrwt>
<totfact> 0.19740405E+02</totfact>
</mgrwt>
</event>
<event>
 9    1  0.4369420E-036  0.1000751E+04  0.7818608E-02  0.8680323E-01
          1   -1    0    0  501    0  0.00000000000E+00  0.00000000000E+00  0.46128144679E+03  0.46128144679E+03  0.00000000000E+00 0.  1.
         -1   -1    0    0    0  501 -0.00000000000E+00 -0.00000000000E+00 -0.54278244963E+03  0.54278244963E+03  0.00000000000E+00 0.  1.
         36    2    1    2    0    0  0.42632564146E-13  0.00000000000E+00 -0.81501002833E+02  0.10040638964E+04  0.10007506656E+04 0.  0.
         25    2    3    3    0    0  0.12089909971E+03  0.55104278283E+02 -0.63470249421E+02  0.19312004879E+03  0.12495521954E+03 0.  0.
         35    2    3    3    0    0 -0.12089909971E+03 -0.55104278283E+02 -0.18030753412E+02  0.81094384763E+03  0.79978230922E+03 0.  0.
         22    1    5    5    0    0  0.18113964358E+03  0.26560195043E+03  0.12915254616E+03  0.34646261953E+03  0.00000000000E+00 0.  1.
         22    1    5    5    0    0 -0.30203874329E+03 -0.32070622871E+03 -0.14718329957E+03  0.46448122810E+03  0.00000000000E+00 0.  1.
          5    1    4    4  502    0  0.64814298991E+02  0.75503688776E+02  0.79429024938E+01  0.99934378831E+02  0.47000000000E+01 0.  1.
         -5    1    4    4    0  502  0.56084800719E+02 -0.20399410493E+02 -0.71413151915E+02  0.93185669963E+02  0.47000000000E+01 0.  1.
<mgrwt>
<rscale>  0 0.10007507E+04</rscale>
<asrwt>0</asrwt>
<pdfrwt beam="1">  1        1 0.70966377E-01 0.10007507E+04</pdfrwt>
<pdfrwt beam="2">  1       -1 0.83504992E-01 0.10007507E+04</pdfrwt>
<totfact> 0.83476934E+01</totfact>
</mgrwt>
</event>
<event>
 9    1  0.4369420E-036  0.1000269E+04  0.7818608E-02  0.8680782E-01
         -2   -1    0    0    0  501 -0.00000000000E+00  0.00000000000E+00  0.10667830048E+03  0.10667830048E+03  0.00000000000E+00 0. -1.
          2   -1    0    0  501    0  0.00000000000E+00 -0.00000000000E+00 -0.23447566742E+04  0.23447566742E+04  0.00000000000E+00 0. -1.
         36    2    1    2    0    0  0.28421709430E-13  0.42632564146E-13 -0.22380783737E+04  0.24514349747E+04  0.10002692778E+04 0.  0.
         25    2    3    3    0    0  0.10466606026E+03  0.86776692000E+02 -0.51143605857E+03  0.54359527913E+03  0.12427311473E+03 0.  0.
         35    2    3    3    0    0 -0.10466606026E+03 -0.86776692000E+02 -0.17266423152E+04  0.19078396955E+04  0.80004589929E+03 0.  0.
         22    1    5    5    0    0  0.18800026029E+03  0.28077122002E+03 -0.63286685647E+03  0.71742388716E+03  0.00000000000E+00 0. -1.
         22    1    5    5    0    0 -0.29266632055E+03 -0.36754791202E+03 -0.10937754587E+04  0.11904158084E+04  0.00000000000E+00 0. -1.
          5    1    4    4  502    0  0.77051591846E+02  0.11319384329E+03 -0.45571290740E+03  0.47586357072E+03  0.47000000000E+01 0. -1.
         -5    1    4    4    0  502  0.27614468419E+02 -0.26417151292E+02 -0.55723151163E+02  0.67731708409E+02  0.47000000000E+01 0. -1.
<mgrwt>
<rscale>  0 0.10002693E+04</rscale>
<asrwt>0</asrwt>
<pdfrwt beam="1">  1        2 0.36073180E+00 0.10002693E+04</pdfrwt>
<pdfrwt beam="2">  1       -2 0.16412046E-01 0.10002693E+04</pdfrwt>
<totfact> 0.14834193E+02</totfact>
</mgrwt>
</event>
<event>
 9    1  0.4369420E-036  0.1000915E+04  0.7818608E-02  0.8680167E-01
         -1   -1    0    0    0  501 -0.00000000000E+00  0.00000000000E+00  0.76783646851E+03  0.76783646851E+03  0.00000000000E+00 0. -1.
          1   -1    0    0  501    0  0.00000000000E+00 -0.00000000000E+00 -0.32618641759E+03  0.32618641759E+03  0.00000000000E+00 0. -1.
         36    2    1    2    0    0  0.00000000000E+00  0.21316282073E-13  0.44165005092E+03  0.10940228861E+04  0.10009152351E+04 0.  0.
         25    2    3    3    0    0  0.13525520548E+03  0.11358434827E+02  0.42655446102E+02  0.18990886092E+03  0.12578912401E+03 0.  0.
         35    2    3    3    0    0 -0.13525520548E+03 -0.11358434827E+02  0.39899460482E+03  0.90411402518E+03  0.79987654748E+03 0.  0.
         22    1    5    5    0    0  0.22171535263E+03 -0.24893433254E+03  0.33133222016E+03  0.47000748891E+03  0.00000000000E+00 0.  1.
         22    1    5    5    0    0 -0.35697055812E+03  0.23757589771E+03  0.67662384657E+02  0.43410653627E+03  0.00000000000E+00 0.  1.
          5    1    4    4  502    0  0.13488789349E+03  0.51620858371E+02  0.34291426891E+02  0.14851750330E+03  0.47000000000E+01 0.  1.
         -5    1    4    4    0  502  0.36731199495E+00 -0.40262423543E+02  0.83640192114E+01  0.41391357613E+02  0.47000000000E+01 0.  1.
<mgrwt>
<rscale>  0 0.10009152E+04</rscale>
<asrwt>0</asrwt>
<pdfrwt beam="1">  1        1 0.50182526E-01 0.10009152E+04</pdfrwt>
<pdfrwt beam="2">  1       -1 0.11812869E+00 0.10009152E+04</pdfrwt>
<totfact> 0.60773700E+01</totfact>
</mgrwt>
</event>
<event>
 9    1  0.4369420E-036  0.1000231E+04  0.7818608E-02  0.8680818E-01
         -1   -1    0    0    0  501 -0.00000000000E+00  0.00000000000E+00  0.22384492019E+03  0.22384492019E+03  0.00000000000E+00 0. -1.
          1   -1    0    0  501    0  0.00000000000E+00 -0.00000000000E+00 -0.11173596037E+04  0.11173596037E+04  0.00000000000E+00 0. -1.
         36    2    1    2    0    0 -0.28421709430E-13 -0.71054273576E-14 -0.89351468354E+03  0.13412045239E+04  0.10002305161E+04 0.  0.
         25    2    3    3    0    0  0.71346702327E+02 -0.63996692265E+02 -0.29218561080E+02  0.15869226327E+03  0.12305926034E+03 0.  0.
         35    2    3    3    0    0 -0.71346702327E+02  0.63996692265E+02 -0.86429612246E+03  0.11825122606E+04  0.80133733890E+03 0.  0.
         22    1    5    5    0    0  0.31850523901E+03 -0.50464996881E+02 -0.64423403981E+03  0.72043722922E+03  0.00000000000E+00 0.  1.
         22    1    5    5    0    0 -0.38985194134E+03  0.11446168915E+03 -0.22006208264E+03  0.46207503142E+03  0.00000000000E+00 0.  1.
          5    1    4    4  502    0 -0.12211146407E+02 -0.17004959583E+02 -0.55228615401E+02  0.59250069250E+02  0.47000000000E+01 0. -1.
         -5    1    4    4    0  502  0.83557848734E+02 -0.46991732682E+02  0.26010054321E+02  0.99442194019E+02  0.47000000000E+01 0. -1.
<mgrwt>
<rscale>  0 0.10002305E+04</rscale>
<asrwt>0</asrwt>
<pdfrwt beam="1">  1        1 0.17190148E+00 0.10002305E+04</pdfrwt>
<pdfrwt beam="2">  1       -1 0.34437680E-01 0.10002305E+04</pdfrwt>
<totfact> 0.10901979E+02</totfact>
</mgrwt>
</event>
<event>
 9    1  0.4369420E-036  0.1000639E+04  0.7818608E-02  0.8680430E-01
          2   -1    0    0  501    0  0.00000000000E+00  0.00000000000E+00  0.24498067538E+04  0.24498067538E+04  0.00000000000E+00 0. -1.
         -2   -1    0    0    0  501 -0.00000000000E+00 -0.00000000000E+00 -0.10217932137E+03  0.10217932137E+03  0.00000000000E+00 0. -1.
         36    2    1    2    0    0 -0.21316282073E-13  0.56843418861E-13  0.23476274324E+04  0.25519860751E+04  0.10006389790E+04 0.  0.
         25    2    3    3    0    0 -0.48285978227E+02  0.12786573947E+03  0.53639927906E+03  0.56715835994E+03  0.12354446833E+03 0.  0.
         35    2    3    3    0    0  0.48285978227E+02 -0.12786573947E+03  0.18112281533E+04  0.19848277152E+04  0.80019525898E+03 0.  0.
         22    1    5    5    0    0 -0.82017395417E+02  0.16265518634E+03  0.15820957379E+04  0.15925484253E+04  0.00000000000E+00 0.  1.
         22    1    5    5    0    0  0.13030337364E+03 -0.29052092581E+03  0.22913241541E+03  0.39227928993E+03  0.00000000000E+00 0.  1.
          5    1    4    4  502    0 -0.13875786991E+02  0.27384063965E+02  0.14027391397E+02  0.34077589898E+02  0.47000000000E+01 0.  1.
         -5    1    4    4    0  502 -0.34410191236E+02  0.10048167550E+03  0.52237188766E+03  0.53308077004E+03  0.47000000000E+01 0.  1.
<mgrwt>
<rscale>  0 0.10006390E+04</rscale>
<asrwt>0</asrwt>
<pdfrwt beam="1">  1        2 0.37689330E+00 0.10006390E+04</pdfrwt>
<pdfrwt beam="2">  1       -2 0.15719897E-01 0.10006390E+04</pdfrwt>
<totfact> 0.13804129E+02</totfact>
</mgrwt>
</event>
<event>
 9    1  0.4369420E-036  0.1000247E+04  0.7818608E-02  0.8680803E-01
          2   -1    0    0  501    0  0.00000000000E+00  0.00000000000E+00  0.94749115691E+03  0.94749115691E+03  0.00000000000E+00 0. -1.
         -2   -1    0    0    0  501 -0.00000000000E+00 -0.00000000000E+00 -0.26398497961E+03  0.26398497961E+03  0.00000000000E+00 0. -1.
         36    2    1    2    0    0  0.14210854715E-13  0.14210854715E-13  0.68350617730E+03  0.12114761365E+04  0.10002468370E+04 0.  0.
         25    2    3    3    0    0  0.58088355528E+02  0.11763561919E+03  0.75141494720E+02  0.19705424295E+03  0.12637932776E+03 0.  0.
         35    2    3    3    0    0 -0.58088355528E+02 -0.11763561919E+03  0.60836468258E+03  0.10144218936E+04  0.80108164077E+03 0.  0.
         22    1    5    5    0    0 -0.30765333795E+03 -0.30592512681E+03  0.54297943106E+03  0.69503051884E+03  0.00000000000E+00 0. -1.
         22    1    5    5    0    0  0.24956498242E+03  0.18828950762E+03  0.65385251519E+02  0.31939137472E+03  0.00000000000E+00 0. -1.
          5    1    4    4  502    0 -0.35246939416E+02  0.53260154193E+01  0.12222260062E+02  0.37976134868E+02  0.47000000000E+01 0. -1.
         -5    1    4    4    0  502  0.93335294944E+02  0.11230960377E+03  0.62919234658E+02  0.15907810808E+03  0.47000000000E+01 0. -1.
<mgrwt>
<rscale>  0 0.10002468E+04</rscale>
<asrwt>0</asrwt>
<pdfrwt beam="1">  1        2 0.14576787E+00 0.10002468E+04</pdfrwt>
<pdfrwt beam="2">  1       -2 0.40613074E-01 0.10002468E+04</pdfrwt>
<totfact> 0.18919169E+02</totfact>
</mgrwt>
</event>
<event>
 9    1  0.4369420E-036  0.1000417E+04  0.7818608E-02  0.8680641E-01
          4   -1    0    0  501    0  0.00000000000E+00  0.00000000000E+00  0.31293357053E+03  0.31293357053E+03  0.00000000000E+00 0. -1.
         -4   -1    0    0    0  501 -0.00000000000E+00 -0.00000000000E+00 -0.79955753364E+03  0.79955753364E+03  0.00000000000E+00 0. -1.
         36    2    1    2    0    0  0.28421709430E-13  0.00000000000E+00 -0.48662396312E+03  0.11124911042E+04  0.10004167009E+04 0.  0.
         25    2    3    3    0    0 -0.36844727049E+02 -0.74621229837E+02  0.33721186150E+02  0.15424026718E+03  0.12540765435E+03 0.  0.
         35    2    3    3    0    0  0.36844727049E+02  0.74621229837E+02 -0.52034514927E+03  0.95825083700E+03  0.80034975503E+03 0.  0.
         22    1    5    5    0    0  0.38688942484E+03  0.10593436858E+03 -0.10593274462E+03  0.41488222893E+03  0.00000000000E+00 0. -1.
         22    1    5    5    0    0 -0.35004469779E+03 -0.31313138742E+02 -0.41441240464E+03  0.54336860806E+03  0.00000000000E+00 0. -1.
          5    1    4    4  502    0  0.14139624816E+02 -0.90540138549E+02  0.40304072504E+02  0.10021952873E+03  0.47000000000E+01 0. -1.
         -5    1    4    4    0  502 -0.50984351865E+02  0.15918908711E+02 -0.65828863542E+01  0.54020738448E+02  0.47000000000E+01 0. -1.
<mgrwt>
<rscale>  0 0.10004167E+04</rscale>
<asrwt>0</asrwt>
<pdfrwt beam="1">  1        4 0.48143627E-01 0.10004167E+04</pdfrwt>
<pdfrwt beam="2">  1       -4 0.12300885E+00 0.10004167E+04</pdfrwt>
<totfact> 0.44512222E+00</totfact>
</mgrwt>
</event>
<event>
 9    1  0.4369420E-036  0.1000782E+04  0.7818608E-02  0.8680294E-01
          2   -1    0    0  501    0  0.00000000000E+00  0.00000000000E+00  0.17260471989E+04  0.17260471989E+04  0.00000000000E+00 0. -1.
         -2   -1    0    0    0  501 -0.00000000000E+00 -0.00000000000E+00 -0.14506617315E+03  0.14506617315E+03  0.00000000000E+00 0. -1.
         36    2    1    2    0    0  0.71054273576E-14  0.28421709430E-13  0.15809810258E+04  0.18711133721E+04  0.10007818180E+04 0.  0.
         25    2    3    3    0    0 -0.49485091578E+02  0.13623560438E+03  0.24004223928E+03  0.30263386544E+03  0.11383349982E+03 0.  0.
         35    2    3    3    0    0  0.49485091578E+02 -0.13623560438E+03  0.13409387865E+04  0.15684795067E+04  0.80062614210E+03 0.  0.
         22    1    5    5    0    0 -0.14491763255E+03 -0.43222051544E+03  0.68027339772E+03  0.81889412614E+03  0.00000000000E+00 0. -1.
         22    1    5    5    0    0  0.19440272412E+03  0.29598491105E+03  0.66066538880E+03  0.74958538051E+03  0.00000000000E+00 0. -1.
          5    1    4    4  502    0 -0.29170163008E+02  0.12158802670E+03  0.24641773028E+03  0.27636630482E+03  0.47000000000E+01 0. -1.
         -5    1    4    4    0  502 -0.20314928570E+02  0.14647577687E+02 -0.63754910044E+01  0.26267560611E+02  0.47000000000E+01 0. -1.
<mgrwt>
<rscale>  0 0.10007818E+04</rscale>
<asrwt>0</asrwt>
<pdfrwt beam="1">  1        2 0.26554571E+00 0.10007818E+04</pdfrwt>
<pdfrwt beam="2">  1       -2 0.22317874E-01 0.10007818E+04</pdfrwt>
<totfact> 0.19791437E+02</totfact>
</mgrwt>
</event>
<event>
 9    1  0.4369420E-036  0.9996847E+03  0.7818608E-02  0.8681338E-01
         -1   -1    0    0    0  501 -0.00000000000E+00  0.00000000000E+00  0.59848719073E+03  0.59848719073E+03  0.00000000000E+00 0.  1.
          1   -1    0    0  501    0  0.00000000000E+00 -0.00000000000E+00 -0.41745650119E+03  0.41745650119E+03  0.00000000000E+00 0.  1.
         36    2    1    2    0    0 -0.14210854715E-13  0.00000000000E+00  0.18103068954E+03  0.10159436919E+04  0.99968468759E+03 0.  0.
         25    2    3    3    0    0  0.68820279060E+02  0.96980967290E+02  0.10564343052E+03  0.20226968554E+03  0.12494379716E+03 0.  0.
         35    2    3    3    0    0 -0.68820279060E+02 -0.96980967290E+02  0.75387259011E+02  0.81367400638E+03  0.80139915836E+03 0.  0.
         22    1    5    5    0    0  0.16074018845E+03 -0.22790948363E+03 -0.26366372115E+03  0.38379512602E+03  0.00000000000E+00 0.  1.
         22    1    5    5    0    0 -0.22956046751E+03  0.13092851634E+03  0.33905098016E+03  0.42987888036E+03  0.00000000000E+00 0.  1.
          5    1    4    4  502    0 -0.13121397331E+02 -0.20708314914E+02  0.15592718204E+01  0.25010531844E+02  0.47000000000E+01 0.  1.
         -5    1    4    4    0  502  0.81941676391E+02  0.11768928220E+03  0.10408415870E+03  0.17725915370E+03  0.47000000000E+01 0.  1.
<mgrwt>
<rscale>  0 0.99968469E+03</rscale>
<asrwt>0</asrwt>
<pdfrwt beam="1">  1        1 0.64224077E-01 0.99968469E+03</pdfrwt>
<pdfrwt beam="2">  1       -1 0.92074952E-01 0.99968469E+03</pdfrwt>
<totfact> 0.77567178E+01</totfact>
</mgrwt>
</event>
<event>
 9    1  0.4369420E-036  0.1000466E+04  0.7818608E-02  0.8680595E-01
          2   -1    0    0  501    0  0.00000000000E+00  0.00000000000E+00  0.14919701108E+04  0.14919701108E+04  0.00000000000E+00 0. -1.
         -2   -1    0    0    0  501 -0.00000000000E+00 -0.00000000000E+00 -0.16771981127E+03  0.16771981127E+03  0.00000000000E+00 0. -1.
         36    2    1    2    0    0  0.35527136788E-14  0.00000000000E+00  0.13242502996E+04  0.16596899221E+04  0.10004657823E+04 0.  0.
         25    2    3    3    0    0  0.15142771534E+02  0.13203742951E+03  0.17348835686E+03  0.25180768767E+03  0.12508283369E+03 0.  0.
         35    2    3    3    0    0 -0.15142771534E+02 -0.13203742951E+03  0.11507619427E+04  0.14078822344E+04  0.80013508294E+03 0.  0.
         22    1    5    5    0    0 -0.16193799108E+03 -0.35259939109E+03  0.23288662947E+03  0.45253334213E+03  0.00000000000E+00 0.  1.
         22    1    5    5    0    0  0.14679521955E+03  0.22056196159E+03  0.91787531324E+03  0.95534889231E+03  0.00000000000E+00 0.  1.
          5    1    4    4  502    0  0.24485706758E+02  0.40364853059E+02 -0.80923857403E+01  0.48129491010E+02  0.47000000000E+01 0. -1.
         -5    1    4    4    0  502 -0.93429352241E+01  0.91672576447E+02  0.18158074260E+03  0.20367819666E+03  0.47000000000E+01 0. -1.
<mgrwt>
<rscale>  0 0.10004658E+04</rscale>
<asrwt>0</asrwt>
<pdfrwt beam="1">  1        2 0.22953385E+00 0.10004658E+04</pdfrwt>
<pdfrwt beam="2">  1       -2 0.25803049E-01 0.10004658E+04</pdfrwt>
<totfact> 0.20762303E+02</totfact>
</mgrwt>
</event>
<event>
 9    1  0.4369420E-036  0.9996048E+03  0.7818608E-02  0.8681414E-01
          2   -1    0    0  501    0  0.00000000000E+00  0.00000000000E+00  0.23383285394E+03  0.23383285394E+03  0.00000000000E+00 0.  1.
         -2   -1    0    0    0  501 -0.00000000000E+00 -0.00000000000E+00 -0.10682947696E+04  0.10682947696E+04  0.00000000000E+00 0.  1.
         36    2    1    2    0    0  0.00000000000E+00  0.00000000000E+00 -0.83446191562E+03  0.13021276235E+04  0.99960475152E+03 0.  0.
         25    2    3    3    0    0  0.85072556219E+02  0.71829996245E+02 -0.26423087996E+03  0.31285466017E+03  0.12515267588E+03 0.  0.
         35    2    3    3    0    0 -0.85072556219E+02 -0.71829996245E+02 -0.57023103565E+03  0.98927296333E+03  0.80068762559E+03 0.  0.
         22    1    5    5    0    0  0.13312913052E+03 -0.23781643613E+03 -0.64909849321E+03  0.70399494073E+03  0.00000000000E+00 0.  1.
         22    1    5    5    0    0 -0.21820168674E+03  0.16598643988E+03  0.78867457551E+02  0.28527802260E+03  0.00000000000E+00 0.  1.
          5    1    4    4  502    0  0.88002599725E+02  0.59766374169E+02 -0.93791975401E+02  0.14189961835E+03  0.47000000000E+01 0. -1.
         -5    1    4    4    0  502 -0.29300435067E+01  0.12063622077E+02 -0.17043890456E+03  0.17095504181E+03  0.47000000000E+01 0. -1.
<mgrwt>
<rscale>  0 0.99960475E+03</rscale>
<asrwt>0</asrwt>
<pdfrwt beam="1">  1        2 0.35974286E-01 0.99960475E+03</pdfrwt>
<pdfrwt beam="2">  1       -2 0.16435304E+00 0.99960475E+03</pdfrwt>
<totfact> 0.37954834E+01</totfact>
</mgrwt>
</event>
<event>
 9    1  0.4369420E-036  0.9998544E+03  0.7818608E-02  0.8681177E-01
         -1   -1    0    0    0  501 -0.00000000000E+00  0.00000000000E+00  0.10829515851E+03  0.10829515851E+03  0.00000000000E+00 0.  1.
          1   -1    0    0  501    0  0.00000000000E+00 -0.00000000000E+00 -0.23078336215E+04  0.23078336215E+04  0.00000000000E+00 0.  1.
         36    2    1    2    0    0 -0.14210854715E-13  0.21316282073E-13 -0.21995384630E+04  0.24161287800E+04  0.99985440513E+03 0.  0.
         25    2    3    3    0    0  0.91689127418E+01 -0.16826249862E+02 -0.80168736457E+02  0.15118313732E+03  0.12673643146E+03 0.  0.
         35    2    3    3    0    0 -0.91689127418E+01  0.16826249862E+02 -0.21193697265E+04  0.22649456427E+04  0.79867611394E+03 0.  0.
         22    1    5    5    0    0  0.22775743967E+03  0.32990609207E+03 -0.93920164511E+03  0.10211812822E+04  0.00000000000E+00 0. -1.
         22    1    5    5    0    0 -0.23692635242E+03 -0.31307984221E+03 -0.11801680814E+04  0.12437643605E+04  0.00000000000E+00 0. -1.
          5    1    4    4  502    0 -0.21604704932E+02 -0.44724573650E+02  0.10820249320E+02  0.51051136704E+02  0.47000000000E+01 0.  1.
         -5    1    4    4    0  502  0.30773617674E+02  0.27898323788E+02 -0.90988985777E+02  0.10013200062E+03  0.47000000000E+01 0.  1.
<mgrwt>
<rscale>  0 0.99985441E+03</rscale>
<asrwt>0</asrwt>
<pdfrwt beam="1">  1        1 0.35505128E+00 0.99985441E+03</pdfrwt>
<pdfrwt beam="2">  1       -1 0.16660796E-01 0.99985441E+03</pdfrwt>
<totfact> 0.52261090E+01</totfact>
</mgrwt>
</event>
<event>
 9    1  0.4369420E-036  0.9891042E+03  0.7818608E-02  0.8691484E-01
          2   -1    0    0  501    0  0.00000000000E+00  0.00000000000E+00  0.23348570843E+04  0.23348570843E+04  0.00000000000E+00 0.  1.
         -2   -1    0    0    0  501 -0.00000000000E+00 -0.00000000000E+00 -0.10475236457E+03  0.10475236457E+03  0.00000000000E+00 0.  1.
         36    2    1    2    0    0 -0.71054273576E-14  0.00000000000E+00  0.22301047197E+04  0.24396094488E+04  0.98910424226E+03 0.  0.
         25    2    3    3    0    0  0.61871626494E+02 -0.11100313536E+03  0.42674592397E+03  0.46284675491E+03  0.12635363342E+03 0.  0.
         35    2    3    3    0    0 -0.61871626494E+02  0.11100313536E+03  0.18033587957E+04  0.19767626939E+04  0.79958614782E+03 0.  0.
         22    1    5    5    0    0 -0.21219620563E+03  0.35277807995E+03  0.15212350998E+04  0.15759555299E+04  0.00000000000E+00 0. -1.
         22    1    5    5    0    0  0.15032457913E+03 -0.24177494459E+03  0.28212369588E+03  0.40080716398E+03  0.00000000000E+00 0. -1.
          5    1    4    4  502    0  0.70370749389E+02 -0.15432505059E+02  0.10775468493E+03  0.12970492168E+03  0.47000000000E+01 0. -1.
         -5    1    4    4    0  502 -0.84991228946E+01 -0.95570630297E+02  0.31899123904E+03  0.33314183323E+03  0.47000000000E+01 0. -1.
<mgrwt>
<rscale>  0 0.98910424E+03</rscale>
<asrwt>0</asrwt>
<pdfrwt beam="1">  1        2 0.35920874E+00 0.98910424E+03</pdfrwt>
<pdfrwt beam="2">  1       -2 0.16115750E-01 0.98910424E+03</pdfrwt>
<totfact> 0.15508567E+02</totfact>
</mgrwt>
</event>
<event>
 9    1  0.4369420E-036  0.9984002E+03  0.7818608E-02  0.8682563E-01
         -2   -1    0    0    0  501 -0.00000000000E+00  0.00000000000E+00  0.89087627227E+02  0.89087627227E+02  0.00000000000E+00 0.  1.
          2   -1    0    0  501    0  0.00000000000E+00 -0.00000000000E+00 -0.27972543558E+04  0.27972543558E+04  0.00000000000E+00 0.  1.
         36    2    1    2    0    0  0.00000000000E+00  0.00000000000E+00 -0.27081667286E+04  0.28863419831E+04  0.99840022698E+03 0.  0.
         25    2    3    3    0    0 -0.12515365116E+03 -0.17509840117E+01 -0.32870327970E+03  0.37315651390E+03  0.12463320358E+03 0.  0.
         35    2    3    3    0    0  0.12515365116E+03  0.17509840117E+01 -0.23794634489E+04  0.25131854692E+04  0.79911726009E+03 0.  0.
         22    1    5    5    0    0  0.16284725556E+03  0.38629860338E+03 -0.13502515593E+04  0.14138334814E+04  0.00000000000E+00 0. -1.
         22    1    5    5    0    0 -0.37693604393E+02 -0.38454761937E+03 -0.10292118896E+04  0.10993519878E+04  0.00000000000E+00 0. -1.
          5    1    4    4  502    0 -0.49478288285E+02  0.52673230379E+02 -0.82067188153E+02  0.10945174088E+03  0.47000000000E+01 0. -1.
         -5    1    4    4    0  502 -0.75675362880E+02 -0.54424214391E+02 -0.24663609155E+03  0.26370477302E+03  0.47000000000E+01 0. -1.
<mgrwt>
<rscale>  0 0.99840023E+03</rscale>
<asrwt>0</asrwt>
<pdfrwt beam="1">  1        2 0.43034681E+00 0.99840023E+03</pdfrwt>
<pdfrwt beam="2">  1       -2 0.13705789E-01 0.99840023E+03</pdfrwt>
<totfact> 0.10559213E+02</totfact>
</mgrwt>
</event>
<event>
 9    1  0.4369420E-036  0.9996844E+03  0.7818608E-02  0.8681339E-01
         -2   -1    0    0    0  501 -0.00000000000E+00  0.00000000000E+00  0.24388686684E+03  0.24388686684E+03  0.00000000000E+00 0.  1.
          2   -1    0    0  501    0  0.00000000000E+00 -0.00000000000E+00 -0.10244184680E+04  0.10244184680E+04  0.00000000000E+00 0.  1.
         36    2    1    2    0    0  0.14210854715E-13  0.00000000000E+00 -0.78053160119E+03  0.12683053349E+04  0.99968437120E+03 0.  0.
         25    2    3    3    0    0 -0.50919669597E+02 -0.11844099277E+03 -0.21528242049E+03  0.28033802056E+03  0.12498721408E+03 0.  0.
         35    2    3    3    0    0  0.50919669597E+02  0.11844099277E+03 -0.56524918071E+03  0.98796731431E+03  0.79996980965E+03 0.  0.
         22    1    5    5    0    0 -0.19659668258E+03  0.20112593097E+03 -0.65433441024E+03  0.71221865753E+03  0.00000000000E+00 0.  1.
         22    1    5    5    0    0  0.24751635217E+03 -0.82684938204E+02  0.89085229531E+02  0.27574865679E+03  0.00000000000E+00 0.  1.
          5    1    4    4  502    0  0.28677393547E+02 -0.34657344629E+02 -0.12706338840E+03  0.13487297398E+03  0.47000000000E+01 0. -1.
         -5    1    4    4    0  502 -0.79597063144E+02 -0.83783648139E+02 -0.88219032085E+02  0.14546504659E+03  0.47000000000E+01 0. -1.
<mgrwt>
<rscale>  0 0.99968437E+03</rscale>
<asrwt>0</asrwt>
<pdfrwt beam="1">  1        2 0.15760284E+00 0.99968437E+03</pdfrwt>
<pdfrwt beam="2">  1       -2 0.37521057E-01 0.99968437E+03</pdfrwt>
<totfact> 0.19669583E+02</totfact>
</mgrwt>
</event>
<event>
 9    1  0.4369420E-036  0.1008025E+04  0.7818608E-02  0.8673433E-01
          1   -1    0    0  501    0  0.00000000000E+00  0.00000000000E+00  0.33342371065E+03  0.33342371065E+03  0.00000000000E+00 0.  1.
         -1   -1    0    0    0  501 -0.00000000000E+00 -0.00000000000E+00 -0.76187879661E+03  0.76187879661E+03  0.00000000000E+00 0.  1.
         36    2    1    2    0    0  0.56843418861E-13  0.00000000000E+00 -0.42845508596E+03  0.10953025073E+04  0.10080247129E+04 0.  0.
         25    2    3    3    0    0  0.95157451133E+02  0.67083045659E+02 -0.18598328238E+03  0.25076629778E+03  0.12140378601E+03 0.  0.
         35    2    3    3    0    0 -0.95157451133E+02 -0.67083045659E+02 -0.24247180358E+03  0.84453620948E+03  0.80055840391E+03 0.  0.
         22    1    5    5    0    0 -0.38529292008E+03  0.17368409675E+03 -0.64163984098E+02  0.42747376128E+03  0.00000000000E+00 0.  1.
         22    1    5    5    0    0  0.29013546895E+03 -0.24076714241E+03 -0.17830781948E+03  0.41706244819E+03  0.00000000000E+00 0.  1.
          5    1    4    4  502    0  0.41577291734E+02  0.95712601637E+02 -0.94575170928E+02  0.14091176763E+03  0.47000000000E+01 0.  1.
         -5    1    4    4    0  502  0.53580159399E+02 -0.28629555977E+02 -0.91408111450E+02  0.10985453016E+03  0.47000000000E+01 0.  1.
<mgrwt>
<rscale>  0 0.10080247E+04</rscale>
<asrwt>0</asrwt>
<pdfrwt beam="1">  1        1 0.51295956E-01 0.10080247E+04</pdfrwt>
<pdfrwt beam="2">  1       -1 0.11721212E+00 0.10080247E+04</pdfrwt>
<totfact> 0.60135622E+01</totfact>
</mgrwt>
</event>
<event>
 9    1  0.4369420E-036  0.9998362E+03  0.7818608E-02  0.8681194E-01
          2   -1    0    0  501    0  0.00000000000E+00  0.00000000000E+00  0.16201212344E+04  0.16201212344E+04  0.00000000000E+00 0. -1.
         -2   -1    0    0    0  501 -0.00000000000E+00 -0.00000000000E+00 -0.15425889253E+03  0.15425889253E+03  0.00000000000E+00 0. -1.
         36    2    1    2    0    0  0.71054273576E-14  0.00000000000E+00  0.14658623418E+04  0.17743801269E+04  0.99983620136E+03 0.  0.
         25    2    3    3    0    0  0.28707009447E+01 -0.34784478276E+02  0.32563883739E+02  0.13261504064E+03  0.12372607496E+03 0.  0.
         35    2    3    3    0    0 -0.28707009447E+01  0.34784478276E+02  0.14332984581E+04  0.16417650863E+04  0.79989369772E+03 0.  0.
         22    1    5    5    0    0  0.35670596556E+03 -0.13607268237E+03  0.88814373452E+03  0.96672344231E+03  0.00000000000E+00 0. -1.
         22    1    5    5    0    0 -0.35957666650E+03  0.17085716065E+03  0.54515472359E+03  0.67504164396E+03  0.00000000000E+00 0. -1.
          5    1    4    4  502    0 -0.25806094989E+02 -0.60744945723E+02  0.56394854775E+02  0.86938901618E+02  0.47000000000E+01 0.  1.
         -5    1    4    4    0  502  0.28676795934E+02  0.25960467447E+02 -0.23830971036E+02  0.45676139018E+02  0.47000000000E+01 0.  1.
<mgrwt>
<rscale>  0 0.99983620E+03</rscale>
<asrwt>0</asrwt>
<pdfrwt beam="1">  1        2 0.24924941E+00 0.99983620E+03</pdfrwt>
<pdfrwt beam="2">  1       -2 0.23732138E-01 0.99983620E+03</pdfrwt>
<totfact> 0.20383589E+02</totfact>
</mgrwt>
</event>
<event>
 9    1  0.4369420E-036  0.1000834E+04  0.7818608E-02  0.8680244E-01
         -2   -1    0    0    0  501 -0.00000000000E+00  0.00000000000E+00  0.90963263334E+03  0.90963263334E+03  0.00000000000E+00 0.  1.
          2   -1    0    0  501    0  0.00000000000E+00 -0.00000000000E+00 -0.27529485080E+03  0.27529485080E+03  0.00000000000E+00 0.  1.
         36    2    1    2    0    0  0.00000000000E+00  0.00000000000E+00  0.63433778253E+03  0.11849274841E+04  0.10008340124E+04 0.  0.
         25    2    3    3    0    0  0.72673022749E+02  0.74957863970E+02  0.97939932549E+01  0.16568092695E+03  0.12827391646E+03 0.  0.
         35    2    3    3    0    0 -0.72673022749E+02 -0.74957863970E+02  0.62454378928E+03  0.10192465572E+04  0.79869177410E+03 0.  0.
         22    1    5    5    0    0  0.29241293008E+03  0.10808135573E+03  0.52130781053E+02  0.31607676199E+03  0.00000000000E+00 0. -1.
         22    1    5    5    0    0 -0.36508595283E+03 -0.18303921970E+03  0.57241300822E+03  0.70316979520E+03  0.00000000000E+00 0. -1.
          5    1    4    4  502    0  0.57849849609E+02  0.87301686160E+02 -0.39897481105E+02  0.11216990909E+03  0.47000000000E+01 0. -1.
         -5    1    4    4    0  502  0.14823173140E+02 -0.12343822190E+02  0.49691474360E+02  0.53511017859E+02  0.47000000000E+01 0. -1.
<mgrwt>
<rscale>  0 0.10008340E+04</rscale>
<asrwt>0</asrwt>
<pdfrwt beam="1">  1        2 0.42353054E-01 0.10008340E+04</pdfrwt>
<pdfrwt beam="2">  1       -2 0.13994348E+00 0.10008340E+04</pdfrwt>
<totfact> 0.49648026E+01</totfact>
</mgrwt>
</event>
<event>
 9    1  0.4369420E-036  0.9994121E+03  0.7818608E-02  0.8681598E-01
         -2   -1    0    0    0  501 -0.00000000000E+00  0.00000000000E+00  0.10049004147E+03  0.10049004147E+03  0.00000000000E+00 0. -1.
          2   -1    0    0  501    0  0.00000000000E+00 -0.00000000000E+00 -0.24848844106E+04  0.24848844106E+04  0.00000000000E+00 0. -1.
         36    2    1    2    0    0  0.71054273576E-14  0.14210854715E-13 -0.23843943691E+04  0.25853744520E+04  0.99941210211E+03 0.  0.
         25    2    3    3    0    0 -0.40930252743E+02 -0.73580010878E+02 -0.15962755436E+03  0.21922239932E+03  0.12445159967E+03 0.  0.
         35    2    3    3    0    0  0.40930252743E+02  0.73580010878E+02 -0.22247668147E+04  0.23661520527E+04  0.80124830922E+03 0.  0.
         22    1    5    5    0    0  0.37070774952E+03  0.23146250062E+03 -0.11089680002E+04  0.11919769923E+04  0.00000000000E+00 0.  1.
         22    1    5    5    0    0 -0.32977749677E+03 -0.15788248974E+03 -0.11157988146E+04  0.11741750604E+04  0.00000000000E+00 0.  1.
          5    1    4    4  502    0  0.10927830922E+02 -0.67004755771E+02 -0.21355469463E+02  0.71324616091E+02  0.47000000000E+01 0.  1.
         -5    1    4    4    0  502 -0.51858083665E+02 -0.65752551068E+01 -0.13827208490E+03  0.14789778323E+03  0.47000000000E+01 0.  1.
<mgrwt>
<rscale>  0 0.99941210E+03</rscale>
<asrwt>0</asrwt>
<pdfrwt beam="1">  1        2 0.38228990E+00 0.99941210E+03</pdfrwt>
<pdfrwt beam="2">  1       -2 0.15460007E-01 0.99941210E+03</pdfrwt>
<totfact> 0.13520108E+02</totfact>
</mgrwt>
</event>
<event>
 9    1  0.4369420E-036  0.1000838E+04  0.7818608E-02  0.8680240E-01
          2   -1    0    0  501    0  0.00000000000E+00  0.00000000000E+00  0.75634035755E+03  0.75634035755E+03  0.00000000000E+00 0. -1.
         -2   -1    0    0    0  501 -0.00000000000E+00 -0.00000000000E+00 -0.33109337684E+03  0.33109337684E+03  0.00000000000E+00 0. -1.
         36    2    1    2    0    0  0.00000000000E+00 -0.28421709430E-13  0.42524698071E+03  0.10874337344E+04  0.10008382147E+04 0.  0.
         25    2    3    3    0    0 -0.21926860405E+02 -0.90926932474E+02 -0.36476668630E+02  0.15935865030E+03  0.12375838483E+03 0.  0.
         35    2    3    3    0    0  0.21926860405E+02  0.90926932474E+02  0.46172364934E+03  0.92807508409E+03  0.79961624489E+03 0.  0.
         22    1    5    5    0    0 -0.65177202672E+02  0.42034013960E+03  0.11211993544E+03  0.43989178286E+03  0.00000000000E+00 0.  1.
         22    1    5    5    0    0  0.87104063077E+02 -0.32941320712E+03  0.34960371390E+03  0.48818330123E+03  0.00000000000E+00 0.  1.
          5    1    4    4  502    0 -0.36587855258E+02  0.16848638195E+02  0.87184653068E+01  0.41480711165E+02  0.47000000000E+01 0.  1.
         -5    1    4    4    0  502  0.14660994853E+02 -0.10777557067E+03 -0.45195133937E+02  0.11787793913E+03  0.47000000000E+01 0.  1.
<mgrwt>
<rscale>  0 0.10008382E+04</rscale>
<asrwt>0</asrwt>
<pdfrwt beam="1">  1        2 0.11636005E+00 0.10008382E+04</pdfrwt>
<pdfrwt beam="2">  1       -2 0.50937443E-01 0.10008382E+04</pdfrwt>
<totfact> 0.16356569E+02</totfact>
</mgrwt>
</event>
<event>
 9    1  0.4369420E-036  0.1000120E+04  0.7818608E-02  0.8680924E-01
          1   -1    0    0  501    0  0.00000000000E+00  0.00000000000E+00  0.67004118871E+03  0.67004118871E+03  0.00000000000E+00 0. -1.
         -1   -1    0    0    0  501 -0.00000000000E+00 -0.00000000000E+00 -0.37320099043E+03  0.37320099043E+03  0.00000000000E+00 0. -1.
         36    2    1    2    0    0 -0.21316282073E-13  0.28421709430E-13  0.29684019828E+03  0.10432421791E+04  0.10001200633E+04 0.  0.
         25    2    3    3    0    0 -0.47557654721E+02  0.10229692816E+03  0.13859314260E+03  0.21778118858E+03  0.12447567992E+03 0.  0.
         35    2    3    3    0    0  0.47557654721E+02 -0.10229692816E+03  0.15824705568E+03  0.82546099055E+03  0.80225764207E+03 0.  0.
         22    1    5    5    0    0  0.31459399711E+03 -0.32992666506E+03  0.12671522065E+03  0.47315719849E+03  0.00000000000E+00 0. -1.
         22    1    5    5    0    0 -0.26703634239E+03  0.22762973691E+03  0.31531835031E+02  0.35230379206E+03  0.00000000000E+00 0. -1.
          5    1    4    4  502    0 -0.67736592158E+02  0.45299156445E+01  0.56534184581E+02  0.88470164910E+02  0.47000000000E+01 0. -1.
         -5    1    4    4    0  502  0.20178937437E+02  0.97767012513E+02  0.82058958023E+02  0.12931102367E+03  0.47000000000E+01 0. -1.
<mgrwt>
<rscale>  0 0.10001201E+04</rscale>
<asrwt>0</asrwt>
<pdfrwt beam="1">  1        1 0.10308326E+00 0.10001201E+04</pdfrwt>
<pdfrwt beam="2">  1       -1 0.57415537E-01 0.10001201E+04</pdfrwt>
<totfact> 0.10317357E+02</totfact>
</mgrwt>
</event>
<event>
 9    1  0.4369420E-036  0.9996076E+03  0.7818608E-02  0.8681412E-01
          2   -1    0    0  501    0  0.00000000000E+00  0.00000000000E+00  0.11178864770E+04  0.11178864770E+04  0.00000000000E+00 0.  1.
         -2   -1    0    0    0  501 -0.00000000000E+00 -0.00000000000E+00 -0.22346082302E+03  0.22346082302E+03  0.00000000000E+00 0.  1.
         36    2    1    2    0    0 -0.17763568394E-13  0.00000000000E+00  0.89442565399E+03  0.13413473000E+04  0.99960758741E+03 0.  0.
         25    2    3    3    0    0 -0.10678397553E+02 -0.38783856362E+02  0.34526068282E+03  0.36811643526E+03  0.12118809809E+03 0.  0.
         35    2    3    3    0    0  0.10678397553E+02  0.38783856362E+02  0.54916497117E+03  0.97323086478E+03  0.80248235801E+03 0.  0.
         22    1    5    5    0    0 -0.30955434877E+03  0.17351366439E+03  0.51321443347E+03  0.62395507955E+03  0.00000000000E+00 0. -1.
         22    1    5    5    0    0  0.32023274632E+03 -0.13472980803E+03  0.35950537697E+02  0.34927578523E+03  0.00000000000E+00 0. -1.
          5    1    4    4  502    0 -0.30937620063E+02 -0.39828765984E+02  0.46900693759E+02  0.69030659927E+02  0.47000000000E+01 0. -1.
         -5    1    4    4    0  502  0.20259222510E+02  0.10449096217E+01  0.29835998906E+03  0.29908577533E+03  0.47000000000E+01 0. -1.
<mgrwt>
<rscale>  0 0.99960759E+03</rscale>
<asrwt>0</asrwt>
<pdfrwt beam="1">  1        2 0.17198253E+00 0.99960759E+03</pdfrwt>
<pdfrwt beam="2">  1       -2 0.34378589E-01 0.99960759E+03</pdfrwt>
<totfact> 0.20313189E+02</totfact>
</mgrwt>
</event>
<event>
 9    1  0.4369420E-036  0.9986808E+03  0.7818608E-02  0.8682295E-01
          3   -1    0    0  501    0  0.00000000000E+00  0.00000000000E+00  0.37484927196E+03  0.37484927196E+03  0.00000000000E+00 0.  1.
         -3   -1    0    0    0  501 -0.00000000000E+00 -0.00000000000E+00 -0.66517620652E+03  0.66517620652E+03  0.00000000000E+00 0.  1.
         36    2    1    2    0    0  0.00000000000E+00  0.00000000000E+00 -0.29032693456E+03  0.10400254785E+04  0.99868076328E+03 0.  0.
         25    2    3    3    0    0 -0.61807092799E+02 -0.11607127409E+03 -0.10245486117E+03  0.20815836278E+03  0.12466053116E+03 0.  0.
         35    2    3    3    0    0  0.61807092799E+02  0.11607127409E+03 -0.18787207339E+03  0.83186711569E+03  0.79963386923E+03 0.  0.
         22    1    5    5    0    0  0.16116421596E+03  0.44058482075E+03 -0.81176952858E+02  0.47610774669E+03  0.00000000000E+00 0. -1.
         22    1    5    5    0    0 -0.99357123161E+02 -0.32451354666E+03 -0.10669512053E+03  0.35575936900E+03  0.00000000000E+00 0. -1.
          5    1    4    4  502    0 -0.24974765577E+02 -0.55388126082E+02  0.22012926469E+02  0.64793845064E+02  0.47000000000E+01 0. -1.
         -5    1    4    4    0  502 -0.36832327222E+02 -0.60683148009E+02 -0.12446778764E+03  0.14336451772E+03  0.47000000000E+01 0. -1.
<mgrwt>
<rscale>  0 0.99868076E+03</rscale>
<asrwt>0</asrwt>
<pdfrwt beam="1">  1        3 0.57669119E-01 0.99868076E+03</pdfrwt>
<pdfrwt beam="2">  1       -3 0.10233480E+00 0.99868076E+03</pdfrwt>
<totfact> 0.89940254E+00</totfact>
</mgrwt>
</event>
<event>
 9    1  0.4369420E-036  0.1000004E+04  0.7818608E-02  0.8681034E-01
          1   -1    0    0  501    0  0.00000000000E+00  0.00000000000E+00  0.90492664111E+03  0.90492664111E+03  0.00000000000E+00 0. -1.
         -1   -1    0    0    0  501 -0.00000000000E+00 -0.00000000000E+00 -0.27626765267E+03  0.27626765267E+03  0.00000000000E+00 0. -1.
         36    2    1    2    0    0  0.14210854715E-13 -0.71054273576E-14  0.62865898844E+03  0.11811942938E+04  0.10000039180E+04 0.  0.
         25    2    3    3    0    0 -0.12656234772E+03 -0.17487598320E+02  0.47659282958E+02  0.18457237394E+03  0.12438532879E+03 0.  0.
         35    2    3    3    0    0  0.12656234772E+03  0.17487598320E+02  0.58099970548E+03  0.99662191984E+03  0.79960662165E+03 0.  0.
         22    1    5    5    0    0  0.36413937126E+03 -0.20435268230E+03  0.12356546065E+03  0.43546058781E+03  0.00000000000E+00 0.  1.
         22    1    5    5    0    0 -0.23757702355E+03  0.22184028062E+03  0.45743424483E+03  0.56116133203E+03  0.00000000000E+00 0.  1.
          5    1    4    4  502    0 -0.91809073619E+02 -0.48478854062E+02  0.76990507426E+02  0.12933960539E+03  0.47000000000E+01 0.  1.
         -5    1    4    4    0  502 -0.34753274097E+02  0.30991255742E+02 -0.29331224468E+02  0.55232768550E+02  0.47000000000E+01 0.  1.
<mgrwt>
<rscale>  0 0.10000039E+04</rscale>
<asrwt>0</asrwt>
<pdfrwt beam="1">  1        1 0.13921948E+00 0.10000039E+04</pdfrwt>
<pdfrwt beam="2">  1       -1 0.42502716E-01 0.10000039E+04</pdfrwt>
<totfact> 0.11076717E+02</totfact>
</mgrwt>
</event>
<event>
 9    1  0.4369420E-036  0.9997687E+03  0.7818608E-02  0.8681258E-01
          2   -1    0    0  501    0  0.00000000000E+00  0.00000000000E+00  0.17897595033E+04  0.17897595033E+04  0.00000000000E+00 0. -1.
         -2   -1    0    0    0  501 -0.00000000000E+00 -0.00000000000E+00 -0.13961897265E+03  0.13961897265E+03  0.00000000000E+00 0. -1.
         36    2    1    2    0    0  0.00000000000E+00  0.28421709430E-13  0.16501405307E+04  0.19293784760E+04  0.99976873955E+03 0.  0.
         25    2    3    3    0    0  0.74582344270E+02 -0.10597923752E+03  0.41144052320E+03  0.44910002765E+03  0.12495361475E+03 0.  0.
         35    2    3    3    0    0 -0.74582344270E+02  0.10597923752E+03  0.12387000075E+04  0.14802784483E+04  0.80003278133E+03 0.  0.
         22    1    5    5    0    0  0.27839320944E+03  0.29748970038E+03  0.57964861351E+03  0.70851634846E+03  0.00000000000E+00 0. -1.
         22    1    5    5    0    0 -0.35297555371E+03 -0.19151046286E+03  0.65905139398E+03  0.77176209988E+03  0.00000000000E+00 0. -1.
          5    1    4    4  502    0  0.46692692696E+02  0.17542478328E+02  0.15787793341E+03  0.16563658399E+03  0.47000000000E+01 0.  1.
         -5    1    4    4    0  502  0.27889651574E+02 -0.12352171584E+03  0.25356258979E+03  0.28346344366E+03  0.47000000000E+01 0.  1.
<mgrwt>
<rscale>  0 0.99976874E+03</rscale>
<asrwt>0</asrwt>
<pdfrwt beam="1">  1        2 0.27534760E+00 0.99976874E+03</pdfrwt>
<pdfrwt beam="2">  1       -2 0.21479843E-01 0.99976874E+03</pdfrwt>
<totfact> 0.19480624E+02</totfact>
</mgrwt>
</event>
<event>
 9    1  0.4369420E-036  0.1001846E+04  0.7818608E-02  0.8679282E-01
          2   -1    0    0  501    0  0.00000000000E+00  0.00000000000E+00  0.82445950720E+03  0.82445950720E+03  0.00000000000E+00 0.  1.
         -2   -1    0    0    0  501 -0.00000000000E+00 -0.00000000000E+00 -0.30434981575E+03  0.30434981575E+03  0.00000000000E+00 0.  1.
         36    2    1    2    0    0 -0.28421709430E-13  0.00000000000E+00  0.52010969144E+03  0.11288093230E+04  0.10018464935E+04 0.  0.
         25    2    3    3    0    0  0.69800407190E+02  0.11816959142E+03  0.14664517102E+03  0.23690214848E+03  0.12562512722E+03 0.  0.
         35    2    3    3    0    0 -0.69800407190E+02 -0.11816959142E+03  0.37346452042E+03  0.89190717448E+03  0.79823963237E+03 0.  0.
         22    1    5    5    0    0  0.26780256753E+03  0.10904591134E+03 -0.62179488112E+02  0.29576259855E+03  0.00000000000E+00 0. -1.
         22    1    5    5    0    0 -0.33760297472E+03 -0.22721550276E+03  0.43564400853E+03  0.59614457593E+03  0.00000000000E+00 0. -1.
          5    1    4    4  502    0  0.65147305947E+02  0.32544063641E+01  0.82003909646E+02  0.10488800613E+03  0.47000000000E+01 0. -1.
         -5    1    4    4    0  502  0.46531012429E+01  0.11491518505E+03  0.64641261377E+02  0.13201414234E+03  0.47000000000E+01 0. -1.
<mgrwt>
<rscale>  0 0.10018465E+04</rscale>
<asrwt>0</asrwt>
<pdfrwt beam="1">  1        2 0.12683992E+00 0.10018465E+04</pdfrwt>
<pdfrwt beam="2">  1       -2 0.46823049E-01 0.10018465E+04</pdfrwt>
<totfact> 0.17313510E+02</totfact>
</mgrwt>
</event>
<event>
 9    1  0.4369420E-036  0.1000113E+04  0.7818608E-02  0.8680930E-01
          2   -1    0    0  501    0  0.00000000000E+00  0.00000000000E+00  0.49016011640E+03  0.49016011640E+03  0.00000000000E+00 0. -1.
         -2   -1    0    0    0  501 -0.00000000000E+00 -0.00000000000E+00 -0.51015265108E+03  0.51015265108E+03  0.00000000000E+00 0. -1.
         36    2    1    2    0    0 -0.28421709430E-13 -0.28421709430E-13 -0.19992534680E+02  0.10003127675E+04  0.10001129593E+04 0.  0.
         25    2    3    3    0    0  0.11356025088E+03  0.70571922740E+02  0.41538446907E+02  0.18801513369E+03  0.12549072104E+03 0.  0.
         35    2    3    3    0    0 -0.11356025088E+03 -0.70571922740E+02 -0.61530981586E+02  0.81229763379E+03  0.79885233761E+03 0.  0.
         22    1    5    5    0    0 -0.25401067289E+03  0.23996561353E+03  0.18144215010E+03  0.39373363008E+03  0.00000000000E+00 0.  1.
         22    1    5    5    0    0  0.14045042201E+03 -0.31053753627E+03 -0.24297313169E+03  0.41856400371E+03  0.00000000000E+00 0.  1.
          5    1    4    4  502    0  0.14787902328E+02  0.53494154853E+02  0.64349292897E+02  0.85107156896E+02  0.47000000000E+01 0.  1.
         -5    1    4    4    0  502  0.98772348549E+02  0.17077767888E+02 -0.22810845990E+02  0.10290797680E+03  0.47000000000E+01 0.  1.
<mgrwt>
<rscale>  0 0.10001130E+04</rscale>
<asrwt>0</asrwt>
<pdfrwt beam="1">  1        2 0.75409249E-01 0.10001130E+04</pdfrwt>
<pdfrwt beam="2">  1       -2 0.78485023E-01 0.10001130E+04</pdfrwt>
<totfact> 0.10966652E+02</totfact>
</mgrwt>
</event>
<event>
 9    1  0.4369420E-036  0.1000155E+04  0.7818608E-02  0.8680890E-01
          2   -1    0    0  501    0  0.00000000000E+00  0.00000000000E+00  0.16326666798E+04  0.16326666798E+04  0.00000000000E+00 0.  1.
         -2   -1    0    0    0  501 -0.00000000000E+00 -0.00000000000E+00 -0.15317121232E+03  0.15317121232E+03  0.00000000000E+00 0.  1.
         36    2    1    2    0    0 -0.14210854715E-13  0.14210854715E-13  0.14794954675E+04  0.17858378922E+04  0.10001550573E+04 0.  0.
         25    2    3    3    0    0  0.76793661686E+02 -0.74902585352E+02  0.11419831515E+03  0.20011815951E+03  0.12449240466E+03 0.  0.
         35    2    3    3    0    0 -0.76793661686E+02  0.74902585352E+02  0.13652971524E+04  0.15857197326E+04  0.79935167007E+03 0.  0.
         22    1    5    5    0    0 -0.82904791097E+02  0.39156239238E+03  0.38432842193E+03  0.55488976150E+03  0.00000000000E+00 0.  1.
         22    1    5    5    0    0  0.61111294111E+01 -0.31665980703E+03  0.98096873045E+03  0.10308299711E+04  0.00000000000E+00 0.  1.
          5    1    4    4  502    0 -0.30751213488E+02  0.32959840312E+01  0.21706559535E+02  0.38075784543E+02  0.47000000000E+01 0.  1.
         -5    1    4    4    0  502  0.10754487517E+03 -0.78198569383E+02  0.92491755611E+02  0.16204237497E+03  0.47000000000E+01 0.  1.
<mgrwt>
<rscale>  0 0.10001551E+04</rscale>
<asrwt>0</asrwt>
<pdfrwt beam="1">  1        2 0.25117948E+00 0.10001551E+04</pdfrwt>
<pdfrwt beam="2">  1       -2 0.23564803E-01 0.10001551E+04</pdfrwt>
<totfact> 0.20306098E+02</totfact>
</mgrwt>
</event>
<event>
 9    1  0.4369420E-036  0.9992305E+03  0.7818608E-02  0.8681771E-01
         -2   -1    0    0    0  501 -0.00000000000E+00  0.00000000000E+00  0.17478720570E+03  0.17478720570E+03  0.00000000000E+00 0. -1.
          2   -1    0    0  501    0  0.00000000000E+00 -0.00000000000E+00 -0.14281103232E+04  0.14281103232E+04  0.00000000000E+00 0. -1.
         36    2    1    2    0    0 -0.14210854715E-13 -0.24868995752E-13 -0.12533231175E+04  0.16028975289E+04  0.99923052958E+03 0.  0.
         25    2    3    3    0    0 -0.49922095637E+02 -0.20416755846E+02 -0.28795651180E+02  0.13965552558E+03  0.12556041075E+03 0.  0.
         35    2    3    3    0    0  0.49922095637E+02  0.20416755846E+02 -0.12245274663E+04  0.14632420033E+04  0.79918745293E+03 0.  0.
         22    1    5    5    0    0 -0.17632420610E+03  0.24521130337E+03 -0.10642931176E+04  0.11063176077E+04  0.00000000000E+00 0. -1.
         22    1    5    5    0    0  0.22624630174E+03 -0.22479454752E+03 -0.16023434867E+03  0.35692439555E+03  0.00000000000E+00 0. -1.
          5    1    4    4  502    0 -0.33952621482E+02 -0.26860779255E+02  0.45655969481E+02  0.63093894451E+02  0.47000000000E+01 0.  1.
         -5    1    4    4    0  502 -0.15969474154E+02  0.64440234090E+01 -0.74451620661E+02  0.76561631132E+02  0.47000000000E+01 0.  1.
<mgrwt>
<rscale>  0 0.99923053E+03</rscale>
<asrwt>0</asrwt>
<pdfrwt beam="1">  1        2 0.21970928E+00 0.99923053E+03</pdfrwt>
<pdfrwt beam="2">  1       -2 0.26890339E-01 0.99923053E+03</pdfrwt>
<totfact> 0.20965936E+02</totfact>
</mgrwt>
</event>
<event>
 9    1  0.4369420E-036  0.9993492E+03  0.7818608E-02  0.8681658E-01
          2   -1    0    0  501    0  0.00000000000E+00  0.00000000000E+00  0.56865984154E+03  0.56865984154E+03  0.00000000000E+00 0. -1.
         -2   -1    0    0    0  501 -0.00000000000E+00 -0.00000000000E+00 -0.43905810975E+03  0.43905810975E+03  0.00000000000E+00 0. -1.
         36    2    1    2    0    0  0.14210854715E-13  0.00000000000E+00  0.12960173179E+03  0.10077179513E+04  0.99934921848E+03 0.  0.
         25    2    3    3    0    0  0.70307369564E+02  0.93835562712E+02 -0.53691227837E+02  0.17946099467E+03  0.12480088789E+03 0.  0.
         35    2    3    3    0    0 -0.70307369564E+02 -0.93835562712E+02  0.18329295963E+03  0.82825695662E+03  0.79916521326E+03 0.  0.
         22    1    5    5    0    0 -0.39593101524E+03 -0.20725237031E+03  0.18440186787E+03  0.48344489107E+03  0.00000000000E+00 0. -1.
         22    1    5    5    0    0  0.32562364568E+03  0.11341680760E+03 -0.11089082353E+01  0.34481206555E+03  0.00000000000E+00 0. -1.
          5    1    4    4  502    0  0.22345456119E+02  0.57307131834E+02 -0.89861269310E+02  0.10899800223E+03  0.47000000000E+01 0.  1.
         -5    1    4    4    0  502  0.47961913446E+02  0.36528430878E+02  0.36170041473E+02  0.70462992442E+02  0.47000000000E+01 0.  1.
<mgrwt>
<rscale>  0 0.99934922E+03</rscale>
<asrwt>0</asrwt>
<pdfrwt beam="1">  1        2 0.87486130E-01 0.99934922E+03</pdfrwt>
<pdfrwt beam="2">  1       -2 0.67547401E-01 0.99934922E+03</pdfrwt>
<totfact> 0.12858945E+02</totfact>
</mgrwt>
</event>
<event>
 9    1  0.4369420E-036  0.1000599E+04  0.7818608E-02  0.8680468E-01
         -1   -1    0    0    0  501 -0.00000000000E+00  0.00000000000E+00  0.50583783208E+03  0.50583783208E+03  0.00000000000E+00 0. -1.
          1   -1    0    0  501    0  0.00000000000E+00 -0.00000000000E+00 -0.49482143776E+03  0.49482143776E+03  0.00000000000E+00 0. -1.
         36    2    1    2    0    0  0.14210854715E-13 -0.14210854715E-13  0.11016394316E+02  0.10006592698E+04  0.10005986275E+04 0.  0.
         25    2    3    3    0    0  0.62151651063E+02  0.96175924335E+02 -0.59200959240E+02  0.17982846483E+03  0.12538296151E+03 0.  0.
         35    2    3    3    0    0 -0.62151651063E+02 -0.96175924335E+02  0.70217353556E+02  0.82083080501E+03  0.80976545837E+03 0.  0.
         22    1    5    5    0    0  0.33830972870E+03 -0.20033144149E+03  0.10088516760E+03  0.40591129083E+03  0.00000000000E+00 0. -1.
         22    1    5    5    0    0 -0.40046137976E+03  0.10415551715E+03 -0.30667814046E+02  0.41491951418E+03  0.00000000000E+00 0. -1.
          5    1    4    4  502    0 -0.37187673234E+02  0.18929996674E+02 -0.26749147240E+02  0.49788298753E+02  0.47000000000E+01 0. -1.
         -5    1    4    4    0  502  0.99339324297E+02  0.77245927660E+02 -0.32451812000E+02  0.13004016608E+03  0.47000000000E+01 0. -1.
<mgrwt>
<rscale>  0 0.10005986E+04</rscale>
<asrwt>0</asrwt>
<pdfrwt beam="1">  1        1 0.76126374E-01 0.10005986E+04</pdfrwt>
<pdfrwt beam="2">  1       -1 0.77821206E-01 0.10005986E+04</pdfrwt>
<totfact> 0.87846022E+01</totfact>
</mgrwt>
</event>
<event>
 9    1  0.4369420E-036  0.1000163E+04  0.7818608E-02  0.8680882E-01
          1   -1    0    0  501    0  0.00000000000E+00  0.00000000000E+00  0.10015075661E+04  0.10015075661E+04  0.00000000000E+00 0.  1.
         -1   -1    0    0    0  501 -0.00000000000E+00 -0.00000000000E+00 -0.24970524903E+03  0.24970524903E+03  0.00000000000E+00 0.  1.
         36    2    1    2    0    0 -0.14210854715E-13  0.00000000000E+00  0.75180231703E+03  0.12512128151E+04  0.10001633790E+04 0.  0.
         25    2    3    3    0    0 -0.56899851996E+02 -0.12281688159E+03  0.97807956781E+02  0.20865269082E+03  0.12509184393E+03 0.  0.
         35    2    3    3    0    0  0.56899851996E+02  0.12281688159E+03  0.65399436025E+03  0.10425601243E+04  0.80056318297E+03 0.  0.
         22    1    5    5    0    0  0.17195746650E+03  0.43762430362E+03  0.31575326501E+03  0.56637842982E+03  0.00000000000E+00 0. -1.
         22    1    5    5    0    0 -0.11505761450E+03 -0.31480742203E+03  0.33824109524E+03  0.47618169445E+03  0.00000000000E+00 0. -1.
          5    1    4    4  502    0 -0.66165021081E+02 -0.14141179580E+03  0.10252231734E+03  0.18683688490E+03  0.47000000000E+01 0. -1.
         -5    1    4    4    0  502  0.92651690859E+01  0.18594914208E+02 -0.47143605625E+01  0.21815805924E+02  0.47000000000E+01 0. -1.
<mgrwt>
<rscale>  0 0.10001634E+04</rscale>
<asrwt>0</asrwt>
<pdfrwt beam="1">  1        1 0.15407808E+00 0.10001634E+04</pdfrwt>
<pdfrwt beam="2">  1       -1 0.38416193E-01 0.10001634E+04</pdfrwt>
<totfact> 0.11074526E+02</totfact>
</mgrwt>
</event>
<event>
 9    1  0.4369420E-036  0.9993063E+03  0.7818608E-02  0.8681699E-01
          1   -1    0    0  501    0  0.00000000000E+00  0.00000000000E+00  0.29734411045E+04  0.29734411045E+04  0.00000000000E+00 0.  1.
         -1   -1    0    0    0  501 -0.00000000000E+00 -0.00000000000E+00 -0.83961069218E+02  0.83961069218E+02  0.00000000000E+00 0.  1.
         36    2    1    2    0    0 -0.14210854715E-13  0.14210854715E-13  0.28894800352E+04  0.30574021737E+04  0.99930634819E+03 0.  0.
         25    2    3    3    0    0 -0.11742497029E+03 -0.72887436221E+02  0.52782837364E+03  0.55970312652E+03  0.12475414144E+03 0.  0.
         35    2    3    3    0    0  0.11742497029E+03  0.72887436221E+02  0.23616516616E+04  0.24976990472E+04  0.80124949762E+03 0.  0.
         22    1    5    5    0    0 -0.68895587828E+02 -0.28535047054E+03  0.16797688428E+04  0.17052257499E+04  0.00000000000E+00 0.  1.
         22    1    5    5    0    0  0.18632055812E+03  0.35823790676E+03  0.68188281881E+03  0.79247329722E+03  0.00000000000E+00 0.  1.
          5    1    4    4  502    0 -0.33829136666E+02 -0.84185087986E+02  0.36648542805E+03  0.37757806941E+03  0.47000000000E+01 0. -1.
         -5    1    4    4    0  502 -0.83595833621E+02  0.11297651765E+02  0.16134294559E+03  0.18212505711E+03  0.47000000000E+01 0. -1.
<mgrwt>
<rscale>  0 0.99930635E+03</rscale>
<asrwt>0</asrwt>
<pdfrwt beam="1">  1        1 0.45745240E+00 0.99930635E+03</pdfrwt>
<pdfrwt beam="2">  1       -1 0.12917090E-01 0.99930635E+03</pdfrwt>
<totfact> 0.26623065E+01</totfact>
</mgrwt>
</event>
<event>
 9    1  0.4369420E-036  0.9995148E+03  0.7818608E-02  0.8681500E-01
          1   -1    0    0  501    0  0.00000000000E+00  0.00000000000E+00  0.58558011231E+03  0.58558011231E+03  0.00000000000E+00 0. -1.
         -1   -1    0    0    0  501 -0.00000000000E+00 -0.00000000000E+00 -0.42651289713E+03  0.42651289713E+03  0.00000000000E+00 0. -1.
         36    2    1    2    0    0  0.28421709430E-13  0.14210854715E-13  0.15906721518E+03  0.10120930094E+04  0.99951482271E+03 0.  0.
         25    2    3    3    0    0 -0.12097346786E+03 -0.22498194656E+02  0.97936979665E+02  0.20091231672E+03  0.12503342887E+03 0.  0.
         35    2    3    3    0    0  0.12097346786E+03  0.22498194656E+02  0.61130235510E+02  0.81118069272E+03  0.79946010649E+03 0.  0.
         22    1    5    5    0    0  0.20114084332E+03 -0.33695719217E+03  0.16922571589E+03  0.42735831702E+03  0.00000000000E+00 0. -1.
         22    1    5    5    0    0 -0.80167375462E+02  0.35945538683E+03 -0.10809548038E+03  0.38382237570E+03  0.00000000000E+00 0. -1.
          5    1    4    4  502    0 -0.11909721574E+02  0.44612341098E+02  0.35101054332E+02  0.58191721589E+02  0.47000000000E+01 0.  1.
         -5    1    4    4    0  502 -0.10906374628E+03 -0.67110535755E+02  0.62835925333E+02  0.14272059513E+03  0.47000000000E+01 0.  1.
<mgrwt>
<rscale>  0 0.99951482E+03</rscale>
<asrwt>0</asrwt>
<pdfrwt beam="1">  1        1 0.90089248E-01 0.99951482E+03</pdfrwt>
<pdfrwt beam="2">  1       -1 0.65617369E-01 0.99951482E+03</pdfrwt>
<totfact> 0.97384170E+01</totfact>
</mgrwt>
</event>
<event>
 9    1  0.4369420E-036  0.9999465E+03  0.7818608E-02  0.8681089E-01
         -1   -1    0    0    0  501 -0.00000000000E+00  0.00000000000E+00  0.38041610864E+03  0.38041610864E+03  0.00000000000E+00 0.  1.
          1   -1    0    0  501    0  0.00000000000E+00 -0.00000000000E+00 -0.65710475861E+03  0.65710475861E+03  0.00000000000E+00 0.  1.
         36    2    1    2    0    0  0.14210854715E-13  0.88817841970E-15 -0.27668864998E+03  0.10375208673E+04  0.99994646905E+03 0.  0.
         25    2    3    3    0    0  0.62908036186E+02  0.22771362449E+01  0.81508417020E+02  0.16207136164E+03  0.12514350902E+03 0.  0.
         35    2    3    3    0    0 -0.62908036186E+02 -0.22771362449E+01 -0.35819706700E+03  0.87544950562E+03  0.79633164681E+03 0.  0.
         22    1    5    5    0    0  0.35136897057E+03 -0.22715844348E+02 -0.43460244207E+02  0.35477451415E+03  0.00000000000E+00 0.  1.
         22    1    5    5    0    0 -0.41427700676E+03  0.20438708103E+02 -0.31473682279E+03  0.52067499146E+03  0.00000000000E+00 0.  1.
          5    1    4    4  502    0  0.16671008087E+02  0.55683098764E+01  0.10729033027E+03  0.10882202697E+03  0.47000000000E+01 0.  1.
         -5    1    4    4    0  502  0.46237028098E+02 -0.32911736315E+01 -0.25781913248E+02  0.53249334662E+02  0.47000000000E+01 0.  1.
<mgrwt>
<rscale>  0 0.99994647E+03</rscale>
<asrwt>0</asrwt>
<pdfrwt beam="1">  1        1 0.10109304E+00 0.99994647E+03</pdfrwt>
<pdfrwt beam="2">  1       -1 0.58525556E-01 0.99994647E+03</pdfrwt>
<totfact> 0.10244478E+02</totfact>
</mgrwt>
</event>
<event>
 9    1  0.4369420E-036  0.9996323E+03  0.7818608E-02  0.8681388E-01
         -1   -1    0    0    0  501 -0.00000000000E+00  0.00000000000E+00  0.13107258659E+03  0.13107258659E+03  0.00000000000E+00 0. -1.
          1   -1    0    0  501    0  0.00000000000E+00 -0.00000000000E+00 -0.19059375638E+04  0.19059375638E+04  0.00000000000E+00 0. -1.
         36    2    1    2    0    0 -0.35527136788E-14  0.00000000000E+00 -0.17748649772E+04  0.20370101504E+04  0.99963226513E+03 0.  0.
         25    2    3    3    0    0 -0.21078473165E+02 -0.13725330661E+03 -0.28158205030E+03  0.33793435634E+03  0.12501362300E+03 0.  0.
         35    2    3    3    0    0  0.21078473165E+02  0.13725330661E+03 -0.14932829269E+04  0.16990757940E+04  0.79854986190E+03 0.  0.
         22    1    5    5    0    0  0.14867933386E+03 -0.30654525891E+03 -0.75435804635E+03  0.82772676782E+03  0.00000000000E+00 0. -1.
         22    1    5    5    0    0 -0.12760086070E+03  0.44379856552E+03 -0.73892488055E+03  0.87134902623E+03  0.00000000000E+00 0. -1.
          5    1    4    4  502    0  0.87923600278E+01 -0.49942862154E+02 -0.22251671556E+03  0.22827039619E+03  0.47000000000E+01 0.  1.
         -5    1    4    4    0  502 -0.29870833193E+02 -0.87310444460E+02 -0.59065334747E+02  0.10966396015E+03  0.47000000000E+01 0.  1.
<mgrwt>
<rscale>  0 0.99963227E+03</rscale>
<asrwt>0</asrwt>
<pdfrwt beam="1">  1        1 0.29322115E+00 0.99963227E+03</pdfrwt>
<pdfrwt beam="2">  1       -1 0.20165014E-01 0.99963227E+03</pdfrwt>
<totfact> 0.73139028E+01</totfact>
</mgrwt>
</event>
<event>
 9    1  0.4369420E-036  0.9995280E+03  0.7818608E-02  0.8681488E-01
         -1   -1    0    0    0  501 -0.00000000000E+00  0.00000000000E+00  0.92001848640E+03  0.92001848640E+03  0.00000000000E+00 0. -1.
          1   -1    0    0  501    0  0.00000000000E+00 -0.00000000000E+00 -0.27147721939E+03  0.27147721939E+03  0.00000000000E+00 0. -1.
         36    2    1    2    0    0  0.00000000000E+00  0.00000000000E+00  0.64854126701E+03  0.11914957058E+04  0.99952800956E+03 0.  0.
         25    2    3    3    0    0  0.10458726693E+03 -0.14911103695E+02  0.22855729788E+03  0.28092999922E+03  0.12458887845E+03 0.  0.
         35    2    3    3    0    0 -0.10458726693E+03  0.14911103695E+02  0.41998396913E+03  0.91056570656E+03  0.80098847322E+03 0.  0.
         22    1    5    5    0    0 -0.44210984975E+03  0.10385862109E+03  0.18835183718E+03  0.49165449961E+03  0.00000000000E+00 0.  1.
         22    1    5    5    0    0  0.33752258282E+03 -0.88947517397E+02  0.23163213195E+03  0.41891120695E+03  0.00000000000E+00 0.  1.
          5    1    4    4  502    0  0.40792340384E+02  0.29702743100E+02  0.13909382477E+02  0.52553105547E+02  0.47000000000E+01 0. -1.
         -5    1    4    4    0  502  0.63794926547E+02 -0.44613846795E+02  0.21464791540E+03  0.22837689368E+03  0.47000000000E+01 0. -1.
<mgrwt>
<rscale>  0 0.99952801E+03</rscale>
<asrwt>0</asrwt>
<pdfrwt beam="1">  1        1 0.41765726E-01 0.99952801E+03</pdfrwt>
<pdfrwt beam="2">  1       -1 0.14154130E+00 0.99952801E+03</pdfrwt>
<totfact> 0.48268281E+01</totfact>
</mgrwt>
</event>
<event>
 9    1  0.4369420E-036  0.1000140E+04  0.7818608E-02  0.8680905E-01
         -2   -1    0    0    0  501 -0.00000000000E+00  0.00000000000E+00  0.28123069298E+03  0.28123069298E+03  0.00000000000E+00 0.  1.
          2   -1    0    0  501    0  0.00000000000E+00 -0.00000000000E+00 -0.88919815041E+03  0.88919815041E+03  0.00000000000E+00 0.  1.
         36    2    1    2    0    0  0.42632564146E-13  0.00000000000E+00 -0.60796745744E+03  0.11704288434E+04  0.10001396143E+04 0.  0.
         25    2    3    3    0    0  0.44602865029E+02 -0.48183257292E+02  0.16157211614E+02  0.15365678599E+03  0.13797938448E+03 0.  0.
         35    2    3    3    0    0 -0.44602865029E+02  0.48183257292E+02 -0.62412466905E+03  0.10167720574E+04  0.79998923265E+03 0.  0.
         22    1    5    5    0    0 -0.36354871919E+03  0.18097107580E+03 -0.51210320692E+03  0.65358082594E+03  0.00000000000E+00 0. -1.
         22    1    5    5    0    0  0.31894585417E+03 -0.13278781851E+03 -0.11202146213E+03  0.36319123146E+03  0.00000000000E+00 0. -1.
          5    1    4    4  502    0  0.65624777591E+02  0.17453489921E+02 -0.25843802391E+02  0.72809531425E+02  0.47000000000E+01 0.  1.
         -5    1    4    4    0  502 -0.21021912563E+02 -0.65636747213E+02  0.42001014005E+02  0.80847254560E+02  0.47000000000E+01 0.  1.
<mgrwt>
<rscale>  0 0.10001396E+04</rscale>
<asrwt>0</asrwt>
<pdfrwt beam="1">  1        2 0.13679972E+00 0.10001396E+04</pdfrwt>
<pdfrwt beam="2">  1       -2 0.43266260E-01 0.10001396E+04</pdfrwt>
<totfact> 0.18275207E+02</totfact>
</mgrwt>
</event>
<event>
 9    1  0.4369420E-036  0.9994202E+03  0.7818608E-02  0.8681590E-01
          2   -1    0    0  501    0  0.00000000000E+00  0.00000000000E+00  0.82505222888E+03  0.82505222888E+03  0.00000000000E+00 0.  1.
         -2   -1    0    0    0  501 -0.00000000000E+00 -0.00000000000E+00 -0.30265987193E+03  0.30265987193E+03  0.00000000000E+00 0.  1.
         36    2    1    2    0    0  0.00000000000E+00  0.42632564146E-13  0.52239235695E+03  0.11277121008E+04  0.99942023579E+03 0.  0.
         25    2    3    3    0    0 -0.27110909859E+02 -0.10737146853E+03  0.18471874512E+01  0.16720331076E+03  0.12525933633E+03 0.  0.
         35    2    3    3    0    0  0.27110909859E+02  0.10737146853E+03  0.52054516949E+03  0.96050879005E+03  0.79959128847E+03 0.  0.
         22    1    5    5    0    0 -0.33675349934E+02  0.41998974561E+03  0.10010419639E+03  0.43306612168E+03  0.00000000000E+00 0.  1.
         22    1    5    5    0    0  0.60786259793E+02 -0.31261827709E+03  0.42044097310E+03  0.52744266837E+03  0.00000000000E+00 0.  1.
          5    1    4    4  502    0 -0.37196477289E+02 -0.12359128052E+03  0.30256166602E+02  0.13264956902E+03  0.47000000000E+01 0. -1.
         -5    1    4    4    0  502  0.10085567430E+02  0.16219811994E+02 -0.28408979151E+02  0.34553741735E+02  0.47000000000E+01 0. -1.
<mgrwt>
<rscale>  0 0.99942024E+03</rscale>
<asrwt>0</asrwt>
<pdfrwt beam="1">  1        2 0.12693111E+00 0.99942024E+03</pdfrwt>
<pdfrwt beam="2">  1       -2 0.46563058E-01 0.99942024E+03</pdfrwt>
<totfact> 0.17489089E+02</totfact>
</mgrwt>
</event>
<event>
 9    1  0.4369420E-036  0.1001176E+04  0.7818608E-02  0.8679918E-01
          2   -1    0    0  501    0  0.00000000000E+00  0.00000000000E+00  0.14603280822E+04  0.14603280822E+04  0.00000000000E+00 0.  1.
         -2   -1    0    0    0  501 -0.00000000000E+00 -0.00000000000E+00 -0.17159744227E+03  0.17159744227E+03  0.00000000000E+00 0.  1.
         36    2    1    2    0    0  0.14210854715E-13  0.71054273576E-14  0.12887306399E+04  0.16319255244E+04  0.10011764355E+04 0.  0.
         25    2    3    3    0    0  0.42015857061E+02  0.30131411163E+02  0.45685628690E+03  0.47654094704E+03  0.12530112985E+03 0.  0.
         35    2    3    3    0    0 -0.42015857061E+02 -0.30131411163E+02  0.83187435300E+03  0.11553845774E+04  0.80014083030E+03 0.  0.
         22    1    5    5    0    0  0.16498327900E+03 -0.22522403163E+03  0.82488692706E+03  0.87085233491E+03  0.00000000000E+00 0.  1.
         22    1    5    5    0    0 -0.20699913607E+03  0.19509262047E+03  0.69874259375E+01  0.28453224248E+03  0.00000000000E+00 0.  1.
          5    1    4    4  502    0  0.59218940933E+02 -0.18200880759E+02  0.11396241525E+03  0.12979860213E+03  0.47000000000E+01 0. -1.
         -5    1    4    4    0  502 -0.17203083872E+02  0.48332291922E+02  0.34289387165E+03  0.34674234491E+03  0.47000000000E+01 0. -1.
<mgrwt>
<rscale>  0 0.10011764E+04</rscale>
<asrwt>0</asrwt>
<pdfrwt beam="1">  1        2 0.22466585E+00 0.10011764E+04</pdfrwt>
<pdfrwt beam="2">  1       -2 0.26399607E-01 0.10011764E+04</pdfrwt>
<totfact> 0.20772893E+02</totfact>
</mgrwt>
</event>
<event>
 9    1  0.4369420E-036  0.9996062E+03  0.7818608E-02  0.8681413E-01
         -2   -1    0    0    0  501 -0.00000000000E+00  0.00000000000E+00  0.25386550383E+04  0.25386550383E+04  0.00000000000E+00 0. -1.
          2   -1    0    0  501    0  0.00000000000E+00 -0.00000000000E+00 -0.98399798275E+02  0.98399798275E+02  0.00000000000E+00 0. -1.
         36    2    1    2    0    0 -0.28421709430E-13  0.00000000000E+00  0.24402552400E+04  0.26370548365E+04  0.99960620977E+03 0.  0.
         25    2    3    3    0    0  0.13232113042E+03 -0.40926104234E+02  0.43970293683E+03  0.47783001613E+03  0.12569416890E+03 0.  0.
         35    2    3    3    0    0 -0.13232113042E+03  0.40926104234E+02  0.20005523032E+04  0.21592248204E+04  0.80053637008E+03 0.  0.
         22    1    5    5    0    0  0.33684081634E+03  0.34483905278E+02  0.72688278692E+03  0.80187870729E+03  0.00000000000E+00 0.  1.
         22    1    5    5    0    0 -0.46916194676E+03  0.64421989563E+01  0.12736695162E+04  0.13573461131E+04  0.00000000000E+00 0.  1.
          5    1    4    4  502    0  0.15566615916E+03 -0.23704525790E+02  0.37656445658E+03  0.40818713553E+03  0.47000000000E+01 0. -1.
         -5    1    4    4    0  502 -0.23345028735E+02 -0.17221578444E+02  0.63138480253E+02  0.69642880608E+02  0.47000000000E+01 0. -1.
<mgrwt>
<rscale>  0 0.99960621E+03</rscale>
<asrwt>0</asrwt>
<pdfrwt beam="1">  1        2 0.15138432E-01 0.99960621E+03</pdfrwt>
<pdfrwt beam="2">  1       -2 0.39056226E+00 0.99960621E+03</pdfrwt>
<totfact> 0.48175323E+00</totfact>
</mgrwt>
</event>
<event>
 9    1  0.4369420E-036  0.1000056E+04  0.7818608E-02  0.8680985E-01
          1   -1    0    0  501    0  0.00000000000E+00  0.00000000000E+00  0.91595506464E+03  0.91595506464E+03  0.00000000000E+00 0.  1.
         -1   -1    0    0    0  501 -0.00000000000E+00 -0.00000000000E+00 -0.27296970023E+03  0.27296970023E+03  0.00000000000E+00 0.  1.
         36    2    1    2    0    0  0.00000000000E+00  0.28421709430E-13  0.64298536441E+03  0.11889247649E+04  0.10000559573E+04 0.  0.
         25    2    3    3    0    0 -0.74676044314E+02 -0.10734214794E+03  0.62946829484E+02  0.19104658271E+03  0.12424832033E+03 0.  0.
         35    2    3    3    0    0  0.74676044314E+02  0.10734214794E+03  0.58003853493E+03  0.99787818215E+03  0.80138462432E+03 0.  0.
         22    1    5    5    0    0  0.35730155734E+03  0.30256444196E+03  0.34770605618E+03  0.58318877383E+03  0.00000000000E+00 0.  1.
         22    1    5    5    0    0 -0.28262551302E+03 -0.19522229402E+03  0.23233247874E+03  0.41468940832E+03  0.00000000000E+00 0.  1.
          5    1    4    4  502    0 -0.15320026520E+02 -0.95842937796E+02 -0.82514154280E+01  0.97523062885E+02  0.47000000000E+01 0.  1.
         -5    1    4    4    0  502 -0.59356017794E+02 -0.11499210143E+02  0.71198244912E+02  0.93523519827E+02  0.47000000000E+01 0.  1.
<mgrwt>
<rscale>  0 0.10000560E+04</rscale>
<asrwt>0</asrwt>
<pdfrwt beam="1">  1        1 0.14091616E+00 0.10000560E+04</pdfrwt>
<pdfrwt beam="2">  1       -1 0.41995339E-01 0.10000560E+04</pdfrwt>
<totfact> 0.11082666E+02</totfact>
</mgrwt>
</event>
<event>
 9    1  0.4369420E-036  0.9995643E+03  0.7818608E-02  0.8681453E-01
          1   -1    0    0  501    0  0.00000000000E+00  0.00000000000E+00  0.16891048266E+04  0.16891048266E+04  0.00000000000E+00 0. -1.
         -1   -1    0    0    0  501 -0.00000000000E+00 -0.00000000000E+00 -0.14787844295E+03  0.14787844295E+03  0.00000000000E+00 0. -1.
         36    2    1    2    0    0 -0.71054273576E-14  0.00000000000E+00  0.15412263836E+04  0.18369832695E+04  0.99956428854E+03 0.  0.
         25    2    3    3    0    0 -0.32737367596E+02 -0.10624018648E+03  0.44376998646E+03  0.47427604983E+03  0.12508900070E+03 0.  0.
         35    2    3    3    0    0  0.32737367596E+02  0.10624018648E+03  0.10974563972E+04  0.13627072197E+04  0.80012605912E+03 0.  0.
         22    1    5    5    0    0 -0.40075669236E+02 -0.27860419932E+03  0.11319791041E+03  0.30338115641E+03  0.00000000000E+00 0.  1.
         22    1    5    5    0    0  0.72813036833E+02  0.38484438580E+03  0.98425848676E+03  0.10593260633E+04  0.00000000000E+00 0.  1.
          5    1    4    4  502    0 -0.69983620484E+02 -0.10909009847E+03  0.34216816786E+03  0.36592280855E+03  0.47000000000E+01 0. -1.
         -5    1    4    4    0  502  0.37246252887E+02  0.28499119906E+01  0.10160181860E+03  0.10835324127E+03  0.47000000000E+01 0. -1.
<mgrwt>
<rscale>  0 0.99956429E+03</rscale>
<asrwt>0</asrwt>
<pdfrwt beam="1">  1        1 0.25986227E+00 0.99956429E+03</pdfrwt>
<pdfrwt beam="2">  1       -1 0.22750531E-01 0.99956429E+03</pdfrwt>
<totfact> 0.85013414E+01</totfact>
</mgrwt>
</event>
<event>
 9    1  0.4369420E-036  0.9998210E+03  0.7818608E-02  0.8681208E-01
          2   -1    0    0  501    0  0.00000000000E+00  0.00000000000E+00  0.24299230769E+04  0.24299230769E+04  0.00000000000E+00 0.  1.
         -2   -1    0    0    0  501 -0.00000000000E+00 -0.00000000000E+00 -0.10284708170E+03  0.10284708170E+03  0.00000000000E+00 0.  1.
         36    2    1    2    0    0  0.14210854715E-13  0.00000000000E+00  0.23270759952E+04  0.25327701586E+04  0.99982097841E+03 0.  0.
         25    2    3    3    0    0 -0.39065930403E+02  0.11435550644E+03  0.25782051866E+03  0.31107038584E+03  0.12525987519E+03 0.  0.
         35    2    3    3    0    0  0.39065930403E+02 -0.11435550644E+03  0.20692554765E+04  0.22216997727E+04  0.79970514837E+03 0.  0.
         22    1    5    5    0    0 -0.26130565650E+03 -0.11493746723E+03  0.25508485085E+03  0.38283096612E+03  0.00000000000E+00 0. -1.
         22    1    5    5    0    0  0.30037158690E+03  0.58196078902E+00  0.18141706257E+04  0.18388688066E+04  0.00000000000E+00 0. -1.
          5    1    4    4  502    0 -0.19959120140E+02 -0.16580412296E+02  0.67409964399E+01  0.27217780616E+02  0.47000000000E+01 0. -1.
         -5    1    4    4    0  502 -0.19106810263E+02  0.13093591874E+03  0.25107952222E+03  0.28385260522E+03  0.47000000000E+01 0. -1.
<mgrwt>
<rscale>  0 0.99982098E+03</rscale>
<asrwt>0</asrwt>
<pdfrwt beam="1">  1        2 0.37383428E+00 0.99982098E+03</pdfrwt>
<pdfrwt beam="2">  1       -2 0.15822630E-01 0.99982098E+03</pdfrwt>
<totfact> 0.14035077E+02</totfact>
</mgrwt>
</event>
<event>
 9    1  0.4369420E-036  0.1000793E+04  0.7818608E-02  0.8680283E-01
          2   -1    0    0  501    0  0.00000000000E+00  0.00000000000E+00  0.98616685492E+02  0.98616685492E+02  0.00000000000E+00 0.  1.
         -2   -1    0    0    0  501 -0.00000000000E+00 -0.00000000000E+00 -0.25390910806E+04  0.25390910806E+04  0.00000000000E+00 0.  1.
         36    2    1    2    0    0 -0.14210854715E-13  0.14210854715E-13 -0.24404743952E+04  0.26377077661E+04  0.10007931785E+04 0.  0.
         25    2    3    3    0    0  0.12480251268E+03 -0.57278743726E+02 -0.53025937506E+03  0.56191571774E+03  0.12537044051E+03 0.  0.
         35    2    3    3    0    0 -0.12480251268E+03  0.57278743726E+02 -0.19102150201E+04  0.20757920484E+04  0.80070886315E+03 0.  0.
         22    1    5    5    0    0 -0.33315948840E+03 -0.26599925022E+03 -0.94172495760E+03  0.10337295302E+04  0.00000000000E+00 0. -1.
         22    1    5    5    0    0  0.20835697571E+03  0.32327799394E+03 -0.96849006251E+03  0.10420625182E+04  0.00000000000E+00 0. -1.
          5    1    4    4  502    0  0.43281547651E+02 -0.42112860909E+02 -0.41750173441E+03  0.42187269840E+03  0.47000000000E+01 0. -1.
         -5    1    4    4    0  502  0.81520965033E+02 -0.15165882817E+02 -0.11275764065E+03  0.14004301934E+03  0.47000000000E+01 0. -1.
<mgrwt>
<rscale>  0 0.10007932E+04</rscale>
<asrwt>0</asrwt>
<pdfrwt beam="1">  1        2 0.15171800E-01 0.10007932E+04</pdfrwt>
<pdfrwt beam="2">  1       -2 0.39062933E+00 0.10007932E+04</pdfrwt>
<totfact> 0.48002910E+00</totfact>
</mgrwt>
</event>
<event>
 9    1  0.4369420E-036  0.1000119E+04  0.7818608E-02  0.8680925E-01
         -2   -1    0    0    0  501 -0.00000000000E+00  0.00000000000E+00  0.27002841273E+03  0.27002841273E+03  0.00000000000E+00 0. -1.
          2   -1    0    0  501    0  0.00000000000E+00 -0.00000000000E+00 -0.92604873818E+03  0.92604873818E+03  0.00000000000E+00 0. -1.
         36    2    1    2    0    0 -0.71054273576E-14 -0.35527136788E-14 -0.65602032544E+03  0.11960771509E+04  0.10001189347E+04 0.  0.
         25    2    3    3    0    0  0.26952039677E+02 -0.77784111186E+01  0.42264235182E+02  0.13408656327E+03  0.12412100850E+03 0.  0.
         35    2    3    3    0    0 -0.26952039677E+02  0.77784111186E+01 -0.69828456062E+03  0.10619905876E+04  0.79964727506E+03 0.  0.
         22    1    5    5    0    0 -0.27173085007E+03  0.19682278338E+02 -0.76161041452E+03  0.80887296312E+03  0.00000000000E+00 0. -1.
         22    1    5    5    0    0  0.24477881040E+03 -0.11903867219E+02  0.63325853894E+02  0.25311762452E+03  0.00000000000E+00 0. -1.
          5    1    4    4  502    0  0.55428703852E+02 -0.42114606585E+02  0.53409847671E+02  0.87867417891E+02  0.47000000000E+01 0.  1.
         -5    1    4    4    0  502 -0.28476664175E+02  0.34336195467E+02 -0.11145612489E+02  0.46219145377E+02  0.47000000000E+01 0.  1.
<mgrwt>
<rscale>  0 0.10001189E+04</rscale>
<asrwt>0</asrwt>
<pdfrwt beam="1">  1        2 0.14246903E+00 0.10001189E+04</pdfrwt>
<pdfrwt beam="2">  1       -2 0.41542833E-01 0.10001189E+04</pdfrwt>
<totfact> 0.18700429E+02</totfact>
</mgrwt>
</event>
<event>
 9    1  0.4369420E-036  0.9999797E+03  0.7818608E-02  0.8681057E-01
          1   -1    0    0  501    0  0.00000000000E+00  0.00000000000E+00  0.26272746489E+04  0.26272746489E+04  0.00000000000E+00 0.  1.
         -1   -1    0    0    0  501 -0.00000000000E+00 -0.00000000000E+00 -0.95151783421E+02  0.95151783421E+02  0.00000000000E+00 0.  1.
         36    2    1    2    0    0  0.14210854715E-13  0.00000000000E+00  0.25321228654E+04  0.27224264323E+04  0.99997973655E+03 0.  0.
         25    2    3    3    0    0 -0.90917580188E+02 -0.56649537939E+02  0.22715657155E+03  0.28043530074E+03  0.12477449005E+03 0.  0.
         35    2    3    3    0    0  0.90917580188E+02  0.56649537939E+02  0.23049662939E+04  0.24419911315E+04  0.79935967751E+03 0.  0.
         22    1    5    5    0    0  0.22137763087E+02  0.17779224410E+03  0.22953732726E+04  0.23023550168E+04  0.00000000000E+00 0. -1.
         22    1    5    5    0    0  0.68779817101E+02 -0.12114270616E+03  0.95930212910E+01  0.13963611479E+03  0.00000000000E+00 0. -1.
          5    1    4    4  502    0 -0.26718208930E+02  0.17969236762E+02 -0.30725327376E+00  0.32541366948E+02  0.47000000000E+01 0.  1.
         -5    1    4    4    0  502 -0.64199371257E+02 -0.74618774702E+02  0.22746382483E+03  0.24789393380E+03  0.47000000000E+01 0.  1.
<mgrwt>
<rscale>  0 0.99997974E+03</rscale>
<asrwt>0</asrwt>
<pdfrwt beam="1">  1        1 0.40419604E+00 0.99997974E+03</pdfrwt>
<pdfrwt beam="2">  1       -1 0.14638738E-01 0.99997974E+03</pdfrwt>
<totfact> 0.38441250E+01</totfact>
</mgrwt>
</event>
<event>
 9    1  0.4369420E-036  0.1000314E+04  0.7818608E-02  0.8680739E-01
          1   -1    0    0  501    0  0.00000000000E+00  0.00000000000E+00  0.63678842497E+03  0.63678842497E+03  0.00000000000E+00 0. -1.
         -1   -1    0    0    0  501 -0.00000000000E+00 -0.00000000000E+00 -0.39284199638E+03  0.39284199638E+03  0.00000000000E+00 0. -1.
         36    2    1    2    0    0 -0.14210854715E-13  0.00000000000E+00  0.24394642859E+03  0.10296304213E+04  0.10003144228E+04 0.  0.
         25    2    3    3    0    0 -0.94038684117E+02 -0.10217756174E+03  0.77287782390E+02  0.20094182719E+03  0.12296620826E+03 0.  0.
         35    2    3    3    0    0  0.94038684117E+02  0.10217756174E+03  0.16665864620E+03  0.82868859416E+03  0.79979131872E+03 0.  0.
         22    1    5    5    0    0 -0.46399156939E+02 -0.14503414389E+03 -0.26862114977E+03  0.30878002973E+03  0.00000000000E+00 0.  1.
         22    1    5    5    0    0  0.14043784106E+03  0.24721170562E+03  0.43527979596E+03  0.51990856443E+03  0.00000000000E+00 0.  1.
          5    1    4    4  502    0 -0.11299334201E+03 -0.11465743740E+03  0.59346779452E+02  0.17163319469E+03  0.47000000000E+01 0.  1.
         -5    1    4    4    0  502  0.18954657889E+02  0.12479875665E+02  0.17941002939E+02  0.29308632496E+02  0.47000000000E+01 0.  1.
<mgrwt>
<rscale>  0 0.10003144E+04</rscale>
<asrwt>0</asrwt>
<pdfrwt beam="1">  1        1 0.97967450E-01 0.10003144E+04</pdfrwt>
<pdfrwt beam="2">  1       -1 0.60437230E-01 0.10003144E+04</pdfrwt>
<totfact> 0.10095888E+02</totfact>
</mgrwt>
</event>
<event>
 9    1  0.4369420E-036  0.1000646E+04  0.7818608E-02  0.8680423E-01
          2   -1    0    0  501    0  0.00000000000E+00  0.00000000000E+00  0.30167838566E+04  0.30167838566E+04  0.00000000000E+00 0.  1.
         -2   -1    0    0    0  501 -0.00000000000E+00 -0.00000000000E+00 -0.82976798448E+02  0.82976798448E+02  0.00000000000E+00 0.  1.
         36    2    1    2    0    0 -0.28421709430E-13  0.28421709430E-13  0.29338070582E+04  0.30997606551E+04  0.10006459235E+04 0.  0.
         25    2    3    3    0    0 -0.96821931637E+02 -0.10215846520E+03  0.61622444361E+03  0.64457903717E+03  0.12624869027E+03 0.  0.
         35    2    3    3    0    0  0.96821931637E+02  0.10215846520E+03  0.23175826146E+04  0.24551816179E+04  0.79807065044E+03 0.  0.
         22    1    5    5    0    0 -0.13038283508E+03 -0.54689684615E+02  0.20970985982E+04  0.21018594567E+04  0.00000000000E+00 0. -1.
         22    1    5    5    0    0  0.22720476672E+03  0.15684814982E+03  0.22048401643E+03  0.35332216124E+03  0.00000000000E+00 0. -1.
          5    1    4    4  502    0 -0.12531766088E+03 -0.73418912161E+02  0.42804362393E+03  0.45203792626E+03  0.47000000000E+01 0. -1.
         -5    1    4    4    0  502  0.28495729239E+02 -0.28739553042E+02  0.18818081968E+03  0.19254111091E+03  0.47000000000E+01 0. -1.
<mgrwt>
<rscale>  0 0.10006459E+04</rscale>
<asrwt>0</asrwt>
<pdfrwt beam="1">  1        2 0.46412051E+00 0.10006459E+04</pdfrwt>
<pdfrwt beam="2">  1       -2 0.12765664E-01 0.10006459E+04</pdfrwt>
<totfact> 0.85296967E+01</totfact>
</mgrwt>
</event>
<event>
 9    1  0.4369420E-036  0.9997677E+03  0.7818608E-02  0.8681259E-01
         -2   -1    0    0    0  501 -0.00000000000E+00  0.00000000000E+00  0.13533980066E+03  0.13533980066E+03  0.00000000000E+00 0.  1.
          2   -1    0    0  501    0  0.00000000000E+00 -0.00000000000E+00 -0.18463444086E+04  0.18463444086E+04  0.00000000000E+00 0.  1.
         36    2    1    2    0    0  0.14210854715E-13  0.00000000000E+00 -0.17110046079E+04  0.19816842092E+04  0.99976774145E+03 0.  0.
         25    2    3    3    0    0  0.65584419971E+02  0.13523188795E+03 -0.27647365643E+03  0.33343853591E+03  0.11024787918E+03 0.  0.
         35    2    3    3    0    0 -0.65584419971E+02 -0.13523188795E+03 -0.14345309515E+04  0.16482456733E+04  0.79765015467E+03 0.  0.
         22    1    5    5    0    0  0.35848003856E+02 -0.36194193288E+03 -0.25835515346E+03  0.44613274648E+03  0.00000000000E+00 0. -1.
         22    1    5    5    0    0 -0.10143242383E+03  0.22671004493E+03 -0.11761757980E+04  0.12021129268E+04  0.00000000000E+00 0. -1.
          5    1    4    4  502    0 -0.71831629983E+01 -0.16083259942E+02 -0.31866123031E+02  0.36712516640E+02  0.47000000000E+01 0. -1.
         -5    1    4    4    0  502  0.72767582969E+02  0.15131514789E+03 -0.24460753340E+03  0.29672601927E+03  0.47000000000E+01 0. -1.
<mgrwt>
<rscale>  0 0.99976774E+03</rscale>
<asrwt>0</asrwt>
<pdfrwt beam="1">  1        2 0.28405299E+00 0.99976774E+03</pdfrwt>
<pdfrwt beam="2">  1       -2 0.20821508E-01 0.99976774E+03</pdfrwt>
<totfact> 0.19107105E+02</totfact>
</mgrwt>
</event>
<event>
 9    1  0.4369420E-036  0.9985827E+03  0.7818608E-02  0.8682389E-01
         -2   -1    0    0    0  501 -0.00000000000E+00  0.00000000000E+00  0.19211698042E+03  0.19211698042E+03  0.00000000000E+00 0.  1.
          2   -1    0    0  501    0  0.00000000000E+00 -0.00000000000E+00 -0.12976045566E+04  0.12976045566E+04  0.00000000000E+00 0.  1.
         36    2    1    2    0    0  0.00000000000E+00  0.35527136788E-13 -0.11054875762E+04  0.14897215371E+04  0.99858273408E+03 0.  0.
         25    2    3    3    0    0  0.17573331834E+02 -0.51349859423E+02 -0.28906043641E+02  0.14790728997E+03  0.13451905817E+03 0.  0.
         35    2    3    3    0    0 -0.17573331834E+02  0.51349859423E+02 -0.10765815326E+04  0.13418142471E+04  0.79905697379E+03 0.  0.
         22    1    5    5    0    0  0.41812386529E+02  0.42240102952E+03 -0.54382498756E+03  0.68986703248E+03  0.00000000000E+00 0. -1.
         22    1    5    5    0    0 -0.59385718363E+02 -0.37105117010E+03 -0.53275654501E+03  0.65194721461E+03  0.00000000000E+00 0. -1.
          5    1    4    4  502    0 -0.93980075518E+01 -0.86216604423E+02 -0.48455936871E+02  0.99456991922E+02  0.47000000000E+01 0. -1.
         -5    1    4    4    0  502  0.26971339386E+02  0.34866745000E+02  0.19549893230E+02  0.48450298043E+02  0.47000000000E+01 0. -1.
<mgrwt>
<rscale>  0 0.99858273E+03</rscale>
<asrwt>0</asrwt>
<pdfrwt beam="1">  1        2 0.19963147E+00 0.99858273E+03</pdfrwt>
<pdfrwt beam="2">  1       -2 0.29556459E-01 0.99858273E+03</pdfrwt>
<totfact> 0.21006111E+02</totfact>
</mgrwt>
</event>
<event>
 9    1  0.4369420E-036  0.9999822E+03  0.7818608E-02  0.8681055E-01
         -2   -1    0    0    0  501 -0.00000000000E+00  0.00000000000E+00  0.77021509306E+02  0.77021509306E+02  0.00000000000E+00 0. -1.
          2   -1    0    0  501    0  0.00000000000E+00 -0.00000000000E+00 -0.32457307083E+04  0.32457307083E+04  0.00000000000E+00 0. -1.
         36    2    1    2    0    0  0.31974423109E-13  0.00000000000E+00 -0.31687091990E+04  0.33227522176E+04  0.99998215575E+03 0.  0.
         25    2    3    3    0    0  0.24407237346E+02 -0.10334951540E+03 -0.90257125564E+03  0.91717512414E+03  0.12368711030E+03 0.  0.
         35    2    3    3    0    0 -0.24407237346E+02  0.10334951540E+03 -0.22661379434E+04  0.24055770935E+04  0.80008945673E+03 0.  0.
         22    1    5    5    0    0 -0.25633584357E+03 -0.19258137646E+03 -0.45994101772E+03  0.56066156551E+03  0.00000000000E+00 0.  1.
         22    1    5    5    0    0  0.23192860623E+03  0.29593089186E+03 -0.18061969257E+04  0.18449155280E+04  0.00000000000E+00 0.  1.
          5    1    4    4  502    0 -0.12065918914E+02 -0.10512232765E+03 -0.41811418850E+03  0.43132105768E+03  0.47000000000E+01 0.  1.
         -5    1    4    4    0  502  0.36473156260E+02  0.17728122547E+01 -0.48445706714E+03  0.48585406646E+03  0.47000000000E+01 0.  1.
<mgrwt>
<rscale>  0 0.99998216E+03</rscale>
<asrwt>0</asrwt>
<pdfrwt beam="1">  1        2 0.49934322E+00 0.99998216E+03</pdfrwt>
<pdfrwt beam="2">  1       -2 0.11849462E-01 0.99998216E+03</pdfrwt>
<totfact> 0.67101533E+01</totfact>
</mgrwt>
</event>
<event>
 9    1  0.4369420E-036  0.9980537E+03  0.7818608E-02  0.8682894E-01
          2   -1    0    0  501    0  0.00000000000E+00  0.00000000000E+00  0.60290464723E+03  0.60290464723E+03  0.00000000000E+00 0. -1.
         -2   -1    0    0    0  501 -0.00000000000E+00 -0.00000000000E+00 -0.41304671922E+03  0.41304671922E+03  0.00000000000E+00 0. -1.
         36    2    1    2    0    0  0.00000000000E+00  0.00000000000E+00  0.18985792802E+03  0.10159513664E+04  0.99805367900E+03 0.  0.
         25    2    3    3    0    0  0.97640599789E+02 -0.92615103576E+02  0.94801879359E+01  0.18475792164E+03  0.12623142044E+03 0.  0.
         35    2    3    3    0    0 -0.97640599789E+02  0.92615103576E+02  0.18037774008E+03  0.83119344481E+03  0.80014696741E+03 0.  0.
         22    1    5    5    0    0  0.31888694327E+03  0.19894246558E+03  0.13305886146E+03  0.39871248765E+03  0.00000000000E+00 0. -1.
         22    1    5    5    0    0 -0.41652754305E+03 -0.10632736200E+03  0.47318878621E+02  0.43248095716E+03  0.00000000000E+00 0. -1.
          5    1    4    4  502    0  0.63256561468E+02 -0.10858773808E+03 -0.30559551885E+02  0.12941663588E+03  0.47000000000E+01 0.  1.
         -5    1    4    4    0  502  0.34384038321E+02  0.15972634506E+02  0.40039739821E+02  0.55341285757E+02  0.47000000000E+01 0.  1.
<mgrwt>
<rscale>  0 0.99805368E+03</rscale>
<asrwt>0</asrwt>
<pdfrwt beam="1">  1        2 0.92754562E-01 0.99805368E+03</pdfrwt>
<pdfrwt beam="2">  1       -2 0.63545649E-01 0.99805368E+03</pdfrwt>
<totfact> 0.13671966E+02</totfact>
</mgrwt>
</event>
<event>
 9    1  0.4369420E-036  0.1000293E+04  0.7818608E-02  0.8680759E-01
          1   -1    0    0  501    0  0.00000000000E+00  0.00000000000E+00  0.23684068212E+04  0.23684068212E+04  0.00000000000E+00 0.  1.
         -1   -1    0    0    0  501 -0.00000000000E+00 -0.00000000000E+00 -0.10561798319E+03  0.10561798319E+03  0.00000000000E+00 0.  1.
         36    2    1    2    0    0  0.00000000000E+00 -0.14210854715E-13  0.22627888380E+04  0.24740248044E+04  0.10002926608E+04 0.  0.
         25    2    3    3    0    0 -0.10326925860E+03 -0.45639481043E+02  0.63603743355E+03  0.65755177605E+03  0.12281375864E+03 0.  0.
         35    2    3    3    0    0  0.10326925860E+03  0.45639481043E+02  0.16267514044E+04  0.18164730283E+04  0.80031658033E+03 0.  0.
         22    1    5    5    0    0  0.40609351951E+02 -0.11503243468E+03 -0.49297871216E+02  0.13157454389E+03  0.00000000000E+00 0. -1.
         22    1    5    5    0    0  0.62659906654E+02  0.16067191572E+03  0.16760492756E+04  0.16848984844E+04  0.00000000000E+00 0. -1.
          5    1    4    4  502    0 -0.54988753292E+01  0.73039790423E+01  0.35691542190E+03  0.35706343152E+03  0.47000000000E+01 0.  1.
         -5    1    4    4    0  502 -0.97770383275E+02 -0.52943460085E+02  0.27912201165E+03  0.30048834453E+03  0.47000000000E+01 0.  1.
<mgrwt>
<rscale>  0 0.10002927E+04</rscale>
<asrwt>0</asrwt>
<pdfrwt beam="1">  1        1 0.36437024E+00 0.10002927E+04</pdfrwt>
<pdfrwt beam="2">  1       -1 0.16248922E-01 0.10002927E+04</pdfrwt>
<totfact> 0.49348631E+01</totfact>
</mgrwt>
</event>
<event>
 9    1  0.4369420E-036  0.1000038E+04  0.7818608E-02  0.8681002E-01
          1   -1    0    0  501    0  0.00000000000E+00  0.00000000000E+00  0.11042002461E+04  0.11042002461E+04  0.00000000000E+00 0.  1.
         -1   -1    0    0    0  501 -0.00000000000E+00 -0.00000000000E+00 -0.22642553515E+03  0.22642553515E+03  0.00000000000E+00 0.  1.
         36    2    1    2    0    0  0.28421709430E-13 -0.71054273576E-14  0.87777471092E+03  0.13306257812E+04  0.10000382625E+04 0.  0.
         25    2    3    3    0    0 -0.94122832121E+02 -0.25645442654E+02  0.29652185173E+03  0.33640676828E+03  0.12540936543E+03 0.  0.
         35    2    3    3    0    0  0.94122832121E+02  0.25645442654E+02  0.58125285919E+03  0.99421901293E+03  0.80068705691E+03 0.  0.
         22    1    5    5    0    0  0.38972560512E+03 -0.98652953818E+02  0.97231208029E+02  0.41360894622E+03  0.00000000000E+00 0.  1.
         22    1    5    5    0    0 -0.29560277300E+03  0.12429839647E+03  0.48402165116E+03  0.58061006671E+03  0.00000000000E+00 0.  1.
          5    1    4    4  502    0 -0.28146214542E+01 -0.43965337526E+02  0.18881708585E+03  0.19394549468E+03  0.47000000000E+01 0. -1.
         -5    1    4    4    0  502 -0.91308210667E+02  0.18319894872E+02  0.10770476588E+03  0.14246127360E+03  0.47000000000E+01 0. -1.
<mgrwt>
<rscale>  0 0.10000383E+04</rscale>
<asrwt>0</asrwt>
<pdfrwt beam="1">  1        1 0.16987696E+00 0.10000383E+04</pdfrwt>
<pdfrwt beam="2">  1       -1 0.34834698E-01 0.10000383E+04</pdfrwt>
<totfact> 0.10937054E+02</totfact>
</mgrwt>
</event>
<event>
 9    1  0.4369420E-036  0.9995054E+03  0.7818608E-02  0.8681509E-01
          2   -1    0    0  501    0  0.00000000000E+00  0.00000000000E+00  0.67436389613E+03  0.67436389613E+03  0.00000000000E+00 0.  1.
         -2   -1    0    0    0  501 -0.00000000000E+00 -0.00000000000E+00 -0.37035307334E+03  0.37035307334E+03  0.00000000000E+00 0.  1.
         36    2    1    2    0    0 -0.28421709430E-13  0.28421709430E-13  0.30401082279E+03  0.10447169695E+04  0.99950536063E+03 0.  0.
         25    2    3    3    0    0 -0.68650888261E+02 -0.11447579125E+03  0.20214048465E+02  0.18540747447E+03  0.12708136209E+03 0.  0.
         35    2    3    3    0    0  0.68650888261E+02  0.11447579125E+03  0.28379677432E+03  0.85930949500E+03  0.80003409168E+03 0.  0.
         22    1    5    5    0    0  0.43160739960E+03  0.10277517127E+03  0.11208591772E+03  0.45761439681E+03  0.00000000000E+00 0.  1.
         22    1    5    5    0    0 -0.36295651134E+03  0.11700619987E+02  0.17171085661E+03  0.40169509819E+03  0.00000000000E+00 0.  1.
          5    1    4    4  502    0 -0.56520574036E+02 -0.34570904810E+02 -0.46021739005E+02  0.80807259635E+02  0.47000000000E+01 0. -1.
         -5    1    4    4    0  502 -0.12130314224E+02 -0.79904886444E+02  0.66235787469E+02  0.10460021483E+03  0.47000000000E+01 0. -1.
<mgrwt>
<rscale>  0 0.99950536E+03</rscale>
<asrwt>0</asrwt>
<pdfrwt beam="1">  1        2 0.10374829E+00 0.99950536E+03</pdfrwt>
<pdfrwt beam="2">  1       -2 0.56977396E-01 0.99950536E+03</pdfrwt>
<totfact> 0.15007360E+02</totfact>
</mgrwt>
</event>
<event>
 9    1  0.4369420E-036  0.9991511E+03  0.7818608E-02  0.8681847E-01
          1   -1    0    0  501    0  0.00000000000E+00  0.00000000000E+00  0.10470812968E+04  0.10470812968E+04  0.00000000000E+00 0.  1.
         -1   -1    0    0    0  501 -0.00000000000E+00 -0.00000000000E+00 -0.23835373698E+03  0.23835373698E+03  0.00000000000E+00 0.  1.
         36    2    1    2    0    0  0.71054273576E-14  0.14210854715E-13  0.80872755987E+03  0.12854350338E+04  0.99915111974E+03 0.  0.
         25    2    3    3    0    0 -0.60843351344E+02 -0.95480026850E+02  0.25594861108E+03  0.30644962349E+03  0.12483321391E+03 0.  0.
         35    2    3    3    0    0  0.60843351344E+02  0.95480026850E+02  0.55277894879E+03  0.97898541033E+03  0.80001844884E+03 0.  0.
         22    1    5    5    0    0 -0.11852800726E+03 -0.18975736194E+03 -0.99466394725E+02  0.24484752111E+03  0.00000000000E+00 0. -1.
         22    1    5    5    0    0  0.17937135860E+03  0.28523738879E+03  0.65224534352E+03  0.73413788922E+03  0.00000000000E+00 0. -1.
          5    1    4    4  502    0 -0.62031051767E+02 -0.55660089922E+02  0.51456002018E+02  0.98059712100E+02  0.47000000000E+01 0. -1.
         -5    1    4    4    0  502  0.11877004233E+01 -0.39819936927E+02  0.20449260906E+03  0.20838991139E+03  0.47000000000E+01 0. -1.
<mgrwt>
<rscale>  0 0.99915112E+03</rscale>
<asrwt>0</asrwt>
<pdfrwt beam="1">  1        1 0.16108943E+00 0.99915112E+03</pdfrwt>
<pdfrwt beam="2">  1       -1 0.36669806E-01 0.99915112E+03</pdfrwt>
<totfact> 0.11069082E+02</totfact>
</mgrwt>
</event>
<event>
 9    1  0.4369420E-036  0.9962041E+03  0.7818608E-02  0.8684661E-01
         -2   -1    0    0    0  501 -0.00000000000E+00  0.00000000000E+00  0.70433368032E+02  0.70433368032E+02  0.00000000000E+00 0.  1.
          2   -1    0    0  501    0  0.00000000000E+00 -0.00000000000E+00 -0.35225580881E+04  0.35225580881E+04  0.00000000000E+00 0.  1.
         36    2    1    2    0    0  0.10658141036E-13 -0.28421709430E-13 -0.34521247201E+04  0.35929914561E+04  0.99620405587E+03 0.  0.
         25    2    3    3    0    0 -0.30772171307E+02  0.74373955290E+02 -0.24879484629E+03  0.29008851447E+03  0.12559482049E+03 0.  0.
         35    2    3    3    0    0  0.30772171307E+02 -0.74373955290E+02 -0.32033298738E+04  0.33029029417E+04  0.80085401294E+03 0.  0.
         22    1    5    5    0    0 -0.20278003787E+03 -0.35363391477E+03 -0.21535012055E+04  0.21917445406E+04  0.00000000000E+00 0. -1.
         22    1    5    5    0    0  0.23355220917E+03  0.27925995948E+03 -0.10498286683E+04  0.11111584010E+04  0.00000000000E+00 0. -1.
          5    1    4    4  502    0  0.32853271962E+01  0.62267972236E+01  0.14040247727E+02  0.16394661774E+02  0.47000000000E+01 0. -1.
         -5    1    4    4    0  502 -0.34057498503E+02  0.68147158067E+02 -0.26283509402E+03  0.27369385270E+03  0.47000000000E+01 0. -1.
<mgrwt>
<rscale>  0 0.99620406E+03</rscale>
<asrwt>0</asrwt>
<pdfrwt beam="1">  1        2 0.54193200E+00 0.99620406E+03</pdfrwt>
<pdfrwt beam="2">  1       -2 0.10835903E-01 0.99620406E+03</pdfrwt>
<totfact> 0.48692623E+01</totfact>
</mgrwt>
</event>
<event>
 9    1  0.4369420E-036  0.9988549E+03  0.7818608E-02  0.8682129E-01
          2   -1    0    0  501    0  0.00000000000E+00  0.00000000000E+00  0.44874605889E+03  0.44874605889E+03  0.00000000000E+00 0.  1.
         -2   -1    0    0    0  501 -0.00000000000E+00 -0.00000000000E+00 -0.55583278466E+03  0.55583278466E+03  0.00000000000E+00 0.  1.
         36    2    1    2    0    0  0.14210854715E-13  0.42632564146E-13 -0.10708672577E+03  0.10045788435E+04  0.99885488739E+03 0.  0.
         25    2    3    3    0    0 -0.11599893248E+03 -0.76475236538E+02 -0.19915404743E+02  0.18782043955E+03  0.12480256419E+03 0.  0.
         35    2    3    3    0    0  0.11599893248E+03  0.76475236538E+02 -0.87171321029E+02  0.81675840399E+03  0.80011951429E+03 0.  0.
         22    1    5    5    0    0  0.23147964693E+03 -0.31435293862E+03 -0.11863543847E+03  0.40801343632E+03  0.00000000000E+00 0. -1.
         22    1    5    5    0    0 -0.11548071445E+03  0.39082817516E+03  0.31464117439E+02  0.40874496767E+03  0.00000000000E+00 0. -1.
          5    1    4    4  502    0 -0.34940091574E+02 -0.91655710623E+02 -0.34210902482E+02  0.10399064928E+03  0.47000000000E+01 0. -1.
         -5    1    4    4    0  502 -0.81058840901E+02  0.15180474086E+02  0.14295497739E+02  0.83829790273E+02  0.47000000000E+01 0. -1.
<mgrwt>
<rscale>  0 0.99885489E+03</rscale>
<asrwt>0</asrwt>
<pdfrwt beam="1">  1        2 0.69037856E-01 0.99885489E+03</pdfrwt>
<pdfrwt beam="2">  1       -2 0.85512735E-01 0.99885489E+03</pdfrwt>
<totfact> 0.99411397E+01</totfact>
</mgrwt>
</event>
<event>
 9    1  0.4369420E-036  0.1000214E+04  0.7818608E-02  0.8680834E-01
         -2   -1    0    0    0  501 -0.00000000000E+00  0.00000000000E+00  0.11532658193E+03  0.11532658193E+03  0.00000000000E+00 0. -1.
          2   -1    0    0  501    0  0.00000000000E+00 -0.00000000000E+00 -0.21686870169E+04  0.21686870169E+04  0.00000000000E+00 0. -1.
         36    2    1    2    0    0  0.14210854715E-13 -0.14210854715E-13 -0.20533604349E+04  0.22840135988E+04  0.10002144989E+04 0.  0.
         25    2    3    3    0    0 -0.12774446832E+03  0.22722793351E+02 -0.50516020627E+03  0.53629770935E+03  0.12487363425E+03 0.  0.
         35    2    3    3    0    0  0.12774446832E+03 -0.22722793351E+02 -0.15482002287E+04  0.17477158895E+04  0.80046980434E+03 0.  0.
         22    1    5    5    0    0  0.31916944330E+03  0.66910583448E+02 -0.19893872650E+03  0.38199839870E+03  0.00000000000E+00 0.  1.
         22    1    5    5    0    0 -0.19142497498E+03 -0.89633376799E+02 -0.13492615022E+04  0.13657174908E+04  0.00000000000E+00 0.  1.
          5    1    4    4  502    0 -0.20939209444E+02  0.45728745701E+02 -0.62662822278E+02  0.80487812564E+02  0.47000000000E+01 0. -1.
         -5    1    4    4    0  502 -0.10680525887E+03 -0.23005952350E+02 -0.44249738399E+03  0.45580989679E+03  0.47000000000E+01 0. -1.
<mgrwt>
<rscale>  0 0.10002145E+04</rscale>
<asrwt>0</asrwt>
<pdfrwt beam="1">  1        2 0.33364416E+00 0.10002145E+04</pdfrwt>
<pdfrwt beam="2">  1       -2 0.17742551E-01 0.10002145E+04</pdfrwt>
<totfact> 0.16477798E+02</totfact>
</mgrwt>
</event>
<event>
 9    1  0.4369420E-036  0.9994246E+03  0.7818608E-02  0.8681586E-01
         -1   -1    0    0    0  501 -0.00000000000E+00  0.00000000000E+00  0.42587050997E+03  0.42587050997E+03  0.00000000000E+00 0. -1.
          1   -1    0    0  501    0  0.00000000000E+00 -0.00000000000E+00 -0.58635758880E+03  0.58635758880E+03  0.00000000000E+00 0. -1.
         36    2    1    2    0    0 -0.71054273576E-14  0.28421709430E-13 -0.16048707884E+03  0.10122280988E+04  0.99942464522E+03 0.  0.
         25    2    3    3    0    0  0.22365322620E+02  0.12627983327E+03 -0.88830821634E+02  0.19931478260E+03  0.12405105298E+03 0.  0.
         35    2    3    3    0    0 -0.22365322620E+02 -0.12627983327E+03 -0.71656257201E+02  0.81291331617E+03  0.79952900915E+03 0.  0.
         22    1    5    5    0    0 -0.32376664534E+02  0.20813611979E+03 -0.32911711251E+03  0.39075179656E+03  0.00000000000E+00 0. -1.
         22    1    5    5    0    0  0.10011341914E+02 -0.33441595306E+03  0.25746085530E+03  0.42216151961E+03  0.00000000000E+00 0. -1.
          5    1    4    4  502    0 -0.21028966698E+02 -0.14176453975E+02  0.29259244671E+01  0.25958434500E+02  0.47000000000E+01 0.  1.
         -5    1    4    4    0  502  0.43394289318E+02  0.14045628725E+03 -0.91756746101E+02  0.17335634810E+03  0.47000000000E+01 0.  1.
<mgrwt>
<rscale>  0 0.99942465E+03</rscale>
<asrwt>0</asrwt>
<pdfrwt beam="1">  1        1 0.90208860E-01 0.99942465E+03</pdfrwt>
<pdfrwt beam="2">  1       -1 0.65518540E-01 0.99942465E+03</pdfrwt>
<totfact> 0.97484348E+01</totfact>
</mgrwt>
</event>
<event>
 9    1  0.4369420E-036  0.1000400E+04  0.7818608E-02  0.8680657E-01
         -1   -1    0    0    0  501 -0.00000000000E+00  0.00000000000E+00  0.45094424050E+03  0.45094424050E+03  0.00000000000E+00 0.  1.
          1   -1    0    0  501    0  0.00000000000E+00 -0.00000000000E+00 -0.55483615106E+03  0.55483615106E+03  0.00000000000E+00 0.  1.
         36    2    1    2    0    0  0.28421709430E-13  0.00000000000E+00 -0.10389191056E+03  0.10057803916E+04  0.10004002534E+04 0.  0.
         25    2    3    3    0    0 -0.38923654144E+02  0.95158923721E+02 -0.11552816474E+03  0.19868255265E+03  0.12473062280E+03 0.  0.
         35    2    3    3    0    0  0.38923654144E+02 -0.95158923721E+02  0.11636254184E+02  0.80709783891E+03  0.80043815972E+03 0.  0.
         22    1    5    5    0    0  0.36120779512E+03 -0.31638722257E+02  0.21424292459E+03  0.42115568468E+03  0.00000000000E+00 0. -1.
         22    1    5    5    0    0 -0.32228414098E+03 -0.63520201465E+02 -0.20260667040E+03  0.38594215423E+03  0.00000000000E+00 0. -1.
          5    1    4    4  502    0 -0.83832697596E+02  0.57702361474E+02 -0.61985540004E+02  0.11925510838E+03  0.47000000000E+01 0.  1.
         -5    1    4    4    0  502  0.44909043452E+02  0.37456562247E+02 -0.53542624738E+02  0.79427444269E+02  0.47000000000E+01 0.  1.
<mgrwt>
<rscale>  0 0.10004003E+04</rscale>
<asrwt>0</asrwt>
<pdfrwt beam="1">  1        1 0.85359408E-01 0.10004003E+04</pdfrwt>
<pdfrwt beam="2">  1       -1 0.69376037E-01 0.10004003E+04</pdfrwt>
<totfact> 0.94309144E+01</totfact>
</mgrwt>
</event>
<event>
 9    1  0.4369420E-036  0.1000218E+04  0.7818608E-02  0.8680830E-01
          2   -1    0    0  501    0  0.00000000000E+00  0.00000000000E+00  0.50572713521E+04  0.50572713521E+04  0.00000000000E+00 0. -1.
         -2   -1    0    0    0  501 -0.00000000000E+00 -0.00000000000E+00 -0.49455338560E+02  0.49455338560E+02  0.00000000000E+00 0. -1.
         36    2    1    2    0    0  0.14210854715E-13  0.00000000000E+00  0.50078160135E+04  0.51067266906E+04  0.10002181100E+04 0.  0.
         25    2    3    3    0    0  0.97521616811E+02  0.66987927437E+02  0.54995544958E+03  0.57621037374E+03  0.12477800331E+03 0.  0.
         35    2    3    3    0    0 -0.97521616811E+02 -0.66987927437E+02  0.44578605639E+04  0.45305163169E+04  0.79941193513E+03 0.  0.
         22    1    5    5    0    0 -0.20975725236E+03 -0.34857595412E+03  0.14070165944E+04  0.14646497866E+04  0.00000000000E+00 0. -1.
         22    1    5    5    0    0  0.11223563555E+03  0.28158802668E+03  0.30508439696E+04  0.30658665303E+04  0.00000000000E+00 0. -1.
          5    1    4    4  502    0  0.57868216349E+02  0.45433404710E+02  0.10140981649E+03  0.12537529903E+03  0.47000000000E+01 0. -1.
         -5    1    4    4    0  502  0.39653400462E+02  0.21554522727E+02  0.44854563309E+03  0.45083507471E+03  0.47000000000E+01 0. -1.
<mgrwt>
<rscale>  0 0.10002181E+04</rscale>
<asrwt>0</asrwt>
<pdfrwt beam="1">  1        2 0.77804134E+00 0.10002181E+04</pdfrwt>
<pdfrwt beam="2">  1       -2 0.76085176E-02 0.10002181E+04</pdfrwt>
<totfact> 0.25863536E+00</totfact>
</mgrwt>
</event>
<event>
 9    1 -0.4369420E-036  0.1000077E+04  0.7818608E-02  0.8680964E-01
          1   -1    0    0  501    0  0.00000000000E+00  0.00000000000E+00  0.73698227925E+02  0.73698227925E+02  0.00000000000E+00 0.  1.
         -1   -1    0    0    0  501 -0.00000000000E+00 -0.00000000000E+00 -0.33927360657E+04  0.33927360657E+04  0.00000000000E+00 0.  1.
         36    2    1    2    0    0 -0.35527136788E-14 -0.14210854715E-13 -0.33190378377E+04  0.34664342936E+04  0.10000772687E+04 0.  0.
         25    2    3    3    0    0 -0.21764405189E+02  0.87216098501E+02 -0.10004933922E+04  0.10123293347E+04  0.12547237460E+03 0.  0.
         35    2    3    3    0    0  0.21764405189E+02 -0.87216098501E+02 -0.23185444455E+04  0.24541049589E+04  0.79931374714E+03 0.  0.
         22    1    5    5    0    0  0.35841146521E+03 -0.11194389213E+03 -0.17749487111E+04  0.18142307296E+04  0.00000000000E+00 0. -1.
         22    1    5    5    0    0 -0.33664706002E+03  0.24727793627E+02 -0.54359573442E+03  0.63987422927E+03  0.00000000000E+00 0. -1.
          5    1    4    4  502    0 -0.31567238884E+02 -0.19016134064E+02 -0.12668625085E+03  0.13202121072E+03  0.47000000000E+01 0.  1.
         -5    1    4    4    0  502  0.98028336949E+01  0.10623223257E+03 -0.87380714137E+03  0.88030812395E+03  0.47000000000E+01 0.  1.
<mgrwt>
<rscale>  0 0.10000773E+04</rscale>
<asrwt>0</asrwt>
<pdfrwt beam="1">  1        1 0.11338189E-01 0.10000773E+04</pdfrwt>
<pdfrwt beam="2">  1       -1 0.52195939E+00 0.10000773E+04</pdfrwt>
<totfact>-0.28586968E+00</totfact>
</mgrwt>
</event>
<event>
 9    1  0.4369420E-036  0.9995063E+03  0.7818608E-02  0.8681508E-01
          2   -1    0    0  501    0  0.00000000000E+00  0.00000000000E+00  0.15273174020E+04  0.15273174020E+04  0.00000000000E+00 0. -1.
         -2   -1    0    0    0  501 -0.00000000000E+00 -0.00000000000E+00 -0.16352409576E+03  0.16352409576E+03  0.00000000000E+00 0. -1.
         36    2    1    2    0    0 -0.28421709430E-13  0.71054273576E-14  0.13637933063E+04  0.16908414978E+04  0.99950627234E+03 0.  0.
         25    2    3    3    0    0 -0.11986270851E+03  0.41911651333E+02  0.35517453884E+03  0.39732332948E+03  0.12487281409E+03 0.  0.
         35    2    3    3    0    0  0.11986270851E+03 -0.41911651333E+02  0.10086187674E+04  0.12935181683E+04  0.79984609667E+03 0.  0.
         22    1    5    5    0    0  0.29454914404E+03  0.28104258139E+03  0.71744299703E+03  0.82490519746E+03  0.00000000000E+00 0. -1.
         22    1    5    5    0    0 -0.17468643553E+03 -0.32295423272E+03  0.29117577039E+03  0.46861297085E+03  0.00000000000E+00 0. -1.
          5    1    4    4  502    0 -0.13848129861E+03  0.15722081928E+02  0.32200009074E+03  0.35089941915E+03  0.47000000000E+01 0.  1.
         -5    1    4    4    0  502  0.18618590108E+02  0.26189569405E+02  0.33174448109E+02  0.46423910332E+02  0.47000000000E+01 0.  1.
<mgrwt>
<rscale>  0 0.99950627E+03</rscale>
<asrwt>0</asrwt>
<pdfrwt beam="1">  1        2 0.23497190E+00 0.99950627E+03</pdfrwt>
<pdfrwt beam="2">  1       -2 0.25157554E-01 0.99950627E+03</pdfrwt>
<totfact> 0.20741575E+02</totfact>
</mgrwt>
</event>
<event>
 9    1  0.4369420E-036  0.9995458E+03  0.7818608E-02  0.8681471E-01
          1   -1    0    0  501    0  0.00000000000E+00  0.00000000000E+00  0.81794415010E+03  0.81794415010E+03  0.00000000000E+00 0. -1.
         -1   -1    0    0    0  501 -0.00000000000E+00 -0.00000000000E+00 -0.30536676141E+03  0.30536676141E+03  0.00000000000E+00 0. -1.
         36    2    1    2    0    0  0.14210854715E-13  0.28421709430E-13  0.51257738869E+03  0.11233109115E+04  0.99954580911E+03 0.  0.
         25    2    3    3    0    0 -0.28358481447E+01  0.13401001631E+03  0.14053834008E+03  0.23113185373E+03  0.12531632884E+03 0.  0.
         35    2    3    3    0    0  0.28358481447E+01 -0.13401001631E+03  0.37203904861E+03  0.89217905777E+03  0.79975226848E+03 0.  0.
         22    1    5    5    0    0 -0.16236023899E+03 -0.27700941975E+03 -0.12864585470E+03  0.34589712599E+03  0.00000000000E+00 0.  1.
         22    1    5    5    0    0  0.16519608714E+03  0.14299940344E+03  0.50068490331E+03  0.54628193179E+03  0.00000000000E+00 0.  1.
          5    1    4    4  502    0  0.37635843922E+02  0.13667145220E+03  0.11793611391E+03  0.18446289481E+03  0.47000000000E+01 0. -1.
         -5    1    4    4    0  502 -0.40471692067E+02 -0.26614358960E+01  0.22602226167E+02  0.46668958929E+02  0.47000000000E+01 0. -1.
<mgrwt>
<rscale>  0 0.99954581E+03</rscale>
<asrwt>0</asrwt>
<pdfrwt beam="1">  1        1 0.12583756E+00 0.99954581E+03</pdfrwt>
<pdfrwt beam="2">  1       -1 0.46979502E-01 0.99954581E+03</pdfrwt>
<totfact> 0.10954398E+02</totfact>
</mgrwt>
</event>
<event>
 9    1  0.4369420E-036  0.9998965E+03  0.7818608E-02  0.8681137E-01
         -1   -1    0    0    0  501 -0.00000000000E+00  0.00000000000E+00  0.21759607387E+03  0.21759607387E+03  0.00000000000E+00 0.  1.
          1   -1    0    0  501    0  0.00000000000E+00 -0.00000000000E+00 -0.11486798643E+04  0.11486798643E+04  0.00000000000E+00 0.  1.
         36    2    1    2    0    0  0.00000000000E+00  0.35527136788E-14 -0.93108379039E+03  0.13662759381E+04  0.99989645184E+03 0.  0.
         25    2    3    3    0    0 -0.89934348425E+02 -0.28975596775E+02 -0.34031569315E+02  0.16005999164E+03  0.12463258393E+03 0.  0.
         35    2    3    3    0    0  0.89934348425E+02  0.28975596775E+02 -0.89705222108E+03  0.12062159465E+04  0.80082860215E+03 0.  0.
         22    1    5    5    0    0 -0.16479106815E+03  0.12059643340E+03 -0.91250373503E+03  0.93507361333E+03  0.00000000000E+00 0.  1.
         22    1    5    5    0    0  0.25472541658E+03 -0.91620836623E+02  0.15451513955E+02  0.27114233317E+03  0.00000000000E+00 0.  1.
          5    1    4    4  502    0 -0.10394217467E+03 -0.23991221250E+02 -0.65269105082E+02  0.12514671570E+03  0.47000000000E+01 0.  1.
         -5    1    4    4    0  502  0.14007826250E+02 -0.49843755251E+01  0.31237535766E+02  0.34913275933E+02  0.47000000000E+01 0.  1.
<mgrwt>
<rscale>  0 0.99989645E+03</rscale>
<asrwt>0</asrwt>
<pdfrwt beam="1">  1        1 0.17671998E+00 0.99989645E+03</pdfrwt>
<pdfrwt beam="2">  1       -1 0.33476319E-01 0.99989645E+03</pdfrwt>
<totfact> 0.10841766E+02</totfact>
</mgrwt>
</event>
<event>
 9    1  0.4369420E-036  0.9951994E+03  0.7818608E-02  0.8685623E-01
          1   -1    0    0  501    0  0.00000000000E+00  0.00000000000E+00  0.61326476317E+03  0.61326476317E+03  0.00000000000E+00 0.  1.
         -1   -1    0    0    0  501 -0.00000000000E+00 -0.00000000000E+00 -0.40374971961E+03  0.40374971961E+03  0.00000000000E+00 0.  1.
         36    2    1    2    0    0  0.00000000000E+00  0.00000000000E+00  0.20951504356E+03  0.10170144828E+04  0.99519942961E+03 0.  0.
         25    2    3    3    0    0 -0.76863998898E+02  0.10171015336E+03  0.29210899231E+02  0.18057009092E+03  0.12449598980E+03 0.  0.
         35    2    3    3    0    0  0.76863998898E+02 -0.10171015336E+03  0.18030414433E+03  0.83644439186E+03  0.80676923998E+03 0.  0.
         22    1    5    5    0    0 -0.17645451733E+03 -0.33470111204E+03 -0.10136129120E+03  0.39170798108E+03  0.00000000000E+00 0. -1.
         22    1    5    5    0    0  0.25331851623E+03  0.23299095868E+03  0.28166543553E+03  0.44473641077E+03  0.00000000000E+00 0. -1.
          5    1    4    4  502    0 -0.32439206027E+02  0.72453377214E+02  0.75682326187E+02  0.10978022798E+03  0.47000000000E+01 0. -1.
         -5    1    4    4    0  502 -0.44424792871E+02  0.29256776145E+02 -0.46471426956E+02  0.70789862942E+02  0.47000000000E+01 0. -1.
<mgrwt>
<rscale>  0 0.99519943E+03</rscale>
<asrwt>0</asrwt>
<pdfrwt beam="1">  1        1 0.94348425E-01 0.99519943E+03</pdfrwt>
<pdfrwt beam="2">  1       -1 0.62115342E-01 0.99519943E+03</pdfrwt>
<totfact> 0.10130184E+02</totfact>
</mgrwt>
</event>
<event>
 9    1  0.4369420E-036  0.1001190E+04  0.7818608E-02  0.8679906E-01
         -2   -1    0    0    0  501 -0.00000000000E+00  0.00000000000E+00  0.13094595166E+03  0.13094595166E+03  0.00000000000E+00 0.  1.
          2   -1    0    0  501    0  0.00000000000E+00 -0.00000000000E+00 -0.19137295322E+04  0.19137295322E+04  0.00000000000E+00 0.  1.
         36    2    1    2    0    0  0.00000000000E+00  0.28421709430E-13 -0.17827835805E+04  0.20446754838E+04  0.10011895621E+04 0.  0.
         25    2    3    3    0    0  0.69400155099E+02 -0.11914735640E+03 -0.40504912336E+03  0.44576322059E+03  0.12501032929E+03 0.  0.
         35    2    3    3    0    0 -0.69400155099E+02  0.11914735640E+03 -0.13777344571E+04  0.15989122632E+04  0.79959722177E+03 0.  0.
         22    1    5    5    0    0 -0.42525486288E+03  0.79831654954E+02 -0.57199031470E+03  0.71720827633E+03  0.00000000000E+00 0.  1.
         22    1    5    5    0    0  0.35585470778E+03  0.39315701450E+02 -0.80574414244E+03  0.88170398690E+03  0.00000000000E+00 0.  1.
          5    1    4    4  502    0  0.61120098993E+01 -0.12141983899E+03 -0.24411495642E+03  0.27275325097E+03  0.47000000000E+01 0.  1.
         -5    1    4    4    0  502  0.63288145200E+02  0.22724825831E+01 -0.16093416694E+03  0.17300996962E+03  0.47000000000E+01 0.  1.
<mgrwt>
<rscale>  0 0.10011896E+04</rscale>
<asrwt>0</asrwt>
<pdfrwt beam="1">  1        2 0.29441990E+00 0.10011896E+04</pdfrwt>
<pdfrwt beam="2">  1       -2 0.20145533E-01 0.10011896E+04</pdfrwt>
<totfact> 0.18531796E+02</totfact>
</mgrwt>
</event>
<event>
 9    1  0.4369420E-036  0.1000147E+04  0.7818608E-02  0.8680898E-01
          1   -1    0    0  501    0  0.00000000000E+00  0.00000000000E+00  0.22759586648E+03  0.22759586648E+03  0.00000000000E+00 0. -1.
         -1   -1    0    0    0  501 -0.00000000000E+00 -0.00000000000E+00 -0.10987601574E+04  0.10987601574E+04  0.00000000000E+00 0. -1.
         36    2    1    2    0    0  0.24868995752E-13  0.14210854715E-13 -0.87116429090E+03  0.13263560239E+04  0.10001465294E+04 0.  0.
         25    2    3    3    0    0 -0.23005974557E+02 -0.11884000040E+03 -0.69478261739E+02  0.18738372241E+03  0.12503283573E+03 0.  0.
         35    2    3    3    0    0  0.23005974557E+02  0.11884000040E+03 -0.80168602916E+03  0.11389723014E+04  0.79994074378E+03 0.  0.
         22    1    5    5    0    0  0.35322012792E+03 -0.13681821037E+03 -0.28175342983E+03  0.47208969135E+03  0.00000000000E+00 0.  1.
         22    1    5    5    0    0 -0.33021415336E+03  0.25565821077E+03 -0.51993259933E+03  0.66688261010E+03  0.00000000000E+00 0.  1.
          5    1    4    4  502    0  0.19145039620E+02 -0.71210623037E+02  0.20882752440E+02  0.76783232055E+02  0.47000000000E+01 0.  1.
         -5    1    4    4    0  502 -0.42151014177E+02 -0.47629377361E+02 -0.90361014180E+02  0.11060049036E+03  0.47000000000E+01 0.  1.
<mgrwt>
<rscale>  0 0.10001465E+04</rscale>
<asrwt>0</asrwt>
<pdfrwt beam="1">  1        1 0.35014748E-01 0.10001465E+04</pdfrwt>
<pdfrwt beam="2">  1       -1 0.16904003E+00 0.10001465E+04</pdfrwt>
<totfact> 0.35668858E+01</totfact>
</mgrwt>
</event>
<event>
 9    1  0.4369420E-036  0.1000991E+04  0.7818608E-02  0.8680095E-01
         -1   -1    0    0    0  501 -0.00000000000E+00  0.00000000000E+00  0.61726199809E+03  0.61726199809E+03  0.00000000000E+00 0.  1.
          1   -1    0    0  501    0  0.00000000000E+00 -0.00000000000E+00 -0.40581741174E+03  0.40581741174E+03  0.00000000000E+00 0.  1.
         36    2    1    2    0    0  0.00000000000E+00 -0.28421709430E-13  0.21144458635E+03  0.10230794098E+04  0.10009908420E+04 0.  0.
         25    2    3    3    0    0 -0.71224804981E+02 -0.48911730204E+02 -0.75461217729E+02  0.16959811380E+03  0.12491514970E+03 0.  0.
         35    2    3    3    0    0  0.71224804981E+02  0.48911730204E+02  0.28690580407E+03  0.85348129603E+03  0.79915583716E+03 0.  0.
         22    1    5    5    0    0 -0.27259990361E+02 -0.30608048129E+03  0.36475760122E+03  0.47694493995E+03  0.00000000000E+00 0.  1.
         22    1    5    5    0    0  0.98484795343E+02  0.35499221149E+03 -0.77851797147E+02  0.37653635608E+03  0.00000000000E+00 0.  1.
          5    1    4    4  502    0 -0.54506415758E+02 -0.45469347665E+02  0.18888127875E+02  0.73602053711E+02  0.47000000000E+01 0.  1.
         -5    1    4    4    0  502 -0.16718389224E+02 -0.34423825389E+01 -0.94349345604E+02  0.95996060084E+02  0.47000000000E+01 0.  1.
<mgrwt>
<rscale>  0 0.10009908E+04</rscale>
<asrwt>0</asrwt>
<pdfrwt beam="1">  1        1 0.62433448E-01 0.10009908E+04</pdfrwt>
<pdfrwt beam="2">  1       -1 0.94963385E-01 0.10009908E+04</pdfrwt>
<totfact> 0.75327101E+01</totfact>
</mgrwt>
</event>
<event>
 9    1  0.4369420E-036  0.1000170E+04  0.7818608E-02  0.8680876E-01
         -1   -1    0    0    0  501 -0.00000000000E+00  0.00000000000E+00  0.61372576546E+03  0.61372576546E+03  0.00000000000E+00 0. -1.
          1   -1    0    0  501    0  0.00000000000E+00 -0.00000000000E+00 -0.40748664254E+03  0.40748664254E+03  0.00000000000E+00 0. -1.
         36    2    1    2    0    0  0.00000000000E+00  0.00000000000E+00  0.20623912292E+03  0.10212124080E+04  0.10001700888E+04 0.  0.
         25    2    3    3    0    0 -0.12094550719E+03  0.67423622387E+01  0.11291191526E+03  0.20673984211E+03  0.12376989355E+03 0.  0.
         35    2    3    3    0    0  0.12094550719E+03 -0.67423622387E+01  0.93327207660E+02  0.81447256590E+03  0.79998894852E+03 0.  0.
         22    1    5    5    0    0  0.39829671707E+03 -0.17246106439E+03  0.19491552892E+03  0.47578898366E+03  0.00000000000E+00 0. -1.
         22    1    5    5    0    0 -0.27735120988E+03  0.16571870215E+03 -0.10158832126E+03  0.33868358224E+03  0.00000000000E+00 0. -1.
          5    1    4    4  502    0 -0.64214705821E+02 -0.57430347463E+02  0.68366953934E+02  0.11008135012E+03  0.47000000000E+01 0. -1.
         -5    1    4    4    0  502 -0.56730801368E+02  0.64172709702E+02  0.44544961327E+02  0.96658491991E+02  0.47000000000E+01 0. -1.
<mgrwt>
<rscale>  0 0.10001701E+04</rscale>
<asrwt>0</asrwt>
<pdfrwt beam="1">  1        1 0.62690253E-01 0.10001701E+04</pdfrwt>
<pdfrwt beam="2">  1       -1 0.94419349E-01 0.10001701E+04</pdfrwt>
<totfact> 0.75866576E+01</totfact>
</mgrwt>
</event>
<event>
 9    1  0.4369420E-036  0.9991881E+03  0.7818608E-02  0.8681812E-01
         -1   -1    0    0    0  501 -0.00000000000E+00  0.00000000000E+00  0.43686489842E+03  0.43686489842E+03  0.00000000000E+00 0.  1.
          1   -1    0    0  501    0  0.00000000000E+00 -0.00000000000E+00 -0.57133042354E+03  0.57133042354E+03  0.00000000000E+00 0.  1.
         36    2    1    2    0    0  0.00000000000E+00  0.00000000000E+00 -0.13446552512E+03  0.10081953220E+04  0.99918808528E+03 0.  0.
         25    2    3    3    0    0  0.16921682610E+01 -0.47143223553E+01 -0.16631168410E+03  0.20750332992E+03  0.12398777114E+03 0.  0.
         35    2    3    3    0    0 -0.16921682610E+01  0.47143223553E+01  0.31846158980E+02  0.80069199204E+03  0.80004274886E+03 0.  0.
         22    1    5    5    0    0 -0.60938695812E+01 -0.78390853795E+02  0.40796668826E+03  0.41547452381E+03  0.00000000000E+00 0.  1.
         22    1    5    5    0    0  0.44017013202E+01  0.83105176151E+02 -0.37612052928E+03  0.38521746823E+03  0.00000000000E+00 0.  1.
          5    1    4    4  502    0 -0.33177287925E+02  0.42489205130E+02 -0.12311483165E+03  0.13448203136E+03  0.47000000000E+01 0. -1.
         -5    1    4    4    0  502  0.34869456186E+02 -0.47203527486E+02 -0.43196852449E+02  0.73021298559E+02  0.47000000000E+01 0. -1.
<mgrwt>
<rscale>  0 0.99918809E+03</rscale>
<asrwt>0</asrwt>
<pdfrwt beam="1">  1        1 0.87896988E-01 0.99918809E+03</pdfrwt>
<pdfrwt beam="2">  1       -1 0.67209984E-01 0.99918809E+03</pdfrwt>
<totfact> 0.96283058E+01</totfact>
</mgrwt>
</event>
<event>
 9    1  0.4369420E-036  0.9998351E+03  0.7818608E-02  0.8681195E-01
          2   -1    0    0  501    0  0.00000000000E+00  0.00000000000E+00  0.15387745405E+04  0.15387745405E+04  0.00000000000E+00 0.  1.
         -2   -1    0    0    0  501 -0.00000000000E+00 -0.00000000000E+00 -0.16241337756E+03  0.16241337756E+03  0.00000000000E+00 0.  1.
         36    2    1    2    0    0  0.00000000000E+00  0.35527136788E-14  0.13763611629E+04  0.17011879180E+04  0.99983512724E+03 0.  0.
         25    2    3    3    0    0  0.12177248933E+03 -0.20128642379E+02  0.37275871048E+03  0.41202134054E+03  0.12481517301E+03 0.  0.
         35    2    3    3    0    0 -0.12177248933E+03  0.20128642379E+02  0.10036024524E+04  0.12891665775E+04  0.79968673904E+03 0.  0.
         22    1    5    5    0    0 -0.19050009186E+02  0.33389270315E+01  0.11273214200E+04  0.11274873104E+04  0.00000000000E+00 0.  1.
         22    1    5    5    0    0 -0.10272248014E+03  0.16789715348E+02 -0.12371896754E+03  0.16167926706E+03  0.00000000000E+00 0.  1.
          5    1    4    4  502    0  0.14144467966E+03 -0.14892468742E+02  0.36102630243E+03  0.38805987176E+03  0.47000000000E+01 0. -1.
         -5    1    4    4    0  502 -0.19672190333E+02 -0.52361736378E+01  0.11732408058E+02  0.23961468772E+02  0.47000000000E+01 0. -1.
<mgrwt>
<rscale>  0 0.99983513E+03</rscale>
<asrwt>0</asrwt>
<pdfrwt beam="1">  1        2 0.23673454E+00 0.99983513E+03</pdfrwt>
<pdfrwt beam="2">  1       -2 0.24986674E-01 0.99983513E+03</pdfrwt>
<totfact> 0.20683067E+02</totfact>
</mgrwt>
</event>
<event>
 9    1  0.4369420E-036  0.1001388E+04  0.7818608E-02  0.8679718E-01
         -2   -1    0    0    0  501 -0.00000000000E+00  0.00000000000E+00  0.17336330381E+03  0.17336330381E+03  0.00000000000E+00 0.  1.
          2   -1    0    0  501    0  0.00000000000E+00 -0.00000000000E+00 -0.14460634860E+04  0.14460634860E+04  0.00000000000E+00 0.  1.
         36    2    1    2    0    0  0.00000000000E+00  0.00000000000E+00 -0.12727001822E+04  0.16194267898E+04  0.10013877240E+04 0.  0.
         25    2    3    3    0    0  0.70340469047E+02 -0.62085781639E+02 -0.41064327540E+03  0.43956141783E+03  0.12563405011E+03 0.  0.
         35    2    3    3    0    0 -0.70340469047E+02  0.62085781639E+02 -0.86205690679E+03  0.11798653720E+04  0.80008609510E+03 0.  0.
         22    1    5    5    0    0 -0.25442835433E+03  0.32662697507E+02 -0.94253057987E+03  0.97681345879E+03  0.00000000000E+00 0. -1.
         22    1    5    5    0    0  0.18408788528E+03  0.29423084132E+02  0.80473673081E+02  0.20305191318E+03  0.00000000000E+00 0. -1.
          5    1    4    4  502    0  0.86939465079E+02 -0.48861157182E+02 -0.40497071492E+03  0.41709621577E+03  0.47000000000E+01 0.  1.
         -5    1    4    4    0  502 -0.16598996032E+02 -0.13224624457E+02 -0.56725604861E+01  0.22465202064E+02  0.47000000000E+01 0.  1.
<mgrwt>
<rscale>  0 0.10013877E+04</rscale>
<asrwt>0</asrwt>
<pdfrwt beam="1">  1        2 0.22247131E+00 0.10013877E+04</pdfrwt>
<pdfrwt beam="2">  1       -2 0.26671277E-01 0.10013877E+04</pdfrwt>
<totfact> 0.20780217E+02</totfact>
</mgrwt>
</event>
<event>
 9    1  0.4369420E-036  0.1000836E+04  0.7818608E-02  0.8680242E-01
          2   -1    0    0  501    0  0.00000000000E+00  0.00000000000E+00  0.10297639086E+04  0.10297639086E+04  0.00000000000E+00 0. -1.
         -2   -1    0    0    0  501 -0.00000000000E+00 -0.00000000000E+00 -0.24318031212E+03  0.24318031212E+03  0.00000000000E+00 0. -1.
         36    2    1    2    0    0  0.35527136788E-13 -0.28421709430E-13  0.78658359653E+03  0.12729442208E+04  0.10008362677E+04 0.  0.
         25    2    3    3    0    0 -0.13262223916E+02  0.87701948993E+02  0.28808691215E+03  0.32604993785E+03  0.12428585831E+03 0.  0.
         35    2    3    3    0    0  0.13262223916E+02 -0.87701948993E+02  0.49849668438E+03  0.94689428291E+03  0.80015143582E+03 0.  0.
         22    1    5    5    0    0  0.26230429483E+03 -0.33154410403E+03  0.13618823306E+03  0.44415343163E+03  0.00000000000E+00 0. -1.
         22    1    5    5    0    0 -0.24904207091E+03  0.24384215504E+03  0.36230845132E+03  0.50274085129E+03  0.00000000000E+00 0. -1.
          5    1    4    4  502    0  0.35790214610E+02 -0.32382608167E+01  0.14520398963E+03  0.14965865962E+03  0.47000000000E+01 0.  1.
         -5    1    4    4    0  502 -0.49052438525E+02  0.90940209809E+02  0.14288292253E+03  0.17639127823E+03  0.47000000000E+01 0.  1.
<mgrwt>
<rscale>  0 0.10008363E+04</rscale>
<asrwt>0</asrwt>
<pdfrwt beam="1">  1        2 0.15842521E+00 0.10008363E+04</pdfrwt>
<pdfrwt beam="2">  1       -2 0.37412356E-01 0.10008363E+04</pdfrwt>
<totfact> 0.19626744E+02</totfact>
</mgrwt>
</event>
<event>
 9    1  0.4369420E-036  0.1000869E+04  0.7818608E-02  0.8680211E-01
         -2   -1    0    0    0  501 -0.00000000000E+00  0.00000000000E+00  0.94331446219E+02  0.94331446219E+02  0.00000000000E+00 0.  1.
          2   -1    0    0  501    0  0.00000000000E+00 -0.00000000000E+00 -0.26548354786E+04  0.26548354786E+04  0.00000000000E+00 0.  1.
         36    2    1    2    0    0 -0.28421709430E-13  0.00000000000E+00 -0.25605040324E+04  0.27491669249E+04  0.10008685631E+04 0.  0.
         25    2    3    3    0    0 -0.64770921157E+02  0.98034251510E+02 -0.26042916576E+03  0.31118351099E+03  0.12331196387E+03 0.  0.
         35    2    3    3    0    0  0.64770921157E+02 -0.98034251510E+02 -0.23000748667E+04  0.24379834139E+04  0.79975793049E+03 0.  0.
         22    1    5    5    0    0  0.24815015483E+03 -0.33613745670E+03 -0.74525090790E+03  0.85438036311E+03  0.00000000000E+00 0.  1.
         22    1    5    5    0    0 -0.18337923367E+03  0.23810320519E+03 -0.15548239587E+04  0.15836030508E+04  0.00000000000E+00 0.  1.
          5    1    4    4  502    0 -0.83247229536E+02  0.11577646362E+03 -0.23408819732E+03  0.27414168760E+03  0.47000000000E+01 0.  1.
         -5    1    4    4    0  502  0.18476308379E+02 -0.17742212107E+02 -0.26340968442E+02  0.37041823392E+02  0.47000000000E+01 0.  1.
<mgrwt>
<rscale>  0 0.10008686E+04</rscale>
<asrwt>0</asrwt>
<pdfrwt beam="1">  1        2 0.40843623E+00 0.10008686E+04</pdfrwt>
<pdfrwt beam="2">  1       -2 0.14512530E-01 0.10008686E+04</pdfrwt>
<totfact> 0.11812190E+02</totfact>
</mgrwt>
</event>
<event>
 9    1  0.4369420E-036  0.1000451E+04  0.7818608E-02  0.8680608E-01
          1   -1    0    0  501    0  0.00000000000E+00  0.00000000000E+00  0.23576932527E+04  0.23576932527E+04  0.00000000000E+00 0. -1.
         -1   -1    0    0    0  501 -0.00000000000E+00 -0.00000000000E+00 -0.10613158764E+03  0.10613158764E+03  0.00000000000E+00 0. -1.
         36    2    1    2    0    0  0.35527136788E-14  0.28421709430E-13  0.22515616651E+04  0.24638248403E+04  0.10004513543E+04 0.  0.
         25    2    3    3    0    0 -0.10843023807E+02  0.14271585855E+03  0.46039205937E+03  0.49692470512E+03  0.12036580404E+03 0.  0.
         35    2    3    3    0    0  0.10843023807E+02 -0.14271585855E+03  0.17911696057E+04  0.19669001352E+04  0.79995137236E+03 0.  0.
         22    1    5    5    0    0  0.15537625981E+02  0.33362145987E+03  0.66615381021E+03  0.74518829511E+03  0.00000000000E+00 0.  1.
         22    1    5    5    0    0 -0.46946021731E+01 -0.47633731842E+03  0.11250157955E+04  0.12217118401E+04  0.00000000000E+00 0.  1.
          5    1    4    4  502    0 -0.20471598108E+02  0.15544846159E+03  0.45167743662E+03  0.47814004987E+03  0.47000000000E+01 0.  1.
         -5    1    4    4    0  502  0.96285743010E+01 -0.12732603039E+02  0.87146227522E+01  0.18784655252E+02  0.47000000000E+01 0.  1.
<mgrwt>
<rscale>  0 0.10004514E+04</rscale>
<asrwt>0</asrwt>
<pdfrwt beam="1">  1        1 0.36272200E+00 0.10004514E+04</pdfrwt>
<pdfrwt beam="2">  1       -1 0.16327938E-01 0.10004514E+04</pdfrwt>
<totfact> 0.49817101E+01</totfact>
</mgrwt>
</event>
<event>
 9    1  0.4369420E-036  0.1000119E+04  0.7818608E-02  0.8680925E-01
          2   -1    0    0  501    0  0.00000000000E+00  0.00000000000E+00  0.23432941025E+04  0.23432941025E+04  0.00000000000E+00 0. -1.
         -2   -1    0    0    0  501 -0.00000000000E+00 -0.00000000000E+00 -0.10671282168E+03  0.10671282168E+03  0.00000000000E+00 0. -1.
         36    2    1    2    0    0  0.00000000000E+00  0.56843418861E-13  0.22365812809E+04  0.24500069242E+04  0.10001190443E+04 0.  0.
         25    2    3    3    0    0 -0.28541307381E+02 -0.13594083028E+03  0.45366678967E+03  0.49068969220E+03  0.12517308984E+03 0.  0.
         35    2    3    3    0    0  0.28541307381E+02  0.13594083028E+03  0.17829144912E+04  0.19593172320E+04  0.80052821138E+03 0.  0.
         22    1    5    5    0    0 -0.41538671911E+02  0.46909737057E+03  0.98391239731E+03  0.10908076870E+04  0.00000000000E+00 0.  1.
         22    1    5    5    0    0  0.70079979292E+02 -0.33315654029E+03  0.79900209388E+03  0.86850954506E+03  0.00000000000E+00 0.  1.
          5    1    4    4  502    0 -0.70627269942E+02 -0.41727692232E+02  0.23246464042E+03  0.24655893941E+03  0.47000000000E+01 0.  1.
         -5    1    4    4    0  502  0.42085962561E+02 -0.94213138043E+02  0.22120214925E+03  0.24413075279E+03  0.47000000000E+01 0.  1.
<mgrwt>
<rscale>  0 0.10001190E+04</rscale>
<asrwt>0</asrwt>
<pdfrwt beam="1">  1        2 0.36050675E+00 0.10001190E+04</pdfrwt>
<pdfrwt beam="2">  1       -2 0.16417359E-01 0.10001190E+04</pdfrwt>
<totfact> 0.14855756E+02</totfact>
</mgrwt>
</event>
<event>
 9    1  0.4369420E-036  0.1000606E+04  0.7818608E-02  0.8680461E-01
          2   -1    0    0  501    0  0.00000000000E+00  0.00000000000E+00  0.18491671521E+04  0.18491671521E+04  0.00000000000E+00 0. -1.
         -2   -1    0    0    0  501 -0.00000000000E+00 -0.00000000000E+00 -0.13535999927E+03  0.13535999927E+03  0.00000000000E+00 0. -1.
         36    2    1    2    0    0  0.00000000000E+00  0.35527136788E-14  0.17138071529E+04  0.19845271514E+04  0.10006063449E+04 0.  0.
         25    2    3    3    0    0  0.52909215238E+02 -0.30110756995E+02  0.71814930096E+02  0.15631598546E+03  0.12478485639E+03 0.  0.
         35    2    3    3    0    0 -0.52909215238E+02  0.30110756995E+02  0.16419922228E+04  0.18282111659E+04  0.80156819104E+03 0.  0.
         22    1    5    5    0    0  0.20418053355E+02 -0.13541630959E+03 -0.35101594297E+02  0.14137395704E+03  0.00000000000E+00 0. -1.
         22    1    5    5    0    0 -0.73327268593E+02  0.16552706659E+03  0.16770938171E+04  0.16868372089E+04  0.00000000000E+00 0. -1.
          5    1    4    4  502    0 -0.23142752189E+02 -0.49905116976E+02  0.50336408785E+02  0.74712460331E+02  0.47000000000E+01 0. -1.
         -5    1    4    4    0  502  0.76051967427E+02  0.19794359981E+02  0.21478521311E+02  0.81603525134E+02  0.47000000000E+01 0. -1.
<mgrwt>
<rscale>  0 0.10006063E+04</rscale>
<asrwt>0</asrwt>
<pdfrwt beam="1">  1        2 0.28448724E+00 0.10006063E+04</pdfrwt>
<pdfrwt beam="2">  1       -2 0.20824617E-01 0.10006063E+04</pdfrwt>
<totfact> 0.19032168E+02</totfact>
</mgrwt>
</event>
<event>
 9    1  0.4369420E-036  0.9987272E+03  0.7818608E-02  0.8682251E-01
          2   -1    0    0  501    0  0.00000000000E+00  0.00000000000E+00  0.35334583012E+03  0.35334583012E+03  0.00000000000E+00 0. -1.
         -2   -1    0    0    0  501 -0.00000000000E+00 -0.00000000000E+00 -0.70572216707E+03  0.70572216707E+03  0.00000000000E+00 0. -1.
         36    2    1    2    0    0  0.00000000000E+00 -0.14210854715E-13 -0.35237633695E+03  0.10590679972E+04  0.99872715986E+03 0.  0.
         25    2    3    3    0    0 -0.21952975454E+02 -0.88945573185E+02  0.44577929555E+02  0.16133130225E+03  0.12508936470E+03 0.  0.
         35    2    3    3    0    0  0.21952975454E+02  0.88945573185E+02 -0.39695426651E+03  0.89773669495E+03  0.79997827198E+03 0.  0.
         22    1    5    5    0    0  0.12671354609E+02  0.36932554540E+03  0.47057253026E+02  0.37252692087E+03  0.00000000000E+00 0.  1.
         22    1    5    5    0    0  0.92816208453E+01 -0.28037997222E+03 -0.44401151953E+03  0.52520977407E+03  0.00000000000E+00 0.  1.
          5    1    4    4  502    0  0.17966752171E+02  0.13124031809E+02  0.46338936097E+02  0.51618130469E+02  0.47000000000E+01 0.  1.
         -5    1    4    4    0  502 -0.39919727626E+02 -0.10206960499E+03 -0.17610065425E+01  0.10971317178E+03  0.47000000000E+01 0.  1.
<mgrwt>
<rscale>  0 0.99872716E+03</rscale>
<asrwt>0</asrwt>
<pdfrwt beam="1">  1        2 0.54360898E-01 0.99872716E+03</pdfrwt>
<pdfrwt beam="2">  1       -2 0.10857264E+00 0.99872716E+03</pdfrwt>
<totfact> 0.73167569E+01</totfact>
</mgrwt>
</event>
<event>
 9    1  0.4369420E-036  0.9979799E+03  0.7818608E-02  0.8682964E-01
          1   -1    0    0  501    0  0.00000000000E+00  0.00000000000E+00  0.55091902989E+03  0.55091902989E+03  0.00000000000E+00 0. -1.
         -1   -1    0    0    0  501 -0.00000000000E+00 -0.00000000000E+00 -0.45195562885E+03  0.45195562885E+03  0.00000000000E+00 0. -1.
         36    2    1    2    0    0 -0.28421709430E-13  0.00000000000E+00  0.98963401045E+02  0.10028746587E+04  0.99797987275E+03 0.  0.
         25    2    3    3    0    0  0.12173323884E+03  0.42528737588E+02  0.69980851181E+02  0.19197880886E+03  0.12381788466E+03 0.  0.
         35    2    3    3    0    0 -0.12173323884E+03 -0.42528737588E+02  0.28982549864E+02  0.81089584988E+03  0.80005275839E+03 0.  0.
         22    1    5    5    0    0  0.28510537261E+03  0.14153099057E+03  0.14463932913E+03  0.34962355515E+03  0.00000000000E+00 0.  1.
         22    1    5    5    0    0 -0.40683861145E+03 -0.18405972816E+03 -0.11565677927E+03  0.46127229473E+03  0.00000000000E+00 0.  1.
          5    1    4    4  502    0  0.41578420380E+02 -0.26764544043E+02  0.70107485570E+02  0.85920052328E+02  0.47000000000E+01 0. -1.
         -5    1    4    4    0  502  0.80154818455E+02  0.69293281631E+02 -0.12663438908E+00  0.10605875653E+03  0.47000000000E+01 0. -1.
<mgrwt>
<rscale>  0 0.99797987E+03</rscale>
<asrwt>0</asrwt>
<pdfrwt beam="1">  1        1 0.84756774E-01 0.99797987E+03</pdfrwt>
<pdfrwt beam="2">  1       -1 0.69531635E-01 0.99797987E+03</pdfrwt>
<totfact> 0.94865347E+01</totfact>
</mgrwt>
</event>
<event>
 9    1  0.4369420E-036  0.1000423E+04  0.7818608E-02  0.8680635E-01
         -2   -1    0    0    0  501 -0.00000000000E+00  0.00000000000E+00  0.40087362994E+03  0.40087362994E+03  0.00000000000E+00 0.  1.
          2   -1    0    0  501    0  0.00000000000E+00 -0.00000000000E+00 -0.62416573957E+03  0.62416573957E+03  0.00000000000E+00 0.  1.
         36    2    1    2    0    0  0.00000000000E+00 -0.14210854715E-13 -0.22329210963E+03  0.10250393695E+04  0.10004230819E+04 0.  0.
         25    2    3    3    0    0  0.64150210341E+02 -0.12158068964E+03 -0.11506246041E+02  0.18600848293E+03  0.12477839734E+03 0.  0.
         35    2    3    3    0    0 -0.64150210341E+02  0.12158068964E+03 -0.21178586359E+03  0.83903088657E+03  0.80013902731E+03 0.  0.
         22    1    5    5    0    0  0.13745904384E+02  0.11009037961E+03  0.30070900729E+03  0.32052261798E+03  0.00000000000E+00 0.  1.
         22    1    5    5    0    0 -0.77896114725E+02  0.11490310025E+02 -0.51249487088E+03  0.51850826859E+03  0.00000000000E+00 0.  1.
          5    1    4    4  502    0 -0.18723237950E+02  0.13941307198E+02  0.96324457392E+01  0.25686449670E+02  0.47000000000E+01 0.  1.
         -5    1    4    4    0  502  0.82873448291E+02 -0.13552199684E+03 -0.21138691780E+02  0.16032203326E+03  0.47000000000E+01 0.  1.
<mgrwt>
<rscale>  0 0.10004231E+04</rscale>
<asrwt>0</asrwt>
<pdfrwt beam="1">  1        2 0.96025499E-01 0.10004231E+04</pdfrwt>
<pdfrwt beam="2">  1       -2 0.61672866E-01 0.10004231E+04</pdfrwt>
<totfact> 0.13971985E+02</totfact>
</mgrwt>
</event>
<event>
 9    1  0.4369420E-036  0.9999385E+03  0.7818608E-02  0.8681096E-01
         -2   -1    0    0    0  501 -0.00000000000E+00  0.00000000000E+00  0.28261570415E+03  0.28261570415E+03  0.00000000000E+00 0.  1.
          2   -1    0    0  501    0  0.00000000000E+00 -0.00000000000E+00 -0.88448472729E+03  0.88448472729E+03  0.00000000000E+00 0.  1.
         36    2    1    2    0    0  0.14210854715E-13  0.28421709430E-13 -0.60186902314E+03  0.11671004314E+04  0.99993854613E+03 0.  0.
         25    2    3    3    0    0 -0.59176311933E+02 -0.11106505890E+03 -0.18506781829E+03  0.25639456959E+03  0.12510313643E+03 0.  0.
         35    2    3    3    0    0  0.59176311933E+02  0.11106505890E+03 -0.41680120485E+03  0.91070586185E+03  0.79989039202E+03 0.  0.
         22    1    5    5    0    0 -0.17797689955E+03 -0.24756510550E+03  0.97592744620E+01  0.30505655487E+03  0.00000000000E+00 0. -1.
         22    1    5    5    0    0  0.23715321149E+03  0.35863016439E+03 -0.42656047931E+03  0.60564930697E+03  0.00000000000E+00 0. -1.
          5    1    4    4  502    0  0.28928573797E+02 -0.24972633740E+02 -0.59584221355E+01  0.38962643803E+02  0.47000000000E+01 0. -1.
         -5    1    4    4    0  502 -0.88104885730E+02 -0.86092425157E+02 -0.17910939616E+03  0.21743192578E+03  0.47000000000E+01 0. -1.
<mgrwt>
<rscale>  0 0.99993855E+03</rscale>
<asrwt>0</asrwt>
<pdfrwt beam="1">  1        2 0.13607457E+00 0.99993855E+03</pdfrwt>
<pdfrwt beam="2">  1       -2 0.43479340E-01 0.99993855E+03</pdfrwt>
<totfact> 0.18232373E+02</totfact>
</mgrwt>
</event>
<event>
 9    1  0.4369420E-036  0.1000143E+04  0.7818608E-02  0.8680902E-01
          2   -1    0    0  501    0  0.00000000000E+00  0.00000000000E+00  0.10756799846E+04  0.10756799846E+04  0.00000000000E+00 0. -1.
         -2   -1    0    0    0  501 -0.00000000000E+00 -0.00000000000E+00 -0.23247750483E+03  0.23247750483E+03  0.00000000000E+00 0. -1.
         36    2    1    2    0    0 -0.28421709430E-13  0.14210854715E-13  0.84320247974E+03  0.13081574894E+04  0.10001427874E+04 0.  0.
         25    2    3    3    0    0  0.77869095559E+02 -0.39931498449E+02  0.16039426870E+02  0.15414808003E+03  0.12588187618E+03 0.  0.
         35    2    3    3    0    0 -0.77869095559E+02  0.39931498449E+02  0.82716305287E+03  0.11540094094E+04  0.79992554671E+03 0.  0.
         22    1    5    5    0    0 -0.31062397402E+03 -0.26484407730E+03  0.52935557444E+03  0.66846612682E+03  0.00000000000E+00 0.  1.
         22    1    5    5    0    0  0.23275487846E+03  0.30477557575E+03  0.29780747843E+03  0.48554328255E+03  0.00000000000E+00 0.  1.
          5    1    4    4  502    0 -0.32067785046E+02  0.40020272859E+01  0.14303841962E+02  0.35651773519E+02  0.47000000000E+01 0. -1.
         -5    1    4    4    0  502  0.10993688061E+03 -0.43933525735E+02  0.17355849085E+01  0.11849630651E+03  0.47000000000E+01 0. -1.
<mgrwt>
<rscale>  0 0.10001428E+04</rscale>
<asrwt>0</asrwt>
<pdfrwt beam="1">  1        2 0.16548923E+00 0.10001428E+04</pdfrwt>
<pdfrwt beam="2">  1       -2 0.35765771E-01 0.10001428E+04</pdfrwt>
<totfact> 0.20013776E+02</totfact>
</mgrwt>
</event>
<event>
 9    1  0.4369420E-036  0.1000852E+04  0.7818608E-02  0.8680227E-01
          2   -1    0    0  501    0  0.00000000000E+00  0.00000000000E+00  0.11013962742E+03  0.11013962742E+03  0.00000000000E+00 0. -1.
         -2   -1    0    0    0  501 -0.00000000000E+00 -0.00000000000E+00 -0.22737148708E+04  0.22737148708E+04  0.00000000000E+00 0. -1.
         36    2    1    2    0    0  0.00000000000E+00 -0.28421709430E-13 -0.21635752433E+04  0.23838544982E+04  0.10008518546E+04 0.  0.
         25    2    3    3    0    0 -0.69964009613E+02  0.11376202183E+03 -0.51552255850E+03  0.54700999191E+03  0.12497864887E+03 0.  0.
         35    2    3    3    0    0  0.69964009613E+02 -0.11376202183E+03 -0.16480526848E+04  0.18368445063E+04  0.80005207827E+03 0.  0.
         22    1    5    5    0    0 -0.10396027880E+03  0.14160297315E+03 -0.16664348606E+02  0.17645634612E+03  0.00000000000E+00 0.  1.
         22    1    5    5    0    0  0.17392428841E+03 -0.25536499497E+03 -0.16313883362E+04  0.16603881601E+04  0.00000000000E+00 0.  1.
          5    1    4    4  502    0  0.11746093772E+02  0.22689356915E+01  0.41054629998E+00  0.12859911988E+02  0.47000000000E+01 0.  1.
         -5    1    4    4    0  502 -0.81710103385E+02  0.11149308613E+03 -0.51593310480E+03  0.53415007992E+03  0.47000000000E+01 0.  1.
<mgrwt>
<rscale>  0 0.10008519E+04</rscale>
<asrwt>0</asrwt>
<pdfrwt beam="1">  1        2 0.16944558E-01 0.10008519E+04</pdfrwt>
<pdfrwt beam="2">  1       -2 0.34980230E+00 0.10008519E+04</pdfrwt>
<totfact> 0.66324647E+00</totfact>
</mgrwt>
</event>
<event>
 9    1  0.4369420E-036  0.1000622E+04  0.7818608E-02  0.8680446E-01
          2   -1    0    0  501    0  0.00000000000E+00  0.00000000000E+00  0.67651859793E+03  0.67651859793E+03  0.00000000000E+00 0. -1.
         -2   -1    0    0    0  501 -0.00000000000E+00 -0.00000000000E+00 -0.36999864377E+03  0.36999864377E+03  0.00000000000E+00 0. -1.
         36    2    1    2    0    0  0.71054273576E-14 -0.71054273576E-14  0.30651995416E+03  0.10465172417E+04  0.10006217342E+04 0.  0.
         25    2    3    3    0    0  0.40317601139E+02 -0.60175952653E+02  0.18276871512E+03  0.23405093299E+03  0.12699914081E+03 0.  0.
         35    2    3    3    0    0 -0.40317601139E+02  0.60175952653E+02  0.12375123904E+03  0.81246630871E+03  0.79971274804E+03 0.  0.
         22    1    5    5    0    0 -0.66533060277E+02  0.37300200254E+03  0.27089498732E+03  0.46576950970E+03  0.00000000000E+00 0.  1.
         22    1    5    5    0    0  0.26215459139E+02 -0.31282604989E+03 -0.14714374828E+03  0.34669679901E+03  0.00000000000E+00 0.  1.
          5    1    4    4  502    0  0.75168228558E+02 -0.73162945711E+02  0.15576225860E+03  0.18784847728E+03  0.47000000000E+01 0. -1.
         -5    1    4    4    0  502 -0.34850627419E+02  0.12986993058E+02  0.27006456517E+02  0.46202455712E+02  0.47000000000E+01 0. -1.
<mgrwt>
<rscale>  0 0.10006217E+04</rscale>
<asrwt>0</asrwt>
<pdfrwt beam="1">  1        2 0.10407978E+00 0.10006217E+04</pdfrwt>
<pdfrwt beam="2">  1       -2 0.56922868E-01 0.10006217E+04</pdfrwt>
<totfact> 0.14978275E+02</totfact>
</mgrwt>
</event>
<event>
 9    1  0.4369420E-036  0.9973057E+03  0.7818608E-02  0.8683608E-01
          3   -1    0    0  501    0  0.00000000000E+00  0.00000000000E+00  0.62918044060E+03  0.62918044060E+03  0.00000000000E+00 0.  1.
         -3   -1    0    0    0  501 -0.00000000000E+00 -0.00000000000E+00 -0.39520407690E+03  0.39520407690E+03  0.00000000000E+00 0.  1.
         36    2    1    2    0    0  0.00000000000E+00 -0.14210854715E-13  0.23397636370E+03  0.10243845175E+04  0.99730572090E+03 0.  0.
         25    2    3    3    0    0 -0.30324891932E+01  0.11387441953E+03  0.12585007148E+03  0.21043610392E+03  0.12437256099E+03 0.  0.
         35    2    3    3    0    0  0.30324891932E+01 -0.11387441953E+03  0.10812629222E+03  0.81394841359E+03  0.79865145432E+03 0.  0.
         22    1    5    5    0    0  0.37678331438E+03  0.87722900175E+01  0.17399704688E+03  0.41511154090E+03  0.00000000000E+00 0. -1.
         22    1    5    5    0    0 -0.37375082519E+03 -0.12264670955E+03 -0.65870754656E+02  0.39883687268E+03  0.00000000000E+00 0. -1.
          5    1    4    4  502    0  0.17700638223E+02  0.91698229962E+02  0.14622899975E+03  0.17357098933E+03  0.47000000000E+01 0. -1.
         -5    1    4    4    0  502 -0.20733127417E+02  0.22176189570E+02 -0.20378928262E+02  0.36865114586E+02  0.47000000000E+01 0. -1.
<mgrwt>
<rscale>  0 0.99730572E+03</rscale>
<asrwt>0</asrwt>
<pdfrwt beam="1">  1        3 0.96796991E-01 0.99730572E+03</pdfrwt>
<pdfrwt beam="2">  1       -3 0.60800627E-01 0.99730572E+03</pdfrwt>
<totfact> 0.10268748E+01</totfact>
</mgrwt>
</event>
<event>
 9    1  0.4369420E-036  0.1000221E+04  0.7818608E-02  0.8680828E-01
          2   -1    0    0  501    0  0.00000000000E+00  0.00000000000E+00  0.37498294367E+04  0.37498294367E+04  0.00000000000E+00 0. -1.
         -2   -1    0    0    0  501 -0.00000000000E+00 -0.00000000000E+00 -0.66699160602E+02  0.66699160602E+02  0.00000000000E+00 0. -1.
         36    2    1    2    0    0  0.35527136788E-14 -0.14210854715E-13  0.36831302761E+04  0.38165285973E+04  0.10002209273E+04 0.  0.
         25    2    3    3    0    0 -0.25469993884E+02  0.12574348928E+03  0.89376602916E+03  0.91197849540E+03  0.12816752908E+03 0.  0.
         35    2    3    3    0    0  0.25469993884E+02 -0.12574348928E+03  0.27893642470E+04  0.29045501019E+04  0.79962381573E+03 0.  0.
         22    1    5    5    0    0 -0.10913192676E+03  0.38609166644E+02  0.90301361374E+01  0.11611196556E+03  0.00000000000E+00 0. -1.
         22    1    5    5    0    0  0.13460192064E+03 -0.16435265592E+03  0.27803341108E+04  0.27884381364E+04  0.00000000000E+00 0. -1.
          5    1    4    4  502    0  0.14317097780E+02  0.13270105130E+03  0.55804720743E+03  0.57380599860E+03  0.47000000000E+01 0.  1.
         -5    1    4    4    0  502 -0.39787091664E+02 -0.69575620151E+01  0.33571882172E+03  0.33817249680E+03  0.47000000000E+01 0.  1.
<mgrwt>
<rscale>  0 0.10002209E+04</rscale>
<asrwt>0</asrwt>
<pdfrwt beam="1">  1        2 0.57689667E+00 0.10002209E+04</pdfrwt>
<pdfrwt beam="2">  1       -2 0.10261412E-01 0.10002209E+04</pdfrwt>
<totfact> 0.35281249E+01</totfact>
</mgrwt>
</event>
<event>
 9    1  0.4369420E-036  0.1000013E+04  0.7818608E-02  0.8681026E-01
         -2   -1    0    0    0  501 -0.00000000000E+00  0.00000000000E+00  0.22955321694E+03  0.22955321694E+03  0.00000000000E+00 0. -1.
          2   -1    0    0  501    0  0.00000000000E+00 -0.00000000000E+00 -0.10890998372E+04  0.10890998372E+04  0.00000000000E+00 0. -1.
         36    2    1    2    0    0  0.00000000000E+00  0.00000000000E+00 -0.85954662026E+03  0.13186530541E+04  0.10000127423E+04 0.  0.
         25    2    3    3    0    0  0.81925209089E+02 -0.11240237882E+03 -0.12221688336E+03  0.22319531241E+03  0.12463204345E+03 0.  0.
         35    2    3    3    0    0 -0.81925209089E+02  0.11240237882E+03 -0.73732973689E+03  0.10954577417E+04  0.79813939155E+03 0.  0.
         22    1    5    5    0    0 -0.17860381019E+03  0.42805278599E+03 -0.53585630458E+03  0.70871044001E+03  0.00000000000E+00 0.  1.
         22    1    5    5    0    0  0.96678601106E+02 -0.31565040717E+03 -0.20147343231E+03  0.38674730172E+03  0.00000000000E+00 0.  1.
          5    1    4    4  502    0 -0.56738472925E+01  0.11935008296E+02  0.13374462742E+02  0.19380485540E+02  0.47000000000E+01 0.  1.
         -5    1    4    4    0  502  0.87599056382E+02 -0.12433738712E+03 -0.13559134610E+03  0.20381482687E+03  0.47000000000E+01 0.  1.
<mgrwt>
<rscale>  0 0.10000127E+04</rscale>
<asrwt>0</asrwt>
<pdfrwt beam="1">  1        2 0.16755382E+00 0.10000127E+04</pdfrwt>
<pdfrwt beam="2">  1       -2 0.35315879E-01 0.10000127E+04</pdfrwt>
<totfact> 0.20110860E+02</totfact>
</mgrwt>
</event>
<event>
 9    1  0.4369420E-036  0.9996442E+03  0.7818608E-02  0.8681377E-01
          1   -1    0    0  501    0  0.00000000000E+00  0.00000000000E+00  0.72351226566E+03  0.72351226566E+03  0.00000000000E+00 0.  1.
         -1   -1    0    0    0  501 -0.00000000000E+00 -0.00000000000E+00 -0.34529078156E+03  0.34529078156E+03  0.00000000000E+00 0.  1.
         36    2    1    2    0    0 -0.71054273576E-14  0.00000000000E+00  0.37822148410E+03  0.10688030472E+04  0.99964416805E+03 0.  0.
         25    2    3    3    0    0  0.35523092119E+02  0.13421575381E+03  0.62688899649E+02  0.19761871002E+03  0.12588684509E+03 0.  0.
         35    2    3    3    0    0 -0.35523092119E+02 -0.13421575381E+03  0.31553258445E+03  0.87118433720E+03  0.80007848296E+03 0.  0.
         22    1    5    5    0    0  0.18780458370E+02  0.27861844755E+03  0.35642474126E+03  0.45279083594E+03  0.00000000000E+00 0.  1.
         22    1    5    5    0    0 -0.54303550490E+02 -0.41283420136E+03 -0.40892156814E+02  0.41839350126E+03  0.00000000000E+00 0.  1.
          5    1    4    4  502    0 -0.46514238104E+02  0.41007261241E+02  0.11559130218E+02  0.63252456967E+02  0.47000000000E+01 0.  1.
         -5    1    4    4    0  502  0.82037330223E+02  0.93208492567E+02  0.51129769431E+02  0.13436625305E+03  0.47000000000E+01 0.  1.
<mgrwt>
<rscale>  0 0.99964417E+03</rscale>
<asrwt>0</asrwt>
<pdfrwt beam="1">  1        1 0.11130958E+00 0.99964417E+03</pdfrwt>
<pdfrwt beam="2">  1       -1 0.53121659E-01 0.99964417E+03</pdfrwt>
<totfact> 0.10619928E+02</totfact>
</mgrwt>
</event>
<event>
 9    1  0.4369420E-036  0.1000285E+04  0.7818608E-02  0.8680766E-01
         -2   -1    0    0    0  501 -0.00000000000E+00  0.00000000000E+00  0.11714902604E+03  0.11714902604E+03  0.00000000000E+00 0. -1.
          2   -1    0    0  501    0  0.00000000000E+00 -0.00000000000E+00 -0.21352517072E+04  0.21352517072E+04  0.00000000000E+00 0. -1.
         36    2    1    2    0    0 -0.28421709430E-13 -0.28421709430E-13 -0.20181026812E+04  0.22524007333E+04  0.10002852750E+04 0.  0.
         25    2    3    3    0    0 -0.96637918400E+02  0.10444980353E+03 -0.37572813579E+03  0.42012133717E+03  0.12280739876E+03 0.  0.
         35    2    3    3    0    0  0.96637918400E+02 -0.10444980353E+03 -0.16423745454E+04  0.18322793961E+04  0.79975308020E+03 0.  0.
         22    1    5    5    0    0 -0.34850049881E+03 -0.20941530739E+02 -0.57350227492E+03  0.67141343799E+03  0.00000000000E+00 0.  1.
         22    1    5    5    0    0  0.44513841721E+03 -0.83508272786E+02 -0.10688722705E+04  0.11608659581E+04  0.00000000000E+00 0.  1.
          5    1    4    4  502    0 -0.67617583851E+02 -0.10977619933E+02 -0.14652284481E+03  0.16181371955E+03  0.47000000000E+01 0. -1.
         -5    1    4    4    0  502 -0.29020334549E+02  0.11542742346E+03 -0.22920529099E+03  0.25830761762E+03  0.47000000000E+01 0. -1.
<mgrwt>
<rscale>  0 0.10002853E+04</rscale>
<asrwt>0</asrwt>
<pdfrwt beam="1">  1        2 0.32850024E+00 0.10002853E+04</pdfrwt>
<pdfrwt beam="2">  1       -2 0.18022928E-01 0.10002853E+04</pdfrwt>
<totfact> 0.16772769E+02</totfact>
</mgrwt>
</event>
<event>
 9    1  0.4369420E-036  0.9994132E+03  0.7818608E-02  0.8681597E-01
          4   -1    0    0  501    0  0.00000000000E+00  0.00000000000E+00  0.31179992485E+03  0.31179992485E+03  0.00000000000E+00 0. -1.
         -4   -1    0    0    0  501 -0.00000000000E+00 -0.00000000000E+00 -0.80085555921E+03  0.80085555921E+03  0.00000000000E+00 0. -1.
         36    2    1    2    0    0  0.00000000000E+00  0.14210854715E-13 -0.48905563437E+03  0.11126554841E+04  0.99941323421E+03 0.  0.
         25    2    3    3    0    0 -0.88272879818E+02 -0.57212963787E+02  0.51950772064E+01  0.16584826002E+03  0.12811413656E+03 0.  0.
         35    2    3    3    0    0  0.88272879818E+02  0.57212963787E+02 -0.49425071157E+03  0.94680722405E+03  0.80068391334E+03 0.  0.
         22    1    5    5    0    0 -0.62002365514E+01 -0.31271501572E+03  0.11661896176E+02  0.31299380795E+03  0.00000000000E+00 0. -1.
         22    1    5    5    0    0  0.94473116369E+02  0.36992797951E+03 -0.50591260775E+03  0.63381341609E+03  0.00000000000E+00 0. -1.
          5    1    4    4  502    0 -0.69544824112E+02 -0.14659769490E+02  0.60493280704E+02  0.93450085140E+02  0.47000000000E+01 0.  1.
         -5    1    4    4    0  502 -0.18728055705E+02 -0.42553194298E+02 -0.55298203498E+02  0.72398174877E+02  0.47000000000E+01 0.  1.
<mgrwt>
<rscale>  0 0.99941323E+03</rscale>
<asrwt>0</asrwt>
<pdfrwt beam="1">  1        4 0.47969219E-01 0.99941323E+03</pdfrwt>
<pdfrwt beam="2">  1       -4 0.12320855E+00 0.99941323E+03</pdfrwt>
<totfact> 0.44658390E+00</totfact>
</mgrwt>
</event>
<event>
 9    1  0.4369420E-036  0.9999818E+03  0.7818608E-02  0.8681055E-01
         -2   -1    0    0    0  501 -0.00000000000E+00  0.00000000000E+00  0.11235667320E+04  0.11235667320E+04  0.00000000000E+00 0.  1.
          2   -1    0    0  501    0  0.00000000000E+00 -0.00000000000E+00 -0.22249757828E+03  0.22249757828E+03  0.00000000000E+00 0.  1.
         36    2    1    2    0    0 -0.71054273576E-14 -0.14210854715E-13  0.90106915369E+03  0.13460643103E+04  0.99998175364E+03 0.  0.
         25    2    3    3    0    0  0.57235996861E+02 -0.59810251916E+02  0.32145531184E+03  0.35472558896E+03  0.12507397965E+03 0.  0.
         35    2    3    3    0    0 -0.57235996861E+02  0.59810251916E+02  0.57961384185E+03  0.99133872129E+03  0.79996689250E+03 0.  0.
         22    1    5    5    0    0 -0.46012484281E+02 -0.31869970800E+03  0.29311562272E+02  0.32333546090E+03  0.00000000000E+00 0.  1.
         22    1    5    5    0    0 -0.11223512580E+02  0.37850995992E+03  0.55030227957E+03  0.66800326039E+03  0.00000000000E+00 0.  1.
          5    1    4    4  502    0  0.24211182870E+01 -0.14592001391E+02 -0.81394652328E+01  0.17525102358E+02  0.47000000000E+01 0.  1.
         -5    1    4    4    0  502  0.54814878574E+02 -0.45218250525E+02  0.32959477707E+03  0.33720048661E+03  0.47000000000E+01 0.  1.
<mgrwt>
<rscale>  0 0.99998175E+03</rscale>
<asrwt>0</asrwt>
<pdfrwt beam="1">  1        2 0.34230397E-01 0.99998175E+03</pdfrwt>
<pdfrwt beam="2">  1       -2 0.17285642E+00 0.99998175E+03</pdfrwt>
<totfact> 0.34635984E+01</totfact>
</mgrwt>
</event>
<event>
 9    1  0.4369420E-036  0.1001014E+04  0.7818608E-02  0.8680073E-01
         -2   -1    0    0    0  501 -0.00000000000E+00  0.00000000000E+00  0.13941409708E+03  0.13941409708E+03  0.00000000000E+00 0. -1.
          2   -1    0    0  501    0  0.00000000000E+00 -0.00000000000E+00 -0.17968584292E+04  0.17968584292E+04  0.00000000000E+00 0. -1.
         36    2    1    2    0    0  0.14210854715E-13  0.17763568394E-13 -0.16574443321E+04  0.19362725263E+04  0.10010142766E+04 0.  0.
         25    2    3    3    0    0 -0.69230401428E+02  0.11794401981E+02 -0.55025429968E+03  0.56871962236E+03  0.12542032586E+03 0.  0.
         35    2    3    3    0    0  0.69230401428E+02 -0.11794401981E+02 -0.11071900324E+04  0.13675529039E+04  0.79962442475E+03 0.  0.
         22    1    5    5    0    0  0.33434289987E+03  0.21978964193E+03 -0.82311040316E+03  0.91520675106E+03  0.00000000000E+00 0. -1.
         22    1    5    5    0    0 -0.26511249844E+03 -0.23158404392E+03 -0.28407962927E+03  0.45234615284E+03  0.00000000000E+00 0. -1.
          5    1    4    4  502    0  0.25512078768E+02 -0.75118978494E+01 -0.33767055849E+02  0.43238857907E+02  0.47000000000E+01 0.  1.
         -5    1    4    4    0  502 -0.94742480196E+02  0.19306299830E+02 -0.51648724384E+03  0.52548076445E+03  0.47000000000E+01 0.  1.
<mgrwt>
<rscale>  0 0.10010143E+04</rscale>
<asrwt>0</asrwt>
<pdfrwt beam="1">  1        2 0.27643973E+00 0.10010143E+04</pdfrwt>
<pdfrwt beam="2">  1       -2 0.21448325E-01 0.10010143E+04</pdfrwt>
<totfact> 0.19351211E+02</totfact>
</mgrwt>
</event>
<event>
 9    1  0.4369420E-036  0.9980202E+03  0.7818608E-02  0.8682926E-01
         -2   -1    0    0    0  501 -0.00000000000E+00  0.00000000000E+00  0.38867977776E+03  0.38867977776E+03  0.00000000000E+00 0.  1.
          2   -1    0    0  501    0  0.00000000000E+00 -0.00000000000E+00 -0.64065871906E+03  0.64065871906E+03  0.00000000000E+00 0.  1.
         36    2    1    2    0    0 -0.71054273576E-14  0.00000000000E+00 -0.25197894130E+03  0.10293384968E+04  0.99802021732E+03 0.  0.
         25    2    3    3    0    0  0.13327235412E+02  0.39248308510E+02 -0.18774182812E+03  0.22557082177E+03  0.11797099934E+03 0.  0.
         35    2    3    3    0    0 -0.13327235412E+02 -0.39248308510E+02 -0.64237113181E+02  0.80376767505E+03  0.80012375532E+03 0.  0.
         22    1    5    5    0    0  0.25155094500E+03  0.16175131205E+03 -0.27812716281E+03  0.40840676240E+03  0.00000000000E+00 0. -1.
         22    1    5    5    0    0 -0.26487818041E+03 -0.20099962056E+03  0.21389004963E+03  0.39536091265E+03  0.00000000000E+00 0. -1.
          5    1    4    4  502    0 -0.24582851242E+01  0.78886234224E+02 -0.96627350771E+02  0.12485197649E+03  0.47000000000E+01 0.  1.
         -5    1    4    4    0  502  0.15785520536E+02 -0.39637925714E+02 -0.91114477347E+02  0.10071884529E+03  0.47000000000E+01 0.  1.
<mgrwt>
<rscale>  0 0.99802022E+03</rscale>
<asrwt>0</asrwt>
<pdfrwt beam="1">  1        2 0.98562879E-01 0.99802022E+03</pdfrwt>
<pdfrwt beam="2">  1       -2 0.59796890E-01 0.99802022E+03</pdfrwt>
<totfact> 0.14446635E+02</totfact>
</mgrwt>
</event>
<event>
 9    1  0.4369420E-036  0.1000162E+04  0.7818608E-02  0.8680883E-01
          2   -1    0    0  501    0  0.00000000000E+00  0.00000000000E+00  0.20373219971E+04  0.20373219971E+04  0.00000000000E+00 0.  1.
         -2   -1    0    0    0  501 -0.00000000000E+00 -0.00000000000E+00 -0.12274992497E+03  0.12274992497E+03  0.00000000000E+00 0.  1.
         36    2    1    2    0    0  0.00000000000E+00  0.14210854715E-13  0.19145720721E+04  0.21600719220E+04  0.10001622314E+04 0.  0.
         25    2    3    3    0    0  0.13580087463E+03 -0.13999667941E+02  0.28708394394E+03  0.34142219915E+03  0.12455544529E+03 0.  0.
         35    2    3    3    0    0 -0.13580087463E+03  0.13999667941E+02  0.16274881281E+04  0.18186497229E+04  0.80008208269E+03 0.  0.
         22    1    5    5    0    0  0.95281827526E+02  0.35928861489E+03  0.99240446623E+03  0.10597327777E+04  0.00000000000E+00 0.  1.
         22    1    5    5    0    0 -0.23108270215E+03 -0.34528894695E+03  0.63508366192E+03  0.75891694523E+03  0.00000000000E+00 0.  1.
          5    1    4    4  502    0  0.86737882887E+02  0.17436916296E+02  0.60168578683E+02  0.10709740538E+03  0.47000000000E+01 0.  1.
         -5    1    4    4    0  502  0.49062991742E+02 -0.31436584237E+02  0.22691536526E+03  0.23432479378E+03  0.47000000000E+01 0.  1.
<mgrwt>
<rscale>  0 0.10001622E+04</rscale>
<asrwt>0</asrwt>
<pdfrwt beam="1">  1        2 0.31343413E+00 0.10001622E+04</pdfrwt>
<pdfrwt beam="2">  1       -2 0.18884605E-01 0.10001622E+04</pdfrwt>
<totfact> 0.17621309E+02</totfact>
</mgrwt>
</event>
<event>
 9    1  0.4369420E-036  0.1000224E+04  0.7818608E-02  0.8680825E-01
         -1   -1    0    0    0  501 -0.00000000000E+00  0.00000000000E+00  0.16019222914E+03  0.16019222914E+03  0.00000000000E+00 0.  1.
          1   -1    0    0  501    0  0.00000000000E+00 -0.00000000000E+00 -0.15613234725E+04  0.15613234725E+04  0.00000000000E+00 0.  1.
         36    2    1    2    0    0 -0.14210854715E-13  0.14210854715E-13 -0.14011312434E+04  0.17215157017E+04  0.10002237499E+04 0.  0.
         25    2    3    3    0    0  0.10383010315E+03  0.78632546770E+02 -0.31865319789E+03  0.36621027385E+03  0.12492532337E+03 0.  0.
         35    2    3    3    0    0 -0.10383010315E+03 -0.78632546770E+02 -0.10824780455E+04  0.13553054278E+04  0.80506541097E+03 0.  0.
         22    1    5    5    0    0 -0.35385196445E+03 -0.16666512763E+02 -0.10342610569E+04  0.10932451323E+04  0.00000000000E+00 0.  1.
         22    1    5    5    0    0  0.25002186130E+03 -0.61966034007E+02 -0.48216988566E+02  0.26206029552E+03  0.00000000000E+00 0.  1.
          5    1    4    4  502    0  0.99714898609E+02  0.72097914006E+02 -0.13651042826E+03  0.18384329532E+03  0.47000000000E+01 0. -1.
         -5    1    4    4    0  502  0.41152045424E+01  0.65346327641E+01 -0.18214276962E+03  0.18236697854E+03  0.47000000000E+01 0. -1.
<mgrwt>
<rscale>  0 0.10002237E+04</rscale>
<asrwt>0</asrwt>
<pdfrwt beam="1">  1        1 0.24020361E+00 0.10002237E+04</pdfrwt>
<pdfrwt beam="2">  1       -1 0.24644958E-01 0.10002237E+04</pdfrwt>
<totfact> 0.91562683E+01</totfact>
</mgrwt>
</event>
<event>
 9    1  0.4369420E-036  0.9991971E+03  0.7818608E-02  0.8681803E-01
          2   -1    0    0  501    0  0.00000000000E+00  0.00000000000E+00  0.63780312691E+03  0.63780312691E+03  0.00000000000E+00 0. -1.
         -2   -1    0    0    0  501 -0.00000000000E+00 -0.00000000000E+00 -0.39134127675E+03  0.39134127675E+03  0.00000000000E+00 0. -1.
         36    2    1    2    0    0  0.00000000000E+00  0.14210854715E-13  0.24646185016E+03  0.10291444037E+04  0.99919705765E+03 0.  0.
         25    2    3    3    0    0 -0.11516356532E+03  0.12792346546E+02 -0.31822955324E+02  0.17416402084E+03  0.12607186348E+03 0.  0.
         35    2    3    3    0    0  0.11516356532E+03 -0.12792346546E+02  0.27828480548E+03  0.85498038283E+03  0.80007670329E+03 0.  0.
         22    1    5    5    0    0 -0.48023948159E+01 -0.36965700527E+03 -0.26427419568E+02  0.37063158668E+03  0.00000000000E+00 0.  1.
         22    1    5    5    0    0  0.11996596014E+03  0.35686465872E+03  0.30471222505E+03  0.48434879615E+03  0.00000000000E+00 0.  1.
          5    1    4    4  502    0 -0.10486474688E+03  0.13671102456E+02  0.31016487786E+02  0.11030696576E+03  0.47000000000E+01 0.  1.
         -5    1    4    4    0  502 -0.10298818443E+02 -0.87875591018E+00 -0.62839443111E+02  0.63857055082E+02  0.47000000000E+01 0.  1.
<mgrwt>
<rscale>  0 0.99919706E+03</rscale>
<asrwt>0</asrwt>
<pdfrwt beam="1">  1        2 0.98123558E-01 0.99919706E+03</pdfrwt>
<pdfrwt beam="2">  1       -2 0.60206350E-01 0.99919706E+03</pdfrwt>
<totfact> 0.14318678E+02</totfact>
</mgrwt>
</event>
<event>
 9    1  0.4369420E-036  0.9995656E+03  0.7818608E-02  0.8681452E-01
         -1   -1    0    0    0  501 -0.00000000000E+00  0.00000000000E+00  0.63680678498E+03  0.63680678498E+03  0.00000000000E+00 0. -1.
          1   -1    0    0  501    0  0.00000000000E+00 -0.00000000000E+00 -0.39224276888E+03  0.39224276888E+03  0.00000000000E+00 0. -1.
         36    2    1    2    0    0 -0.71054273576E-14 -0.14210854715E-13  0.24456401610E+03  0.10290495539E+04  0.99956561883E+03 0.  0.
         25    2    3    3    0    0 -0.14508341735E+02 -0.11241064988E+03  0.13270014626E+03  0.21317645313E+03  0.12242640714E+03 0.  0.
         35    2    3    3    0    0  0.14508341735E+02  0.11241064988E+03  0.11186386984E+03  0.81587310074E+03  0.80018044524E+03 0.  0.
         22    1    5    5    0    0  0.66603390565E+02 -0.32706935346E+02  0.44375499502E+03  0.44991582642E+03  0.00000000000E+00 0.  1.
         22    1    5    5    0    0 -0.52095048830E+02  0.14511758523E+03 -0.33189112518E+03  0.36595727432E+03  0.00000000000E+00 0.  1.
          5    1    4    4  502    0  0.33327617825E+02 -0.58291655995E+02  0.12291076769E+03  0.14013491386E+03  0.47000000000E+01 0.  1.
         -5    1    4    4    0  502 -0.47835959560E+02 -0.54118993888E+02  0.97893785670E+01  0.73041539272E+02  0.47000000000E+01 0.  1.
<mgrwt>
<rscale>  0 0.99956562E+03</rscale>
<asrwt>0</asrwt>
<pdfrwt beam="1">  1        1 0.60345041E-01 0.99956562E+03</pdfrwt>
<pdfrwt beam="2">  1       -1 0.97970275E-01 0.99956562E+03</pdfrwt>
<totfact> 0.73615390E+01</totfact>
</mgrwt>
</event>
<event>
 9    1  0.4369420E-036  0.1003423E+04  0.7818608E-02  0.8677785E-01
         -1   -1    0    0    0  501 -0.00000000000E+00  0.00000000000E+00  0.26954071811E+03  0.26954071811E+03  0.00000000000E+00 0.  1.
          1   -1    0    0  501    0  0.00000000000E+00 -0.00000000000E+00 -0.93386464325E+03  0.93386464325E+03  0.00000000000E+00 0.  1.
         36    2    1    2    0    0  0.14210854715E-13  0.00000000000E+00 -0.66432392514E+03  0.12034053614E+04  0.10034232339E+04 0.  0.
         25    2    3    3    0    0 -0.87031619339E+02  0.50980359554E+02 -0.28069156534E+01  0.16079444734E+03  0.12519375262E+03 0.  0.
         35    2    3    3    0    0  0.87031619339E+02 -0.50980359554E+02 -0.66151700949E+03  0.10426109140E+04  0.79953690620E+03 0.  0.
         22    1    5    5    0    0 -0.20520210181E+01  0.35001711007E+03 -0.13580156964E+03  0.37544407633E+03  0.00000000000E+00 0. -1.
         22    1    5    5    0    0  0.89083640357E+02 -0.40099746962E+03 -0.52571543985E+03  0.66716683769E+03  0.00000000000E+00 0. -1.
          5    1    4    4  502    0  0.70197540066E+01  0.36058169183E+02 -0.43500081285E+02  0.57129813434E+02  0.47000000000E+01 0. -1.
         -5    1    4    4    0  502 -0.94051373346E+02  0.14922190370E+02  0.40693165632E+02  0.10366463391E+03  0.47000000000E+01 0. -1.
<mgrwt>
<rscale>  0 0.10034232E+04</rscale>
<asrwt>0</asrwt>
<pdfrwt beam="1">  1        1 0.14367148E+00 0.10034232E+04</pdfrwt>
<pdfrwt beam="2">  1       -1 0.41467803E-01 0.10034232E+04</pdfrwt>
<totfact> 0.10955339E+02</totfact>
</mgrwt>
</event>
<event>
 9    1  0.4369420E-036  0.1003127E+04  0.7818608E-02  0.8678066E-01
         -2   -1    0    0    0  501 -0.00000000000E+00  0.00000000000E+00  0.77871244277E+02  0.77871244277E+02  0.00000000000E+00 0. -1.
          2   -1    0    0  501    0  0.00000000000E+00 -0.00000000000E+00 -0.32305380071E+04  0.32305380071E+04  0.00000000000E+00 0. -1.
         36    2    1    2    0    0 -0.71054273576E-14  0.00000000000E+00 -0.31526667629E+04  0.33084092514E+04  0.10031271391E+04 0.  0.
         25    2    3    3    0    0 -0.25916769429E+02  0.11016182177E+03 -0.31187452038E+03  0.35473322336E+03  0.12554934242E+03 0.  0.
         35    2    3    3    0    0  0.25916769429E+02 -0.11016182177E+03 -0.28407922425E+04  0.29536760280E+04  0.80080847139E+03 0.  0.
         22    1    5    5    0    0 -0.21710259937E+02 -0.16772041354E+02  0.52101748662E+02  0.58883180717E+02  0.00000000000E+00 0.  1.
         22    1    5    5    0    0  0.47627029366E+02 -0.93389780413E+02 -0.28928939911E+04  0.28947928473E+04  0.00000000000E+00 0.  1.
          5    1    4    4  502    0  0.38056955383E+02  0.32836390101E+02 -0.19098493993E+03  0.19754467254E+03  0.47000000000E+01 0. -1.
         -5    1    4    4    0  502 -0.63973724812E+02  0.77325431666E+02 -0.12088958045E+03  0.15718855082E+03  0.47000000000E+01 0. -1.
<mgrwt>
<rscale>  0 0.10031271E+04</rscale>
<asrwt>0</asrwt>
<pdfrwt beam="1">  1        2 0.49700586E+00 0.10031271E+04</pdfrwt>
<pdfrwt beam="2">  1       -2 0.11980191E-01 0.10031271E+04</pdfrwt>
<totfact> 0.67539536E+01</totfact>
</mgrwt>
</event>
<event>
 9    1  0.4369420E-036  0.9987920E+03  0.7818608E-02  0.8682189E-01
         -1   -1    0    0    0  501 -0.00000000000E+00  0.00000000000E+00  0.28155862333E+03  0.28155862333E+03  0.00000000000E+00 0.  1.
          1   -1    0    0  501    0  0.00000000000E+00 -0.00000000000E+00 -0.88577072597E+03  0.88577072597E+03  0.00000000000E+00 0.  1.
         36    2    1    2    0    0  0.14210854715E-13  0.28421709430E-13 -0.60421210264E+03  0.11673293493E+04  0.99879204279E+03 0.  0.
         25    2    3    3    0    0 -0.85959168275E+02 -0.21173817395E+02 -0.23750932542E+03  0.28358716283E+03  0.12717582360E+03 0.  0.
         35    2    3    3    0    0  0.85959168275E+02  0.21173817395E+02 -0.36670277722E+03  0.88374218646E+03  0.79918209199E+03 0.  0.
         22    1    5    5    0    0 -0.16754580430E+03  0.26143672591E+03  0.76161865335E+02  0.31972079683E+03  0.00000000000E+00 0. -1.
         22    1    5    5    0    0  0.25350497258E+03 -0.24026290852E+03 -0.44286464256E+03  0.56402138963E+03  0.00000000000E+00 0. -1.
          5    1    4    4  502    0 -0.37962200737E+02 -0.65101143134E+02 -0.18509962328E+03  0.19990809904E+03  0.47000000000E+01 0.  1.
         -5    1    4    4    0  502 -0.47996967537E+02  0.43927325739E+02 -0.52409702135E+02  0.83679063793E+02  0.47000000000E+01 0.  1.
<mgrwt>
<rscale>  0 0.99879204E+03</rscale>
<asrwt>0</asrwt>
<pdfrwt beam="1">  1        1 0.13627242E+00 0.99879204E+03</pdfrwt>
<pdfrwt beam="2">  1       -1 0.43316711E-01 0.99879204E+03</pdfrwt>
<totfact> 0.11107094E+02</totfact>
</mgrwt>
</event>
<event>
 9    1  0.4369420E-036  0.9999628E+03  0.7818608E-02  0.8681073E-01
         -2   -1    0    0    0  501 -0.00000000000E+00  0.00000000000E+00  0.30688332416E+03  0.30688332416E+03  0.00000000000E+00 0.  1.
          2   -1    0    0  501    0  0.00000000000E+00 -0.00000000000E+00 -0.81458123259E+03  0.81458123259E+03  0.00000000000E+00 0.  1.
         36    2    1    2    0    0  0.71054273576E-14 -0.14210854715E-13 -0.50769790843E+03  0.11214645567E+04  0.99996279222E+03 0.  0.
         25    2    3    3    0    0  0.18397422443E+02 -0.11038077334E+03 -0.22050358096E+01  0.16827755178E+03  0.12565863271E+03 0.  0.
         35    2    3    3    0    0 -0.18397422443E+02  0.11038077334E+03 -0.50549287262E+03  0.95318700497E+03  0.80032496018E+03 0.  0.
         22    1    5    5    0    0 -0.16007308692E+03  0.10798044737E+03 -0.69229855338E+03  0.71872140443E+03  0.00000000000E+00 0. -1.
         22    1    5    5    0    0  0.14167566448E+03  0.24003259670E+01  0.18680568076E+03  0.23446560054E+03  0.00000000000E+00 0. -1.
          5    1    4    4  502    0  0.72319707844E+01 -0.85514433235E+02 -0.59582425706E+02  0.10458095021E+03  0.47000000000E+01 0.  1.
         -5    1    4    4    0  502  0.11165451659E+02 -0.24866340105E+02  0.57377389897E+02  0.63696601576E+02  0.47000000000E+01 0.  1.
<mgrwt>
<rscale>  0 0.99996279E+03</rscale>
<asrwt>0</asrwt>
<pdfrwt beam="1">  1        2 0.12532019E+00 0.99996279E+03</pdfrwt>
<pdfrwt beam="2">  1       -2 0.47212819E-01 0.99996279E+03</pdfrwt>
<totfact> 0.17302984E+02</totfact>
</mgrwt>
</event>
<event>
 9    1  0.4369420E-036  0.1000581E+04  0.7818608E-02  0.8680484E-01
          1   -1    0    0  501    0  0.00000000000E+00  0.00000000000E+00  0.49217743344E+03  0.49217743344E+03  0.00000000000E+00 0.  1.
         -1   -1    0    0    0  501 -0.00000000000E+00 -0.00000000000E+00 -0.50853779354E+03  0.50853779354E+03  0.00000000000E+00 0.  1.
         36    2    1    2    0    0  0.00000000000E+00 -0.28421709430E-13 -0.16360360102E+02  0.10007152270E+04  0.10005814830E+04 0.  0.
         25    2    3    3    0    0 -0.10129156406E+03 -0.73488134087E+02 -0.67830540998E+02  0.18961775419E+03  0.12527339547E+03 0.  0.
         35    2    3    3    0    0  0.10129156406E+03  0.73488134087E+02  0.51470180896E+02  0.81109747278E+03  0.79973085725E+03 0.  0.
         22    1    5    5    0    0  0.96524658726E+02  0.39391856137E+03 -0.15015985215E+03  0.43247754153E+03  0.00000000000E+00 0.  1.
         22    1    5    5    0    0  0.47669053293E+01 -0.32043042728E+03  0.20163003304E+03  0.37861993125E+03  0.00000000000E+00 0.  1.
          5    1    4    4  502    0  0.17828708000E+02 -0.24724451671E+02  0.17168067750E+02  0.35298638637E+02  0.47000000000E+01 0. -1.
         -5    1    4    4    0  502 -0.11912027206E+03 -0.48763682416E+02 -0.84998608748E+02  0.15431911556E+03  0.47000000000E+01 0. -1.
<mgrwt>
<rscale>  0 0.10005815E+04</rscale>
<asrwt>0</asrwt>
<pdfrwt beam="1">  1        1 0.75719605E-01 0.10005815E+04</pdfrwt>
<pdfrwt beam="2">  1       -1 0.78236583E-01 0.10005815E+04</pdfrwt>
<totfact> 0.87533727E+01</totfact>
</mgrwt>
</event>
<event>
 9    1  0.4369420E-036  0.1000027E+04  0.7818608E-02  0.8681013E-01
         -1   -1    0    0    0  501 -0.00000000000E+00  0.00000000000E+00  0.14405321795E+03  0.14405321795E+03  0.00000000000E+00 0.  1.
          1   -1    0    0  501    0  0.00000000000E+00 -0.00000000000E+00 -0.17355621579E+04  0.17355621579E+04  0.00000000000E+00 0.  1.
         36    2    1    2    0    0 -0.24868995752E-13 -0.56843418861E-13 -0.15915089399E+04  0.18796153758E+04  0.10000266272E+04 0.  0.
         25    2    3    3    0    0  0.14029560373E+02 -0.13902323236E+03 -0.26403678177E+03  0.32367756976E+03  0.12460922655E+03 0.  0.
         35    2    3    3    0    0 -0.14029560373E+02  0.13902323236E+03 -0.13274721581E+04  0.15559378060E+04  0.79952225604E+03 0.  0.
         22    1    5    5    0    0 -0.18201188760E+03 -0.21029926944E+03 -0.14934910628E+03  0.31568855776E+03  0.00000000000E+00 0. -1.
         22    1    5    5    0    0  0.16798232723E+03  0.34932250180E+03 -0.11781230519E+04  0.12402492483E+04  0.00000000000E+00 0. -1.
          5    1    4    4  502    0 -0.42723873768E+01  0.20554579022E+02 -0.11619576511E+02  0.24450942128E+02  0.47000000000E+01 0. -1.
         -5    1    4    4    0  502  0.18301947750E+02 -0.15957781138E+03 -0.25241720525E+03  0.29922662764E+03  0.47000000000E+01 0. -1.
<mgrwt>
<rscale>  0 0.10000266E+04</rscale>
<asrwt>0</asrwt>
<pdfrwt beam="1">  1        1 0.26700957E+00 0.10000266E+04</pdfrwt>
<pdfrwt beam="2">  1       -1 0.22162033E-01 0.10000266E+04</pdfrwt>
<totfact> 0.82361695E+01</totfact>
</mgrwt>
</event>
<event>
 9    1  0.4369420E-036  0.9998925E+03  0.7818608E-02  0.8681140E-01
         -2   -1    0    0    0  501 -0.00000000000E+00  0.00000000000E+00  0.13628111427E+03  0.13628111427E+03  0.00000000000E+00 0. -1.
          2   -1    0    0  501    0  0.00000000000E+00 -0.00000000000E+00 -0.18340489750E+04  0.18340489750E+04  0.00000000000E+00 0. -1.
         36    2    1    2    0    0  0.00000000000E+00 -0.14210854715E-13 -0.16977678607E+04  0.19703300893E+04  0.99989247009E+03 0.  0.
         25    2    3    3    0    0  0.74498686914E+02 -0.10902865332E+03 -0.40962755004E+03  0.44831402935E+03  0.12551269883E+03 0.  0.
         35    2    3    3    0    0 -0.74498686914E+02  0.10902865332E+03 -0.12881403107E+04  0.15220160599E+04  0.79986881737E+03 0.  0.
         22    1    5    5    0    0  0.18052585287E+03  0.17803621243E+03 -0.53118892108E+02  0.25905229817E+03  0.00000000000E+00 0.  1.
         22    1    5    5    0    0 -0.25502453978E+03 -0.69007559103E+02 -0.12350214186E+04  0.12629637617E+04  0.00000000000E+00 0.  1.
          5    1    4    4  502    0 -0.36082434952E+01 -0.52193511866E+02 -0.28885126983E+03  0.29358870582E+03  0.47000000000E+01 0.  1.
         -5    1    4    4    0  502  0.78106930409E+02 -0.56835141458E+02 -0.12077628021E+03  0.15472532354E+03  0.47000000000E+01 0.  1.
<mgrwt>
<rscale>  0 0.99989247E+03</rscale>
<asrwt>0</asrwt>
<pdfrwt beam="1">  1        2 0.28216142E+00 0.99989247E+03</pdfrwt>
<pdfrwt beam="2">  1       -2 0.20966323E-01 0.99989247E+03</pdfrwt>
<totfact> 0.19182350E+02</totfact>
</mgrwt>
</event>
<event>
 9    1  0.4369420E-036  0.9991864E+03  0.7818608E-02  0.8681813E-01
         -2   -1    0    0    0  501 -0.00000000000E+00  0.00000000000E+00  0.37260452324E+03  0.37260452324E+03  0.00000000000E+00 0.  1.
          2   -1    0    0  501    0  0.00000000000E+00 -0.00000000000E+00 -0.66986131869E+03  0.66986131869E+03  0.00000000000E+00 0.  1.
         36    2    1    2    0    0  0.00000000000E+00 -0.71054273576E-14 -0.29725679545E+03  0.10424658419E+04  0.99918638359E+03 0.  0.
         25    2    3    3    0    0 -0.84820938361E+02 -0.34804905046E+02 -0.16521163127E+03  0.22645497794E+03  0.12482387964E+03 0.  0.
         35    2    3    3    0    0  0.84820938361E+02  0.34804905046E+02 -0.13204516417E+03  0.81601086398E+03  0.80001989460E+03 0.  0.
         22    1    5    5    0    0  0.27887237189E+03  0.26294288490E+02 -0.39799364620E+03  0.48668278358E+03  0.00000000000E+00 0.  1.
         22    1    5    5    0    0 -0.19405143353E+03  0.85106165559E+01  0.26594848203E+03  0.32932808041E+03  0.00000000000E+00 0.  1.
          5    1    4    4  502    0 -0.88610898345E+02 -0.13448974366E+02 -0.17906181476E+03  0.20029475710E+03  0.47000000000E+01 0. -1.
         -5    1    4    4    0  502  0.37899599845E+01 -0.21355930680E+02  0.13850183486E+02  0.26160220842E+02  0.47000000000E+01 0. -1.
<mgrwt>
<rscale>  0 0.99918638E+03</rscale>
<asrwt>0</asrwt>
<pdfrwt beam="1">  1        2 0.10305559E+00 0.99918638E+03</pdfrwt>
<pdfrwt beam="2">  1       -2 0.57323773E-01 0.99918638E+03</pdfrwt>
<totfact> 0.14942046E+02</totfact>
</mgrwt>
</event>
<event>
 9    1  0.4369420E-036  0.9998723E+03  0.7818608E-02  0.8681160E-01
          1   -1    0    0  501    0  0.00000000000E+00  0.00000000000E+00  0.13511233081E+04  0.13511233081E+04  0.00000000000E+00 0. -1.
         -1   -1    0    0    0  501 -0.00000000000E+00 -0.00000000000E+00 -0.18498397562E+03  0.18498397562E+03  0.00000000000E+00 0. -1.
         36    2    1    2    0    0  0.71054273576E-14  0.14210854715E-13  0.11661393325E+04  0.15361072837E+04  0.99987231401E+03 0.  0.
         25    2    3    3    0    0 -0.18747113559E+02  0.69234952699E+02  0.39835139005E+03  0.42354542921E+03  0.12474761603E+03 0.  0.
         35    2    3    3    0    0  0.18747113559E+02 -0.69234952699E+02  0.76778794243E+03  0.11125618545E+04  0.80196672164E+03 0.  0.
         22    1    5    5    0    0  0.24254876070E+03  0.71002523107E+02 -0.46096742862E+02  0.25689719599E+03  0.00000000000E+00 0. -1.
         22    1    5    5    0    0 -0.22380164714E+03 -0.14023747581E+03  0.81388468529E+03  0.85566465851E+03  0.00000000000E+00 0. -1.
          5    1    4    4  502    0  0.12404327252E+02  0.53344052273E+02  0.37965417635E+03  0.38361287631E+03  0.47000000000E+01 0.  1.
         -5    1    4    4    0  502 -0.31151440811E+02  0.15890900426E+02  0.18697213696E+02  0.39932552898E+02  0.47000000000E+01 0.  1.
<mgrwt>
<rscale>  0 0.99987231E+03</rscale>
<asrwt>0</asrwt>
<pdfrwt beam="1">  1        1 0.20786512E+00 0.99987231E+03</pdfrwt>
<pdfrwt beam="2">  1       -1 0.28459074E-01 0.99987231E+03</pdfrwt>
<totfact> 0.10152734E+02</totfact>
</mgrwt>
</event>
<event>
 9    1  0.4369420E-036  0.9999534E+03  0.7818608E-02  0.8681082E-01
          2   -1    0    0  501    0  0.00000000000E+00  0.00000000000E+00  0.29485606109E+04  0.29485606109E+04  0.00000000000E+00 0.  1.
         -2   -1    0    0    0  501 -0.00000000000E+00 -0.00000000000E+00 -0.84779228585E+02  0.84779228585E+02  0.00000000000E+00 0.  1.
         36    2    1    2    0    0 -0.71054273576E-14  0.00000000000E+00  0.28637813823E+04  0.30333398395E+04  0.99995338697E+03 0.  0.
         25    2    3    3    0    0  0.18051919188E+02 -0.10397588057E+03  0.82584738410E+03  0.84193174775E+03  0.12525298610E+03 0.  0.
         35    2    3    3    0    0 -0.18051919188E+02  0.10397588057E+03  0.20379339982E+04  0.21914080917E+04  0.79872247238E+03 0.  0.
         22    1    5    5    0    0 -0.24711071401E+03 -0.26972901281E+03  0.99475895665E+03  0.10598881201E+04  0.00000000000E+00 0. -1.
         22    1    5    5    0    0  0.22905879482E+03  0.37370489337E+03  0.10431750415E+04  0.11315199716E+04  0.00000000000E+00 0. -1.
          5    1    4    4  502    0  0.48559101429E+02 -0.40564245524E+01  0.14358680895E+03  0.15170267834E+03  0.47000000000E+01 0.  1.
         -5    1    4    4    0  502 -0.30507182241E+02 -0.99919456015E+02  0.68226057515E+03  0.69022906941E+03  0.47000000000E+01 0.  1.
<mgrwt>
<rscale>  0 0.99995339E+03</rscale>
<asrwt>0</asrwt>
<pdfrwt beam="1">  1        2 0.45362463E+00 0.99995339E+03</pdfrwt>
<pdfrwt beam="2">  1       -2 0.13042961E-01 0.99995339E+03</pdfrwt>
<totfact> 0.91388877E+01</totfact>
</mgrwt>
</event>
<event>
 9    1  0.4369420E-036  0.9995785E+03  0.7818608E-02  0.8681439E-01
         -3   -1    0    0    0  501 -0.00000000000E+00  0.00000000000E+00  0.46846157226E+03  0.46846157226E+03  0.00000000000E+00 0.  1.
          3   -1    0    0  501    0  0.00000000000E+00 -0.00000000000E+00 -0.53321195748E+03  0.53321195748E+03  0.00000000000E+00 0.  1.
         36    2    1    2    0    0 -0.28421709430E-13  0.00000000000E+00 -0.64750385225E+02  0.10016735297E+04  0.99957853508E+03 0.  0.
         25    2    3    3    0    0 -0.12943182800E+03 -0.35378971551E+02  0.30869853161E+02  0.18588308192E+03  0.12488115383E+03 0.  0.
         35    2    3    3    0    0  0.12943182800E+03  0.35378971551E+02 -0.95620238386E+02  0.81579044782E+03  0.79897844466E+03 0.  0.
         22    1    5    5    0    0  0.57381793103E+02 -0.26072417287E+02  0.35233873964E+03  0.35793159761E+03  0.00000000000E+00 0.  1.
         22    1    5    5    0    0  0.72050034900E+02  0.61451388839E+02 -0.44795897802E+03  0.45785885020E+03  0.00000000000E+00 0.  1.
          5    1    4    4  502    0 -0.87360354745E+02 -0.74484124987E+02  0.49793915677E+02  0.12522475991E+03  0.47000000000E+01 0.  1.
         -5    1    4    4    0  502 -0.42071473258E+02  0.39105153435E+02 -0.18924062516E+02  0.60658322013E+02  0.47000000000E+01 0.  1.
<mgrwt>
<rscale>  0 0.99957854E+03</rscale>
<asrwt>0</asrwt>
<pdfrwt beam="1">  1        3 0.82032608E-01 0.99957854E+03</pdfrwt>
<pdfrwt beam="2">  1       -3 0.72071011E-01 0.99957854E+03</pdfrwt>
<totfact> 0.10144480E+01</totfact>
</mgrwt>
</event>
<event>
 9    1  0.4369420E-036  0.9992221E+03  0.7818608E-02  0.8681779E-01
         -2   -1    0    0    0  501 -0.00000000000E+00  0.00000000000E+00  0.33056524455E+03  0.33056524455E+03  0.00000000000E+00 0. -1.
          2   -1    0    0  501    0  0.00000000000E+00 -0.00000000000E+00 -0.75510422624E+03  0.75510422624E+03  0.00000000000E+00 0. -1.
         36    2    1    2    0    0 -0.21316282073E-13 -0.14210854715E-13 -0.42453898170E+03  0.10856694708E+04  0.99922212387E+03 0.  0.
         25    2    3    3    0    0  0.51482714133E+02  0.99515271306E+02 -0.17123972913E+03  0.23928681487E+03  0.12402167497E+03 0.  0.
         35    2    3    3    0    0 -0.51482714133E+02 -0.99515271306E+02 -0.25329925257E+03  0.84638265592E+03  0.79978080110E+03 0.  0.
         22    1    5    5    0    0  0.37036106474E+03  0.40653093120E+01 -0.81344031590E+02  0.37921062286E+03  0.00000000000E+00 0.  1.
         22    1    5    5    0    0 -0.42184377887E+03 -0.10358058062E+03 -0.17195522098E+03  0.46717203306E+03  0.00000000000E+00 0.  1.
          5    1    4    4  502    0 -0.15883912322E+02  0.93165770946E+02 -0.71204206502E+02  0.11842418913E+03  0.47000000000E+01 0.  1.
         -5    1    4    4    0  502  0.67366626456E+02  0.63495003609E+01 -0.10003552263E+03  0.12086262575E+03  0.47000000000E+01 0.  1.
<mgrwt>
<rscale>  0 0.99922212E+03</rscale>
<asrwt>0</asrwt>
<pdfrwt beam="1">  1        2 0.11616988E+00 0.99922212E+03</pdfrwt>
<pdfrwt beam="2">  1       -2 0.50856192E-01 0.99922212E+03</pdfrwt>
<totfact> 0.16443690E+02</totfact>
</mgrwt>
</event>
<event>
 9    1  0.4369420E-036  0.1000211E+04  0.7818608E-02  0.8680837E-01
         -2   -1    0    0    0  501 -0.00000000000E+00  0.00000000000E+00  0.24661544114E+03  0.24661544114E+03  0.00000000000E+00 0. -1.
          2   -1    0    0  501    0  0.00000000000E+00 -0.00000000000E+00 -0.10141517734E+04  0.10141517734E+04  0.00000000000E+00 0. -1.
         36    2    1    2    0    0  0.21316282073E-13  0.71054273576E-14 -0.76753633228E+03  0.12607672146E+04  0.10002109517E+04 0.  0.
         25    2    3    3    0    0  0.45283842956E+02  0.40034339555E+02  0.23559985029E+02  0.13305935831E+03  0.11617377141E+03 0.  0.
         35    2    3    3    0    0 -0.45283842956E+02 -0.40034339555E+02 -0.79109631731E+03  0.11277078562E+04  0.80139768592E+03 0.  0.
         22    1    5    5    0    0  0.28698909766E+03 -0.23800401621E+03 -0.57316165250E+03  0.68375648721E+03  0.00000000000E+00 0.  1.
         22    1    5    5    0    0 -0.33227294062E+03  0.19796967665E+03 -0.21793466482E+03  0.44395136903E+03  0.00000000000E+00 0.  1.
          5    1    4    4  502    0  0.42205913807E+02  0.16249373049E+02  0.68316620240E+02  0.82064802966E+02  0.47000000000E+01 0.  1.
         -5    1    4    4    0  502  0.30779291496E+01  0.23784966507E+02 -0.44756635212E+02  0.50994555347E+02  0.47000000000E+01 0.  1.
<mgrwt>
<rscale>  0 0.10002110E+04</rscale>
<asrwt>0</asrwt>
<pdfrwt beam="1">  1        2 0.15602336E+00 0.10002110E+04</pdfrwt>
<pdfrwt beam="2">  1       -2 0.37940836E-01 0.10002110E+04</pdfrwt>
<totfact> 0.19545683E+02</totfact>
</mgrwt>
</event>
<event>
 9    1  0.4369420E-036  0.9998955E+03  0.7818608E-02  0.8681137E-01
          2   -1    0    0  501    0  0.00000000000E+00  0.00000000000E+00  0.11538105828E+04  0.11538105828E+04  0.00000000000E+00 0. -1.
         -2   -1    0    0    0  501 -0.00000000000E+00 -0.00000000000E+00 -0.21662805559E+03  0.21662805559E+03  0.00000000000E+00 0. -1.
         36    2    1    2    0    0  0.00000000000E+00 -0.17763568394E-13  0.93718252717E+03  0.13704386384E+04  0.99989548066E+03 0.  0.
         25    2    3    3    0    0  0.44074437350E+01 -0.21436189314E+02  0.36562508379E+03  0.38711738289E+03  0.12529657005E+03 0.  0.
         35    2    3    3    0    0 -0.44074437350E+01  0.21436189314E+02  0.57155744339E+03  0.98332125546E+03  0.79985238925E+03 0.  0.
         22    1    5    5    0    0 -0.20142018753E+03 -0.31517566942E+03  0.13437276216E+03  0.39744412658E+03  0.00000000000E+00 0. -1.
         22    1    5    5    0    0  0.19701274380E+03  0.33661185873E+03  0.43718468122E+03  0.58587712889E+03  0.00000000000E+00 0. -1.
          5    1    4    4  502    0  0.37701452672E+02 -0.46711710329E+02  0.89894041753E+02  0.10819617442E+03  0.47000000000E+01 0. -1.
         -5    1    4    4    0  502 -0.33294008937E+02  0.25275521015E+02  0.27573104204E+03  0.27892120847E+03  0.47000000000E+01 0. -1.
<mgrwt>
<rscale>  0 0.99989548E+03</rscale>
<asrwt>0</asrwt>
<pdfrwt beam="1">  1        2 0.17750932E+00 0.99989548E+03</pdfrwt>
<pdfrwt beam="2">  1       -2 0.33327394E-01 0.99989548E+03</pdfrwt>
<totfact> 0.20476162E+02</totfact>
</mgrwt>
</event>
<event>
 9    1  0.4369420E-036  0.9996999E+03  0.7818608E-02  0.8681324E-01
          2   -1    0    0  501    0  0.00000000000E+00  0.00000000000E+00  0.20273879449E+04  0.20273879449E+04  0.00000000000E+00 0.  1.
         -2   -1    0    0    0  501 -0.00000000000E+00 -0.00000000000E+00 -0.12323737337E+03  0.12323737337E+03  0.00000000000E+00 0.  1.
         36    2    1    2    0    0  0.00000000000E+00 -0.14210854715E-13  0.19041505716E+04  0.21506253183E+04  0.99969988523E+03 0.  0.
         25    2    3    3    0    0 -0.13160142556E+03 -0.17013005133E+02  0.45086974368E+03  0.48634088641E+03  0.12504221074E+03 0.  0.
         35    2    3    3    0    0  0.13160142556E+03  0.17013005133E+02  0.14532808279E+04  0.16642844319E+04  0.80013069433E+03 0.  0.
         22    1    5    5    0    0 -0.25760207457E+03  0.93836144741E+02  0.17355115454E+03  0.32447504391E+03  0.00000000000E+00 0.  1.
         22    1    5    5    0    0  0.38920350013E+03 -0.76823139608E+02  0.12797296733E+04  0.13398093880E+04  0.00000000000E+00 0.  1.
          5    1    4    4  502    0  0.67906310094E+01 -0.25821058474E+02  0.17971120138E+03  0.18174445144E+03  0.47000000000E+01 0. -1.
         -5    1    4    4    0  502 -0.13839205657E+03  0.88080533408E+01  0.27115854231E+03  0.30459643496E+03  0.47000000000E+01 0. -1.
<mgrwt>
<rscale>  0 0.99969989E+03</rscale>
<asrwt>0</asrwt>
<pdfrwt beam="1">  1        2 0.31190581E+00 0.99969989E+03</pdfrwt>
<pdfrwt beam="2">  1       -2 0.18959597E-01 0.99969989E+03</pdfrwt>
<totfact> 0.17731939E+02</totfact>
</mgrwt>
</event>
<event>
 9    1  0.4369420E-036  0.1000494E+04  0.7818608E-02  0.8680567E-01
          2   -1    0    0  501    0  0.00000000000E+00  0.00000000000E+00  0.16039732384E+03  0.16039732384E+03  0.00000000000E+00 0. -1.
         -2   -1    0    0    0  501 -0.00000000000E+00 -0.00000000000E+00 -0.15601708793E+04  0.15601708793E+04  0.00000000000E+00 0. -1.
         36    2    1    2    0    0 -0.14210854715E-13  0.00000000000E+00 -0.13997735554E+04  0.17205682031E+04  0.10004943454E+04 0.  0.
         25    2    3    3    0    0 -0.76445816065E+02 -0.93759039877E+02 -0.13447672953E+03  0.21852140815E+03  0.12260870556E+03 0.  0.
         35    2    3    3    0    0  0.76445816065E+02  0.93759039877E+02 -0.12652968259E+04  0.15020467950E+04  0.80033355314E+03 0.  0.
         22    1    5    5    0    0  0.16771976103E+03 -0.31529939318E+03 -0.37400395177E+03  0.51712917295E+03  0.00000000000E+00 0.  1.
         22    1    5    5    0    0 -0.91273944968E+02  0.40905843305E+03 -0.89129287414E+03  0.98491762202E+03  0.00000000000E+00 0.  1.
          5    1    4    4  502    0 -0.48973574430E+02 -0.84517834512E+01 -0.11684386867E+03  0.12706070707E+03  0.47000000000E+01 0.  1.
         -5    1    4    4    0  502 -0.27472241636E+02 -0.85307256426E+02 -0.17632860867E+02  0.91460701079E+02  0.47000000000E+01 0.  1.
<mgrwt>
<rscale>  0 0.10004943E+04</rscale>
<asrwt>0</asrwt>
<pdfrwt beam="1">  1        2 0.24676511E-01 0.10004943E+04</pdfrwt>
<pdfrwt beam="2">  1       -2 0.24002630E+00 0.10004943E+04</pdfrwt>
<totfact> 0.17680186E+01</totfact>
</mgrwt>
</event>
<event>
 9    1  0.4369420E-036  0.1000171E+04  0.7818608E-02  0.8680875E-01
          2   -1    0    0  501    0  0.00000000000E+00  0.00000000000E+00  0.14615304379E+04  0.14615304379E+04  0.00000000000E+00 0.  1.
         -2   -1    0    0    0  501 -0.00000000000E+00 -0.00000000000E+00 -0.17111208506E+03  0.17111208506E+03  0.00000000000E+00 0.  1.
         36    2    1    2    0    0  0.00000000000E+00  0.14210854715E-13  0.12904183529E+04  0.16326425230E+04  0.10001710266E+04 0.  0.
         25    2    3    3    0    0 -0.13250334387E+03  0.46173019139E+02  0.24132558283E+03  0.30597154383E+03  0.12526557738E+03 0.  0.
         35    2    3    3    0    0  0.13250334387E+03 -0.46173019139E+02  0.10490927700E+04  0.13266709792E+04  0.79985696405E+03 0.  0.
         22    1    5    5    0    0 -0.10485908982E+03  0.33547426869E+03  0.57089532057E+03  0.67041769123E+03  0.00000000000E+00 0.  1.
         22    1    5    5    0    0  0.23736243368E+03 -0.38164728782E+03  0.47819744947E+03  0.65625328792E+03  0.00000000000E+00 0.  1.
          5    1    4    4  502    0 -0.14386512193E+03  0.37975570749E+02  0.24839618861E+03  0.28958949186E+03  0.47000000000E+01 0. -1.
         -5    1    4    4    0  502  0.11361778058E+02  0.81974483904E+01 -0.70706057800E+01  0.16382051973E+02  0.47000000000E+01 0. -1.
<mgrwt>
<rscale>  0 0.10001710E+04</rscale>
<asrwt>0</asrwt>
<pdfrwt beam="1">  1        2 0.22485083E+00 0.10001710E+04</pdfrwt>
<pdfrwt beam="2">  1       -2 0.26324937E-01 0.10001710E+04</pdfrwt>
<totfact> 0.20845636E+02</totfact>
</mgrwt>
</event>
<event>
 9    1  0.4369420E-036  0.9998294E+03  0.7818608E-02  0.8681200E-01
         -2   -1    0    0    0  501 -0.00000000000E+00  0.00000000000E+00  0.35990293185E+03  0.35990293185E+03  0.00000000000E+00 0.  1.
          2   -1    0    0  501    0  0.00000000000E+00 -0.00000000000E+00 -0.69439477739E+03  0.69439477739E+03  0.00000000000E+00 0.  1.
         36    2    1    2    0    0  0.00000000000E+00  0.00000000000E+00 -0.33449184555E+03  0.10542977092E+04  0.99982941794E+03 0.  0.
         25    2    3    3    0    0  0.89822591335E+02 -0.99105024263E+02 -0.13643321024E+02  0.18202152272E+03  0.12270204064E+03 0.  0.
         35    2    3    3    0    0 -0.89822591335E+02  0.99105024263E+02 -0.32084852452E+03  0.87227618651E+03  0.80002004108E+03 0.  0.
         22    1    5    5    0    0 -0.42790444852E+03 -0.59083956092E+02 -0.11958153744E+03  0.44821074846E+03  0.00000000000E+00 0.  1.
         22    1    5    5    0    0  0.33808185719E+03  0.15818898036E+03 -0.20126698708E+03  0.42406543806E+03  0.00000000000E+00 0.  1.
          5    1    4    4  502    0  0.20921097873E+02 -0.10153918496E+03 -0.35276038024E+02  0.10961016046E+03  0.47000000000E+01 0.  1.
         -5    1    4    4    0  502  0.68901493462E+02  0.24341606965E+01  0.21632717000E+02  0.72411362260E+02  0.47000000000E+01 0.  1.
<mgrwt>
<rscale>  0 0.99982942E+03</rscale>
<asrwt>0</asrwt>
<pdfrwt beam="1">  1        2 0.10682997E+00 0.99982942E+03</pdfrwt>
<pdfrwt beam="2">  1       -2 0.55369682E-01 0.99982942E+03</pdfrwt>
<totfact> 0.15357954E+02</totfact>
</mgrwt>
</event>
<event>
 9    1  0.4369420E-036  0.9998436E+03  0.7818608E-02  0.8681187E-01
          1   -1    0    0  501    0  0.00000000000E+00  0.00000000000E+00  0.74557735062E+03  0.74557735062E+03  0.00000000000E+00 0.  1.
         -1   -1    0    0    0  501 -0.00000000000E+00 -0.00000000000E+00 -0.33520574175E+03  0.33520574175E+03  0.00000000000E+00 0.  1.
         36    2    1    2    0    0 -0.14210854715E-13 -0.28421709430E-13  0.41037160886E+03  0.10807830924E+04  0.99984360547E+03 0.  0.
         25    2    3    3    0    0  0.11380681212E+02 -0.11913471716E+03  0.74306358967E+01  0.17285906842E+03  0.12450880471E+03 0.  0.
         35    2    3    3    0    0 -0.11380681212E+02  0.11913471716E+03  0.40294097297E+03  0.90792402395E+03  0.80476207964E+03 0.  0.
         22    1    5    5    0    0  0.15398681883E+03 -0.31221701800E+03  0.13162136465E+03  0.37217682670E+03  0.00000000000E+00 0. -1.
         22    1    5    5    0    0 -0.16536750004E+03  0.43135173516E+03  0.27131960832E+03  0.53574719724E+03  0.00000000000E+00 0. -1.
          5    1    4    4  502    0  0.26389046103E+02  0.18272359687E+02  0.11709822881E+02  0.34488705900E+02  0.47000000000E+01 0. -1.
         -5    1    4    4    0  502 -0.15008364891E+02 -0.13740707685E+03 -0.42791869839E+01  0.13837036252E+03  0.47000000000E+01 0. -1.
<mgrwt>
<rscale>  0 0.99984361E+03</rscale>
<asrwt>0</asrwt>
<pdfrwt beam="1">  1        1 0.11470421E+00 0.99984361E+03</pdfrwt>
<pdfrwt beam="2">  1       -1 0.51570114E-01 0.99984361E+03</pdfrwt>
<totfact> 0.10707459E+02</totfact>
</mgrwt>
</event>
<event>
 9    1  0.4369420E-036  0.9999039E+03  0.7818608E-02  0.8681129E-01
          2   -1    0    0  501    0  0.00000000000E+00  0.00000000000E+00  0.17608822718E+04  0.17608822718E+04  0.00000000000E+00 0.  1.
         -2   -1    0    0    0  501 -0.00000000000E+00 -0.00000000000E+00 -0.14194699591E+03  0.14194699591E+03  0.00000000000E+00 0.  1.
         36    2    1    2    0    0  0.00000000000E+00  0.14210854715E-13  0.16189352759E+04  0.19028292677E+04  0.99990389263E+03 0.  0.
         25    2    3    3    0    0  0.59739349177E+02  0.11141320130E+03  0.42194917326E+03  0.45801246866E+03  0.12550946329E+03 0.  0.
         35    2    3    3    0    0 -0.59739349177E+02 -0.11141320130E+03  0.11969861026E+04  0.14448167990E+04  0.79921096189E+03 0.  0.
         22    1    5    5    0    0 -0.39285224141E+03 -0.10705929493E+03  0.35826090572E+03  0.54235177955E+03  0.00000000000E+00 0. -1.
         22    1    5    5    0    0  0.33311289223E+03 -0.43539063666E+01  0.83872519688E+03  0.90246501946E+03  0.00000000000E+00 0. -1.
          5    1    4    4  502    0  0.71695932532E+02  0.13376996041E+03  0.34758672334E+03  0.37930637918E+03  0.47000000000E+01 0. -1.
         -5    1    4    4    0  502 -0.11956583355E+02 -0.22356759109E+02  0.74362449921E+02  0.78706089482E+02  0.47000000000E+01 0. -1.
<mgrwt>
<rscale>  0 0.99990389E+03</rscale>
<asrwt>0</asrwt>
<pdfrwt beam="1">  1        2 0.27090495E+00 0.99990389E+03</pdfrwt>
<pdfrwt beam="2">  1       -2 0.21838001E-01 0.99990389E+03</pdfrwt>
<totfact> 0.19649901E+02</totfact>
</mgrwt>
</event>
<event>
 9    1  0.4369420E-036  0.1002176E+04  0.7818608E-02  0.8678968E-01
          2   -1    0    0  501    0  0.00000000000E+00  0.00000000000E+00  0.34284326409E+04  0.34284326409E+04  0.00000000000E+00 0. -1.
         -2   -1    0    0    0  501 -0.00000000000E+00 -0.00000000000E+00 -0.73237320364E+02  0.73237320364E+02  0.00000000000E+00 0. -1.
         36    2    1    2    0    0  0.00000000000E+00  0.00000000000E+00  0.33551953205E+04  0.35016699612E+04  0.10021760717E+04 0.  0.
         25    2    3    3    0    0 -0.33318379053E+01  0.90507316796E+02  0.10187527250E+04  0.10303125056E+04  0.12443499872E+03 0.  0.
         35    2    3    3    0    0  0.33318379053E+01 -0.90507316796E+02  0.23364425955E+04  0.24713574556E+04  0.80027557504E+03 0.  0.
         22    1    5    5    0    0 -0.12652795470E+03 -0.46423722234E+01 -0.30900459183E+01  0.12665079283E+03  0.00000000000E+00 0. -1.
         22    1    5    5    0    0  0.12985979260E+03 -0.85864944572E+02  0.23395326414E+04  0.23447066628E+04  0.00000000000E+00 0. -1.
          5    1    4    4  502    0  0.59718763087E+02  0.35744703053E+02  0.50500887233E+03  0.50980394819E+03  0.47000000000E+01 0. -1.
         -5    1    4    4    0  502 -0.63050600992E+02  0.54762613743E+02  0.51374385267E+03  0.52050855738E+03  0.47000000000E+01 0. -1.
<mgrwt>
<rscale>  0 0.10021761E+04</rscale>
<asrwt>0</asrwt>
<pdfrwt beam="1">  1        2 0.52745105E+00 0.10021761E+04</pdfrwt>
<pdfrwt beam="2">  1       -2 0.11267283E-01 0.10021761E+04</pdfrwt>
<totfact> 0.53741866E+01</totfact>
</mgrwt>
</event>
<event>
 9    1  0.4369420E-036  0.1000125E+04  0.7818608E-02  0.8680919E-01
         -1   -1    0    0    0  501 -0.00000000000E+00  0.00000000000E+00  0.33329043313E+03  0.33329043313E+03  0.00000000000E+00 0.  1.
          1   -1    0    0  501    0  0.00000000000E+00 -0.00000000000E+00 -0.75028371185E+03  0.75028371185E+03  0.00000000000E+00 0.  1.
         36    2    1    2    0    0  0.00000000000E+00  0.00000000000E+00 -0.41699327872E+03  0.10835741450E+04  0.10001247588E+04 0.  0.
         25    2    3    3    0    0  0.12071130130E+03 -0.53932227368E+02 -0.13019548824E+03  0.22369365275E+03  0.12493230852E+03 0.  0.
         35    2    3    3    0    0 -0.12071130130E+03  0.53932227368E+02 -0.28679779049E+03  0.85988049223E+03  0.79978846259E+03 0.  0.
         22    1    5    5    0    0 -0.20468922663E+03 -0.12573421147E+03 -0.50851859469E+03  0.56240370961E+03  0.00000000000E+00 0.  1.
         22    1    5    5    0    0  0.83977925323E+02  0.17966643884E+03  0.22172080420E+03  0.29747678263E+03  0.00000000000E+00 0.  1.
          5    1    4    4  502    0  0.91485100421E+02 -0.92991927127E+02 -0.10994096784E+03  0.17066378796E+03  0.47000000000E+01 0. -1.
         -5    1    4    4    0  502  0.29226200883E+02  0.39059699759E+02 -0.20254520392E+02  0.53029864790E+02  0.47000000000E+01 0. -1.
<mgrwt>
<rscale>  0 0.10001248E+04</rscale>
<asrwt>0</asrwt>
<pdfrwt beam="1">  1        1 0.11542826E+00 0.10001248E+04</pdfrwt>
<pdfrwt beam="2">  1       -1 0.51275452E-01 0.10001248E+04</pdfrwt>
<totfact> 0.10714884E+02</totfact>
</mgrwt>
</event>
<event>
 9    1  0.4369420E-036  0.9990791E+03  0.7818608E-02  0.8681915E-01
          2   -1    0    0  501    0  0.00000000000E+00  0.00000000000E+00  0.30248045222E+04  0.30248045222E+04  0.00000000000E+00 0.  1.
         -2   -1    0    0    0  501 -0.00000000000E+00 -0.00000000000E+00 -0.82497819652E+02  0.82497819652E+02  0.00000000000E+00 0.  1.
         36    2    1    2    0    0  0.14210854715E-13 -0.56843418861E-13  0.29423067025E+04  0.31073023418E+04  0.99907913191E+03 0.  0.
         25    2    3    3    0    0  0.16933921915E+02 -0.13690757506E+03  0.65955425227E+03  0.68490489792E+03  0.12268849042E+03 0.  0.
         35    2    3    3    0    0 -0.16933921915E+02  0.13690757506E+03  0.22827524503E+04  0.24223974439E+04  0.79876165739E+03 0.  0.
         22    1    5    5    0    0 -0.11650562386E+03  0.34554584954E+03  0.46956018772E+03  0.59452692489E+03  0.00000000000E+00 0. -1.
         22    1    5    5    0    0  0.99571701946E+02 -0.20863827448E+03  0.18131922625E+04  0.18278705190E+04  0.00000000000E+00 0. -1.
          5    1    4    4  502    0  0.65211860172E+02 -0.41211233927E+02  0.28344336649E+03  0.29379105588E+03  0.47000000000E+01 0. -1.
         -5    1    4    4    0  502 -0.48277938257E+02 -0.95696341133E+02  0.37611088579E+03  0.39111384204E+03  0.47000000000E+01 0. -1.
<mgrwt>
<rscale>  0 0.99907913E+03</rscale>
<asrwt>0</asrwt>
<pdfrwt beam="1">  1        2 0.46535445E+00 0.99907913E+03</pdfrwt>
<pdfrwt beam="2">  1       -2 0.12691975E-01 0.99907913E+03</pdfrwt>
<totfact> 0.85062801E+01</totfact>
</mgrwt>
</event>
<event>
 9    1  0.4369420E-036  0.1000407E+04  0.7818608E-02  0.8680650E-01
          1   -1    0    0  501    0  0.00000000000E+00  0.00000000000E+00  0.14271247095E+04  0.14271247095E+04  0.00000000000E+00 0.  1.
         -1   -1    0    0    0  501 -0.00000000000E+00 -0.00000000000E+00 -0.17532009617E+03  0.17532009617E+03  0.00000000000E+00 0.  1.
         36    2    1    2    0    0  0.00000000000E+00  0.14210854715E-13  0.12518046133E+04  0.16024448056E+04  0.10004071997E+04 0.  0.
         25    2    3    3    0    0 -0.92409224402E+02  0.81141207615E+02  0.34528295258E+03  0.38710636495E+03  0.12452975594E+03 0.  0.
         35    2    3    3    0    0  0.92409224402E+02 -0.81141207615E+02  0.90652166071E+03  0.12153384407E+04  0.80008914737E+03 0.  0.
         22    1    5    5    0    0  0.23172689017E+03 -0.38693903372E+03  0.37525352604E+03  0.58671490202E+03  0.00000000000E+00 0.  1.
         22    1    5    5    0    0 -0.13931766577E+03  0.30579782611E+03  0.53126813467E+03  0.62862353867E+03  0.00000000000E+00 0.  1.
          5    1    4    4  502    0 -0.84061768589E+02  0.16260900575E+02  0.93260216713E+02  0.12668999900E+03  0.47000000000E+01 0.  1.
         -5    1    4    4    0  502 -0.83474558131E+01  0.64880307041E+02  0.25202273587E+03  0.26041636595E+03  0.47000000000E+01 0.  1.
<mgrwt>
<rscale>  0 0.10004072E+04</rscale>
<asrwt>0</asrwt>
<pdfrwt beam="1">  1        1 0.21955764E+00 0.10004072E+04</pdfrwt>
<pdfrwt beam="2">  1       -1 0.26972323E-01 0.10004072E+04</pdfrwt>
<totfact> 0.98028496E+01</totfact>
</mgrwt>
</event>
<event>
 9    1  0.4369420E-036  0.1000051E+04  0.7818608E-02  0.8680989E-01
         -1   -1    0    0    0  501 -0.00000000000E+00  0.00000000000E+00  0.33123947204E+03  0.33123947204E+03  0.00000000000E+00 0. -1.
          1   -1    0    0  501    0  0.00000000000E+00 -0.00000000000E+00 -0.75481820394E+03  0.75481820394E+03  0.00000000000E+00 0. -1.
         36    2    1    2    0    0  0.00000000000E+00  0.00000000000E+00 -0.42357873190E+03  0.10860576760E+04  0.10000511654E+04 0.  0.
         25    2    3    3    0    0  0.91846553463E+02 -0.70186259517E+02 -0.16824063603E+03  0.23955371952E+03  0.12537612419E+03 0.  0.
         35    2    3    3    0    0 -0.91846553463E+02  0.70186259517E+02 -0.25533809587E+03  0.84650395645E+03  0.79875497161E+03 0.  0.
         22    1    5    5    0    0 -0.12399597367E+03 -0.34032789080E+03 -0.23988010721E+03  0.43444279322E+03  0.00000000000E+00 0.  1.
         22    1    5    5    0    0  0.32149420205E+02  0.41051415032E+03 -0.15457988654E+02  0.41206116323E+03  0.00000000000E+00 0.  1.
          5    1    4    4  502    0  0.45786611222E+02  0.33014349444E+02 -0.67177292486E+02  0.87870584737E+02  0.47000000000E+01 0. -1.
         -5    1    4    4    0  502  0.46059942241E+02 -0.10320060896E+03 -0.10106334355E+03  0.15168313478E+03  0.47000000000E+01 0. -1.
<mgrwt>
<rscale>  0 0.10000512E+04</rscale>
<asrwt>0</asrwt>
<pdfrwt beam="1">  1        1 0.11612588E+00 0.10000512E+04</pdfrwt>
<pdfrwt beam="2">  1       -1 0.50959919E-01 0.10000512E+04</pdfrwt>
<totfact> 0.10735594E+02</totfact>
</mgrwt>
</event>
<event>
 9    1  0.4369420E-036  0.1002007E+04  0.7818608E-02  0.8679129E-01
          2   -1    0    0  501    0  0.00000000000E+00  0.00000000000E+00  0.53243953693E+03  0.53243953693E+03  0.00000000000E+00 0.  1.
         -2   -1    0    0    0  501 -0.00000000000E+00 -0.00000000000E+00 -0.47142339568E+03  0.47142339568E+03  0.00000000000E+00 0.  1.
         36    2    1    2    0    0 -0.14210854715E-13  0.53290705182E-14  0.61016141259E+02  0.10038629326E+04  0.10020068952E+04 0.  0.
         25    2    3    3    0    0 -0.65345444906E+02 -0.12564974249E+02 -0.11438226889E+03  0.18182558114E+03  0.12469696376E+03 0.  0.
         35    2    3    3    0    0  0.65345444906E+02  0.12564974249E+02  0.17539841015E+03  0.82203735147E+03  0.80034548739E+03 0.  0.
         22    1    5    5    0    0 -0.29463842194E+02  0.21026459794E+03  0.43390668953E+03  0.48306762918E+03  0.00000000000E+00 0. -1.
         22    1    5    5    0    0  0.94809287100E+02 -0.19769962369E+03 -0.25850827938E+03  0.33896972229E+03  0.00000000000E+00 0. -1.
          5    1    4    4  502    0 -0.96331864481E+02 -0.49887687271E+01 -0.47604224068E+02  0.10767064631E+03  0.47000000000E+01 0. -1.
         -5    1    4    4    0  502  0.30986419574E+02 -0.75762055219E+01 -0.66778044826E+02  0.74154934826E+02  0.47000000000E+01 0. -1.
<mgrwt>
<rscale>  0 0.10020069E+04</rscale>
<asrwt>0</asrwt>
<pdfrwt beam="1">  1        2 0.81913774E-01 0.10020069E+04</pdfrwt>
<pdfrwt beam="2">  1       -2 0.72526677E-01 0.10020069E+04</pdfrwt>
<totfact> 0.11893866E+02</totfact>
</mgrwt>
</event>
<event>
 9    1  0.4369420E-036  0.9993218E+03  0.7818608E-02  0.8681684E-01
         -1   -1    0    0    0  501 -0.00000000000E+00  0.00000000000E+00  0.61908707784E+03  0.61908707784E+03  0.00000000000E+00 0. -1.
          1   -1    0    0  501    0  0.00000000000E+00 -0.00000000000E+00 -0.40327282720E+03  0.40327282720E+03  0.00000000000E+00 0. -1.
         36    2    1    2    0    0  0.00000000000E+00  0.14210854715E-13  0.21581425064E+03  0.10223599050E+04  0.99932176232E+03 0.  0.
         25    2    3    3    0    0 -0.11955098663E+03 -0.72576515414E+02  0.44679632273E+02  0.19261136196E+03  0.12467188224E+03 0.  0.
         35    2    3    3    0    0  0.11955098663E+03  0.72576515414E+02  0.17113461837E+03  0.82974854307E+03  0.79977234144E+03 0.  0.
         22    1    5    5    0    0  0.64536428964E+02  0.41418955501E+03  0.23095633322E+03  0.47860084203E+03  0.00000000000E+00 0. -1.
         22    1    5    5    0    0  0.55014557669E+02 -0.34161303959E+03 -0.59821714848E+02  0.35114770104E+03  0.00000000000E+00 0. -1.
          5    1    4    4  502    0  0.10528636210E+02  0.12004552998E+02  0.32976963273E+02  0.36939566590E+02  0.47000000000E+01 0. -1.
         -5    1    4    4    0  502 -0.13007962284E+03 -0.84581068412E+02  0.11702668999E+02  0.15567179537E+03  0.47000000000E+01 0. -1.
<mgrwt>
<rscale>  0 0.99932176E+03</rscale>
<asrwt>0</asrwt>
<pdfrwt beam="1">  1        1 0.62041974E-01 0.99932176E+03</pdfrwt>
<pdfrwt beam="2">  1       -1 0.95244165E-01 0.99932176E+03</pdfrwt>
<totfact> 0.75489774E+01</totfact>
</mgrwt>
</event>
<event>
 9    1  0.4369420E-036  0.1000873E+04  0.7818608E-02  0.8680207E-01
         -2   -1    0    0    0  501 -0.00000000000E+00  0.00000000000E+00  0.18949802502E+03  0.18949802502E+03  0.00000000000E+00 0.  1.
          2   -1    0    0  501    0  0.00000000000E+00 -0.00000000000E+00 -0.13215782402E+04  0.13215782402E+04  0.00000000000E+00 0.  1.
         36    2    1    2    0    0  0.14210854715E-13 -0.14210854715E-13 -0.11320802152E+04  0.15110762652E+04  0.10008725522E+04 0.  0.
         25    2    3    3    0    0 -0.11523914159E+03  0.69143087102E+02 -0.27673807622E+03  0.33184421997E+03  0.12440175743E+03 0.  0.
         35    2    3    3    0    0  0.11523914159E+03 -0.69143087102E+02 -0.85534213899E+03  0.11792320453E+04  0.80057305452E+03 0.  0.
         22    1    5    5    0    0  0.23500267938E+03  0.12343410974E+03  0.28301527464E+02  0.26695170953E+03  0.00000000000E+00 0.  1.
         22    1    5    5    0    0 -0.11976353779E+03 -0.19257719684E+03 -0.88364366645E+03  0.91228033575E+03  0.00000000000E+00 0.  1.
          5    1    4    4  502    0 -0.58635345500E+02  0.63932557989E+02 -0.54850496142E+02  0.10274309047E+03  0.47000000000E+01 0.  1.
         -5    1    4    4    0  502 -0.56603796091E+02  0.52105291132E+01 -0.22188758008E+03  0.22910112950E+03  0.47000000000E+01 0.  1.
<mgrwt>
<rscale>  0 0.10008726E+04</rscale>
<asrwt>0</asrwt>
<pdfrwt beam="1">  1        2 0.20331972E+00 0.10008726E+04</pdfrwt>
<pdfrwt beam="2">  1       -2 0.29153543E-01 0.10008726E+04</pdfrwt>
<totfact> 0.20858654E+02</totfact>
</mgrwt>
</event>
<event>
 9    1  0.4369420E-036  0.9981652E+03  0.7818608E-02  0.8682787E-01
         -1   -1    0    0    0  501 -0.00000000000E+00  0.00000000000E+00  0.81684714827E+03  0.81684714827E+03  0.00000000000E+00 0.  1.
          1   -1    0    0  501    0  0.00000000000E+00 -0.00000000000E+00 -0.30493277318E+03  0.30493277318E+03  0.00000000000E+00 0.  1.
         36    2    1    2    0    0 -0.56843418861E-13  0.00000000000E+00  0.51191437509E+03  0.11217799214E+04  0.99816524922E+03 0.  0.
         25    2    3    3    0    0  0.82513127319E+02  0.10927161842E+03  0.77136269936E+02  0.20071070227E+03  0.12484421930E+03 0.  0.
         35    2    3    3    0    0 -0.82513127319E+02 -0.10927161842E+03  0.43477810515E+03  0.92106921918E+03  0.80036729258E+03 0.  0.
         22    1    5    5    0    0  0.36084853108E+03 -0.54806221645E+02  0.18278152380E+03  0.40819660674E+03  0.00000000000E+00 0. -1.
         22    1    5    5    0    0 -0.44336165839E+03 -0.54465396777E+02  0.25199658135E+03  0.51287261244E+03  0.00000000000E+00 0. -1.
          5    1    4    4  502    0  0.81553145394E+02  0.20313736102E+02  0.73174593616E+02  0.11153553043E+03  0.47000000000E+01 0.  1.
         -5    1    4    4    0  502  0.95998192476E+00  0.88957882320E+02  0.39616763200E+01  0.89175171833E+02  0.47000000000E+01 0.  1.
<mgrwt>
<rscale>  0 0.99816525E+03</rscale>
<asrwt>0</asrwt>
<pdfrwt beam="1">  1        1 0.46912735E-01 0.99816525E+03</pdfrwt>
<pdfrwt beam="2">  1       -1 0.12566879E+00 0.99816525E+03</pdfrwt>
<totfact> 0.56887002E+01</totfact>
</mgrwt>
</event>
<event>
 9    1  0.4369420E-036  0.9998316E+03  0.7818608E-02  0.8681198E-01
          2   -1    0    0  501    0  0.00000000000E+00  0.00000000000E+00  0.32808926481E+03  0.32808926481E+03  0.00000000000E+00 0. -1.
         -2   -1    0    0    0  501 -0.00000000000E+00 -0.00000000000E+00 -0.76173118488E+03  0.76173118488E+03  0.00000000000E+00 0. -1.
         36    2    1    2    0    0  0.00000000000E+00  0.71054273576E-14 -0.43364192007E+03  0.10898204497E+04  0.99983163470E+03 0.  0.
         25    2    3    3    0    0  0.77214484910E+02 -0.55908179415E+02 -0.19853647403E+03  0.25027894283E+03  0.11889077549E+03 0.  0.
         35    2    3    3    0    0 -0.77214484910E+02  0.55908179415E+02 -0.23510544604E+03  0.83954150687E+03  0.80029217777E+03 0.  0.
         22    1    5    5    0    0 -0.40852987811E+03 -0.33700438972E+02  0.22298503330E+02  0.41052357320E+03  0.00000000000E+00 0. -1.
         22    1    5    5    0    0  0.33131539320E+03  0.89608618387E+02 -0.25740394937E+03  0.42901793367E+03  0.00000000000E+00 0. -1.
          5    1    4    4  502    0  0.90744215215E+02 -0.81746583747E+02 -0.16836254649E+03  0.20805060349E+03  0.47000000000E+01 0. -1.
         -5    1    4    4    0  502 -0.13529730305E+02  0.25838404332E+02 -0.30173927539E+02  0.42228339343E+02  0.47000000000E+01 0. -1.
<mgrwt>
<rscale>  0 0.99983163E+03</rscale>
<asrwt>0</asrwt>
<pdfrwt beam="1">  1        2 0.50475272E-01 0.99983163E+03</pdfrwt>
<pdfrwt beam="2">  1       -2 0.11718941E+00 0.99983163E+03</pdfrwt>
<totfact> 0.65422835E+01</totfact>
</mgrwt>
</event>
<event>
 9    1  0.4369420E-036  0.9990089E+03  0.7818608E-02  0.8681982E-01
         -2   -1    0    0    0  501 -0.00000000000E+00  0.00000000000E+00  0.16647775516E+03  0.16647775516E+03  0.00000000000E+00 0.  1.
          2   -1    0    0  501    0  0.00000000000E+00 -0.00000000000E+00 -0.14987270271E+04  0.14987270271E+04  0.00000000000E+00 0.  1.
         36    2    1    2    0    0  0.00000000000E+00 -0.71054273576E-14 -0.13322492719E+04  0.16652047822E+04  0.99900893101E+03 0.  0.
         25    2    3    3    0    0 -0.10498972826E+03  0.29768749040E+02 -0.10729982091E+03  0.19791218907E+03  0.12548689795E+03 0.  0.
         35    2    3    3    0    0  0.10498972826E+03 -0.29768749040E+02 -0.12249494510E+04  0.14672925931E+04  0.80033578888E+03 0.  0.
         22    1    5    5    0    0  0.41165454870E+03  0.14458444114E+03 -0.83034235752E+03  0.93799390125E+03  0.00000000000E+00 0.  1.
         22    1    5    5    0    0 -0.30666482045E+03 -0.17435319018E+03 -0.39460709347E+03  0.52929869190E+03  0.00000000000E+00 0.  1.
          5    1    4    4  502    0 -0.18797277102E+02 -0.40999616043E+02 -0.63443968260E+02  0.77984185902E+02  0.47000000000E+01 0. -1.
         -5    1    4    4    0  502 -0.86192451156E+02  0.70768365083E+02 -0.43855852647E+02  0.11992800317E+03  0.47000000000E+01 0. -1.
<mgrwt>
<rscale>  0 0.99900893E+03</rscale>
<asrwt>0</asrwt>
<pdfrwt beam="1">  1        2 0.23057339E+00 0.99900893E+03</pdfrwt>
<pdfrwt beam="2">  1       -2 0.25611962E-01 0.99900893E+03</pdfrwt>
<totfact> 0.20854593E+02</totfact>
</mgrwt>
</event>
<event>
 9    1  0.4369420E-036  0.1000537E+04  0.7818608E-02  0.8680527E-01
          1   -1    0    0  501    0  0.00000000000E+00  0.00000000000E+00  0.57713427994E+03  0.57713427994E+03  0.00000000000E+00 0. -1.
         -1   -1    0    0    0  501 -0.00000000000E+00 -0.00000000000E+00 -0.43364018957E+03  0.43364018957E+03  0.00000000000E+00 0. -1.
         36    2    1    2    0    0  0.00000000000E+00  0.28421709430E-13  0.14349409037E+03  0.10107744695E+04  0.10005370929E+04 0.  0.
         25    2    3    3    0    0 -0.70410511183E+02 -0.11286166411E+03  0.73323910984E+02  0.19844010635E+03  0.12769762948E+03 0.  0.
         35    2    3    3    0    0  0.70410511183E+02  0.11286166411E+03  0.70170179387E+02  0.81233436317E+03  0.79829059132E+03 0.  0.
         22    1    5    5    0    0  0.17514777270E+02  0.45462026884E+03  0.97985738918E+02  0.46538968757E+03  0.00000000000E+00 0.  1.
         22    1    5    5    0    0  0.52895733913E+02 -0.34175860473E+03 -0.27815559531E+02  0.34694467560E+03  0.00000000000E+00 0.  1.
          5    1    4    4  502    0 -0.63860482322E+02 -0.10991742879E+03  0.26391818187E+01  0.12723622768E+03  0.47000000000E+01 0. -1.
         -5    1    4    4    0  502 -0.65500288610E+01 -0.29442353167E+01  0.70684729165E+02  0.71203878664E+02  0.47000000000E+01 0. -1.
<mgrwt>
<rscale>  0 0.10005371E+04</rscale>
<asrwt>0</asrwt>
<pdfrwt beam="1">  1        1 0.88789890E-01 0.10005371E+04</pdfrwt>
<pdfrwt beam="2">  1       -1 0.66713875E-01 0.10005371E+04</pdfrwt>
<totfact> 0.96269241E+01</totfact>
</mgrwt>
</event>
<event>
 9    1  0.4369420E-036  0.1000034E+04  0.7818608E-02  0.8681006E-01
          1   -1    0    0  501    0  0.00000000000E+00  0.00000000000E+00  0.65200374041E+03  0.65200374041E+03  0.00000000000E+00 0.  1.
         -1   -1    0    0    0  501 -0.00000000000E+00 -0.00000000000E+00 -0.38345933869E+03  0.38345933869E+03  0.00000000000E+00 0.  1.
         36    2    1    2    0    0  0.14210854715E-13 -0.35527136788E-14  0.26854440172E+03  0.10354630791E+04  0.10000338457E+04 0.  0.
         25    2    3    3    0    0 -0.10319461307E+03 -0.15091062481E+02 -0.46906807570E+02  0.16898115173E+03  0.12440865207E+03 0.  0.
         35    2    3    3    0    0  0.10319461307E+03  0.15091062481E+02  0.31545120929E+03  0.86648192737E+03  0.80025283298E+03 0.  0.
         22    1    5    5    0    0 -0.21878231560E+03 -0.32612454313E+02 -0.17210057879E+03  0.28026395240E+03  0.00000000000E+00 0.  1.
         22    1    5    5    0    0  0.32197692867E+03  0.47703516794E+02  0.48755178808E+03  0.58621797497E+03  0.00000000000E+00 0.  1.
          5    1    4    4  502    0 -0.64592415317E+01  0.87897056637E+01  0.36858367340E+02  0.38724797867E+02  0.47000000000E+01 0. -1.
         -5    1    4    4    0  502 -0.96735371540E+02 -0.23880768145E+02 -0.83765174911E+02  0.13025635386E+03  0.47000000000E+01 0. -1.
<mgrwt>
<rscale>  0 0.10000338E+04</rscale>
<asrwt>0</asrwt>
<pdfrwt beam="1">  1        1 0.10030827E+00 0.10000338E+04</pdfrwt>
<pdfrwt beam="2">  1       -1 0.58993744E-01 0.10000338E+04</pdfrwt>
<totfact> 0.10208350E+02</totfact>
</mgrwt>
</event>
<event>
 9    1  0.4369420E-036  0.1000764E+04  0.7818608E-02  0.8680311E-01
         -1   -1    0    0    0  501 -0.00000000000E+00  0.00000000000E+00  0.31214091456E+03  0.31214091456E+03  0.00000000000E+00 0.  1.
          1   -1    0    0  501    0  0.00000000000E+00 -0.00000000000E+00 -0.80214459481E+03  0.80214459481E+03  0.00000000000E+00 0.  1.
         36    2    1    2    0    0  0.28421709430E-13  0.28421709430E-13 -0.49000368026E+03  0.11142855094E+04  0.10007640030E+04 0.  0.
         25    2    3    3    0    0  0.10328706676E+03  0.79344341511E+02 -0.14951870117E+03  0.23443761275E+03  0.12506562111E+03 0.  0.
         35    2    3    3    0    0 -0.10328706676E+03 -0.79344341511E+02 -0.34048497908E+03  0.87984789662E+03  0.80077372428E+03 0.  0.
         22    1    5    5    0    0  0.16654951345E+03 -0.33163019840E+03 -0.35028848891E+03  0.51031299649E+03  0.00000000000E+00 0. -1.
         22    1    5    5    0    0 -0.26983658021E+03  0.25228585689E+03  0.98035098224E+01  0.36953490013E+03  0.00000000000E+00 0. -1.
          5    1    4    4  502    0  0.85341578988E+02 -0.12486933501E+02 -0.62993171312E+02  0.10690808316E+03  0.47000000000E+01 0.  1.
         -5    1    4    4    0  502  0.17945487774E+02  0.91831275012E+02 -0.86525529858E+02  0.12752952960E+03  0.47000000000E+01 0.  1.
<mgrwt>
<rscale>  0 0.10007640E+04</rscale>
<asrwt>0</asrwt>
<pdfrwt beam="1">  1        1 0.12340686E+00 0.10007640E+04</pdfrwt>
<pdfrwt beam="2">  1       -1 0.48021680E-01 0.10007640E+04</pdfrwt>
<totfact> 0.10863235E+02</totfact>
</mgrwt>
</event>
<event>
 9    1  0.4369420E-036  0.1000527E+04  0.7818608E-02  0.8680536E-01
          1   -1    0    0  501    0  0.00000000000E+00  0.00000000000E+00  0.11841810098E+04  0.11841810098E+04  0.00000000000E+00 0.  1.
         -1   -1    0    0    0  501 -0.00000000000E+00 -0.00000000000E+00 -0.21133900367E+03  0.21133900367E+03  0.00000000000E+00 0.  1.
         36    2    1    2    0    0  0.00000000000E+00 -0.14210854715E-13  0.97284200615E+03  0.13955200135E+04  0.10005271306E+04 0.  0.
         25    2    3    3    0    0 -0.11383180435E+03 -0.65309390319E+02  0.25184640497E+03  0.31048696476E+03  0.12550915282E+03 0.  0.
         35    2    3    3    0    0  0.11383180435E+03  0.65309390319E+02  0.72099560118E+03  0.10850330487E+04  0.80014940092E+03 0.  0.
         22    1    5    5    0    0  0.62873263961E+01 -0.10740678251E+03 -0.15334891907E+03  0.18732762312E+03  0.00000000000E+00 0.  1.
         22    1    5    5    0    0  0.10754447796E+03  0.17271617283E+03  0.87434452025E+03  0.89770542562E+03  0.00000000000E+00 0.  1.
          5    1    4    4  502    0  0.10032887971E+02  0.20824244371E+02  0.71604946438E+02  0.75390094502E+02  0.47000000000E+01 0.  1.
         -5    1    4    4    0  502 -0.12386469232E+03 -0.86133634690E+02  0.18024145853E+03  0.23509687026E+03  0.47000000000E+01 0.  1.
<mgrwt>
<rscale>  0 0.10005271E+04</rscale>
<asrwt>0</asrwt>
<pdfrwt beam="1">  1        1 0.18218169E+00 0.10005271E+04</pdfrwt>
<pdfrwt beam="2">  1       -1 0.32513694E-01 0.10005271E+04</pdfrwt>
<totfact> 0.10721700E+02</totfact>
</mgrwt>
</event>
<event>
 9    1  0.4369420E-036  0.9999361E+03  0.7818608E-02  0.8681099E-01
          1   -1    0    0  501    0  0.00000000000E+00  0.00000000000E+00  0.63256703094E+03  0.63256703094E+03  0.00000000000E+00 0.  1.
         -1   -1    0    0    0  501 -0.00000000000E+00 -0.00000000000E+00 -0.39516451186E+03  0.39516451186E+03  0.00000000000E+00 0.  1.
         36    2    1    2    0    0  0.14210854715E-13  0.00000000000E+00  0.23740251908E+03  0.10277315428E+04  0.99993608196E+03 0.  0.
         25    2    3    3    0    0  0.51848600271E+02  0.12420291239E+03  0.89229531348E+02  0.20407072974E+03  0.12477304467E+03 0.  0.
         35    2    3    3    0    0 -0.51848600271E+02 -0.12420291239E+03  0.14817298774E+03  0.82366081307E+03  0.79896636969E+03 0.  0.
         22    1    5    5    0    0 -0.90595238962E+02 -0.18205857264E+03 -0.30422730752E+03  0.36593315760E+03  0.00000000000E+00 0. -1.
         22    1    5    5    0    0  0.38746638691E+02  0.57855660249E+02  0.45240029525E+03  0.45772765547E+03  0.00000000000E+00 0. -1.
          5    1    4    4  502    0 -0.39106427021E+02  0.53765544822E+02  0.46473123480E+02  0.81252000900E+02  0.47000000000E+01 0. -1.
         -5    1    4    4    0  502  0.90955027291E+02  0.70437367569E+02  0.42756407868E+02  0.12281872884E+03  0.47000000000E+01 0. -1.
<mgrwt>
<rscale>  0 0.99993608E+03</rscale>
<asrwt>0</asrwt>
<pdfrwt beam="1">  1        1 0.97318004E-01 0.99993608E+03</pdfrwt>
<pdfrwt beam="2">  1       -1 0.60794541E-01 0.99993608E+03</pdfrwt>
<totfact> 0.10081697E+02</totfact>
</mgrwt>
</event>
<event>
 9    1  0.4369420E-036  0.1001936E+04  0.7818608E-02  0.8679196E-01
         -2   -1    0    0    0  501 -0.00000000000E+00  0.00000000000E+00  0.45997313757E+03  0.45997313757E+03  0.00000000000E+00 0. -1.
          2   -1    0    0  501    0  0.00000000000E+00 -0.00000000000E+00 -0.54561696705E+03  0.54561696705E+03  0.00000000000E+00 0. -1.
         36    2    1    2    0    0  0.00000000000E+00 -0.28421709430E-13 -0.85643829475E+02  0.10055901046E+04  0.10019364216E+04 0.  0.
         25    2    3    3    0    0 -0.35437817935E+02  0.68104037461E+02  0.10449971836E+03  0.18016921068E+03  0.12508698766E+03 0.  0.
         35    2    3    3    0    0  0.35437817935E+02 -0.68104037461E+02 -0.19014354783E+03  0.82542089394E+03  0.79954429802E+03 0.  0.
         22    1    5    5    0    0  0.13817163844E+03 -0.35353636200E+03  0.11352252600E+03  0.39619026343E+03  0.00000000000E+00 0. -1.
         22    1    5    5    0    0 -0.10273382051E+03  0.28543232454E+03 -0.30366607384E+03  0.42923063051E+03  0.00000000000E+00 0. -1.
          5    1    4    4  502    0 -0.31230478387E+02  0.33532060338E+02 -0.20430082181E+02  0.50390674819E+02  0.47000000000E+01 0.  1.
         -5    1    4    4    0  502 -0.42073395480E+01  0.34571977123E+02  0.12492980054E+03  0.12977853586E+03  0.47000000000E+01 0.  1.
<mgrwt>
<rscale>  0 0.10019364E+04</rscale>
<asrwt>0</asrwt>
<pdfrwt beam="1">  1        2 0.83941072E-01 0.10019364E+04</pdfrwt>
<pdfrwt beam="2">  1       -2 0.70765098E-01 0.10019364E+04</pdfrwt>
<totfact> 0.12200732E+02</totfact>
</mgrwt>
</event>
<event>
 9    1  0.4369420E-036  0.9998563E+03  0.7818608E-02  0.8681175E-01
         -1   -1    0    0    0  501 -0.00000000000E+00  0.00000000000E+00  0.26772201939E+03  0.26772201939E+03  0.00000000000E+00 0.  1.
          1   -1    0    0  501    0  0.00000000000E+00 -0.00000000000E+00 -0.93353607417E+03  0.93353607417E+03  0.00000000000E+00 0.  1.
         36    2    1    2    0    0  0.28421709430E-13 -0.28421709430E-13 -0.66581405479E+03  0.12012580936E+04  0.99985631557E+03 0.  0.
         25    2    3    3    0    0 -0.10890527352E+03 -0.71748586775E+02 -0.75287030889E+02  0.19580096657E+03  0.12514656682E+03 0.  0.
         35    2    3    3    0    0  0.10890527352E+03  0.71748586775E+02 -0.59052702390E+03  0.10054571270E+04  0.80325192185E+03 0.  0.
         22    1    5    5    0    0  0.30054134346E+03 -0.20308500303E+03 -0.56240567770E+03  0.66922997833E+03  0.00000000000E+00 0. -1.
         22    1    5    5    0    0 -0.19163606994E+03  0.27483358980E+03 -0.28121346199E+02  0.33622714866E+03  0.00000000000E+00 0. -1.
          5    1    4    4  502    0 -0.12923825281E+03 -0.72347643527E+02 -0.87025590845E+02  0.17184950094E+03  0.47000000000E+01 0.  1.
         -5    1    4    4    0  502  0.20332979291E+02  0.59905675192E+00  0.11738559956E+02  0.23951465627E+02  0.47000000000E+01 0.  1.
<mgrwt>
<rscale>  0 0.99985632E+03</rscale>
<asrwt>0</asrwt>
<pdfrwt beam="1">  1        1 0.14362093E+00 0.99985632E+03</pdfrwt>
<pdfrwt beam="2">  1       -1 0.41188003E-01 0.99985632E+03</pdfrwt>
<totfact> 0.11099315E+02</totfact>
</mgrwt>
</event>
<event>
 9    1  0.4369420E-036  0.1000384E+04  0.7818608E-02  0.8680672E-01
          2   -1    0    0  501    0  0.00000000000E+00  0.00000000000E+00  0.11381218478E+04  0.11381218478E+04  0.00000000000E+00 0. -1.
         -2   -1    0    0    0  501 -0.00000000000E+00 -0.00000000000E+00 -0.21982888278E+03  0.21982888278E+03  0.00000000000E+00 0. -1.
         36    2    1    2    0    0 -0.14210854715E-13  0.14210854715E-13  0.91829296500E+03  0.13579507306E+04  0.10003840348E+04 0.  0.
         25    2    3    3    0    0  0.38007264785E+01 -0.87210795835E+02  0.22552475628E+02  0.15402624522E+03  0.12488115001E+03 0.  0.
         35    2    3    3    0    0 -0.38007264785E+01  0.87210795835E+02  0.89574048937E+03  0.12039244853E+04  0.79966428809E+03 0.  0.
         22    1    5    5    0    0  0.20385618126E+03 -0.10416810038E+03 -0.34726882143E+02  0.23154760227E+03  0.00000000000E+00 0.  1.
         22    1    5    5    0    0 -0.20765690774E+03  0.19137889622E+03  0.93046737152E+03  0.97237688306E+03  0.00000000000E+00 0.  1.
          5    1    4    4  502    0 -0.38217508178E+02  0.14890855585E+02  0.12112447666E+02  0.43024608073E+02  0.47000000000E+01 0. -1.
         -5    1    4    4    0  502  0.42018234656E+02 -0.10210165142E+03  0.10440027962E+02  0.11100163715E+03  0.47000000000E+01 0. -1.
<mgrwt>
<rscale>  0 0.10003840E+04</rscale>
<asrwt>0</asrwt>
<pdfrwt beam="1">  1        2 0.17509566E+00 0.10003840E+04</pdfrwt>
<pdfrwt beam="2">  1       -2 0.33819829E-01 0.10003840E+04</pdfrwt>
<totfact> 0.20362603E+02</totfact>
</mgrwt>
</event>
<event>
 9    1  0.4369420E-036  0.9994063E+03  0.7818608E-02  0.8681604E-01
          2   -1    0    0  501    0  0.00000000000E+00  0.00000000000E+00  0.55338086435E+03  0.55338086435E+03  0.00000000000E+00 0. -1.
         -2   -1    0    0    0  501 -0.00000000000E+00 -0.00000000000E+00 -0.45123211455E+03  0.45123211455E+03  0.00000000000E+00 0. -1.
         36    2    1    2    0    0  0.00000000000E+00  0.00000000000E+00  0.10214874979E+03  0.10046129789E+04  0.99940625888E+03 0.  0.
         25    2    3    3    0    0 -0.75250943283E+02 -0.11704501180E+03 -0.19182029613E+00  0.18641366240E+03  0.12404748075E+03 0.  0.
         35    2    3    3    0    0  0.75250943283E+02  0.11704501180E+03  0.10234057009E+03  0.81819931650E+03  0.79975889491E+03 0.  0.
         22    1    5    5    0    0 -0.66304848622E+02  0.24548164191E+03  0.39433419298E+03  0.46920893557E+03  0.00000000000E+00 0. -1.
         22    1    5    5    0    0  0.14155579191E+03 -0.12843663011E+03 -0.29199362289E+03  0.34899038093E+03  0.00000000000E+00 0. -1.
          5    1    4    4  502    0 -0.25427174214E+01 -0.49974539639E+02  0.53797923023E+02  0.73622187862E+02  0.47000000000E+01 0.  1.
         -5    1    4    4    0  502 -0.72708225862E+02 -0.67070472162E+02 -0.53989743319E+02  0.11279147453E+03  0.47000000000E+01 0.  1.
<mgrwt>
<rscale>  0 0.99940626E+03</rscale>
<asrwt>0</asrwt>
<pdfrwt beam="1">  1        2 0.85135518E-01 0.99940626E+03</pdfrwt>
<pdfrwt beam="2">  1       -2 0.69420325E-01 0.99940626E+03</pdfrwt>
<totfact> 0.12513858E+02</totfact>
</mgrwt>
</event>
<event>
 9    1  0.4369420E-036  0.1000489E+04  0.7818608E-02  0.8680573E-01
         -2   -1    0    0    0  501 -0.00000000000E+00  0.00000000000E+00  0.66389656357E+03  0.66389656357E+03  0.00000000000E+00 0.  1.
          2   -1    0    0  501    0  0.00000000000E+00 -0.00000000000E+00 -0.37693271381E+03  0.37693271381E+03  0.00000000000E+00 0.  1.
         36    2    1    2    0    0 -0.28421709430E-13  0.14210854715E-13  0.28696384976E+03  0.10408292774E+04  0.10004885475E+04 0.  0.
         25    2    3    3    0    0 -0.12774311245E+03  0.33918211428E+02  0.97009721446E+02  0.20812801550E+03  0.12820934809E+03 0.  0.
         35    2    3    3    0    0  0.12774311245E+03 -0.33918211428E+02  0.18995412831E+03  0.83270126188E+03  0.79990003927E+03 0.  0.
         22    1    5    5    0    0 -0.17219977393E+03 -0.21735227951E+03  0.34988632725E+03  0.44644732898E+03  0.00000000000E+00 0. -1.
         22    1    5    5    0    0  0.29994288638E+03  0.18343406808E+03 -0.15993219894E+03  0.38625393290E+03  0.00000000000E+00 0. -1.
          5    1    4    4  502    0  0.10324964830E+02 -0.58026686698E+01  0.57720586650E+02  0.59110337384E+02  0.47000000000E+01 0. -1.
         -5    1    4    4    0  502 -0.13806807728E+03  0.39720880098E+02  0.39289134797E+02  0.14901767812E+03  0.47000000000E+01 0. -1.
<mgrwt>
<rscale>  0 0.10004885E+04</rscale>
<asrwt>0</asrwt>
<pdfrwt beam="1">  1        2 0.57989648E-01 0.10004885E+04</pdfrwt>
<pdfrwt beam="2">  1       -2 0.10213793E+00 0.10004885E+04</pdfrwt>
<totfact> 0.79203707E+01</totfact>
</mgrwt>
</event>
<event>
 9    1  0.4369420E-036  0.1000758E+04  0.7818608E-02  0.8680317E-01
         -1   -1    0    0    0  501 -0.00000000000E+00  0.00000000000E+00  0.56867422070E+03  0.56867422070E+03  0.00000000000E+00 0. -1.
          1   -1    0    0  501    0  0.00000000000E+00 -0.00000000000E+00 -0.44028529515E+03  0.44028529515E+03  0.00000000000E+00 0. -1.
         36    2    1    2    0    0  0.00000000000E+00  0.00000000000E+00  0.12838892554E+03  0.10089595158E+04  0.10007575073E+04 0.  0.
         25    2    3    3    0    0 -0.97205994397E+02 -0.70208764113E+02 -0.44203461599E+02  0.18020098458E+03  0.12704398026E+03 0.  0.
         35    2    3    3    0    0  0.97205994397E+02  0.70208764113E+02  0.17259238714E+03  0.82875853127E+03  0.80166969205E+03 0.  0.
         22    1    5    5    0    0  0.33475324993E+02 -0.30425657947E+03 -0.14022241381E+03  0.33668232634E+03  0.00000000000E+00 0. -1.
         22    1    5    5    0    0  0.63730669404E+02  0.37446534358E+03  0.31281480096E+03  0.49207620493E+03  0.00000000000E+00 0. -1.
          5    1    4    4  502    0 -0.19677277694E+01 -0.59065439199E+02  0.22379570668E+02  0.63368235289E+02  0.47000000000E+01 0.  1.
         -5    1    4    4    0  502 -0.95238266627E+02 -0.11143324914E+02 -0.66583032267E+02  0.11683274929E+03  0.47000000000E+01 0.  1.
<mgrwt>
<rscale>  0 0.10007575E+04</rscale>
<asrwt>0</asrwt>
<pdfrwt beam="1">  1        1 0.67736200E-01 0.10007575E+04</pdfrwt>
<pdfrwt beam="2">  1       -1 0.87488341E-01 0.10007575E+04</pdfrwt>
<totfact> 0.80544416E+01</totfact>
</mgrwt>
</event>
<event>
 9    1  0.4369420E-036  0.9939211E+03  0.7818608E-02  0.8686849E-01
          2   -1    0    0  501    0  0.00000000000E+00  0.00000000000E+00  0.85646808123E+03  0.85646808123E+03  0.00000000000E+00 0. -1.
         -2   -1    0    0    0  501 -0.00000000000E+00 -0.00000000000E+00 -0.28835844254E+03  0.28835844254E+03  0.00000000000E+00 0. -1.
         36    2    1    2    0    0 -0.17763568394E-14 -0.56843418861E-13  0.56810963869E+03  0.11448265238E+04  0.99392112763E+03 0.  0.
         25    2    3    3    0    0 -0.15936008402E+02 -0.54794038561E+02  0.24569262084E+03  0.28059882305E+03  0.12294101242E+03 0.  0.
         35    2    3    3    0    0  0.15936008402E+02  0.54794038561E+02  0.32241701785E+03  0.86422770072E+03  0.79980025148E+03 0.  0.
         22    1    5    5    0    0  0.24159985335E+02  0.42764427777E+03  0.18853399560E+03  0.46798333379E+03  0.00000000000E+00 0. -1.
         22    1    5    5    0    0 -0.82239769327E+01 -0.37285023921E+03  0.13388302225E+03  0.39624436693E+03  0.00000000000E+00 0. -1.
          5    1    4    4  502    0  0.50720866881E+01 -0.90188450247E+02  0.13589513519E+03  0.16324601186E+03  0.47000000000E+01 0. -1.
         -5    1    4    4    0  502 -0.21008095090E+02  0.35394411686E+02  0.10979748565E+03  0.11735281118E+03  0.47000000000E+01 0. -1.
<mgrwt>
<rscale>  0 0.99392113E+03</rscale>
<asrwt>0</asrwt>
<pdfrwt beam="1">  1        2 0.13176432E+00 0.99392113E+03</pdfrwt>
<pdfrwt beam="2">  1       -2 0.44362838E-01 0.99392113E+03</pdfrwt>
<totfact> 0.18307239E+02</totfact>
</mgrwt>
</event>
<event>
 9    1  0.4369420E-036  0.9998457E+03  0.7818608E-02  0.8681185E-01
         -1   -1    0    0    0  501 -0.00000000000E+00  0.00000000000E+00  0.26363899268E+03  0.26363899268E+03  0.00000000000E+00 0.  1.
          1   -1    0    0  501    0  0.00000000000E+00 -0.00000000000E+00 -0.94797381321E+03  0.94797381321E+03  0.00000000000E+00 0.  1.
         36    2    1    2    0    0 -0.21316282073E-13  0.00000000000E+00 -0.68433482053E+03  0.12116128059E+04  0.99984571050E+03 0.  0.
         25    2    3    3    0    0 -0.11927338795E+02  0.11497265193E+03 -0.33701864113E+02  0.17367081883E+03  0.12515896119E+03 0.  0.
         35    2    3    3    0    0  0.11927338795E+02 -0.11497265193E+03 -0.65063295641E+03  0.10379419871E+04  0.80039949552E+03 0.  0.
         22    1    5    5    0    0 -0.39186561999E+03 -0.22686393870E+02 -0.35286332310E+03  0.52781233539E+03  0.00000000000E+00 0. -1.
         22    1    5    5    0    0  0.40379295879E+03 -0.92286258056E+02 -0.29776963331E+03  0.51012965167E+03  0.00000000000E+00 0. -1.
          5    1    4    4  502    0  0.26360431386E+02  0.39353041209E+02  0.39286046396E+02  0.61717239380E+02  0.47000000000E+01 0. -1.
         -5    1    4    4    0  502 -0.38287770181E+02  0.75619610716E+02 -0.72987910509E+02  0.11195357945E+03  0.47000000000E+01 0. -1.
<mgrwt>
<rscale>  0 0.99984571E+03</rscale>
<asrwt>0</asrwt>
<pdfrwt beam="1">  1        1 0.14584212E+00 0.99984571E+03</pdfrwt>
<pdfrwt beam="2">  1       -1 0.40559845E-01 0.99984571E+03</pdfrwt>
<totfact> 0.11102928E+02</totfact>
</mgrwt>
</event>
<event>
 9    1  0.4369420E-036  0.9990591E+03  0.7818608E-02  0.8681934E-01
         -1   -1    0    0    0  501 -0.00000000000E+00  0.00000000000E+00  0.24807008315E+03  0.24807008315E+03  0.00000000000E+00 0. -1.
          1   -1    0    0  501    0  0.00000000000E+00 -0.00000000000E+00 -0.10058842111E+04  0.10058842111E+04  0.00000000000E+00 0. -1.
         36    2    1    2    0    0 -0.42632564146E-13  0.42632564146E-13 -0.75781412794E+03  0.12539542942E+04  0.99905911715E+03 0.  0.
         25    2    3    3    0    0 -0.12531944362E+03 -0.26241441242E+02 -0.20128970619E+03  0.26929460998E+03  0.12493384231E+03 0.  0.
         35    2    3    3    0    0  0.12531944362E+03  0.26241441242E+02 -0.55652442174E+03  0.98465968427E+03  0.80214816938E+03 0.  0.
         22    1    5    5    0    0  0.30054732967E+03  0.33936014992E+03 -0.32072047891E+03  0.55529778886E+03  0.00000000000E+00 0.  1.
         22    1    5    5    0    0 -0.17522788605E+03 -0.31311870867E+03 -0.23580394283E+03  0.42936189541E+03  0.00000000000E+00 0.  1.
          5    1    4    4  502    0 -0.83905503206E+02  0.42062711583E+02 -0.77085267369E+02  0.12154683714E+03  0.47000000000E+01 0.  1.
         -5    1    4    4    0  502 -0.41413940413E+02 -0.68304152824E+02 -0.12420443882E+03  0.14774777283E+03  0.47000000000E+01 0.  1.
<mgrwt>
<rscale>  0 0.99905912E+03</rscale>
<asrwt>0</asrwt>
<pdfrwt beam="1">  1        1 0.15475142E+00 0.99905912E+03</pdfrwt>
<pdfrwt beam="2">  1       -1 0.38164628E-01 0.99905912E+03</pdfrwt>
<totfact> 0.11115893E+02</totfact>
</mgrwt>
</event>
<event>
 9    1  0.4369420E-036  0.1000190E+04  0.7818608E-02  0.8680857E-01
          2   -1    0    0  501    0  0.00000000000E+00  0.00000000000E+00  0.25343376600E+04  0.25343376600E+04  0.00000000000E+00 0.  1.
         -2   -1    0    0    0  501 -0.00000000000E+00 -0.00000000000E+00 -0.98682644022E+02  0.98682644022E+02  0.00000000000E+00 0.  1.
         36    2    1    2    0    0 -0.14210854715E-13  0.00000000000E+00  0.24356550160E+04  0.26330203040E+04  0.10001902642E+04 0.  0.
         25    2    3    3    0    0 -0.19420040030E+02  0.46311054528E+02  0.79516344587E+03  0.80725919877E+03  0.12984859116E+03 0.  0.
         35    2    3    3    0    0  0.19420040030E+02 -0.46311054528E+02  0.16404915701E+04  0.18257611052E+04  0.79979320460E+03 0.  0.
         22    1    5    5    0    0 -0.28047240641E+03  0.23864521632E+03  0.97431744055E+03  0.10415905073E+04  0.00000000000E+00 0. -1.
         22    1    5    5    0    0  0.29989244644E+03 -0.28495627085E+03  0.66617412955E+03  0.78417059790E+03  0.00000000000E+00 0. -1.
          5    1    4    4  502    0  0.38553281782E+02  0.25655081152E+02  0.11164548056E+03  0.12096008455E+03  0.47000000000E+01 0.  1.
         -5    1    4    4    0  502 -0.57973321812E+02  0.20655973375E+02  0.68351796531E+03  0.68629911422E+03  0.47000000000E+01 0.  1.
<mgrwt>
<rscale>  0 0.10001903E+04</rscale>
<asrwt>0</asrwt>
<pdfrwt beam="1">  1        2 0.38989805E+00 0.10001903E+04</pdfrwt>
<pdfrwt beam="2">  1       -2 0.15181947E-01 0.10001903E+04</pdfrwt>
<totfact> 0.13003711E+02</totfact>
</mgrwt>
</event>
<event>
 9    1  0.4369420E-036  0.1000892E+04  0.7818608E-02  0.8680189E-01
          1   -1    0    0  501    0  0.00000000000E+00  0.00000000000E+00  0.93083691852E+03  0.93083691852E+03  0.00000000000E+00 0.  1.
         -1   -1    0    0    0  501 -0.00000000000E+00 -0.00000000000E+00 -0.26905462732E+03  0.26905462732E+03  0.00000000000E+00 0.  1.
         36    2    1    2    0    0 -0.14210854715E-13 -0.21316282073E-13  0.66178229119E+03  0.11998915458E+04  0.10008915630E+04 0.  0.
         25    2    3    3    0    0  0.75530300358E+02 -0.18167833825E+02 -0.14372379061E+02  0.14791986206E+03  0.12505528319E+03 0.  0.
         35    2    3    3    0    0 -0.75530300358E+02  0.18167833825E+02  0.67615467025E+03  0.10519716838E+04  0.80213738780E+03 0.  0.
         22    1    5    5    0    0 -0.32444375210E+03 -0.24522146301E+03  0.19891263134E+03  0.45272900184E+03  0.00000000000E+00 0. -1.
         22    1    5    5    0    0  0.24891345174E+03  0.26338929684E+03  0.47724203892E+03  0.59924268194E+03  0.00000000000E+00 0. -1.
          5    1    4    4  502    0  0.99010328819E+02  0.20318739205E+02 -0.31910302410E+01  0.10123324083E+03  0.47000000000E+01 0.  1.
         -5    1    4    4    0  502 -0.23480028461E+02 -0.38486573030E+02 -0.11181348820E+02  0.46686621227E+02  0.47000000000E+01 0.  1.
<mgrwt>
<rscale>  0 0.10008916E+04</rscale>
<asrwt>0</asrwt>
<pdfrwt beam="1">  1        1 0.14320568E+00 0.10008916E+04</pdfrwt>
<pdfrwt beam="2">  1       -1 0.41393020E-01 0.10008916E+04</pdfrwt>
<totfact> 0.11056282E+02</totfact>
</mgrwt>
</event>
<event>
 9    1  0.4369420E-036  0.1004368E+04  0.7818608E-02  0.8676889E-01
          2   -1    0    0  501    0  0.00000000000E+00  0.00000000000E+00  0.71830980156E+03  0.71830980156E+03  0.00000000000E+00 0. -1.
         -2   -1    0    0    0  501 -0.00000000000E+00 -0.00000000000E+00 -0.35108664383E+03  0.35108664383E+03  0.00000000000E+00 0. -1.
         36    2    1    2    0    0  0.14210854715E-13 -0.14210854715E-13  0.36722315773E+03  0.10693964454E+04  0.10043684134E+04 0.  0.
         25    2    3    3    0    0 -0.71301946494E+02  0.10398137963E+03 -0.96435069803E+01  0.17777188457E+03  0.12495499523E+03 0.  0.
         35    2    3    3    0    0  0.71301946494E+02 -0.10398137963E+03  0.37686666471E+03  0.89162456082E+03  0.79816651120E+03 0.  0.
         22    1    5    5    0    0  0.42079955059E+02 -0.45320701553E+03  0.17830550260E+03  0.48883552838E+03  0.00000000000E+00 0.  1.
         22    1    5    5    0    0  0.29221991436E+02  0.34922563591E+03  0.19856116211E+03  0.40278903244E+03  0.00000000000E+00 0.  1.
          5    1    4    4  502    0 -0.60191063673E+02  0.88528280440E+02 -0.60649039445E+02  0.12312845556E+03  0.47000000000E+01 0. -1.
         -5    1    4    4    0  502 -0.11110882821E+02  0.15453099186E+02  0.51005532465E+02  0.54643429006E+02  0.47000000000E+01 0. -1.
<mgrwt>
<rscale>  0 0.10043684E+04</rscale>
<asrwt>0</asrwt>
<pdfrwt beam="1">  1        2 0.11050920E+00 0.10043684E+04</pdfrwt>
<pdfrwt beam="2">  1       -2 0.54013330E-01 0.10043684E+04</pdfrwt>
<totfact> 0.15493814E+02</totfact>
</mgrwt>
</event>
<event>
 9    1  0.4369420E-036  0.1000124E+04  0.7818608E-02  0.8680920E-01
          1   -1    0    0  501    0  0.00000000000E+00  0.00000000000E+00  0.11206419335E+04  0.11206419335E+04  0.00000000000E+00 0.  1.
         -1   -1    0    0    0  501 -0.00000000000E+00 -0.00000000000E+00 -0.22314171143E+03  0.22314171143E+03  0.00000000000E+00 0.  1.
         36    2    1    2    0    0 -0.14210854715E-13  0.00000000000E+00  0.89750022207E+03  0.13437836449E+04  0.10001239102E+04 0.  0.
         25    2    3    3    0    0 -0.11069186454E+03 -0.31954622593E+01  0.28648467812E+03  0.33145899325E+03  0.12461417878E+03 0.  0.
         35    2    3    3    0    0  0.11069186454E+03  0.31954622593E+01  0.61101554394E+03  0.10123246517E+04  0.79949878399E+03 0.  0.
         22    1    5    5    0    0  0.13059386290E+03  0.40112099730E+02 -0.17677837774E+03  0.22341515706E+03  0.00000000000E+00 0.  1.
         22    1    5    5    0    0 -0.19901998354E+02 -0.36916637470E+02  0.78779392168E+03  0.78890949462E+03  0.00000000000E+00 0.  1.
          5    1    4    4  502    0 -0.88316308645E+02  0.38693255696E+02  0.10011221782E+03  0.13907366597E+03  0.47000000000E+01 0. -1.
         -5    1    4    4    0  502 -0.22375555897E+02 -0.41888717955E+02  0.18637246030E+03  0.19238532728E+03  0.47000000000E+01 0. -1.
<mgrwt>
<rscale>  0 0.10001239E+04</rscale>
<asrwt>0</asrwt>
<pdfrwt beam="1">  1        1 0.17240645E+00 0.10001239E+04</pdfrwt>
<pdfrwt beam="2">  1       -1 0.34329495E-01 0.10001239E+04</pdfrwt>
<totfact> 0.10898970E+02</totfact>
</mgrwt>
</event>
<event>
 9    1  0.4369420E-036  0.1000087E+04  0.7818608E-02  0.8680955E-01
         -1   -1    0    0    0  501 -0.00000000000E+00  0.00000000000E+00  0.66473673673E+03  0.66473673673E+03  0.00000000000E+00 0. -1.
          1   -1    0    0  501    0  0.00000000000E+00 -0.00000000000E+00 -0.37615401964E+03  0.37615401964E+03  0.00000000000E+00 0. -1.
         36    2    1    2    0    0 -0.10658141036E-13  0.00000000000E+00  0.28858271708E+03  0.10408907564E+04  0.10000867873E+04 0.  0.
         25    2    3    3    0    0  0.27561247471E+02 -0.80886205427E+02 -0.63232537042E+02  0.16279863246E+03  0.12329979887E+03 0.  0.
         35    2    3    3    0    0 -0.27561247471E+02  0.80886205427E+02  0.35181525413E+03  0.87809212391E+03  0.79998100255E+03 0.  0.
         22    1    5    5    0    0 -0.27182217401E+03 -0.26488358571E+03  0.13830375081E+03  0.40395363069E+03  0.00000000000E+00 0.  1.
         22    1    5    5    0    0  0.24426092654E+03  0.34576979114E+03  0.21351150332E+03  0.47413849321E+03  0.00000000000E+00 0.  1.
          5    1    4    4  502    0 -0.24483626081E+02 -0.52371001311E+02 -0.81945914890E+02  0.10039617867E+03  0.47000000000E+01 0.  1.
         -5    1    4    4    0  502  0.52044873552E+02 -0.28515204116E+02  0.18713377847E+02  0.62402453793E+02  0.47000000000E+01 0.  1.
<mgrwt>
<rscale>  0 0.10000868E+04</rscale>
<asrwt>0</asrwt>
<pdfrwt beam="1">  1        1 0.57869849E-01 0.10000868E+04</pdfrwt>
<pdfrwt beam="2">  1       -1 0.10226719E+00 0.10000868E+04</pdfrwt>
<totfact> 0.70682647E+01</totfact>
</mgrwt>
</event>
<event>
 9    1  0.4369420E-036  0.9992522E+03  0.7818608E-02  0.8681750E-01
          2   -1    0    0  501    0  0.00000000000E+00  0.00000000000E+00  0.11754385451E+04  0.11754385451E+04  0.00000000000E+00 0.  1.
         -2   -1    0    0    0  501 -0.00000000000E+00 -0.00000000000E+00 -0.21236859876E+03  0.21236859876E+03  0.00000000000E+00 0.  1.
         36    2    1    2    0    0  0.00000000000E+00  0.28421709430E-13  0.96306994635E+03  0.13878071439E+04  0.99925219390E+03 0.  0.
         25    2    3    3    0    0 -0.24455596127E+02  0.11657076803E+03  0.80842531365E+02  0.19104739922E+03  0.12560562777E+03 0.  0.
         35    2    3    3    0    0  0.24455596127E+02 -0.11657076803E+03  0.88222741498E+03  0.11967597447E+04  0.79982614019E+03 0.  0.
         22    1    5    5    0    0 -0.51538468402E+02 -0.22779617532E+03  0.99440254897E+03  0.10214615708E+04  0.00000000000E+00 0.  1.
         22    1    5    5    0    0  0.75994064529E+02  0.11122540729E+03 -0.11217513399E+03  0.17529817385E+03  0.00000000000E+00 0.  1.
          5    1    4    4  502    0  0.46659960159E+02  0.29017918282E+02  0.48941326302E+02  0.73732861626E+02  0.47000000000E+01 0. -1.
         -5    1    4    4    0  502 -0.71115556286E+02  0.87552849751E+02  0.31901205063E+02  0.11731453759E+03  0.47000000000E+01 0. -1.
<mgrwt>
<rscale>  0 0.99925219E+03</rscale>
<asrwt>0</asrwt>
<pdfrwt beam="1">  1        2 0.18083670E+00 0.99925219E+03</pdfrwt>
<pdfrwt beam="2">  1       -2 0.32672093E-01 0.99925219E+03</pdfrwt>
<totfact> 0.20620434E+02</totfact>
</mgrwt>
</event>
<event>
 9    1  0.4369420E-036  0.1000200E+04  0.7818608E-02  0.8680848E-01
          1   -1    0    0  501    0  0.00000000000E+00  0.00000000000E+00  0.34445696041E+04  0.34445696041E+04  0.00000000000E+00 0. -1.
         -1   -1    0    0    0  501 -0.00000000000E+00 -0.00000000000E+00 -0.72607021578E+02  0.72607021578E+02  0.00000000000E+00 0. -1.
         36    2    1    2    0    0  0.71054273576E-14  0.00000000000E+00  0.33719625825E+04  0.35171766257E+04  0.10001998592E+04 0.  0.
         25    2    3    3    0    0 -0.45814804160E+02 -0.12430875728E+03  0.79311540563E+03  0.81377556610E+03  0.12508781687E+03 0.  0.
         35    2    3    3    0    0  0.45814804160E+02  0.12430875728E+03  0.25788471769E+04  0.27034010596E+04  0.80023300589E+03 0.  0.
         22    1    5    5    0    0  0.20220178125E+03  0.42582314072E+03  0.15169043498E+04  0.15884614298E+04  0.00000000000E+00 0. -1.
         22    1    5    5    0    0 -0.15638697709E+03 -0.30151438345E+03  0.10619428271E+04  0.11149396297E+04  0.00000000000E+00 0. -1.
          5    1    4    4  502    0 -0.60013547102E+02 -0.12873114589E+03  0.48823901560E+03  0.50850050158E+03  0.47000000000E+01 0. -1.
         -5    1    4    4    0  502  0.14198742942E+02  0.44223886085E+01  0.30487639003E+03  0.30527506452E+03  0.47000000000E+01 0. -1.
<mgrwt>
<rscale>  0 0.10001999E+04</rscale>
<asrwt>0</asrwt>
<pdfrwt beam="1">  1        1 0.52993366E+00 0.10001999E+04</pdfrwt>
<pdfrwt beam="2">  1       -1 0.11170314E-01 0.10001999E+04</pdfrwt>
<totfact> 0.15137543E+01</totfact>
</mgrwt>
</event>
<event>
 9    1  0.4369420E-036  0.9989364E+03  0.7818608E-02  0.8682051E-01
          2   -1    0    0  501    0  0.00000000000E+00  0.00000000000E+00  0.29030587521E+03  0.29030587521E+03  0.00000000000E+00 0.  1.
         -2   -1    0    0    0  501 -0.00000000000E+00 -0.00000000000E+00 -0.85932979131E+03  0.85932979131E+03  0.00000000000E+00 0.  1.
         36    2    1    2    0    0  0.00000000000E+00  0.00000000000E+00 -0.56902391609E+03  0.11496356665E+04  0.99893640871E+03 0.  0.
         25    2    3    3    0    0 -0.97896546748E+02 -0.93775770892E+02 -0.13994062583E+03  0.23144521415E+03  0.12492349389E+03 0.  0.
         35    2    3    3    0    0  0.97896546748E+02  0.93775770892E+02 -0.42908329027E+03  0.91819045237E+03  0.80036467174E+03 0.  0.
         22    1    5    5    0    0  0.73925798259E+02 -0.33007223887E+03 -0.34929900927E+03  0.48623297338E+03  0.00000000000E+00 0. -1.
         22    1    5    5    0    0  0.23970748489E+02  0.42384800976E+03 -0.79784281000E+02  0.43195747899E+03  0.00000000000E+00 0. -1.
          5    1    4    4  502    0 -0.86096122498E+02  0.32913191799E+01 -0.70445269375E+02  0.11139120732E+03  0.47000000000E+01 0.  1.
         -5    1    4    4    0  502 -0.11800424250E+02 -0.97067090071E+02 -0.69495356452E+02  0.12005400683E+03  0.47000000000E+01 0.  1.
<mgrwt>
<rscale>  0 0.99893641E+03</rscale>
<asrwt>0</asrwt>
<pdfrwt beam="1">  1        2 0.44662443E-01 0.99893641E+03</pdfrwt>
<pdfrwt beam="2">  1       -2 0.13220458E+00 0.99893641E+03</pdfrwt>
<totfact> 0.54609652E+01</totfact>
</mgrwt>
</event>
<event>
 9    1  0.4369420E-036  0.9880428E+03  0.7818608E-02  0.8692509E-01
         -1   -1    0    0    0  501 -0.00000000000E+00  0.00000000000E+00  0.54257803588E+03  0.54257803588E+03  0.00000000000E+00 0. -1.
          1   -1    0    0  501    0  0.00000000000E+00 -0.00000000000E+00 -0.44981024538E+03  0.44981024538E+03  0.00000000000E+00 0. -1.
         36    2    1    2    0    0  0.14210854715E-13  0.28421709430E-13  0.92767790497E+02  0.99238828126E+03  0.98804283198E+03 0.  0.
         25    2    3    3    0    0 -0.90907800969E+02 -0.82910069786E+02  0.17270483440E+02  0.17637324867E+03  0.12518364629E+03 0.  0.
         35    2    3    3    0    0  0.90907800969E+02  0.82910069786E+02  0.75497307057E+02  0.81601503259E+03  0.80314530572E+03 0.  0.
         22    1    5    5    0    0  0.17378286049E+03 -0.32154946692E+03  0.15248014719E+03  0.39603628314E+03  0.00000000000E+00 0.  1.
         22    1    5    5    0    0 -0.82875059516E+02  0.40445953670E+03 -0.76982840133E+02  0.41997874946E+03  0.00000000000E+00 0.  1.
          5    1    4    4  502    0  0.29923545835E+01 -0.29468361592E+02  0.54327287326E+02  0.62055480573E+02  0.47000000000E+01 0.  1.
         -5    1    4    4    0  502 -0.93900155552E+02 -0.53441708194E+02 -0.37056803886E+02  0.11431776809E+03  0.47000000000E+01 0.  1.
<mgrwt>
<rscale>  0 0.98804283E+03</rscale>
<asrwt>0</asrwt>
<pdfrwt beam="1">  1        1 0.69201576E-01 0.98804283E+03</pdfrwt>
<pdfrwt beam="2">  1       -1 0.83473544E-01 0.98804283E+03</pdfrwt>
<totfact> 0.86574350E+01</totfact>
</mgrwt>
</event>
<event>
 9    1  0.4369420E-036  0.1000554E+04  0.7818608E-02  0.8680510E-01
          2   -1    0    0  501    0  0.00000000000E+00  0.00000000000E+00  0.94872061044E+03  0.94872061044E+03  0.00000000000E+00 0.  1.
         -2   -1    0    0    0  501 -0.00000000000E+00 -0.00000000000E+00 -0.26380489890E+03  0.26380489890E+03  0.00000000000E+00 0.  1.
         36    2    1    2    0    0 -0.71054273576E-14 -0.14210854715E-13  0.68491571154E+03  0.12125255093E+04  0.10005541359E+04 0.  0.
         25    2    3    3    0    0  0.23982605013E+02 -0.79008453116E+02  0.49086534898E+01  0.14984955616E+03  0.12495316560E+03 0.  0.
         35    2    3    3    0    0 -0.23982605013E+02  0.79008453116E+02  0.68000705805E+03  0.10626759532E+04  0.81243650919E+03 0.  0.
         22    1    5    5    0    0 -0.27204900345E+02 -0.10250879885E+03 -0.16623141669E+03  0.19718276887E+03  0.00000000000E+00 0. -1.
         22    1    5    5    0    0  0.32222953325E+01  0.18151725196E+03  0.84623847474E+03  0.86549318431E+03  0.00000000000E+00 0. -1.
          5    1    4    4  502    0 -0.26801669467E+02 -0.92818683668E+02 -0.58450437243E+00  0.96726775866E+02  0.47000000000E+01 0. -1.
         -5    1    4    4    0  502  0.50784274479E+02  0.13810230552E+02  0.54931578622E+01  0.53122780289E+02  0.47000000000E+01 0. -1.
<mgrwt>
<rscale>  0 0.10005541E+04</rscale>
<asrwt>0</asrwt>
<pdfrwt beam="1">  1        2 0.14595702E+00 0.10005541E+04</pdfrwt>
<pdfrwt beam="2">  1       -2 0.40585370E-01 0.10005541E+04</pdfrwt>
<totfact> 0.18909460E+02</totfact>
</mgrwt>
</event>
<event>
 9    1  0.4369420E-036  0.9998698E+03  0.7818608E-02  0.8681162E-01
         -1   -1    0    0    0  501 -0.00000000000E+00  0.00000000000E+00  0.19076179376E+04  0.19076179376E+04  0.00000000000E+00 0.  1.
          1   -1    0    0  501    0  0.00000000000E+00 -0.00000000000E+00 -0.13101937849E+03  0.13101937849E+03  0.00000000000E+00 0.  1.
         36    2    1    2    0    0  0.00000000000E+00 -0.14210854715E-13  0.17765985592E+04  0.20386373161E+04  0.99986982469E+03 0.  0.
         25    2    3    3    0    0  0.92517771919E+02 -0.68970129990E+02  0.14865719832E+03  0.22651041747E+03  0.12606184855E+03 0.  0.
         35    2    3    3    0    0 -0.92517771919E+02  0.68970129990E+02  0.16279413608E+04  0.18121268987E+04  0.78758771293E+03 0.  0.
         22    1    5    5    0    0  0.90656092062E+02 -0.32375631078E+03  0.48807130627E+03  0.59266371223E+03  0.00000000000E+00 0. -1.
         22    1    5    5    0    0 -0.18317386398E+03  0.39272644077E+03  0.11398700546E+04  0.12194631864E+04  0.00000000000E+00 0. -1.
          5    1    4    4  502    0  0.49746485326E+02 -0.93093499539E+02  0.14160665261E+03  0.17667950227E+03  0.47000000000E+01 0. -1.
         -5    1    4    4    0  502  0.42771286593E+02  0.24123369549E+02  0.70505457083E+01  0.49830915204E+02  0.47000000000E+01 0. -1.
<mgrwt>
<rscale>  0 0.99986982E+03</rscale>
<asrwt>0</asrwt>
<pdfrwt beam="1">  1        1 0.20156829E-01 0.99986982E+03</pdfrwt>
<pdfrwt beam="2">  1       -1 0.29347966E+00 0.99986982E+03</pdfrwt>
<totfact> 0.50480320E+00</totfact>
</mgrwt>
</event>
<event>
 9    1  0.4369420E-036  0.1007946E+04  0.7818608E-02  0.8673508E-01
          2   -1    0    0  501    0  0.00000000000E+00  0.00000000000E+00  0.12295456676E+04  0.12295456676E+04  0.00000000000E+00 0.  1.
         -2   -1    0    0    0  501 -0.00000000000E+00 -0.00000000000E+00 -0.20657105343E+03  0.20657105343E+03  0.00000000000E+00 0.  1.
         36    2    1    2    0    0  0.71054273576E-14 -0.35527136788E-14  0.10229746142E+04  0.14361167211E+04  0.10079455220E+04 0.  0.
         25    2    3    3    0    0 -0.49514042610E+02 -0.11478183839E+02  0.39682033201E+03  0.41901504310E+03  0.12459470829E+03 0.  0.
         35    2    3    3    0    0  0.49514042610E+02  0.11478183839E+02  0.62615428219E+03  0.10171016780E+04  0.79990202467E+03 0.  0.
         22    1    5    5    0    0  0.41084254008E+03  0.18144026052E+02  0.19682180762E+03  0.45591624492E+03  0.00000000000E+00 0.  1.
         22    1    5    5    0    0 -0.36132849747E+03 -0.66658422124E+01  0.42933247456E+03  0.56118543304E+03  0.00000000000E+00 0.  1.
          5    1    4    4  502    0 -0.21054090606E+02 -0.67872898910E+02  0.21073310452E+03  0.22244220930E+03  0.47000000000E+01 0.  1.
         -5    1    4    4    0  502 -0.28459952004E+02  0.56394715070E+02  0.18608722749E+03  0.19657283381E+03  0.47000000000E+01 0.  1.
<mgrwt>
<rscale>  0 0.10079455E+04</rscale>
<asrwt>0</asrwt>
<pdfrwt beam="1">  1        2 0.18916087E+00 0.10079455E+04</pdfrwt>
<pdfrwt beam="2">  1       -2 0.31780163E-01 0.10079455E+04</pdfrwt>
<totfact> 0.20157948E+02</totfact>
</mgrwt>
</event>
<event>
 9    1  0.4369420E-036  0.1000940E+04  0.7818608E-02  0.8680143E-01
         -2   -1    0    0    0  501 -0.00000000000E+00  0.00000000000E+00  0.25804847840E+03  0.25804847840E+03  0.00000000000E+00 0.  1.
          2   -1    0    0  501    0  0.00000000000E+00 -0.00000000000E+00 -0.97063331005E+03  0.97063331005E+03  0.00000000000E+00 0.  1.
         36    2    1    2    0    0  0.14210854715E-13  0.71054273576E-14 -0.71258483165E+03  0.12286817884E+04  0.10009404553E+04 0.  0.
         25    2    3    3    0    0 -0.11951642151E+02  0.53668483808E+02 -0.29391271929E+03  0.32404847594E+03  0.12489827978E+03 0.  0.
         35    2    3    3    0    0  0.11951642151E+02 -0.53668483808E+02 -0.41867211236E+03  0.90463331251E+03  0.80003246468E+03 0.  0.
         22    1    5    5    0    0 -0.17473147339E+03  0.19648874117E+03 -0.51477123932E+03  0.57803835688E+03  0.00000000000E+00 0. -1.
         22    1    5    5    0    0  0.18668311554E+03 -0.25015722498E+03  0.96099126957E+02  0.32659495563E+03  0.00000000000E+00 0. -1.
          5    1    4    4  502    0  0.68316558749E+01 -0.30503890191E+02 -0.17055441228E+03  0.17345909139E+03  0.47000000000E+01 0.  1.
         -5    1    4    4    0  502 -0.18783298026E+02  0.84172373998E+02 -0.12335830701E+03  0.15058938455E+03  0.47000000000E+01 0.  1.
<mgrwt>
<rscale>  0 0.10009405E+04</rscale>
<asrwt>0</asrwt>
<pdfrwt beam="1">  1        2 0.14932820E+00 0.10009405E+04</pdfrwt>
<pdfrwt beam="2">  1       -2 0.39699767E-01 0.10009405E+04</pdfrwt>
<totfact> 0.19099425E+02</totfact>
</mgrwt>
</event>
<event>
 9    1  0.4369420E-036  0.1000244E+04  0.7818608E-02  0.8680805E-01
          3   -1    0    0  501    0  0.00000000000E+00  0.00000000000E+00  0.30906574123E+03  0.30906574123E+03  0.00000000000E+00 0.  1.
         -3   -1    0    0    0  501 -0.00000000000E+00 -0.00000000000E+00 -0.80928480197E+03  0.80928480197E+03  0.00000000000E+00 0.  1.
         36    2    1    2    0    0 -0.28421709430E-13  0.00000000000E+00 -0.50021906074E+03  0.11183505432E+04  0.10002443845E+04 0.  0.
         25    2    3    3    0    0 -0.94010571356E+02 -0.53314430516E+02  0.75017026574E+01  0.16497604379E+03  0.12442026947E+03 0.  0.
         35    2    3    3    0    0  0.94010571356E+02  0.53314430516E+02 -0.50772076339E+03  0.95337449941E+03  0.79966377092E+03 0.  0.
         22    1    5    5    0    0 -0.13729218387E+03 -0.14838110043E+03 -0.59981390296E+03  0.63296351624E+03  0.00000000000E+00 0. -1.
         22    1    5    5    0    0  0.23130275523E+03  0.20169553094E+03  0.92093139563E+02  0.32041098317E+03  0.00000000000E+00 0. -1.
          5    1    4    4  502    0  0.18911242670E+02 -0.10986891055E+02  0.34678853985E+02  0.41268144956E+02  0.47000000000E+01 0.  1.
         -5    1    4    4    0  502 -0.11292181403E+03 -0.42327539461E+02 -0.27177151328E+02  0.12370789883E+03  0.47000000000E+01 0.  1.
<mgrwt>
<rscale>  0 0.10002444E+04</rscale>
<asrwt>0</asrwt>
<pdfrwt beam="1">  1        3 0.47548576E-01 0.10002444E+04</pdfrwt>
<pdfrwt beam="2">  1       -3 0.12450535E+00 0.10002444E+04</pdfrwt>
<totfact> 0.78541809E+00</totfact>
</mgrwt>
</event>
<event>
 9    1  0.4369420E-036  0.1000052E+04  0.7818608E-02  0.8680988E-01
         -1   -1    0    0    0  501 -0.00000000000E+00  0.00000000000E+00  0.22162914365E+03  0.22162914365E+03  0.00000000000E+00 0. -1.
          1   -1    0    0  501    0  0.00000000000E+00 -0.00000000000E+00 -0.11281288709E+04  0.11281288709E+04  0.00000000000E+00 0. -1.
         36    2    1    2    0    0 -0.71054273576E-14  0.71054273576E-14 -0.90649972730E+03  0.13497580146E+04  0.10000524698E+04 0.  0.
         25    2    3    3    0    0  0.26362450997E+02  0.92443802942E+01  0.15537539778E+02  0.12897068724E+03  0.12494633102E+03 0.  0.
         35    2    3    3    0    0 -0.26362450997E+02 -0.92443802942E+01 -0.92203726708E+03  0.12207873273E+04  0.79961774577E+03 0.  0.
         22    1    5    5    0    0  0.18339533809E+03 -0.30930894817E+03 -0.20057474508E+03  0.41174762151E+03  0.00000000000E+00 0. -1.
         22    1    5    5    0    0 -0.20975778909E+03  0.30006456788E+03 -0.72146252200E+03  0.80903970584E+03  0.00000000000E+00 0. -1.
          5    1    4    4  502    0  0.50808024698E+02 -0.44608864356E+02  0.16009481739E+02  0.69640503002E+02  0.47000000000E+01 0.  1.
         -5    1    4    4    0  502 -0.24445573702E+02  0.53853244650E+02 -0.47194196077E+00  0.59330184242E+02  0.47000000000E+01 0.  1.
<mgrwt>
<rscale>  0 0.10000525E+04</rscale>
<asrwt>0</asrwt>
<pdfrwt beam="1">  1        1 0.17355829E+00 0.10000525E+04</pdfrwt>
<pdfrwt beam="2">  1       -1 0.34096791E-01 0.10000525E+04</pdfrwt>
<totfact> 0.10885008E+02</totfact>
</mgrwt>
</event>
<event>
 9    1  0.4369420E-036  0.1000265E+04  0.7818608E-02  0.8680786E-01
         -2   -1    0    0    0  501 -0.00000000000E+00  0.00000000000E+00  0.16003069524E+03  0.16003069524E+03  0.00000000000E+00 0.  1.
          2   -1    0    0  501    0  0.00000000000E+00 -0.00000000000E+00 -0.15630281890E+04  0.15630281890E+04  0.00000000000E+00 0.  1.
         36    2    1    2    0    0 -0.56843418861E-13 -0.14210854715E-13 -0.14029974938E+04  0.17230588843E+04  0.10002649404E+04 0.  0.
         25    2    3    3    0    0 -0.72910980438E+02 -0.11976050733E+03 -0.26631909470E+03  0.32637554423E+03  0.12624003122E+03 0.  0.
         35    2    3    3    0    0  0.72910980438E+02  0.11976050733E+03 -0.11366783991E+04  0.13966833400E+04  0.79939225615E+03 0.  0.
         22    1    5    5    0    0 -0.33869075811E+03  0.18467101386E+03 -0.44248636752E+03  0.58703406923E+03  0.00000000000E+00 0. -1.
         22    1    5    5    0    0  0.41160173855E+03 -0.64910506531E+02 -0.69419203156E+03  0.80964927081E+03  0.00000000000E+00 0. -1.
          5    1    4    4  502    0 -0.87635550652E+02 -0.41624434845E+02 -0.87963907270E+02  0.13104320775E+03  0.47000000000E+01 0. -1.
         -5    1    4    4    0  502  0.14724570213E+02 -0.78136072483E+02 -0.17835518743E+03  0.19533233648E+03  0.47000000000E+01 0. -1.
<mgrwt>
<rscale>  0 0.10002649E+04</rscale>
<asrwt>0</asrwt>
<pdfrwt beam="1">  1        2 0.24046588E+00 0.10002649E+04</pdfrwt>
<pdfrwt beam="2">  1       -2 0.24620106E-01 0.10002649E+04</pdfrwt>
<totfact> 0.20572376E+02</totfact>
</mgrwt>
</event>
<event>
 9    1  0.4369420E-036  0.1000128E+04  0.7818608E-02  0.8680916E-01
         -2   -1    0    0    0  501 -0.00000000000E+00  0.00000000000E+00  0.21028220654E+03  0.21028220654E+03  0.00000000000E+00 0. -1.
          2   -1    0    0  501    0  0.00000000000E+00 -0.00000000000E+00 -0.11891824413E+04  0.11891824413E+04  0.00000000000E+00 0. -1.
         36    2    1    2    0    0 -0.35527136788E-14 -0.56843418861E-13 -0.97890023480E+03  0.13994646479E+04  0.10001278073E+04 0.  0.
         25    2    3    3    0    0 -0.97072349272E+01  0.32970360083E+02 -0.37375111911E+03  0.39559576581E+03  0.12499934333E+03 0.  0.
         35    2    3    3    0    0  0.97072349272E+01 -0.32970360083E+02 -0.60514911569E+03  0.10038688821E+04  0.80022872051E+03 0.  0.
         22    1    5    5    0    0 -0.39180996536E+02  0.37936446300E+03 -0.34212118325E+03  0.51234700184E+03  0.00000000000E+00 0. -1.
         22    1    5    5    0    0  0.48888231463E+02 -0.41233482308E+03 -0.26302793244E+03  0.49152188023E+03  0.00000000000E+00 0. -1.
          5    1    4    4  502    0  0.31178518455E+01 -0.24746523556E+02 -0.29945555103E+03  0.30052924728E+03  0.47000000000E+01 0.  1.
         -5    1    4    4    0  502 -0.12825086773E+02  0.57716883639E+02 -0.74295568079E+02  0.95066518522E+02  0.47000000000E+01 0.  1.
<mgrwt>
<rscale>  0 0.10001278E+04</rscale>
<asrwt>0</asrwt>
<pdfrwt beam="1">  1        2 0.18295115E+00 0.10001278E+04</pdfrwt>
<pdfrwt beam="2">  1       -2 0.32351109E-01 0.10001278E+04</pdfrwt>
<totfact> 0.20608350E+02</totfact>
</mgrwt>
</event>
<event>
 9    1  0.4369420E-036  0.9985485E+03  0.7818608E-02  0.8682421E-01
         -2   -1    0    0    0  501 -0.00000000000E+00  0.00000000000E+00  0.43304955298E+03  0.43304955298E+03  0.00000000000E+00 0.  1.
          2   -1    0    0  501    0  0.00000000000E+00 -0.00000000000E+00 -0.57562644283E+03  0.57562644283E+03  0.00000000000E+00 0.  1.
         36    2    1    2    0    0  0.00000000000E+00 -0.71054273576E-14 -0.14257688986E+03  0.10086759958E+04  0.99854849406E+03 0.  0.
         25    2    3    3    0    0  0.86409440014E+02  0.35811185199E+02 -0.13105208287E+03  0.20394337526E+03  0.12517675335E+03 0.  0.
         35    2    3    3    0    0 -0.86409440014E+02 -0.35811185199E+02 -0.11524806986E+02  0.80473262054E+03  0.79919505572E+03 0.  0.
         22    1    5    5    0    0 -0.58637981206E+02  0.57440465934E+02  0.38643199093E+03  0.39505379833E+03  0.00000000000E+00 0.  1.
         22    1    5    5    0    0 -0.27771458808E+02 -0.93251651132E+02 -0.39795679791E+03  0.40967882221E+03  0.00000000000E+00 0.  1.
          5    1    4    4  502    0 -0.19599980488E+02 -0.53917218059E+01 -0.73471486340E+02  0.76376561877E+02  0.47000000000E+01 0.  1.
         -5    1    4    4    0  502  0.10600942050E+03  0.41202907005E+02 -0.57580596531E+02  0.12756681339E+03  0.47000000000E+01 0.  1.
<mgrwt>
<rscale>  0 0.99854849E+03</rscale>
<asrwt>0</asrwt>
<pdfrwt beam="1">  1        2 0.88557914E-01 0.99854849E+03</pdfrwt>
<pdfrwt beam="2">  1       -2 0.66623008E-01 0.99854849E+03</pdfrwt>
<totfact> 0.13057247E+02</totfact>
</mgrwt>
</event>
<event>
 9    1  0.4369420E-036  0.9997779E+03  0.7818608E-02  0.8681250E-01
         -1   -1    0    0    0  501 -0.00000000000E+00  0.00000000000E+00  0.50377691037E+03  0.50377691037E+03  0.00000000000E+00 0.  1.
          1   -1    0    0  501    0  0.00000000000E+00 -0.00000000000E+00 -0.49603096547E+03  0.49603096547E+03  0.00000000000E+00 0.  1.
         36    2    1    2    0    0 -0.28421709430E-13  0.21316282073E-13  0.77459448998E+01  0.99980787583E+03  0.99977786978E+03 0.  0.
         25    2    3    3    0    0 -0.10927671300E+03 -0.18185793922E+02 -0.84652891856E+02  0.18816074130E+03  0.12635754572E+03 0.  0.
         35    2    3    3    0    0  0.10927671300E+03  0.18185793922E+02  0.92398836756E+02  0.81164713453E+03  0.79872486055E+03 0.  0.
         22    1    5    5    0    0 -0.16285235501E+03 -0.23790157669E+03  0.27261410139E+03  0.39678268360E+03  0.00000000000E+00 0.  1.
         22    1    5    5    0    0  0.27212906801E+03  0.25608737061E+03 -0.18021526464E+03  0.41486445094E+03  0.00000000000E+00 0.  1.
          5    1    4    4  502    0  0.33306389655E+01 -0.19778448725E+02  0.23981990317E+02  0.31614965593E+02  0.47000000000E+01 0. -1.
         -5    1    4    4    0  502 -0.11260735197E+03  0.15926548032E+01 -0.10863488217E+03  0.15654577571E+03  0.47000000000E+01 0. -1.
<mgrwt>
<rscale>  0 0.99977787E+03</rscale>
<asrwt>0</asrwt>
<pdfrwt beam="1">  1        1 0.76312456E-01 0.99977787E+03</pdfrwt>
<pdfrwt beam="2">  1       -1 0.77504140E-01 0.99977787E+03</pdfrwt>
<totfact> 0.88295388E+01</totfact>
</mgrwt>
</event>
<event>
 9    1  0.4369420E-036  0.1000092E+04  0.7818608E-02  0.8680951E-01
          2   -1    0    0  501    0  0.00000000000E+00  0.00000000000E+00  0.71865331570E+03  0.71865331570E+03  0.00000000000E+00 0. -1.
         -2   -1    0    0    0  501 -0.00000000000E+00 -0.00000000000E+00 -0.34793661507E+03  0.34793661507E+03  0.00000000000E+00 0. -1.
         36    2    1    2    0    0  0.00000000000E+00  0.14210854715E-13  0.37071670063E+03  0.10665899308E+04  0.10000915999E+04 0.  0.
         25    2    3    3    0    0  0.52469157429E+02 -0.11159536200E+03 -0.21438155125E+01  0.17575771970E+03  0.12521838038E+03 0.  0.
         35    2    3    3    0    0 -0.52469157429E+02  0.11159536200E+03  0.37286051614E+03  0.89083221107E+03  0.79959397601E+03 0.  0.
         22    1    5    5    0    0 -0.42453726377E+03  0.46144634103E+02  0.15232684315E+03  0.45339241582E+03  0.00000000000E+00 0. -1.
         22    1    5    5    0    0  0.37206810634E+03  0.65450727901E+02  0.22053367299E+03  0.43743979524E+03  0.00000000000E+00 0. -1.
          5    1    4    4  502    0 -0.97498606336E+01 -0.10313592738E+03  0.25807820981E+02  0.10686539628E+03  0.47000000000E+01 0. -1.
         -5    1    4    4    0  502  0.62219018062E+02 -0.84594346252E+01 -0.27951636493E+02  0.68892323415E+02  0.47000000000E+01 0. -1.
<mgrwt>
<rscale>  0 0.10000916E+04</rscale>
<asrwt>0</asrwt>
<pdfrwt beam="1">  1        2 0.11056205E+00 0.10000916E+04</pdfrwt>
<pdfrwt beam="2">  1       -2 0.53528710E-01 0.10000916E+04</pdfrwt>
<totfact> 0.15773048E+02</totfact>
</mgrwt>
</event>
<event>
 9    1  0.4369420E-036  0.9995371E+03  0.7818608E-02  0.8681479E-01
          2   -1    0    0  501    0  0.00000000000E+00  0.00000000000E+00  0.10733008706E+04  0.10733008706E+04  0.00000000000E+00 0. -1.
         -2   -1    0    0    0  501 -0.00000000000E+00 -0.00000000000E+00 -0.23271068706E+03  0.23271068706E+03  0.00000000000E+00 0. -1.
         36    2    1    2    0    0 -0.14210854715E-13  0.28421709430E-13  0.84059018351E+03  0.13060115576E+04  0.99953705887E+03 0.  0.
         25    2    3    3    0    0  0.29635165058E+02 -0.18607813046E+02  0.32672554656E+03  0.35511190782E+03  0.13464913883E+03 0.  0.
         35    2    3    3    0    0 -0.29635165058E+02  0.18607813046E+02  0.51386463695E+03  0.95089964981E+03  0.79933021036E+03 0.  0.
         22    1    5    5    0    0  0.41342017696E+02  0.37447228522E+03  0.79747980065E+02  0.38509530658E+03  0.00000000000E+00 0.  1.
         22    1    5    5    0    0 -0.70977182754E+02 -0.35586447218E+03  0.43411665688E+03  0.56580434323E+03  0.00000000000E+00 0.  1.
          5    1    4    4  502    0  0.34628737901E+02 -0.72309540835E+02  0.23788067581E+03  0.25107195206E+03  0.47000000000E+01 0.  1.
         -5    1    4    4    0  502 -0.49935728437E+01  0.53701727789E+02  0.88844870751E+02  0.10403995577E+03  0.47000000000E+01 0.  1.
<mgrwt>
<rscale>  0 0.99953706E+03</rscale>
<asrwt>0</asrwt>
<pdfrwt beam="1">  1        2 0.16512321E+00 0.99953706E+03</pdfrwt>
<pdfrwt beam="2">  1       -2 0.35801645E-01 0.99953706E+03</pdfrwt>
<totfact> 0.20043361E+02</totfact>
</mgrwt>
</event>
<event>
 9    1  0.4369420E-036  0.1001474E+04  0.7818608E-02  0.8679636E-01
         -2   -1    0    0    0  501 -0.00000000000E+00  0.00000000000E+00  0.60317945479E+03  0.60317945479E+03  0.00000000000E+00 0. -1.
          2   -1    0    0  501    0  0.00000000000E+00 -0.00000000000E+00 -0.41569300551E+03  0.41569300551E+03  0.00000000000E+00 0. -1.
         36    2    1    2    0    0  0.00000000000E+00  0.00000000000E+00  0.18748644928E+03  0.10188724603E+04  0.10014738747E+04 0.  0.
         25    2    3    3    0    0 -0.27995243623E+02  0.13717058982E+03  0.36812423433E+02  0.19118854906E+03  0.12489356426E+03 0.  0.
         35    2    3    3    0    0  0.27995243623E+02 -0.13717058982E+03  0.15067402585E+03  0.82768391125E+03  0.80172220282E+03 0.  0.
         22    1    5    5    0    0  0.40811579057E+03 -0.72843118633E+02  0.15371764144E+03  0.44214673100E+03  0.00000000000E+00 0.  1.
         22    1    5    5    0    0 -0.38012054694E+03 -0.64327471191E+02 -0.30436155927E+01  0.38553718025E+03  0.00000000000E+00 0.  1.
          5    1    4    4  502    0 -0.20921798507E+02  0.46902898651E+02 -0.45467734691E+02  0.68753243215E+02  0.47000000000E+01 0. -1.
         -5    1    4    4    0  502 -0.70734451169E+01  0.90267691172E+02  0.82280158124E+02  0.12243530584E+03  0.47000000000E+01 0. -1.
<mgrwt>
<rscale>  0 0.10014739E+04</rscale>
<asrwt>0</asrwt>
<pdfrwt beam="1">  1        2 0.63952770E-01 0.10014739E+04</pdfrwt>
<pdfrwt beam="2">  1       -2 0.92796839E-01 0.10014739E+04</pdfrwt>
<totfact> 0.89427578E+01</totfact>
</mgrwt>
</event>
<event>
 9    1  0.4369420E-036  0.9998426E+03  0.7818608E-02  0.8681188E-01
         -2   -1    0    0    0  501 -0.00000000000E+00  0.00000000000E+00  0.36488087581E+03  0.36488087581E+03  0.00000000000E+00 0.  1.
          2   -1    0    0  501    0  0.00000000000E+00 -0.00000000000E+00 -0.68493944664E+03  0.68493944664E+03  0.00000000000E+00 0.  1.
         36    2    1    2    0    0  0.00000000000E+00  0.00000000000E+00 -0.32005857082E+03  0.10498203225E+04  0.99984259795E+03 0.  0.
         25    2    3    3    0    0 -0.27968696056E+02  0.13803916782E+03 -0.61830573852E+02  0.19813577151E+03  0.12489076938E+03 0.  0.
         35    2    3    3    0    0  0.27968696056E+02 -0.13803916782E+03 -0.25822799697E+03  0.85168455094E+03  0.79927956065E+03 0.  0.
         22    1    5    5    0    0 -0.97875807900E+02 -0.11226760958E+03 -0.53029624220E+03  0.55081557206E+03  0.00000000000E+00 0.  1.
         22    1    5    5    0    0  0.12584450396E+03 -0.25771558248E+02  0.27206824523E+03  0.30086897888E+03  0.00000000000E+00 0.  1.
          5    1    4    4  502    0 -0.91521972964E+01  0.10968613571E+03 -0.98577823466E+02  0.14783263632E+03  0.47000000000E+01 0.  1.
         -5    1    4    4    0  502 -0.18816498760E+02  0.28353032112E+02  0.36747249613E+02  0.50303135187E+02  0.47000000000E+01 0.  1.
<mgrwt>
<rscale>  0 0.99984260E+03</rscale>
<asrwt>0</asrwt>
<pdfrwt beam="1">  1        2 0.10537530E+00 0.99984260E+03</pdfrwt>
<pdfrwt beam="2">  1       -2 0.56135519E-01 0.99984260E+03</pdfrwt>
<totfact> 0.15183665E+02</totfact>
</mgrwt>
</event>
<event>
 9    1  0.4369420E-036  0.1000664E+04  0.7818608E-02  0.8680406E-01
         -1   -1    0    0    0  501 -0.00000000000E+00  0.00000000000E+00  0.31276080779E+03  0.31276080779E+03  0.00000000000E+00 0.  1.
          1   -1    0    0  501    0  0.00000000000E+00 -0.00000000000E+00 -0.80039535692E+03  0.80039535692E+03  0.00000000000E+00 0.  1.
         36    2    1    2    0    0  0.00000000000E+00  0.49737991503E-13 -0.48763454912E+03  0.11131561647E+04  0.10006643761E+04 0.  0.
         25    2    3    3    0    0  0.90499244594E+02  0.36193249335E+02 -0.20474473189E+03  0.25870641427E+03  0.12453328463E+03 0.  0.
         35    2    3    3    0    0 -0.90499244594E+02 -0.36193249335E+02 -0.28288981723E+03  0.85444975043E+03  0.80034846333E+03 0.  0.
         22    1    5    5    0    0 -0.17837760002E+03 -0.38631551749E+03 -0.58761178906E+02  0.42954757989E+03  0.00000000000E+00 0. -1.
         22    1    5    5    0    0  0.87878355429E+02  0.35012226816E+03 -0.22412863832E+03  0.42490217054E+03  0.00000000000E+00 0. -1.
          5    1    4    4  502    0  0.69596660097E+01 -0.30620744129E+02 -0.50972726664E+01  0.32158033376E+02  0.47000000000E+01 0. -1.
         -5    1    4    4    0  502  0.83539578584E+02  0.66813993464E+02 -0.19964745923E+03  0.22654838090E+03  0.47000000000E+01 0. -1.
<mgrwt>
<rscale>  0 0.10006644E+04</rscale>
<asrwt>0</asrwt>
<pdfrwt beam="1">  1        1 0.12313775E+00 0.10006644E+04</pdfrwt>
<pdfrwt beam="2">  1       -1 0.48117048E-01 0.10006644E+04</pdfrwt>
<totfact> 0.10862401E+02</totfact>
</mgrwt>
</event>
<event>
 9    1  0.4369420E-036  0.1008575E+04  0.7818608E-02  0.8672914E-01
         -2   -1    0    0    0  501 -0.00000000000E+00  0.00000000000E+00  0.16091818911E+03  0.16091818911E+03  0.00000000000E+00 0.  1.
          2   -1    0    0  501    0  0.00000000000E+00 -0.00000000000E+00 -0.15803433971E+04  0.15803433971E+04  0.00000000000E+00 0.  1.
         36    2    1    2    0    0  0.00000000000E+00  0.00000000000E+00 -0.14194252079E+04  0.17412615862E+04  0.10085752280E+04 0.  0.
         25    2    3    3    0    0  0.51626043438E+02  0.13343632821E+03 -0.26784683664E+03  0.33036187068E+03  0.13010202017E+03 0.  0.
         35    2    3    3    0    0 -0.51626043438E+02 -0.13343632821E+03 -0.11515783713E+04  0.14108997155E+04  0.80251776296E+03 0.  0.
         22    1    5    5    0    0 -0.65203211915E+02  0.13655161447E+03 -0.11295871850E+04  0.11396775907E+04  0.00000000000E+00 0.  1.
         22    1    5    5    0    0  0.13577168477E+02 -0.26998794268E+03 -0.21991186313E+02  0.27122212478E+03  0.00000000000E+00 0.  1.
          5    1    4    4  502    0  0.34780644211E+02 -0.15363504047E+02 -0.27570486832E+02  0.47201188677E+02  0.47000000000E+01 0. -1.
         -5    1    4    4    0  502  0.16845399227E+02  0.14879983226E+03 -0.24027634980E+03  0.28316068200E+03  0.47000000000E+01 0. -1.
<mgrwt>
<rscale>  0 0.10085752E+04</rscale>
<asrwt>0</asrwt>
<pdfrwt beam="1">  1        2 0.24312977E+00 0.10085752E+04</pdfrwt>
<pdfrwt beam="2">  1       -2 0.24756643E-01 0.10085752E+04</pdfrwt>
<totfact> 0.19917920E+02</totfact>
</mgrwt>
</event>
<event>
 9    1  0.4369420E-036  0.1000380E+04  0.7818608E-02  0.8680676E-01
         -2   -1    0    0    0  501 -0.00000000000E+00  0.00000000000E+00  0.11065571224E+03  0.11065571224E+03  0.00000000000E+00 0. -1.
          2   -1    0    0  501    0  0.00000000000E+00 -0.00000000000E+00 -0.22609777088E+04  0.22609777088E+04  0.00000000000E+00 0. -1.
         36    2    1    2    0    0  0.00000000000E+00  0.28421709430E-13 -0.21503219965E+04  0.23716334210E+04  0.10003801252E+04 0.  0.
         25    2    3    3    0    0 -0.13742274406E+02 -0.13130168520E+03 -0.28720196749E+03  0.33983405961E+03  0.12479276942E+03 0.  0.
         35    2    3    3    0    0  0.13742274406E+02  0.13130168520E+03 -0.18631200291E+04  0.20317993614E+04  0.79972709079E+03 0.  0.
         22    1    5    5    0    0  0.44863996338E+02  0.46767348520E+03 -0.99770419821E+03  0.11027896146E+04  0.00000000000E+00 0. -1.
         22    1    5    5    0    0 -0.31121721932E+02 -0.33637180001E+03 -0.86541583084E+03  0.92900974682E+03  0.00000000000E+00 0. -1.
          5    1    4    4  502    0  0.48860835793E+02 -0.34724638500E+02 -0.14403411609E+03  0.15608042283E+03  0.47000000000E+01 0.  1.
         -5    1    4    4    0  502 -0.62603110199E+02 -0.96577046695E+02 -0.14316785140E+03  0.18375363678E+03  0.47000000000E+01 0.  1.
<mgrwt>
<rscale>  0 0.10003801E+04</rscale>
<asrwt>0</asrwt>
<pdfrwt beam="1">  1        2 0.34784269E+00 0.10003801E+04</pdfrwt>
<pdfrwt beam="2">  1       -2 0.17023957E-01 0.10003801E+04</pdfrwt>
<totfact> 0.15620908E+02</totfact>
</mgrwt>
</event>
<event>
 9    1  0.4369420E-036  0.9981720E+03  0.7818608E-02  0.8682781E-01
          3   -1    0    0  501    0  0.00000000000E+00  0.00000000000E+00  0.88000041077E+03  0.88000041077E+03  0.00000000000E+00 0.  1.
         -3   -1    0    0    0  501 -0.00000000000E+00 -0.00000000000E+00 -0.28305308481E+03  0.28305308481E+03  0.00000000000E+00 0.  1.
         36    2    1    2    0    0  0.00000000000E+00  0.00000000000E+00  0.59694732597E+03  0.11630534956E+04  0.99817199099E+03 0.  0.
         25    2    3    3    0    0  0.11820642701E+03  0.65962976188E+02  0.76307842241E+02  0.19943562056E+03  0.12501122488E+03 0.  0.
         35    2    3    3    0    0 -0.11820642701E+03 -0.65962976188E+02  0.52063948373E+03  0.96361787502E+03  0.79948112137E+03 0.  0.
         22    1    5    5    0    0  0.24196209526E+03 -0.13952922219E+02  0.54747739140E+03  0.59872517375E+03  0.00000000000E+00 0. -1.
         22    1    5    5    0    0 -0.36016852228E+03 -0.52010053969E+02 -0.26837907677E+02  0.36489270127E+03  0.00000000000E+00 0. -1.
          5    1    4    4  502    0  0.94743664043E+02  0.32988475176E+02  0.10825040268E+03  0.14766462356E+03  0.47000000000E+01 0. -1.
         -5    1    4    4    0  502  0.23462762970E+02  0.32974501012E+02 -0.31942560436E+02  0.51770997000E+02  0.47000000000E+01 0. -1.
<mgrwt>
<rscale>  0 0.99817199E+03</rscale>
<asrwt>0</asrwt>
<pdfrwt beam="1">  1        3 0.13538468E+00 0.99817199E+03</pdfrwt>
<pdfrwt beam="2">  1       -3 0.43546629E-01 0.99817199E+03</pdfrwt>
<totfact> 0.92417420E+00</totfact>
</mgrwt>
</event>
<event>
 9    1  0.4369420E-036  0.9990064E+03  0.7818608E-02  0.8681985E-01
          2   -1    0    0  501    0  0.00000000000E+00  0.00000000000E+00  0.16256881931E+03  0.16256881931E+03  0.00000000000E+00 0.  1.
         -2   -1    0    0    0  501 -0.00000000000E+00 -0.00000000000E+00 -0.15347557160E+04  0.15347557160E+04  0.00000000000E+00 0.  1.
         36    2    1    2    0    0  0.00000000000E+00  0.56843418861E-13 -0.13721868967E+04  0.16973245353E+04  0.99900635569E+03 0.  0.
         25    2    3    3    0    0  0.10340546109E+03 -0.75926122807E+02 -0.35860657006E+03  0.40135982787E+03  0.12662374908E+03 0.  0.
         35    2    3    3    0    0 -0.10340546109E+03  0.75926122807E+02 -0.10135803266E+04  0.12959647074E+04  0.79732175367E+03 0.  0.
         22    1    5    5    0    0  0.72225570039E+02  0.36794518660E+03 -0.82566464096E+03  0.90681987883E+03  0.00000000000E+00 0. -1.
         22    1    5    5    0    0 -0.17563103113E+03 -0.29201906379E+03 -0.18791568568E+03  0.38914482861E+03  0.00000000000E+00 0. -1.
          5    1    4    4  502    0  0.42419861897E+02 -0.30697862824E+02 -0.23251646556E+02  0.57485063564E+02  0.47000000000E+01 0. -1.
         -5    1    4    4    0  502  0.60985599190E+02 -0.45228259983E+02 -0.33535492350E+03  0.34387476430E+03  0.47000000000E+01 0. -1.
<mgrwt>
<rscale>  0 0.99900636E+03</rscale>
<asrwt>0</asrwt>
<pdfrwt beam="1">  1        2 0.25010586E-01 0.99900636E+03</pdfrwt>
<pdfrwt beam="2">  1       -2 0.23611628E+00 0.99900636E+03</pdfrwt>
<totfact> 0.18426998E+01</totfact>
</mgrwt>
</event>
<event>
 9    1  0.4369420E-036  0.9992048E+03  0.7818608E-02  0.8681796E-01
         -1   -1    0    0    0  501 -0.00000000000E+00  0.00000000000E+00  0.51256968628E+03  0.51256968628E+03  0.00000000000E+00 0.  1.
          1   -1    0    0  501    0  0.00000000000E+00 -0.00000000000E+00 -0.48696321117E+03  0.48696321117E+03  0.00000000000E+00 0.  1.
         36    2    1    2    0    0  0.00000000000E+00 -0.14210854715E-13  0.25606475108E+02  0.99953289745E+03  0.99920484462E+03 0.  0.
         25    2    3    3    0    0  0.37836027333E+02  0.10723500250E+03 -0.73481647025E+02  0.18724094046E+03  0.12933950136E+03 0.  0.
         35    2    3    3    0    0 -0.37836027333E+02 -0.10723500250E+03  0.99088122133E+02  0.81229195699E+03  0.79816593307E+03 0.  0.
         22    1    5    5    0    0 -0.28854307715E+03  0.23903683658E+03  0.58482276758E+01  0.37473980091E+03  0.00000000000E+00 0. -1.
         22    1    5    5    0    0  0.25070704982E+03 -0.34627183908E+03  0.93239894457E+02  0.43755215608E+03  0.00000000000E+00 0. -1.
          5    1    4    4  502    0  0.70339617997E+02  0.93986270024E+02 -0.14409843650E+02  0.11836728605E+03  0.47000000000E+01 0. -1.
         -5    1    4    4    0  502 -0.32503590664E+02  0.13248732474E+02 -0.59071803374E+02  0.68873654412E+02  0.47000000000E+01 0. -1.
<mgrwt>
<rscale>  0 0.99920484E+03</rscale>
<asrwt>0</asrwt>
<pdfrwt beam="1">  1        1 0.74917418E-01 0.99920484E+03</pdfrwt>
<pdfrwt beam="2">  1       -1 0.78856874E-01 0.99920484E+03</pdfrwt>
<totfact> 0.87404414E+01</totfact>
</mgrwt>
</event>
<event>
 9    1  0.4369420E-036  0.9997423E+03  0.7818608E-02  0.8681283E-01
         -2   -1    0    0    0  501 -0.00000000000E+00  0.00000000000E+00  0.12683259051E+03  0.12683259051E+03  0.00000000000E+00 0.  1.
          2   -1    0    0  501    0  0.00000000000E+00 -0.00000000000E+00 -0.19700865400E+04  0.19700865400E+04  0.00000000000E+00 0.  1.
         36    2    1    2    0    0  0.28421709430E-13  0.14210854715E-13 -0.18432539495E+04  0.20969191305E+04  0.99974232560E+03 0.  0.
         25    2    3    3    0    0 -0.92989870532E+02  0.78330692697E+02 -0.49455959551E+03  0.52441416615E+03  0.12505283167E+03 0.  0.
         35    2    3    3    0    0  0.92989870532E+02 -0.78330692697E+02 -0.13486943540E+04  0.15725049643E+04  0.79938262993E+03 0.  0.
         22    1    5    5    0    0  0.28701609848E+03 -0.10871069567E+03 -0.12213543979E+03  0.33032305671E+03  0.00000000000E+00 0.  1.
         22    1    5    5    0    0 -0.19402622795E+03  0.30380002974E+02 -0.12265589142E+04  0.12421819076E+04  0.00000000000E+00 0.  1.
          5    1    4    4  502    0 -0.55545882947E+02  0.57756256317E+01 -0.37737378374E+03  0.38151247111E+03  0.47000000000E+01 0.  1.
         -5    1    4    4    0  502 -0.37443987585E+02  0.72555067065E+02 -0.11718581177E+03  0.14290169504E+03  0.47000000000E+01 0.  1.
<mgrwt>
<rscale>  0 0.99974233E+03</rscale>
<asrwt>0</asrwt>
<pdfrwt beam="1">  1        2 0.30309022E+00 0.99974233E+03</pdfrwt>
<pdfrwt beam="2">  1       -2 0.19512708E-01 0.99974233E+03</pdfrwt>
<totfact> 0.18192447E+02</totfact>
</mgrwt>
</event>
<event>
 9    1  0.4369420E-036  0.9971568E+03  0.7818608E-02  0.8683750E-01
          1   -1    0    0  501    0  0.00000000000E+00  0.00000000000E+00  0.38343009526E+04  0.38343009526E+04  0.00000000000E+00 0. -1.
         -1   -1    0    0    0  501 -0.00000000000E+00 -0.00000000000E+00 -0.64830706085E+02  0.64830706085E+02  0.00000000000E+00 0. -1.
         36    2    1    2    0    0  0.14210854715E-13 -0.14210854715E-13  0.37694702465E+04  0.38991316587E+04  0.99715683441E+03 0.  0.
         25    2    3    3    0    0 -0.91909507327E+02  0.10030943441E+03  0.69008068828E+03  0.71457466938E+03  0.12608037759E+03 0.  0.
         35    2    3    3    0    0  0.91909507327E+02 -0.10030943441E+03  0.30793895583E+04  0.31845569893E+04  0.80015862590E+03 0.  0.
         22    1    5    5    0    0  0.20411196818E+03 -0.10472876886E+03  0.20405706383E+03  0.30703272770E+03  0.00000000000E+00 0.  1.
         22    1    5    5    0    0 -0.11220246085E+03  0.44193344500E+01  0.28753324944E+04  0.28775242616E+04  0.00000000000E+00 0.  1.
          5    1    4    4  502    0 -0.81437763342E+02  0.10808003179E+03  0.68720478781E+03  0.70041838423E+03  0.47000000000E+01 0. -1.
         -5    1    4    4    0  502 -0.10471743985E+02 -0.77705973847E+01  0.28759004658E+01  0.14156285152E+02  0.47000000000E+01 0. -1.
<mgrwt>
<rscale>  0 0.99715683E+03</rscale>
<asrwt>0</asrwt>
<pdfrwt beam="1">  1        1 0.58989228E+00 0.99715683E+03</pdfrwt>
<pdfrwt beam="2">  1       -1 0.99739578E-02 0.99715683E+03</pdfrwt>
<totfact> 0.93303877E+00</totfact>
</mgrwt>
</event>
<event>
 9    1  0.4369420E-036  0.1000585E+04  0.7818608E-02  0.8680481E-01
         -2   -1    0    0    0  501 -0.00000000000E+00  0.00000000000E+00  0.10411294421E+03  0.10411294421E+03  0.00000000000E+00 0. -1.
          2   -1    0    0  501    0  0.00000000000E+00 -0.00000000000E+00 -0.24040494105E+04  0.24040494105E+04  0.00000000000E+00 0. -1.
         36    2    1    2    0    0  0.14210854715E-13  0.00000000000E+00 -0.22999364663E+04  0.25081623547E+04  0.10005851531E+04 0.  0.
         25    2    3    3    0    0  0.89949745869E+02 -0.62750014109E+02 -0.65306878202E+03  0.67405330653E+03  0.12577958875E+03 0.  0.
         35    2    3    3    0    0 -0.89949745869E+02  0.62750014109E+02 -0.16468676843E+04  0.18341090482E+04  0.79984642904E+03 0.  0.
         22    1    5    5    0    0 -0.42689640732E+03  0.16042154594E+03 -0.89967768084E+03  0.10086602720E+04  0.00000000000E+00 0. -1.
         22    1    5    5    0    0  0.33694666145E+03 -0.97671531833E+02 -0.74719000346E+03  0.82544877616E+03  0.00000000000E+00 0. -1.
          5    1    4    4  502    0  0.52703291373E+02 -0.69923675425E+02 -0.18830462305E+03  0.20772019249E+03  0.47000000000E+01 0. -1.
         -5    1    4    4    0  502  0.37246454496E+02  0.71736613163E+01 -0.46476415897E+03  0.46633311404E+03  0.47000000000E+01 0. -1.
<mgrwt>
<rscale>  0 0.10005852E+04</rscale>
<asrwt>0</asrwt>
<pdfrwt beam="1">  1        2 0.36985374E+00 0.10005852E+04</pdfrwt>
<pdfrwt beam="2">  1       -2 0.16017377E-01 0.10005852E+04</pdfrwt>
<totfact> 0.14248626E+02</totfact>
</mgrwt>
</event>
<event>
 9    1  0.4369420E-036  0.1000198E+04  0.7818608E-02  0.8680850E-01
          2   -1    0    0  501    0  0.00000000000E+00  0.00000000000E+00  0.20069585170E+04  0.20069585170E+04  0.00000000000E+00 0.  1.
         -2   -1    0    0    0  501 -0.00000000000E+00 -0.00000000000E+00 -0.12461588318E+03  0.12461588318E+03  0.00000000000E+00 0.  1.
         36    2    1    2    0    0  0.14210854715E-13 -0.14210854715E-13  0.18823426338E+04  0.21315744002E+04  0.10001977966E+04 0.  0.
         25    2    3    3    0    0 -0.27205788839E+02 -0.83269643521E+02  0.58765496705E+03  0.60719996022E+03  0.12521758230E+03 0.  0.
         35    2    3    3    0    0  0.27205788839E+02  0.83269643521E+02  0.12946876668E+04  0.15243744400E+04  0.79989204910E+03 0.  0.
         22    1    5    5    0    0 -0.12101355777E+03 -0.33673625317E+03  0.53136860744E+03  0.64061547151E+03  0.00000000000E+00 0.  1.
         22    1    5    5    0    0  0.14821934661E+03  0.42000589669E+03  0.76331905933E+03  0.88375896844E+03  0.00000000000E+00 0.  1.
          5    1    4    4  502    0  0.32791316668E+02  0.12603754934E+02  0.20911916030E+03  0.21210148111E+03  0.47000000000E+01 0.  1.
         -5    1    4    4    0  502 -0.59997105507E+02 -0.95873398455E+02  0.37853580675E+03  0.39509847911E+03  0.47000000000E+01 0.  1.
<mgrwt>
<rscale>  0 0.10001978E+04</rscale>
<asrwt>0</asrwt>
<pdfrwt beam="1">  1        2 0.30876283E+00 0.10001978E+04</pdfrwt>
<pdfrwt beam="2">  1       -2 0.19171676E-01 0.10001978E+04</pdfrwt>
<totfact> 0.17868978E+02</totfact>
</mgrwt>
</event>
<event>
 9    1  0.4369420E-036  0.9988323E+03  0.7818608E-02  0.8682151E-01
         -1   -1    0    0    0  501 -0.00000000000E+00  0.00000000000E+00  0.39771531324E+03  0.39771531324E+03  0.00000000000E+00 0.  1.
          1   -1    0    0  501    0  0.00000000000E+00 -0.00000000000E+00 -0.62712317580E+03  0.62712317580E+03  0.00000000000E+00 0.  1.
         36    2    1    2    0    0  0.71054273576E-14 -0.14210854715E-13 -0.22940786255E+03  0.10248384890E+04  0.99883229885E+03 0.  0.
         25    2    3    3    0    0  0.17277368965E+02  0.89151425328E+02 -0.15121600441E+03  0.21670787319E+03  0.12589494905E+03 0.  0.
         35    2    3    3    0    0 -0.17277368965E+02 -0.89151425328E+02 -0.78191858144E+02  0.80813061585E+03  0.79919624716E+03 0.  0.
         22    1    5    5    0    0 -0.86560188827E+02 -0.43851634692E+03 -0.65358016554E+02  0.45173102963E+03  0.00000000000E+00 0.  1.
         22    1    5    5    0    0  0.69282819863E+02  0.34936492159E+03 -0.12833841589E+02  0.35639958622E+03  0.00000000000E+00 0.  1.
          5    1    4    4  502    0 -0.50297269852E+02  0.65988096419E+02 -0.72227870737E+02  0.11010540193E+03  0.47000000000E+01 0. -1.
         -5    1    4    4    0  502  0.67574638817E+02  0.23163328910E+02 -0.78988133673E+02  0.10660247126E+03  0.47000000000E+01 0. -1.
<mgrwt>
<rscale>  0 0.99883230E+03</rscale>
<asrwt>0</asrwt>
<pdfrwt beam="1">  1        1 0.96480489E-01 0.99883230E+03</pdfrwt>
<pdfrwt beam="2">  1       -1 0.61186971E-01 0.99883230E+03</pdfrwt>
<totfact> 0.10087097E+02</totfact>
</mgrwt>
</event>
<event>
 9    1  0.4369420E-036  0.1000870E+04  0.7818608E-02  0.8680210E-01
          2   -1    0    0  501    0  0.00000000000E+00  0.00000000000E+00  0.26527678941E+03  0.26527678941E+03  0.00000000000E+00 0. -1.
         -2   -1    0    0    0  501 -0.00000000000E+00 -0.00000000000E+00 -0.94405238799E+03  0.94405238799E+03  0.00000000000E+00 0. -1.
         36    2    1    2    0    0  0.14210854715E-13  0.00000000000E+00 -0.67877559859E+03  0.12093291774E+04  0.10008699946E+04 0.  0.
         25    2    3    3    0    0 -0.75062961768E+02  0.11525504587E+03 -0.94257101243E+02  0.20834448877E+03  0.12491937816E+03 0.  0.
         35    2    3    3    0    0  0.75062961768E+02 -0.11525504587E+03 -0.58451849734E+03  0.10009846886E+04  0.80086846567E+03 0.  0.
         22    1    5    5    0    0 -0.79722196642E+02  0.24725928671E+03  0.39617531821E+02  0.26279713150E+03  0.00000000000E+00 0. -1.
         22    1    5    5    0    0  0.15478515841E+03 -0.36251433258E+03 -0.62413602917E+03  0.73818755712E+03  0.00000000000E+00 0. -1.
          5    1    4    4  502    0 -0.53281743264E+02  0.12756172442E+03 -0.33282824758E+02  0.14227007459E+03  0.47000000000E+01 0. -1.
         -5    1    4    4    0  502 -0.21781218503E+02 -0.12306678544E+02 -0.60974276485E+02  0.66074414180E+02  0.47000000000E+01 0. -1.
<mgrwt>
<rscale>  0 0.10008700E+04</rscale>
<asrwt>0</asrwt>
<pdfrwt beam="1">  1        2 0.40811813E-01 0.10008700E+04</pdfrwt>
<pdfrwt beam="2">  1       -2 0.14523883E+00 0.10008700E+04</pdfrwt>
<totfact> 0.46729551E+01</totfact>
</mgrwt>
</event>
<event>
 9    1  0.4369420E-036  0.9999590E+03  0.7818608E-02  0.8681077E-01
         -1   -1    0    0    0  501 -0.00000000000E+00  0.00000000000E+00  0.29330480221E+03  0.29330480221E+03  0.00000000000E+00 0. -1.
          1   -1    0    0  501    0  0.00000000000E+00 -0.00000000000E+00 -0.85228578461E+03  0.85228578461E+03  0.00000000000E+00 0. -1.
         36    2    1    2    0    0  0.00000000000E+00 -0.14210854715E-13 -0.55898098240E+03  0.11455905868E+04  0.99995902612E+03 0.  0.
         25    2    3    3    0    0  0.69477738960E+02  0.11868706705E+03 -0.12996964578E+03  0.22702906126E+03  0.12544444881E+03 0.  0.
         35    2    3    3    0    0 -0.69477738960E+02 -0.11868706705E+03 -0.42901133662E+03  0.91856152556E+03  0.80049408067E+03 0.  0.
         22    1    5    5    0    0 -0.66339570764E+02  0.83687229844E+02  0.21685510185E+03  0.24172427740E+03  0.00000000000E+00 0.  1.
         22    1    5    5    0    0 -0.31381681959E+01 -0.20237429689E+03 -0.64586643847E+03  0.67683724815E+03  0.00000000000E+00 0.  1.
          5    1    4    4  502    0  0.30094318466E+02 -0.19150152350E+02 -0.53540232511E+02  0.64506145725E+02  0.47000000000E+01 0.  1.
         -5    1    4    4    0  502  0.39383420494E+02  0.13783721940E+03 -0.76429413267E+02  0.16252291553E+03  0.47000000000E+01 0.  1.
<mgrwt>
<rscale>  0 0.99995903E+03</rscale>
<asrwt>0</asrwt>
<pdfrwt beam="1">  1        1 0.13112089E+00 0.99995903E+03</pdfrwt>
<pdfrwt beam="2">  1       -1 0.45123815E-01 0.99995903E+03</pdfrwt>
<totfact> 0.11009884E+02</totfact>
</mgrwt>
</event>
<event>
 9    1  0.4369420E-036  0.9995128E+03  0.7818608E-02  0.8681502E-01
          1   -1    0    0  501    0  0.00000000000E+00  0.00000000000E+00  0.22468529997E+04  0.22468529997E+04  0.00000000000E+00 0. -1.
         -1   -1    0    0    0  501 -0.00000000000E+00 -0.00000000000E+00 -0.11115833937E+03  0.11115833937E+03  0.00000000000E+00 0. -1.
         36    2    1    2    0    0  0.28421709430E-13 -0.28421709430E-13  0.21356946603E+04  0.23580113391E+04  0.99951277781E+03 0.  0.
         25    2    3    3    0    0 -0.11733052241E+03 -0.50111272225E+02  0.54118499671E+03  0.56997450585E+03  0.12534809760E+03 0.  0.
         35    2    3    3    0    0  0.11733052241E+03  0.50111272225E+02  0.15945096636E+04  0.17880368332E+04  0.79895998551E+03 0.  0.
         22    1    5    5    0    0  0.22023135940E+03  0.38414044909E+03  0.70738890692E+03  0.83454466742E+03  0.00000000000E+00 0. -1.
         22    1    5    5    0    0 -0.10290083699E+03 -0.33402917686E+03  0.88712075671E+03  0.95349216580E+03  0.00000000000E+00 0. -1.
          5    1    4    4  502    0 -0.11510132941E+03 -0.13792231640E+02  0.24009737650E+03  0.26665967429E+03  0.47000000000E+01 0. -1.
         -5    1    4    4    0  502 -0.22291929952E+01 -0.36319040586E+02  0.30108762020E+03  0.30331483157E+03  0.47000000000E+01 0. -1.
<mgrwt>
<rscale>  0 0.99951278E+03</rscale>
<asrwt>0</asrwt>
<pdfrwt beam="1">  1        1 0.34566966E+00 0.99951278E+03</pdfrwt>
<pdfrwt beam="2">  1       -1 0.17101285E-01 0.99951278E+03</pdfrwt>
<totfact> 0.55280602E+01</totfact>
</mgrwt>
</event>
<event>
 9    1  0.4369420E-036  0.1000848E+04  0.7818608E-02  0.8680231E-01
         -2   -1    0    0    0  501 -0.00000000000E+00  0.00000000000E+00  0.24103884479E+03  0.24103884479E+03  0.00000000000E+00 0. -1.
          2   -1    0    0  501    0  0.00000000000E+00 -0.00000000000E+00 -0.10389367891E+04  0.10389367891E+04  0.00000000000E+00 0. -1.
         36    2    1    2    0    0  0.71054273576E-14  0.56843418861E-13 -0.79789794429E+03  0.12799756339E+04  0.10008478875E+04 0.  0.
         25    2    3    3    0    0 -0.51328739216E+02 -0.13214723961E+03 -0.14899055979E+03  0.23967828195E+03  0.12308517184E+03 0.  0.
         35    2    3    3    0    0  0.51328739216E+02  0.13214723961E+03 -0.64890738450E+03  0.10402973519E+04  0.80064989500E+03 0.  0.
         22    1    5    5    0    0 -0.73354702729E+00  0.15044941762E+03  0.16570591836E+03  0.22381692683E+03  0.00000000000E+00 0.  1.
         22    1    5    5    0    0  0.52062286244E+02 -0.18302178011E+02 -0.81461330286E+03  0.81648042510E+03  0.00000000000E+00 0.  1.
          5    1    4    4  502    0  0.90934820213E+01  0.16977114982E+02 -0.41864620327E+02  0.46321164531E+02  0.47000000000E+01 0.  1.
         -5    1    4    4    0  502 -0.60422221238E+02 -0.14912435459E+03 -0.10712593947E+03  0.19335711742E+03  0.47000000000E+01 0.  1.
<mgrwt>
<rscale>  0 0.10008479E+04</rscale>
<asrwt>0</asrwt>
<pdfrwt beam="1">  1        2 0.15983643E+00 0.10008479E+04</pdfrwt>
<pdfrwt beam="2">  1       -2 0.37082899E-01 0.10008479E+04</pdfrwt>
<totfact> 0.19697476E+02</totfact>
</mgrwt>
</event>
<event>
 9    1  0.4369420E-036  0.1000366E+04  0.7818608E-02  0.8680690E-01
         -2   -1    0    0    0  501 -0.00000000000E+00  0.00000000000E+00  0.10758743307E+03  0.10758743307E+03  0.00000000000E+00 0. -1.
          2   -1    0    0  501    0  0.00000000000E+00 -0.00000000000E+00 -0.23253904175E+04  0.23253904175E+04  0.00000000000E+00 0. -1.
         36    2    1    2    0    0 -0.28421709430E-13 -0.35527136788E-14 -0.22178029844E+04  0.24329778506E+04  0.10003655050E+04 0.  0.
         25    2    3    3    0    0 -0.12429637788E+03 -0.11091951843E+02 -0.57715253608E+03  0.60358553707E+03  0.12505130827E+03 0.  0.
         35    2    3    3    0    0  0.12429637788E+03  0.11091951843E+02 -0.16406504483E+04  0.18293923135E+04  0.79960597927E+03 0.  0.
         22    1    5    5    0    0  0.42948739333E+03  0.14962370112E+02 -0.55661910455E+03  0.70321271398E+03  0.00000000000E+00 0. -1.
         22    1    5    5    0    0 -0.30519101545E+03 -0.38704182696E+01 -0.10840313438E+04  0.11261795995E+04  0.00000000000E+00 0. -1.
          5    1    4    4  502    0 -0.35292847157E+02 -0.58239418678E+02 -0.15173253203E+03  0.16637988528E+03  0.47000000000E+01 0. -1.
         -5    1    4    4    0  502 -0.89003530725E+02  0.47147466835E+02 -0.42542000405E+03  0.43720565179E+03  0.47000000000E+01 0. -1.
<mgrwt>
<rscale>  0 0.10003655E+04</rscale>
<asrwt>0</asrwt>
<pdfrwt beam="1">  1        2 0.35775234E+00 0.10003655E+04</pdfrwt>
<pdfrwt beam="2">  1       -2 0.16551914E-01 0.10003655E+04</pdfrwt>
<totfact> 0.15013897E+02</totfact>
</mgrwt>
</event>
<event>
 9    1  0.4369420E-036  0.1001470E+04  0.7818608E-02  0.8679639E-01
          2   -1    0    0  501    0  0.00000000000E+00  0.00000000000E+00  0.38813887291E+03  0.38813887291E+03  0.00000000000E+00 0. -1.
         -2   -1    0    0    0  501 -0.00000000000E+00 -0.00000000000E+00 -0.64599425386E+03  0.64599425386E+03  0.00000000000E+00 0. -1.
         36    2    1    2    0    0  0.00000000000E+00  0.00000000000E+00 -0.25785538096E+03  0.10341331268E+04  0.10014698829E+04 0.  0.
         25    2    3    3    0    0 -0.10498612703E+03  0.66666832096E+02 -0.12099132273E+03  0.21402251353E+03  0.12530037012E+03 0.  0.
         35    2    3    3    0    0  0.10498612703E+03 -0.66666832096E+02 -0.13686405822E+03  0.82011061324E+03  0.79898879476E+03 0.  0.
         22    1    5    5    0    0  0.20525152953E+03 -0.23572769729E+03 -0.38988978611E+03  0.49970969868E+03  0.00000000000E+00 0. -1.
         22    1    5    5    0    0 -0.10026540250E+03  0.16906086520E+03  0.25302572788E+03  0.32040091456E+03  0.00000000000E+00 0. -1.
          5    1    4    4  502    0 -0.58643963529E+02  0.20744519727E+02 -0.13356454554E+03  0.14741447481E+03  0.47000000000E+01 0.  1.
         -5    1    4    4    0  502 -0.46342163500E+02  0.45922312368E+02  0.12573222808E+02  0.66608038726E+02  0.47000000000E+01 0.  1.
<mgrwt>
<rscale>  0 0.10014699E+04</rscale>
<asrwt>0</asrwt>
<pdfrwt beam="1">  1        2 0.59713674E-01 0.10014699E+04</pdfrwt>
<pdfrwt beam="2">  1       -2 0.99383730E-01 0.10014699E+04</pdfrwt>
<totfact> 0.81945606E+01</totfact>
</mgrwt>
</event>
<event>
 9    1  0.4369420E-036  0.1000154E+04  0.7818608E-02  0.8680892E-01
          2   -1    0    0  501    0  0.00000000000E+00  0.00000000000E+00  0.79030303524E+03  0.79030303524E+03  0.00000000000E+00 0.  1.
         -2   -1    0    0    0  501 -0.00000000000E+00 -0.00000000000E+00 -0.31643150557E+03  0.31643150557E+03  0.00000000000E+00 0.  1.
         36    2    1    2    0    0  0.28421709430E-13 -0.14210854715E-13  0.47387152967E+03  0.11067345408E+04  0.10001535468E+04 0.  0.
         25    2    3    3    0    0  0.46470274047E+02 -0.56225720981E+02  0.22234527202E+03  0.26517302480E+03  0.12473369641E+03 0.  0.
         35    2    3    3    0    0 -0.46470274047E+02  0.56225720981E+02  0.25152625765E+03  0.84156151601E+03  0.79977466131E+03 0.  0.
         22    1    5    5    0    0 -0.35928025432E+03  0.24618805446E+03  0.11029675758E+03  0.44928413508E+03  0.00000000000E+00 0.  1.
         22    1    5    5    0    0  0.31280998027E+03 -0.18996233348E+03  0.14122950007E+03  0.39227738093E+03  0.00000000000E+00 0.  1.
          5    1    4    4  502    0  0.56187713808E+02  0.23573651343E+02  0.12252993680E+03  0.13692498542E+03  0.47000000000E+01 0.  1.
         -5    1    4    4    0  502 -0.97174397608E+01 -0.79799372323E+02  0.99815335225E+02  0.12824803938E+03  0.47000000000E+01 0.  1.
<mgrwt>
<rscale>  0 0.10001535E+04</rscale>
<asrwt>0</asrwt>
<pdfrwt beam="1">  1        2 0.12158508E+00 0.10001535E+04</pdfrwt>
<pdfrwt beam="2">  1       -2 0.48681770E-01 0.10001535E+04</pdfrwt>
<totfact> 0.16932590E+02</totfact>
</mgrwt>
</event>
<event>
 9    1  0.4369420E-036  0.9996831E+03  0.7818608E-02  0.8681340E-01
          2   -1    0    0  501    0  0.00000000000E+00  0.00000000000E+00  0.35178127825E+04  0.35178127825E+04  0.00000000000E+00 0.  1.
         -2   -1    0    0    0  501 -0.00000000000E+00 -0.00000000000E+00 -0.71021857642E+02  0.71021857642E+02  0.00000000000E+00 0.  1.
         36    2    1    2    0    0 -0.12434497876E-13 -0.14210854715E-13  0.34467909248E+04  0.35888346401E+04  0.99968314710E+03 0.  0.
         25    2    3    3    0    0 -0.30954800016E+01 -0.79830226932E+02  0.25292122525E+03  0.29326218938E+03  0.12510443002E+03 0.  0.
         35    2    3    3    0    0  0.30954800016E+01  0.79830226932E+02  0.31938696996E+04  0.32955724507E+04  0.80846253656E+03 0.  0.
         22    1    5    5    0    0 -0.12929667912E+03  0.85097480305E+02  0.31531679244E+04  0.31569648670E+04  0.00000000000E+00 0. -1.
         22    1    5    5    0    0  0.13239215912E+03 -0.52672533731E+01  0.40701775208E+02  0.13860758370E+03  0.00000000000E+00 0. -1.
          5    1    4    4  502    0 -0.13594950063E+02  0.12633520169E+02  0.16182440102E+03  0.16295292347E+03  0.47000000000E+01 0. -1.
         -5    1    4    4    0  502  0.10499470061E+02 -0.92463747101E+02  0.91096824231E+02  0.13030926592E+03  0.47000000000E+01 0. -1.
<mgrwt>
<rscale>  0 0.99968315E+03</rscale>
<asrwt>0</asrwt>
<pdfrwt beam="1">  1        2 0.54120183E+00 0.99968315E+03</pdfrwt>
<pdfrwt beam="2">  1       -2 0.10926442E-01 0.99968315E+03</pdfrwt>
<totfact> 0.48427255E+01</totfact>
</mgrwt>
</event>
<event>
 9    1  0.4369420E-036  0.9997264E+03  0.7818608E-02  0.8681299E-01
         -1   -1    0    0    0  501 -0.00000000000E+00  0.00000000000E+00  0.34773611611E+03  0.34773611611E+03  0.00000000000E+00 0.  1.
          1   -1    0    0  501    0  0.00000000000E+00 -0.00000000000E+00 -0.71854257315E+03  0.71854257315E+03  0.00000000000E+00 0.  1.
         36    2    1    2    0    0 -0.21316282073E-13 -0.28421709430E-13 -0.37080645704E+03  0.10662786893E+04  0.99972636986E+03 0.  0.
         25    2    3    3    0    0 -0.50360194454E+02 -0.63580344952E+02  0.51668138880E+02  0.15808398811E+03  0.12546848717E+03 0.  0.
         35    2    3    3    0    0  0.50360194454E+02  0.63580344952E+02 -0.42247459592E+03  0.90819470115E+03  0.79984637372E+03 0.  0.
         22    1    5    5    0    0 -0.18062734245E+03 -0.13257770482E+03 -0.53885003842E+03  0.58357728585E+03  0.00000000000E+00 0. -1.
         22    1    5    5    0    0  0.23098753690E+03  0.19615804977E+03  0.11637544251E+03  0.32461741530E+03  0.00000000000E+00 0. -1.
          5    1    4    4  502    0  0.38758750397E+01 -0.12218225088E+02 -0.38529953860E+02  0.40877313710E+02  0.47000000000E+01 0. -1.
         -5    1    4    4    0  502 -0.54236069493E+02 -0.51362119863E+02  0.90198092740E+02  0.11720667440E+03  0.47000000000E+01 0. -1.
<mgrwt>
<rscale>  0 0.99972637E+03</rscale>
<asrwt>0</asrwt>
<pdfrwt beam="1">  1        1 0.11054501E+00 0.99972637E+03</pdfrwt>
<pdfrwt beam="2">  1       -1 0.53497865E-01 0.99972637E+03</pdfrwt>
<totfact> 0.10593387E+02</totfact>
</mgrwt>
</event>
<event>
 9    1  0.4369420E-036  0.9999684E+03  0.7818608E-02  0.8681068E-01
          2   -1    0    0  501    0  0.00000000000E+00  0.00000000000E+00  0.23875739321E+04  0.23875739321E+04  0.00000000000E+00 0.  1.
         -2   -1    0    0    0  501 -0.00000000000E+00 -0.00000000000E+00 -0.10470218496E+03  0.10470218496E+03  0.00000000000E+00 0.  1.
         36    2    1    2    0    0  0.28421709430E-13  0.14210854715E-13  0.22828717471E+04  0.24922761171E+04  0.99996841437E+03 0.  0.
         25    2    3    3    0    0 -0.13408289455E+03 -0.36606417714E+02  0.47364750391E+03  0.50912142030E+03  0.12467722417E+03 0.  0.
         35    2    3    3    0    0  0.13408289455E+03  0.36606417714E+02  0.18092242432E+04  0.19831546967E+04  0.80018243951E+03 0.  0.
         22    1    5    5    0    0  0.10862280031E+03  0.41695021736E+03  0.94425595276E+03  0.10379141105E+04  0.00000000000E+00 0. -1.
         22    1    5    5    0    0  0.25460094237E+02 -0.38034379964E+03  0.86496829047E+03  0.94524058622E+03  0.00000000000E+00 0. -1.
          5    1    4    4  502    0  0.13759096379E+02  0.16876408657E+02  0.12033267154E+03  0.12237715368E+03  0.47000000000E+01 0. -1.
         -5    1    4    4    0  502 -0.14784199093E+03 -0.53482826371E+02  0.35331483237E+03  0.38674426663E+03  0.47000000000E+01 0. -1.
<mgrwt>
<rscale>  0 0.99996841E+03</rscale>
<asrwt>0</asrwt>
<pdfrwt beam="1">  1        2 0.36731903E+00 0.99996841E+03</pdfrwt>
<pdfrwt beam="2">  1       -2 0.16108030E-01 0.99996841E+03</pdfrwt>
<totfact> 0.14437638E+02</totfact>
</mgrwt>
</event>
<event>
 9    1  0.4369420E-036  0.9993900E+03  0.7818608E-02  0.8681619E-01
         -2   -1    0    0    0  501 -0.00000000000E+00  0.00000000000E+00  0.42512702383E+03  0.42512702383E+03  0.00000000000E+00 0. -1.
          2   -1    0    0  501    0  0.00000000000E+00 -0.00000000000E+00 -0.58734234647E+03  0.58734234647E+03  0.00000000000E+00 0. -1.
         36    2    1    2    0    0  0.35527136788E-14  0.00000000000E+00 -0.16221532264E+03  0.10124693703E+04  0.99939002141E+03 0.  0.
         25    2    3    3    0    0 -0.30374695205E+02 -0.94745016714E+02  0.67088874288E+02  0.17280316433E+03  0.12434136982E+03 0.  0.
         35    2    3    3    0    0  0.30374695205E+02  0.94745016714E+02 -0.22930419693E+03  0.83966620596E+03  0.80159820509E+03 0.  0.
         22    1    5    5    0    0 -0.72984080699E+02 -0.15776493359E+03  0.24028277769E+03  0.29656746882E+03  0.00000000000E+00 0.  1.
         22    1    5    5    0    0  0.10335877590E+03  0.25250995030E+03 -0.46958697462E+03  0.54309873715E+03  0.00000000000E+00 0.  1.
          5    1    4    4  502    0 -0.16299394717E+02  0.17851654726E+01  0.72994214459E+02  0.74960672545E+02  0.47000000000E+01 0.  1.
         -5    1    4    4    0  502 -0.14075300488E+02 -0.96530182186E+02 -0.59053401705E+01  0.97842491788E+02  0.47000000000E+01 0.  1.
<mgrwt>
<rscale>  0 0.99939002E+03</rscale>
<asrwt>0</asrwt>
<pdfrwt beam="1">  1        2 0.90360361E-01 0.99939002E+03</pdfrwt>
<pdfrwt beam="2">  1       -2 0.65404158E-01 0.99939002E+03</pdfrwt>
<totfact> 0.13263909E+02</totfact>
</mgrwt>
</event>
<event>
 9    1  0.4369420E-036  0.9988155E+03  0.7818608E-02  0.8682167E-01
          2   -1    0    0  501    0  0.00000000000E+00  0.00000000000E+00  0.44413864749E+04  0.44413864749E+04  0.00000000000E+00 0.  1.
         -2   -1    0    0    0  501 -0.00000000000E+00 -0.00000000000E+00 -0.56155455809E+02  0.56155455809E+02  0.00000000000E+00 0.  1.
         36    2    1    2    0    0  0.10658141036E-13 -0.28421709430E-13  0.43852310191E+04  0.44975419307E+04  0.99881546228E+03 0.  0.
         25    2    3    3    0    0 -0.11243620383E+02  0.13795123023E+03  0.81705164305E+03  0.83815680598E+03  0.12560447076E+03 0.  0.
         35    2    3    3    0    0  0.11243620383E+02 -0.13795123023E+03  0.35681793760E+04  0.36593851247E+04  0.80002404375E+03 0.  0.
         22    1    5    5    0    0  0.91658236476E+02  0.25037434156E+03  0.25927736565E+04  0.26064465805E+04  0.00000000000E+00 0. -1.
         22    1    5    5    0    0 -0.80414616093E+02 -0.38832557178E+03  0.97540571950E+03  0.10529385442E+04  0.00000000000E+00 0. -1.
          5    1    4    4  502    0  0.13528316193E+02  0.15547282795E+03  0.69105863849E+03  0.70847649742E+03  0.47000000000E+01 0.  1.
         -5    1    4    4    0  502 -0.24771936577E+02 -0.17521597724E+02  0.12599300456E+03  0.12968030856E+03  0.47000000000E+01 0.  1.
<mgrwt>
<rscale>  0 0.99881546E+03</rscale>
<asrwt>0</asrwt>
<pdfrwt beam="1">  1        2 0.68328995E+00 0.99881546E+03</pdfrwt>
<pdfrwt beam="2">  1       -2 0.86393044E-02 0.99881546E+03</pdfrwt>
<totfact> 0.11075254E+01</totfact>
</mgrwt>
</event>
<event>
 9    1  0.4369420E-036  0.9999675E+03  0.7818608E-02  0.8681069E-01
          2   -1    0    0  501    0  0.00000000000E+00  0.00000000000E+00  0.55837493089E+03  0.55837493089E+03  0.00000000000E+00 0.  1.
         -2   -1    0    0    0  501 -0.00000000000E+00 -0.00000000000E+00 -0.44769872025E+03  0.44769872025E+03  0.00000000000E+00 0.  1.
         36    2    1    2    0    0  0.28421709430E-13  0.28421709430E-13  0.11067621064E+03  0.10060736511E+04  0.99996748342E+03 0.  0.
         25    2    3    3    0    0  0.88603407882E+02  0.10775327395E+03  0.30531086790E+02  0.18941798672E+03  0.12444153043E+03 0.  0.
         35    2    3    3    0    0 -0.88603407882E+02 -0.10775327395E+03  0.80145123849E+02  0.81665566442E+03  0.80065092357E+03 0.  0.
         22    1    5    5    0    0 -0.29879894563E+02 -0.22480197369E+03 -0.32193349965E+03  0.39378917414E+03  0.00000000000E+00 0.  1.
         22    1    5    5    0    0 -0.58723513320E+02  0.11704869974E+03  0.40207862350E+03  0.42286649028E+03  0.00000000000E+00 0.  1.
          5    1    4    4  502    0  0.10258816094E+03  0.44091021608E+02 -0.10503852134E+02  0.11225315079E+03  0.47000000000E+01 0.  1.
         -5    1    4    4    0  502 -0.13984753059E+02  0.63662252345E+02  0.41034938923E+02  0.77164835930E+02  0.47000000000E+01 0.  1.
<mgrwt>
<rscale>  0 0.99996748E+03</rscale>
<asrwt>0</asrwt>
<pdfrwt beam="1">  1        2 0.85903835E-01 0.99996748E+03</pdfrwt>
<pdfrwt beam="2">  1       -2 0.68876726E-01 0.99996748E+03</pdfrwt>
<totfact> 0.12595682E+02</totfact>
</mgrwt>
</event>
<event>
 9    1  0.4369420E-036  0.9992464E+03  0.7818608E-02  0.8681756E-01
         -2   -1    0    0    0  501 -0.00000000000E+00  0.00000000000E+00  0.89260711619E+03  0.89260711619E+03  0.00000000000E+00 0. -1.
          2   -1    0    0  501    0  0.00000000000E+00 -0.00000000000E+00 -0.27965645116E+03  0.27965645116E+03  0.00000000000E+00 0. -1.
         36    2    1    2    0    0  0.00000000000E+00 -0.28421709430E-13  0.61295066503E+03  0.11722635674E+04  0.99924639283E+03 0.  0.
         25    2    3    3    0    0  0.93940222621E+02 -0.40226706216E+02  0.22989897130E+03  0.28086792072E+03  0.12486111712E+03 0.  0.
         35    2    3    3    0    0 -0.93940222621E+02  0.40226706216E+02  0.38305169373E+03  0.89139564663E+03  0.79838251824E+03 0.  0.
         22    1    5    5    0    0  0.13548908551E+03  0.29441201813E+03 -0.61891506021E+02  0.32994891609E+03  0.00000000000E+00 0. -1.
         22    1    5    5    0    0 -0.22942930813E+03 -0.25418531192E+03  0.44494319975E+03  0.56144673054E+03  0.00000000000E+00 0. -1.
          5    1    4    4  502    0  0.55533181492E+02 -0.15553841537E+01  0.21782382276E+03  0.22484586105E+03  0.47000000000E+01 0.  1.
         -5    1    4    4    0  502  0.38407041130E+02 -0.38671322063E+02  0.12075148535E+02  0.56022059678E+02  0.47000000000E+01 0.  1.
<mgrwt>
<rscale>  0 0.99924639E+03</rscale>
<asrwt>0</asrwt>
<pdfrwt beam="1">  1        2 0.43024070E-01 0.99924639E+03</pdfrwt>
<pdfrwt beam="2">  1       -2 0.13732417E+00 0.99924639E+03</pdfrwt>
<totfact> 0.51373885E+01</totfact>
</mgrwt>
</event>
<event>
 9    1  0.4369420E-036  0.1000239E+04  0.7818608E-02  0.8680811E-01
         -1   -1    0    0    0  501 -0.00000000000E+00  0.00000000000E+00  0.44831362985E+03  0.44831362985E+03  0.00000000000E+00 0.  1.
          1   -1    0    0  501    0  0.00000000000E+00 -0.00000000000E+00 -0.55791157212E+03  0.55791157212E+03  0.00000000000E+00 0.  1.
         36    2    1    2    0    0  0.14210854715E-13  0.14210854715E-13 -0.10959794227E+03  0.10062252020E+04  0.10002386956E+04 0.  0.
         25    2    3    3    0    0 -0.10422727496E+03 -0.90054797241E+02  0.98485609088E+01  0.18643290015E+03  0.12524791717E+03 0.  0.
         35    2    3    3    0    0  0.10422727496E+03  0.90054797241E+02 -0.11944650318E+03  0.81979230181E+03  0.79926138380E+03 0.  0.
         22    1    5    5    0    0 -0.96829007745E+02  0.37258070754E+03 -0.23886361226E+03  0.45304311675E+03  0.00000000000E+00 0.  1.
         22    1    5    5    0    0  0.20105628270E+03 -0.28252591030E+03  0.11941710908E+03  0.36674918506E+03  0.00000000000E+00 0.  1.
          5    1    4    4  502    0 -0.11231103325E+03 -0.11411796221E+03  0.56948876901E+01  0.16028474424E+03  0.47000000000E+01 0. -1.
         -5    1    4    4    0  502  0.80837582923E+01  0.24063164973E+02  0.41536732187E+01  0.26148155917E+02  0.47000000000E+01 0. -1.
<mgrwt>
<rscale>  0 0.10002387E+04</rscale>
<asrwt>0</asrwt>
<pdfrwt beam="1">  1        1 0.85832550E-01 0.10002387E+04</pdfrwt>
<pdfrwt beam="2">  1       -1 0.68971328E-01 0.10002387E+04</pdfrwt>
<totfact> 0.94659146E+01</totfact>
</mgrwt>
</event>
<event>
 9    1  0.4369420E-036  0.1000501E+04  0.7818608E-02  0.8680561E-01
         -2   -1    0    0    0  501 -0.00000000000E+00  0.00000000000E+00  0.10379219356E+03  0.10379219356E+03  0.00000000000E+00 0. -1.
          2   -1    0    0  501    0  0.00000000000E+00 -0.00000000000E+00 -0.24110749997E+04  0.24110749997E+04  0.00000000000E+00 0. -1.
         36    2    1    2    0    0  0.71054273576E-14  0.21316282073E-13 -0.23072828061E+04  0.25148671932E+04  0.10005014004E+04 0.  0.
         25    2    3    3    0    0  0.44508266362E+02 -0.46960124902E+02 -0.12142397319E+03  0.18620722809E+03  0.12547155623E+03 0.  0.
         35    2    3    3    0    0 -0.44508266362E+02  0.46960124902E+02 -0.21858588329E+04  0.23286599651E+04  0.80030753880E+03 0.  0.
         22    1    5    5    0    0 -0.80770494232E+02 -0.33459913926E+03 -0.15368597761E+04  0.15749344203E+04  0.00000000000E+00 0.  1.
         22    1    5    5    0    0  0.36262227870E+02  0.38155926417E+03 -0.64899905683E+03  0.75372554488E+03  0.00000000000E+00 0.  1.
          5    1    4    4  502    0 -0.41810139709E+02 -0.10028066957E+02 -0.19173783059E+02  0.47311455972E+02  0.47000000000E+01 0.  1.
         -5    1    4    4    0  502  0.86318406071E+02 -0.36932057945E+02 -0.10225019013E+03  0.13889577212E+03  0.47000000000E+01 0.  1.
<mgrwt>
<rscale>  0 0.10005014E+04</rscale>
<asrwt>0</asrwt>
<pdfrwt beam="1">  1        2 0.37093466E+00 0.10005014E+04</pdfrwt>
<pdfrwt beam="2">  1       -2 0.15968028E-01 0.10005014E+04</pdfrwt>
<totfact> 0.14184841E+02</totfact>
</mgrwt>
</event>
<event>
 9    1  0.4369420E-036  0.1000784E+04  0.7818608E-02  0.8680291E-01
          2   -1    0    0  501    0  0.00000000000E+00  0.00000000000E+00  0.95057835830E+03  0.95057835830E+03  0.00000000000E+00 0.  1.
         -2   -1    0    0    0  501 -0.00000000000E+00 -0.00000000000E+00 -0.26341054171E+03  0.26341054171E+03  0.00000000000E+00 0.  1.
         36    2    1    2    0    0 -0.42632564146E-13 -0.71054273576E-14  0.68716781659E+03  0.12139889000E+04  0.10007844129E+04 0.  0.
         25    2    3    3    0    0 -0.67241457421E+02  0.63974339424E+02  0.25781290101E+03  0.30127051788E+03  0.12522900348E+03 0.  0.
         35    2    3    3    0    0  0.67241457421E+02 -0.63974339424E+02  0.42935491559E+03  0.91271838214E+03  0.80005941770E+03 0.  0.
         22    1    5    5    0    0  0.40472777905E+03 -0.93142871142E+02  0.74133236793E+02  0.42187190755E+03  0.00000000000E+00 0. -1.
         22    1    5    5    0    0 -0.33748632163E+03  0.29168531718E+02  0.35522167879E+03  0.49084647459E+03  0.00000000000E+00 0. -1.
          5    1    4    4  502    0 -0.28286174950E+02  0.88486338641E+02  0.22796886167E+03  0.24621501114E+03  0.47000000000E+01 0.  1.
         -5    1    4    4    0  502 -0.38955282470E+02 -0.24511999217E+02  0.29844039341E+02  0.55055506738E+02  0.47000000000E+01 0.  1.
<mgrwt>
<rscale>  0 0.10007844E+04</rscale>
<asrwt>0</asrwt>
<pdfrwt beam="1">  1        2 0.14624282E+00 0.10007844E+04</pdfrwt>
<pdfrwt beam="2">  1       -2 0.40524699E-01 0.10007844E+04</pdfrwt>
<totfact> 0.18911744E+02</totfact>
</mgrwt>
</event>
<event>
 9    1  0.4369420E-036  0.9966579E+03  0.7818608E-02  0.8684227E-01
          2   -1    0    0  501    0  0.00000000000E+00  0.00000000000E+00  0.36843957333E+03  0.36843957333E+03  0.00000000000E+00 0.  1.
         -2   -1    0    0    0  501 -0.00000000000E+00 -0.00000000000E+00 -0.67400944261E+03  0.67400944261E+03  0.00000000000E+00 0.  1.
         36    2    1    2    0    0 -0.19539925233E-13  0.00000000000E+00 -0.30556986928E+03  0.10424490159E+04  0.99665791816E+03 0.  0.
         25    2    3    3    0    0  0.53577657340E+01  0.60968581523E+02 -0.18234590322E+03  0.22954271041E+03  0.12527551195E+03 0.  0.
         35    2    3    3    0    0 -0.53577657340E+01 -0.60968581523E+02 -0.12322396606E+03  0.81290630554E+03  0.80117828365E+03 0.  0.
         22    1    5    5    0    0  0.25089158502E+03 -0.14820357969E+03  0.22763148846E+03  0.36976611933E+03  0.00000000000E+00 0. -1.
         22    1    5    5    0    0 -0.25624935075E+03  0.87234998164E+02 -0.35085545452E+03  0.44314018621E+03  0.00000000000E+00 0. -1.
          5    1    4    4  502    0 -0.12845715979E+02  0.16094283649E+02  0.15245725410E+02  0.26049194392E+02  0.47000000000E+01 0. -1.
         -5    1    4    4    0  502  0.18203481713E+02  0.44874297875E+02 -0.19759162863E+03  0.20349351602E+03  0.47000000000E+01 0. -1.
<mgrwt>
<rscale>  0 0.99665792E+03</rscale>
<asrwt>0</asrwt>
<pdfrwt beam="1">  1        2 0.56683011E-01 0.99665792E+03</pdfrwt>
<pdfrwt beam="2">  1       -2 0.10369376E+00 0.99665792E+03</pdfrwt>
<totfact> 0.78303349E+01</totfact>
</mgrwt>
</event>
<event>
 9    1  0.4369420E-036  0.1001371E+04  0.7818608E-02  0.8679733E-01
         -2   -1    0    0    0  501 -0.00000000000E+00  0.00000000000E+00  0.10271990386E+03  0.10271990386E+03  0.00000000000E+00 0. -1.
          2   -1    0    0  501    0  0.00000000000E+00 -0.00000000000E+00 -0.24404830296E+04  0.24404830296E+04  0.00000000000E+00 0. -1.
         36    2    1    2    0    0  0.00000000000E+00 -0.71054273576E-14 -0.23377631257E+04  0.25432029334E+04  0.10013714239E+04 0.  0.
         25    2    3    3    0    0  0.13787793210E+03  0.23389651332E+02 -0.37794730183E+03  0.42179406712E+03  0.12453381928E+03 0.  0.
         35    2    3    3    0    0 -0.13787793210E+03 -0.23389651332E+02 -0.19598158239E+04  0.21214088663E+04  0.79996257074E+03 0.  0.
         22    1    5    5    0    0 -0.42708807882E+03  0.11735017461E+03 -0.14712654894E+04  0.15364886693E+04  0.00000000000E+00 0. -1.
         22    1    5    5    0    0  0.28921014672E+03 -0.14073982594E+03 -0.48855033448E+03  0.58492019703E+03  0.00000000000E+00 0. -1.
          5    1    4    4  502    0  0.14751958987E+03 -0.13583878180E+02 -0.28636943017E+03  0.32245323953E+03  0.47000000000E+01 0.  1.
         -5    1    4    4    0  502 -0.96416577720E+01  0.36973529512E+02 -0.91577871661E+02  0.99340827595E+02  0.47000000000E+01 0.  1.
<mgrwt>
<rscale>  0 0.10013714E+04</rscale>
<asrwt>0</asrwt>
<pdfrwt beam="1">  1        2 0.37545890E+00 0.10013714E+04</pdfrwt>
<pdfrwt beam="2">  1       -2 0.15803063E-01 0.10013714E+04</pdfrwt>
<totfact> 0.13859841E+02</totfact>
</mgrwt>
</event>
<event>
 9    1  0.4369420E-036  0.1001074E+04  0.7818608E-02  0.8680016E-01
         -1   -1    0    0    0  501 -0.00000000000E+00  0.00000000000E+00  0.13682663836E+03  0.13682663836E+03  0.00000000000E+00 0. -1.
          1   -1    0    0  501    0  0.00000000000E+00 -0.00000000000E+00 -0.18310571024E+04  0.18310571024E+04  0.00000000000E+00 0. -1.
         36    2    1    2    0    0  0.00000000000E+00  0.00000000000E+00 -0.16942304641E+04  0.19678837408E+04  0.10010741990E+04 0.  0.
         25    2    3    3    0    0 -0.49381097516E+01 -0.10862700928E+03 -0.14166168512E+03  0.21820003481E+03  0.12537547641E+03 0.  0.
         35    2    3    3    0    0  0.49381097516E+01  0.10862700928E+03 -0.15525687789E+04  0.17496837060E+04  0.79943670513E+03 0.  0.
         22    1    5    5    0    0 -0.26999795213E+03  0.14219578512E+03 -0.14011990582E+04  0.14340423063E+04  0.00000000000E+00 0. -1.
         22    1    5    5    0    0  0.27493606188E+03 -0.33568775842E+02 -0.15136972069E+03  0.31564139966E+03  0.00000000000E+00 0. -1.
          5    1    4    4  502    0  0.35565953569E+02 -0.14450830057E+02 -0.10039850247E+03  0.10759048676E+03  0.47000000000E+01 0.  1.
         -5    1    4    4    0  502 -0.40504063320E+02 -0.94176179219E+02 -0.41263182657E+02  0.11060954805E+03  0.47000000000E+01 0.  1.
<mgrwt>
<rscale>  0 0.10010742E+04</rscale>
<asrwt>0</asrwt>
<pdfrwt beam="1">  1        1 0.28170105E+00 0.10010742E+04</pdfrwt>
<pdfrwt beam="2">  1       -1 0.21050255E-01 0.10010742E+04</pdfrwt>
<totfact> 0.76865055E+01</totfact>
</mgrwt>
</event>
<event>
 9    1  0.4369420E-036  0.1000298E+04  0.7818608E-02  0.8680754E-01
          1   -1    0    0  501    0  0.00000000000E+00  0.00000000000E+00  0.28795287188E+03  0.28795287188E+03  0.00000000000E+00 0. -1.
         -1   -1    0    0    0  501 -0.00000000000E+00 -0.00000000000E+00 -0.86871509478E+03  0.86871509478E+03  0.00000000000E+00 0. -1.
         36    2    1    2    0    0  0.14210854715E-13  0.00000000000E+00 -0.58076222290E+03  0.11566679667E+04  0.10002979684E+04 0.  0.
         25    2    3    3    0    0  0.12085017908E+03  0.77969929129E+01 -0.40089872627E+02  0.18365189514E+03  0.13211836291E+03 0.  0.
         35    2    3    3    0    0 -0.12085017908E+03 -0.77969929129E+01 -0.54067235027E+03  0.97301607153E+03  0.79985506576E+03 0.  0.
         22    1    5    5    0    0 -0.11249231226E+03  0.32647260463E+02 -0.75028516752E+03  0.75937355533E+03  0.00000000000E+00 0. -1.
         22    1    5    5    0    0 -0.83578668180E+01 -0.40444253376E+02  0.20961281725E+03  0.21364251619E+03  0.00000000000E+00 0. -1.
          5    1    4    4  502    0  0.11940438682E+03 -0.40909013573E+02 -0.45829647351E+02  0.13436294712E+03  0.47000000000E+01 0.  1.
         -5    1    4    4    0  502  0.14457922647E+01  0.48706006486E+02  0.57397747244E+01  0.49288948021E+02  0.47000000000E+01 0.  1.
<mgrwt>
<rscale>  0 0.10002980E+04</rscale>
<asrwt>0</asrwt>
<pdfrwt beam="1">  1        1 0.44300442E-01 0.10002980E+04</pdfrwt>
<pdfrwt beam="2">  1       -1 0.13364848E+00 0.10002980E+04</pdfrwt>
<totfact> 0.52227936E+01</totfact>
</mgrwt>
</event>
<event>
 9    1  0.4369420E-036  0.1000632E+04  0.7818608E-02  0.8680436E-01
          2   -1    0    0  501    0  0.00000000000E+00  0.00000000000E+00  0.11034707161E+04  0.11034707161E+04  0.00000000000E+00 0. -1.
         -2   -1    0    0    0  501 -0.00000000000E+00 -0.00000000000E+00 -0.22684446358E+03  0.22684446358E+03  0.00000000000E+00 0. -1.
         36    2    1    2    0    0  0.00000000000E+00  0.00000000000E+00  0.87662625253E+03  0.13303151797E+04  0.10006322455E+04 0.  0.
         25    2    3    3    0    0 -0.99657987327E+01 -0.88671873588E+02  0.24493663456E+02  0.15527533277E+03  0.12469350868E+03 0.  0.
         35    2    3    3    0    0  0.99657987327E+01  0.88671873588E+02  0.85213258908E+03  0.11750398469E+04  0.80413100562E+03 0.  0.
         22    1    5    5    0    0 -0.23264718355E+02 -0.35302116307E+03  0.48142403440E+03  0.59743977905E+03  0.00000000000E+00 0. -1.
         22    1    5    5    0    0  0.33230517088E+02  0.44169303666E+03  0.37070855468E+03  0.57760006788E+03  0.00000000000E+00 0. -1.
          5    1    4    4  502    0 -0.41360397132E+02  0.15472225797E+02  0.88537199337E+01  0.45283005407E+02  0.47000000000E+01 0.  1.
         -5    1    4    4    0  502  0.31394598400E+02 -0.10414409938E+03  0.15639943522E+02  0.10999232736E+03  0.47000000000E+01 0.  1.
<mgrwt>
<rscale>  0 0.10006322E+04</rscale>
<asrwt>0</asrwt>
<pdfrwt beam="1">  1        2 0.16976472E+00 0.10006322E+04</pdfrwt>
<pdfrwt beam="2">  1       -2 0.34899149E-01 0.10006322E+04</pdfrwt>
<totfact> 0.20152478E+02</totfact>
</mgrwt>
</event>
<event>
 9    1  0.4369420E-036  0.1005082E+04  0.7818608E-02  0.8676214E-01
         -2   -1    0    0    0  501 -0.00000000000E+00  0.00000000000E+00  0.85454443977E+03  0.85454443977E+03  0.00000000000E+00 0. -1.
          2   -1    0    0  501    0  0.00000000000E+00 -0.00000000000E+00 -0.29553433431E+03  0.29553433431E+03  0.00000000000E+00 0. -1.
         36    2    1    2    0    0  0.71054273576E-14  0.00000000000E+00  0.55901010546E+03  0.11500787741E+04  0.10050815333E+04 0.  0.
         25    2    3    3    0    0 -0.28112084987E+02  0.62086297741E+02  0.25728230783E+03  0.29234529098E+03  0.12094042149E+03 0.  0.
         35    2    3    3    0    0  0.28112084987E+02 -0.62086297741E+02  0.30172779763E+03  0.85773348310E+03  0.80001379143E+03 0.  0.
         22    1    5    5    0    0  0.27912807021E+03  0.22774731122E+03  0.30843836335E+03  0.47425261342E+03  0.00000000000E+00 0.  1.
         22    1    5    5    0    0 -0.25101598522E+03 -0.28983360896E+03 -0.67105657205E+01  0.38348086968E+03  0.00000000000E+00 0.  1.
          5    1    4    4  502    0 -0.55673622465E+02  0.83323229213E+02  0.15924975888E+03  0.18821500596E+03  0.47000000000E+01 0. -1.
         -5    1    4    4    0  502  0.27561537478E+02 -0.21236931472E+02  0.98032548944E+02  0.10413028502E+03  0.47000000000E+01 0. -1.
<mgrwt>
<rscale>  0 0.10050815E+04</rscale>
<asrwt>0</asrwt>
<pdfrwt beam="1">  1        2 0.45466821E-01 0.10050815E+04</pdfrwt>
<pdfrwt beam="2">  1       -2 0.13146837E+00 0.10050815E+04</pdfrwt>
<totfact> 0.54313629E+01</totfact>
</mgrwt>
</event>
<event>
 9    1  0.4369420E-036  0.9991273E+03  0.7818608E-02  0.8681869E-01
          3   -1    0    0  501    0  0.00000000000E+00  0.00000000000E+00  0.36725664867E+03  0.36725664867E+03  0.00000000000E+00 0.  1.
         -3   -1    0    0    0  501 -0.00000000000E+00 -0.00000000000E+00 -0.67953528573E+03  0.67953528573E+03  0.00000000000E+00 0.  1.
         36    2    1    2    0    0 -0.14210854715E-13 -0.42632564146E-13 -0.31227863706E+03  0.10467919344E+04  0.99912732259E+03 0.  0.
         25    2    3    3    0    0 -0.11090847635E+03 -0.78683737196E+02 -0.88040111045E+02  0.20499059306E+03  0.12561154989E+03 0.  0.
         35    2    3    3    0    0  0.11090847635E+03  0.78683737196E+02 -0.22423852602E+03  0.84180134133E+03  0.79990922054E+03 0.  0.
         22    1    5    5    0    0 -0.40827095268E+02 -0.34687054399E+03 -0.16452484964E+03  0.38607570779E+03  0.00000000000E+00 0. -1.
         22    1    5    5    0    0  0.15173557162E+03  0.42555428118E+03 -0.59713676373E+02  0.45572563355E+03  0.00000000000E+00 0. -1.
          5    1    4    4  502    0 -0.12646196991E+03 -0.32837153766E+02 -0.85637450684E+02  0.15629066338E+03  0.47000000000E+01 0.  1.
         -5    1    4    4    0  502  0.15553493558E+02 -0.45846583430E+02 -0.24026603615E+01  0.48699929680E+02  0.47000000000E+01 0.  1.
<mgrwt>
<rscale>  0 0.99912732E+03</rscale>
<asrwt>0</asrwt>
<pdfrwt beam="1">  1        3 0.56501024E-01 0.99912732E+03</pdfrwt>
<pdfrwt beam="2">  1       -3 0.10454389E+00 0.99912732E+03</pdfrwt>
<totfact> 0.88751318E+00</totfact>
</mgrwt>
</event>
<event>
 9    1  0.4369420E-036  0.1000630E+04  0.7818608E-02  0.8680438E-01
          2   -1    0    0  501    0  0.00000000000E+00  0.00000000000E+00  0.10129529832E+04  0.10129529832E+04  0.00000000000E+00 0. -1.
         -2   -1    0    0    0  501 -0.00000000000E+00 -0.00000000000E+00 -0.24711411194E+03  0.24711411194E+03  0.00000000000E+00 0. -1.
         36    2    1    2    0    0 -0.14210854715E-13  0.14210854715E-13  0.76583887126E+03  0.12600670951E+04  0.10006297555E+04 0.  0.
         25    2    3    3    0    0 -0.87274826058E+02 -0.32661671638E+01  0.51258847088E+01  0.15265150749E+03  0.12509454398E+03 0.  0.
         35    2    3    3    0    0  0.87274826058E+02  0.32661671638E+01  0.76071298655E+03  0.11074155876E+04  0.80003591966E+03 0.  0.
         22    1    5    5    0    0 -0.13198015356E+03 -0.32874919475E+03  0.16437747930E+03  0.39053136837E+03  0.00000000000E+00 0. -1.
         22    1    5    5    0    0  0.21925497962E+03  0.33201536192E+03  0.59633550726E+03  0.71688421928E+03  0.00000000000E+00 0. -1.
          5    1    4    4  502    0  0.42916736777E+01 -0.39676214221E+02  0.30897437635E+02  0.50688875410E+02  0.47000000000E+01 0.  1.
         -5    1    4    4    0  502 -0.91566499736E+02  0.36410047058E+02 -0.25771552926E+02  0.10196263208E+03  0.47000000000E+01 0.  1.
<mgrwt>
<rscale>  0 0.10006298E+04</rscale>
<asrwt>0</asrwt>
<pdfrwt beam="1">  1        2 0.15583892E+00 0.10006298E+04</pdfrwt>
<pdfrwt beam="2">  1       -2 0.38017556E-01 0.10006298E+04</pdfrwt>
<totfact> 0.19504549E+02</totfact>
</mgrwt>
</event>
<event>
 9    1  0.4369420E-036  0.1000146E+04  0.7818608E-02  0.8680899E-01
          2   -1    0    0  501    0  0.00000000000E+00  0.00000000000E+00  0.12980095132E+04  0.12980095132E+04  0.00000000000E+00 0.  1.
         -2   -1    0    0    0  501 -0.00000000000E+00 -0.00000000000E+00 -0.19265887549E+03  0.19265887549E+03  0.00000000000E+00 0.  1.
         36    2    1    2    0    0  0.00000000000E+00 -0.28421709430E-13  0.11053506377E+04  0.14906683886E+04  0.10001460957E+04 0.  0.
         25    2    3    3    0    0  0.11446032423E+03  0.58285035940E+02  0.29459240913E+03  0.34479362081E+03  0.12489852762E+03 0.  0.
         35    2    3    3    0    0 -0.11446032423E+03 -0.58285035940E+02  0.81075822853E+03  0.11458747678E+04  0.79950094883E+03 0.  0.
         22    1    5    5    0    0 -0.66482704735E+02 -0.42293427597E+03  0.32991127748E+03  0.54049496096E+03  0.00000000000E+00 0. -1.
         22    1    5    5    0    0 -0.47977619491E+02  0.36464924003E+03  0.48084695105E+03  0.60537980687E+03  0.00000000000E+00 0. -1.
          5    1    4    4  502    0  0.59701585624E+02  0.93898241190E+02  0.21114612344E+03  0.23871726889E+03  0.47000000000E+01 0.  1.
         -5    1    4    4    0  502  0.54758738602E+02 -0.35613205249E+02  0.83446285691E+02  0.10607635192E+03  0.47000000000E+01 0.  1.
<mgrwt>
<rscale>  0 0.10001461E+04</rscale>
<asrwt>0</asrwt>
<pdfrwt beam="1">  1        2 0.19969377E+00 0.10001461E+04</pdfrwt>
<pdfrwt beam="2">  1       -2 0.29639828E-01 0.10001461E+04</pdfrwt>
<totfact> 0.20887382E+02</totfact>
</mgrwt>
</event>
<event>
 9    1  0.4369420E-036  0.9998031E+03  0.7818608E-02  0.8681225E-01
          2   -1    0    0  501    0  0.00000000000E+00  0.00000000000E+00  0.10178455245E+04  0.10178455245E+04  0.00000000000E+00 0. -1.
         -2   -1    0    0    0  501 -0.00000000000E+00 -0.00000000000E+00 -0.24552012858E+03  0.24552012858E+03  0.00000000000E+00 0. -1.
         36    2    1    2    0    0  0.00000000000E+00  0.28421709430E-13  0.77232539588E+03  0.12633656530E+04  0.99980310869E+03 0.  0.
         25    2    3    3    0    0 -0.94884938877E+02  0.61146818428E+02  0.25077765437E+03  0.30224120639E+03  0.12537236490E+03 0.  0.
         35    2    3    3    0    0  0.94884938877E+02 -0.61146818428E+02  0.52154774151E+03  0.96112444664E+03  0.79937855252E+03 0.  0.
         22    1    5    5    0    0 -0.33797839693E+02 -0.38099133616E+03  0.63332597988E+02  0.38769538322E+03  0.00000000000E+00 0.  1.
         22    1    5    5    0    0  0.12868277857E+03  0.31984451774E+03  0.45821514352E+03  0.57342906342E+03  0.00000000000E+00 0.  1.
          5    1    4    4  502    0 -0.18626735884E+02 -0.17636480803E+02  0.15315361290E+03  0.15535803774E+03  0.47000000000E+01 0. -1.
         -5    1    4    4    0  502 -0.76258202992E+02  0.78783299231E+02  0.97624041466E+02  0.14688316865E+03  0.47000000000E+01 0. -1.
<mgrwt>
<rscale>  0 0.99980311E+03</rscale>
<asrwt>0</asrwt>
<pdfrwt beam="1">  1        2 0.15659162E+00 0.99980311E+03</pdfrwt>
<pdfrwt beam="2">  1       -2 0.37772328E-01 0.99980311E+03</pdfrwt>
<totfact> 0.19606825E+02</totfact>
</mgrwt>
</event>
<event>
 9    1  0.4369420E-036  0.9986541E+03  0.7818608E-02  0.8682321E-01
         -1   -1    0    0    0  501 -0.00000000000E+00  0.00000000000E+00  0.42574573696E+03  0.42574573696E+03  0.00000000000E+00 0.  1.
          1   -1    0    0  501    0  0.00000000000E+00 -0.00000000000E+00 -0.58562536859E+03  0.58562536859E+03  0.00000000000E+00 0.  1.
         36    2    1    2    0    0 -0.28421709430E-13  0.14210854715E-13 -0.15987963163E+03  0.10113711056E+04  0.99865410255E+03 0.  0.
         25    2    3    3    0    0  0.76472670178E+02 -0.10136739350E+03  0.26526671848E+02  0.18019580599E+03  0.12507376395E+03 0.  0.
         35    2    3    3    0    0 -0.76472670178E+02  0.10136739350E+03 -0.18640630348E+03  0.83117529957E+03  0.79998853172E+03 0.  0.
         22    1    5    5    0    0  0.17544927095E+03 -0.17058491580E+02 -0.42781526039E+03  0.46270869436E+03  0.00000000000E+00 0. -1.
         22    1    5    5    0    0 -0.25192194113E+03  0.11842588508E+03  0.24140895691E+03  0.36846660521E+03  0.00000000000E+00 0. -1.
          5    1    4    4  502    0  0.10143852745E+03 -0.11004977880E+03  0.31164288448E+02  0.15295107564E+03  0.47000000000E+01 0.  1.
         -5    1    4    4    0  502 -0.24965857273E+02  0.86823853046E+01 -0.46376165998E+01  0.27244730347E+02  0.47000000000E+01 0.  1.
<mgrwt>
<rscale>  0 0.99865410E+03</rscale>
<asrwt>0</asrwt>
<pdfrwt beam="1">  1        1 0.90096211E-01 0.99865410E+03</pdfrwt>
<pdfrwt beam="2">  1       -1 0.65499344E-01 0.99865410E+03</pdfrwt>
<totfact> 0.97723718E+01</totfact>
</mgrwt>
</event>
<event>
 9    1  0.4369420E-036  0.9998044E+03  0.7818608E-02  0.8681224E-01
         -1   -1    0    0    0  501 -0.00000000000E+00  0.00000000000E+00  0.14270115956E+03  0.14270115956E+03  0.00000000000E+00 0. -1.
          1   -1    0    0  501    0  0.00000000000E+00 -0.00000000000E+00 -0.17512274755E+04  0.17512274755E+04  0.00000000000E+00 0. -1.
         36    2    1    2    0    0  0.00000000000E+00 -0.42632564146E-13 -0.16085263159E+04  0.18939286350E+04  0.99980436367E+03 0.  0.
         25    2    3    3    0    0  0.10437885467E+03 -0.87989298818E+02 -0.23305036101E+03  0.29772432772E+03  0.12526069832E+03 0.  0.
         35    2    3    3    0    0 -0.10437885467E+03  0.87989298818E+02 -0.13754759549E+04  0.15962043073E+04  0.79830885386E+03 0.  0.
         22    1    5    5    0    0 -0.15564862281E+02 -0.34845240095E+03 -0.76263313712E+03  0.83861233147E+03  0.00000000000E+00 0. -1.
         22    1    5    5    0    0 -0.88813992385E+02  0.43644169977E+03 -0.61284281777E+03  0.75759197583E+03  0.00000000000E+00 0. -1.
          5    1    4    4  502    0 -0.16302897872E+02 -0.52511106971E+02 -0.10226259790E+03  0.11620210740E+03  0.47000000000E+01 0.  1.
         -5    1    4    4    0  502  0.12068175254E+03 -0.35478191847E+02 -0.13078776310E+03  0.18152222032E+03  0.47000000000E+01 0.  1.
<mgrwt>
<rscale>  0 0.99980436E+03</rscale>
<asrwt>0</asrwt>
<pdfrwt beam="1">  1        1 0.26941961E+00 0.99980436E+03</pdfrwt>
<pdfrwt beam="2">  1       -1 0.21954025E-01 0.99980436E+03</pdfrwt>
<totfact> 0.81569800E+01</totfact>
</mgrwt>
</event>
<event>
 9    1  0.4369420E-036  0.1001120E+04  0.7818608E-02  0.8679972E-01
          4   -1    0    0  501    0  0.00000000000E+00  0.00000000000E+00  0.16267227187E+04  0.16267227187E+04  0.00000000000E+00 0.  1.
         -4   -1    0    0    0  501 -0.00000000000E+00 -0.00000000000E+00 -0.15402782383E+03  0.15402782383E+03  0.00000000000E+00 0.  1.
         36    2    1    2    0    0  0.71054273576E-14  0.14210854715E-13  0.14726948948E+04  0.17807505425E+04  0.10011204929E+04 0.  0.
         25    2    3    3    0    0 -0.20068596945E+02 -0.12000391232E+03  0.40443833116E+03  0.44036523987E+03  0.12468958744E+03 0.  0.
         35    2    3    3    0    0  0.20068596945E+02  0.12000391232E+03  0.10682565637E+04  0.13403853026E+04  0.80041051100E+03 0.  0.
         22    1    5    5    0    0 -0.64714177941E+02  0.87938094512E+02  0.11864345375E+04  0.11914478356E+04  0.00000000000E+00 0.  1.
         22    1    5    5    0    0  0.84782774886E+02  0.32065817804E+02 -0.11817797380E+03  0.14893746701E+03  0.00000000000E+00 0.  1.
          5    1    4    4  502    0  0.49934223836E+02 -0.24916449095E+02  0.13464592692E+03  0.14582822697E+03  0.47000000000E+01 0. -1.
         -5    1    4    4    0  502 -0.70002820781E+02 -0.95087463221E+02  0.26979240424E+03  0.29453701290E+03  0.47000000000E+01 0. -1.
<mgrwt>
<rscale>  0 0.10011205E+04</rscale>
<asrwt>0</asrwt>
<pdfrwt beam="1">  1        4 0.25026502E+00 0.10011205E+04</pdfrwt>
<pdfrwt beam="2">  1       -4 0.23696589E-01 0.10011205E+04</pdfrwt>
<totfact> 0.17076308E+00</totfact>
</mgrwt>
</event>
<event>
 9    1  0.4369420E-036  0.1000556E+04  0.7818608E-02  0.8680509E-01
          1   -1    0    0  501    0  0.00000000000E+00  0.00000000000E+00  0.14071339866E+04  0.14071339866E+04  0.00000000000E+00 0. -1.
         -1   -1    0    0    0  501 -0.00000000000E+00 -0.00000000000E+00 -0.17786367737E+03  0.17786367737E+03  0.00000000000E+00 0. -1.
         36    2    1    2    0    0  0.00000000000E+00 -0.28421709430E-13  0.12292703092E+04  0.15849976639E+04  0.10005558963E+04 0.  0.
         25    2    3    3    0    0  0.77404795537E+02  0.10508277324E+03  0.31905052999E+03  0.36651971497E+03  0.12453742078E+03 0.  0.
         35    2    3    3    0    0 -0.77404795537E+02 -0.10508277324E+03  0.91021977920E+03  0.12184779490E+04  0.79947143416E+03 0.  0.
         22    1    5    5    0    0  0.22302366931E+02  0.27148931984E+03  0.53855906885E+02  0.27767661959E+03  0.00000000000E+00 0.  1.
         22    1    5    5    0    0 -0.99707162468E+02 -0.37657209308E+03  0.85636387232E+03  0.94080132937E+03  0.00000000000E+00 0.  1.
          5    1    4    4  502    0  0.79836061887E+02  0.56542267047E+02  0.92334671762E+02  0.13460537266E+03  0.47000000000E+01 0. -1.
         -5    1    4    4    0  502 -0.24312663496E+01  0.48540506193E+02  0.22671585822E+03  0.23191434231E+03  0.47000000000E+01 0. -1.
<mgrwt>
<rscale>  0 0.10005559E+04</rscale>
<asrwt>0</asrwt>
<pdfrwt beam="1">  1        1 0.21648214E+00 0.10005559E+04</pdfrwt>
<pdfrwt beam="2">  1       -1 0.27363644E-01 0.10005559E+04</pdfrwt>
<totfact> 0.98880324E+01</totfact>
</mgrwt>
</event>
<event>
 9    1  0.4369420E-036  0.9960447E+03  0.7818608E-02  0.8684814E-01
          2   -1    0    0  501    0  0.00000000000E+00  0.00000000000E+00  0.14955467387E+04  0.14955467387E+04  0.00000000000E+00 0. -1.
         -2   -1    0    0    0  501 -0.00000000000E+00 -0.00000000000E+00 -0.16584320238E+03  0.16584320238E+03  0.00000000000E+00 0. -1.
         36    2    1    2    0    0 -0.28421709430E-13 -0.42632564146E-13  0.13297035363E+04  0.16613899411E+04  0.99604469870E+03 0.  0.
         25    2    3    3    0    0  0.11908640992E+03  0.56396722901E+02  0.19381328055E+03  0.26582889863E+03  0.12545617660E+03 0.  0.
         35    2    3    3    0    0 -0.11908640992E+03 -0.56396722901E+02  0.11358902558E+04  0.13955610425E+04  0.79998861658E+03 0.  0.
         22    1    5    5    0    0 -0.69692922892E+02  0.36178824530E+03  0.69034988854E+03  0.78251569093E+03  0.00000000000E+00 0.  1.
         22    1    5    5    0    0 -0.49393487030E+02 -0.41818496820E+03  0.44554036724E+03  0.61304535153E+03  0.00000000000E+00 0.  1.
          5    1    4    4  502    0  0.78735741694E+02  0.60825327962E+02  0.41114557841E+02  0.10775682998E+03  0.47000000000E+01 0.  1.
         -5    1    4    4    0  502  0.40350668228E+02 -0.44286050608E+01  0.15269872271E+03  0.15807206865E+03  0.47000000000E+01 0.  1.
<mgrwt>
<rscale>  0 0.99604470E+03</rscale>
<asrwt>0</asrwt>
<pdfrwt beam="1">  1        2 0.23008411E+00 0.99604470E+03</pdfrwt>
<pdfrwt beam="2">  1       -2 0.25514340E-01 0.99604470E+03</pdfrwt>
<totfact> 0.21084265E+02</totfact>
</mgrwt>
</event>
<event>
 9    1  0.4369420E-036  0.9993513E+03  0.7818608E-02  0.8681656E-01
         -1   -1    0    0    0  501 -0.00000000000E+00  0.00000000000E+00  0.14681072344E+03  0.14681072344E+03  0.00000000000E+00 0.  1.
          1   -1    0    0  501    0  0.00000000000E+00 -0.00000000000E+00 -0.17006641679E+04  0.17006641679E+04  0.00000000000E+00 0.  1.
         36    2    1    2    0    0 -0.14210854715E-13  0.00000000000E+00 -0.15538534445E+04  0.18474748913E+04  0.99935126319E+03 0.  0.
         25    2    3    3    0    0 -0.86648385204E+02 -0.57431814112E+02 -0.45697407425E+03  0.48505530516E+03  0.12508792344E+03 0.  0.
         35    2    3    3    0    0  0.86648385204E+02  0.57431814112E+02 -0.10968793702E+04  0.13624195862E+04  0.80139654359E+03 0.  0.
         22    1    5    5    0    0 -0.29526415381E+01  0.19361157889E+03  0.53228284622E+02  0.20081686148E+03  0.00000000000E+00 0. -1.
         22    1    5    5    0    0  0.89601026742E+02 -0.13617976478E+03 -0.11501076548E+04  0.11616027247E+04  0.00000000000E+00 0. -1.
          5    1    4    4  502    0 -0.91488660217E+02 -0.23247936273E+02 -0.43191930969E+03  0.44213914277E+03  0.47000000000E+01 0.  1.
         -5    1    4    4    0  502  0.48402750129E+01 -0.34183877839E+02 -0.25054764562E+02  0.42916162382E+02  0.47000000000E+01 0.  1.
<mgrwt>
<rscale>  0 0.99935126E+03</rscale>
<asrwt>0</asrwt>
<pdfrwt beam="1">  1        1 0.26164064E+00 0.99935126E+03</pdfrwt>
<pdfrwt beam="2">  1       -1 0.22586265E-01 0.99935126E+03</pdfrwt>
<totfact> 0.84448283E+01</totfact>
</mgrwt>
</event>
<event>
 9    1  0.4369420E-036  0.1000539E+04  0.7818608E-02  0.8680525E-01
         -2   -1    0    0    0  501 -0.00000000000E+00  0.00000000000E+00  0.15104506272E+03  0.15104506272E+03  0.00000000000E+00 0. -1.
          2   -1    0    0  501    0  0.00000000000E+00 -0.00000000000E+00 -0.16569200267E+04  0.16569200267E+04  0.00000000000E+00 0. -1.
         36    2    1    2    0    0  0.00000000000E+00  0.00000000000E+00 -0.15058749640E+04  0.18079650894E+04  0.10005390334E+04 0.  0.
         25    2    3    3    0    0 -0.12066061782E+03  0.42069182044E+02 -0.38462193268E+03  0.42413666057E+03  0.12501629882E+03 0.  0.
         35    2    3    3    0    0  0.12066061782E+03 -0.42069182044E+02 -0.11212530313E+04  0.13838284289E+04  0.80090196624E+03 0.  0.
         22    1    5    5    0    0 -0.26223452902E+03  0.19245041694E+03 -0.27546528559E+03  0.42624550996E+03  0.00000000000E+00 0.  1.
         22    1    5    5    0    0  0.38289514684E+03 -0.23451959898E+03 -0.84578774570E+03  0.95758291890E+03  0.00000000000E+00 0.  1.
          5    1    4    4  502    0 -0.26390217046E+02 -0.15594703018E+02 -0.85967704245E+01  0.32181248883E+02  0.47000000000E+01 0.  1.
         -5    1    4    4    0  502 -0.94270400776E+02  0.57663885062E+02 -0.37602516225E+03  0.39195541168E+03  0.47000000000E+01 0.  1.
<mgrwt>
<rscale>  0 0.10005390E+04</rscale>
<asrwt>0</asrwt>
<pdfrwt beam="1">  1        2 0.25491077E+00 0.10005390E+04</pdfrwt>
<pdfrwt beam="2">  1       -2 0.23237702E-01 0.10005390E+04</pdfrwt>
<totfact> 0.20166978E+02</totfact>
</mgrwt>
</event>
<event>
 9    1  0.4369420E-036  0.9983089E+03  0.7818608E-02  0.8682650E-01
         -1   -1    0    0    0  501 -0.00000000000E+00  0.00000000000E+00  0.23695951693E+03  0.23695951693E+03  0.00000000000E+00 0. -1.
          1   -1    0    0  501    0  0.00000000000E+00 -0.00000000000E+00 -0.10514673175E+04  0.10514673175E+04  0.00000000000E+00 0. -1.
         36    2    1    2    0    0  0.71054273576E-14  0.00000000000E+00 -0.81450780056E+03  0.12884268344E+04  0.99830894542E+03 0.  0.
         25    2    3    3    0    0 -0.13304490258E+02 -0.11882402356E+03 -0.28239915245E+03  0.33129273661E+03  0.12533729690E+03 0.  0.
         35    2    3    3    0    0  0.13304490258E+02  0.11882402356E+03 -0.53210864811E+03  0.95713409781E+03  0.78655572578E+03 0.  0.
         22    1    5    5    0    0 -0.24482115816E+03  0.19651524859E+03  0.47876894246E+02  0.31756548839E+03  0.00000000000E+00 0. -1.
         22    1    5    5    0    0  0.25812564842E+03 -0.77691225028E+02 -0.57998554236E+03  0.63956860942E+03  0.00000000000E+00 0. -1.
          5    1    4    4  502    0 -0.66334999453E+02 -0.72555789606E+02 -0.12731410758E+03  0.16092124392E+03  0.47000000000E+01 0.  1.
         -5    1    4    4    0  502  0.53030509195E+02 -0.46268233958E+02 -0.15508504487E+03  0.17037149269E+03  0.47000000000E+01 0.  1.
<mgrwt>
<rscale>  0 0.99830895E+03</rscale>
<asrwt>0</asrwt>
<pdfrwt beam="1">  1        1 0.16176420E+00 0.99830895E+03</pdfrwt>
<pdfrwt beam="2">  1       -1 0.36455312E-01 0.99830895E+03</pdfrwt>
<totfact> 0.11096702E+02</totfact>
</mgrwt>
</event>
<event>
 9    1  0.4369420E-036  0.1000271E+04  0.7818608E-02  0.8680779E-01
         -1   -1    0    0    0  501 -0.00000000000E+00  0.00000000000E+00  0.24656929821E+03  0.24656929821E+03  0.00000000000E+00 0. -1.
          1   -1    0    0  501    0  0.00000000000E+00 -0.00000000000E+00 -0.10144642928E+04  0.10144642928E+04  0.00000000000E+00 0. -1.
         36    2    1    2    0    0 -0.28421709430E-13  0.00000000000E+00 -0.76789499460E+03  0.12610335910E+04  0.10002714606E+04 0.  0.
         25    2    3    3    0    0 -0.12061545349E+03 -0.65115989382E+02 -0.10141609081E+03  0.21198286225E+03  0.12594971505E+03 0.  0.
         35    2    3    3    0    0  0.12061545349E+03  0.65115989382E+02 -0.66647890379E+03  0.10490507288E+04  0.79845170339E+03 0.  0.
         22    1    5    5    0    0  0.28860311582E+03 -0.85153994520E+02  0.43611747167E+02  0.30404760439E+03  0.00000000000E+00 0.  1.
         22    1    5    5    0    0 -0.16798766234E+03  0.15026998390E+03 -0.71009065095E+03  0.74500312438E+03  0.00000000000E+00 0.  1.
          5    1    4    4  502    0  0.54786804047E+01 -0.10558905785E+01  0.22644117486E+02  0.23790269032E+02  0.47000000000E+01 0.  1.
         -5    1    4    4    0  502 -0.12609413389E+03 -0.64060098803E+02 -0.12406020830E+03  0.18819259322E+03  0.47000000000E+01 0.  1.
<mgrwt>
<rscale>  0 0.10002715E+04</rscale>
<asrwt>0</asrwt>
<pdfrwt beam="1">  1        1 0.15607143E+00 0.10002715E+04</pdfrwt>
<pdfrwt beam="2">  1       -1 0.37933738E-01 0.10002715E+04</pdfrwt>
<totfact> 0.11060316E+02</totfact>
</mgrwt>
</event>
<event>
 9    1  0.4369420E-036  0.1000272E+04  0.7818608E-02  0.8680779E-01
          1   -1    0    0  501    0  0.00000000000E+00  0.00000000000E+00  0.14380310029E+04  0.14380310029E+04  0.00000000000E+00 0.  1.
         -1   -1    0    0    0  501 -0.00000000000E+00 -0.00000000000E+00 -0.17394350736E+03  0.17394350736E+03  0.00000000000E+00 0.  1.
         36    2    1    2    0    0 -0.28421709430E-13  0.00000000000E+00  0.12640874955E+04  0.16119745102E+04  0.10002722756E+04 0.  0.
         25    2    3    3    0    0 -0.12440322884E+03  0.64713704488E+02  0.23216041747E+03  0.29862559909E+03  0.12495904169E+03 0.  0.
         35    2    3    3    0    0  0.12440322884E+03 -0.64713704488E+02  0.10319270780E+04  0.13133489111E+04  0.80021737114E+03 0.  0.
         22    1    5    5    0    0 -0.73025070358E+02 -0.29871135135E+03  0.94693282587E+03  0.99561182648E+03  0.00000000000E+00 0. -1.
         22    1    5    5    0    0  0.19742829920E+03  0.23399764686E+03  0.84994252182E+02  0.31773708465E+03  0.00000000000E+00 0. -1.
          5    1    4    4  502    0 -0.26314723983E+02  0.81720413728E+02  0.13035806690E+03  0.15616019443E+03  0.47000000000E+01 0.  1.
         -5    1    4    4    0  502 -0.98088504858E+02 -0.17006709240E+02  0.10180235057E+03  0.14246540466E+03  0.47000000000E+01 0.  1.
<mgrwt>
<rscale>  0 0.10002723E+04</rscale>
<asrwt>0</asrwt>
<pdfrwt beam="1">  1        1 0.22123553E+00 0.10002723E+04</pdfrwt>
<pdfrwt beam="2">  1       -1 0.26760541E-01 0.10002723E+04</pdfrwt>
<totfact> 0.97572744E+01</totfact>
</mgrwt>
</event>
<event>
 9    1  0.4369420E-036  0.9998516E+03  0.7818608E-02  0.8681179E-01
         -2   -1    0    0    0  501 -0.00000000000E+00  0.00000000000E+00  0.31102831686E+03  0.31102831686E+03  0.00000000000E+00 0. -1.
          2   -1    0    0  501    0  0.00000000000E+00 -0.00000000000E+00 -0.80354677199E+03  0.80354677199E+03  0.00000000000E+00 0. -1.
         36    2    1    2    0    0  0.00000000000E+00 -0.42632564146E-13 -0.49251845513E+03  0.11145750889E+04  0.99985158901E+03 0.  0.
         25    2    3    3    0    0  0.60634962584E+02  0.54213768276E+02 -0.21880863361E+03  0.26495367008E+03  0.12532955673E+03 0.  0.
         35    2    3    3    0    0 -0.60634962584E+02 -0.54213768276E+02 -0.27370982152E+03  0.84962141877E+03  0.80020232284E+03 0.  0.
         22    1    5    5    0    0  0.13666657169E+03  0.33557584609E+03 -0.17184546504E+03  0.40102339602E+03  0.00000000000E+00 0. -1.
         22    1    5    5    0    0 -0.19730153427E+03 -0.38978961437E+03 -0.10186435648E+03  0.44859802275E+03  0.00000000000E+00 0. -1.
          5    1    4    4  502    0 -0.42183720348E+01  0.73021035717E+02 -0.69444969178E+02  0.10096811410E+03  0.47000000000E+01 0.  1.
         -5    1    4    4    0  502  0.64853334619E+02 -0.18807267441E+02 -0.14936366443E+03  0.16398555599E+03  0.47000000000E+01 0.  1.
<mgrwt>
<rscale>  0 0.99985159E+03</rscale>
<asrwt>0</asrwt>
<pdfrwt beam="1">  1        2 0.12362258E+00 0.99985159E+03</pdfrwt>
<pdfrwt beam="2">  1       -2 0.47850510E-01 0.99985159E+03</pdfrwt>
<totfact> 0.17150384E+02</totfact>
</mgrwt>
</event>
<event>
 9    1  0.4369420E-036  0.1001097E+04  0.7818608E-02  0.8679994E-01
         -2   -1    0    0    0  501 -0.00000000000E+00  0.00000000000E+00  0.16569542972E+03  0.16569542972E+03  0.00000000000E+00 0.  1.
          2   -1    0    0  501    0  0.00000000000E+00 -0.00000000000E+00 -0.15121048656E+04  0.15121048656E+04  0.00000000000E+00 0.  1.
         36    2    1    2    0    0  0.35527136788E-14  0.42632564146E-13 -0.13464094359E+04  0.16778002954E+04  0.10010971291E+04 0.  0.
         25    2    3    3    0    0  0.20104820396E+02 -0.11744574894E+03 -0.12049725232E+03  0.21039633853E+03  0.12469692740E+03 0.  0.
         35    2    3    3    0    0 -0.20104820396E+02  0.11744574894E+03 -0.12259121836E+04  0.14674039568E+04  0.79763148312E+03 0.  0.
         22    1    5    5    0    0  0.15030666023E+02 -0.18244050644E+03  0.21180849706E+02  0.18427991672E+03  0.00000000000E+00 0. -1.
         22    1    5    5    0    0 -0.35135486419E+02  0.29988625539E+03 -0.12470930333E+04  0.12831240401E+04  0.00000000000E+00 0. -1.
          5    1    4    4  502    0 -0.37592862142E+00  0.25589824885E+02 -0.30544678537E+02  0.40125401517E+02  0.47000000000E+01 0.  1.
         -5    1    4    4    0  502  0.20480749017E+02 -0.14303557383E+03 -0.89952573779E+02  0.17027093701E+03  0.47000000000E+01 0.  1.
<mgrwt>
<rscale>  0 0.10010971E+04</rscale>
<asrwt>0</asrwt>
<pdfrwt beam="1">  1        2 0.23263153E+00 0.10010971E+04</pdfrwt>
<pdfrwt beam="2">  1       -2 0.25491603E-01 0.10010971E+04</pdfrwt>
<totfact> 0.20666429E+02</totfact>
</mgrwt>
</event>
<event>
 9    1  0.4369420E-036  0.9997779E+03  0.7818608E-02  0.8681250E-01
          2   -1    0    0  501    0  0.00000000000E+00  0.00000000000E+00  0.19445374601E+04  0.19445374601E+04  0.00000000000E+00 0. -1.
         -2   -1    0    0    0  501 -0.00000000000E+00 -0.00000000000E+00 -0.12850816353E+03  0.12850816353E+03  0.00000000000E+00 0. -1.
         36    2    1    2    0    0 -0.14210854715E-13  0.00000000000E+00  0.18160292966E+04  0.20730456237E+04  0.99977785117E+03 0.  0.
         25    2    3    3    0    0  0.60626431954E+02  0.12389543674E+03  0.38950293421E+03  0.43176876663E+03  0.12524411594E+03 0.  0.
         35    2    3    3    0    0 -0.60626431954E+02 -0.12389543674E+03  0.14265263624E+04  0.16412768570E+04  0.79986662348E+03 0.  0.
         22    1    5    5    0    0 -0.26754936665E+03 -0.70993362560E+02  0.94888609990E+02  0.29262017946E+03  0.00000000000E+00 0. -1.
         22    1    5    5    0    0  0.20692293470E+03 -0.52902074183E+02  0.13316377524E+04  0.13486566776E+04  0.00000000000E+00 0. -1.
          5    1    4    4  502    0  0.91797744102E+02  0.52017385574E+02  0.25555833701E+03  0.27652267147E+03  0.47000000000E+01 0. -1.
         -5    1    4    4    0  502 -0.31171312148E+02  0.71878051170E+02  0.13394459720E+03  0.15524609516E+03  0.47000000000E+01 0. -1.
<mgrwt>
<rscale>  0 0.99977785E+03</rscale>
<asrwt>0</asrwt>
<pdfrwt beam="1">  1        2 0.29915959E+00 0.99977785E+03</pdfrwt>
<pdfrwt beam="2">  1       -2 0.19770488E-01 0.99977785E+03</pdfrwt>
<totfact> 0.18388890E+02</totfact>
</mgrwt>
</event>
<event>
 9    1  0.4369420E-036  0.1000477E+04  0.7818608E-02  0.8680584E-01
         -2   -1    0    0    0  501 -0.00000000000E+00  0.00000000000E+00  0.29143365566E+03  0.29143365566E+03  0.00000000000E+00 0.  1.
          2   -1    0    0  501    0  0.00000000000E+00 -0.00000000000E+00 -0.85864696407E+03  0.85864696407E+03  0.00000000000E+00 0.  1.
         36    2    1    2    0    0  0.14210854715E-13 -0.35527136788E-13 -0.56721330840E+03  0.11500806197E+04  0.10004771335E+04 0.  0.
         25    2    3    3    0    0  0.88391236100E+02  0.40136479447E+02 -0.21866424791E+03  0.26988794229E+03  0.12490596654E+03 0.  0.
         35    2    3    3    0    0 -0.88391236100E+02 -0.40136479447E+02 -0.34854906050E+03  0.88019267744E+03  0.80238940313E+03 0.  0.
         22    1    5    5    0    0 -0.17196605046E+03 -0.37054259758E+03 -0.23424070526E+02  0.40917334494E+03  0.00000000000E+00 0. -1.
         22    1    5    5    0    0  0.83574814359E+02  0.33040611813E+03 -0.32512498997E+03  0.47101933251E+03  0.00000000000E+00 0. -1.
          5    1    4    4  502    0  0.72053520908E+02 -0.33944751714E+02 -0.88495458390E+02  0.11915322992E+03  0.47000000000E+01 0.  1.
         -5    1    4    4    0  502  0.16337715192E+02  0.74081231161E+02 -0.13016878952E+03  0.15073471237E+03  0.47000000000E+01 0.  1.
<mgrwt>
<rscale>  0 0.10004771E+04</rscale>
<asrwt>0</asrwt>
<pdfrwt beam="1">  1        2 0.13209953E+00 0.10004771E+04</pdfrwt>
<pdfrwt beam="2">  1       -2 0.44835947E-01 0.10004771E+04</pdfrwt>
<totfact> 0.17869098E+02</totfact>
</mgrwt>
</event>
<event>
 9    1  0.4369420E-036  0.9998467E+03  0.7818608E-02  0.8681184E-01
          1   -1    0    0  501    0  0.00000000000E+00  0.00000000000E+00  0.21770022604E+03  0.21770022604E+03  0.00000000000E+00 0.  1.
         -1   -1    0    0    0  501 -0.00000000000E+00 -0.00000000000E+00 -0.11480161009E+04  0.11480161009E+04  0.00000000000E+00 0.  1.
         36    2    1    2    0    0  0.28421709430E-13  0.00000000000E+00 -0.93031587481E+03  0.13657163269E+04  0.99984671756E+03 0.  0.
         25    2    3    3    0    0  0.53180687714E+02  0.83273212781E+02 -0.39084581693E+02  0.16391711669E+03  0.12481427444E+03 0.  0.
         35    2    3    3    0    0 -0.53180687714E+02 -0.83273212781E+02 -0.89123129312E+03  0.12017992102E+04  0.80016592673E+03 0.  0.
         22    1    5    5    0    0 -0.39232394534E+03 -0.19375570993E+03 -0.59240583882E+03  0.73648084231E+03  0.00000000000E+00 0.  1.
         22    1    5    5    0    0  0.33914325762E+03  0.11048249715E+03 -0.29882545430E+03  0.46531836790E+03  0.00000000000E+00 0.  1.
          5    1    4    4  502    0  0.50475018665E+02  0.11486911190E+03 -0.21603289583E+02  0.12740263929E+03  0.47000000000E+01 0. -1.
         -5    1    4    4    0  502  0.27056690489E+01 -0.31595899115E+02 -0.17481292110E+02  0.36514477399E+02  0.47000000000E+01 0. -1.
<mgrwt>
<rscale>  0 0.99984672E+03</rscale>
<asrwt>0</asrwt>
<pdfrwt beam="1">  1        1 0.33492342E-01 0.99984672E+03</pdfrwt>
<pdfrwt beam="2">  1       -1 0.17661787E+00 0.99984672E+03</pdfrwt>
<totfact> 0.32658634E+01</totfact>
</mgrwt>
</event>
<event>
 9    1  0.4369420E-036  0.1000362E+04  0.7818608E-02  0.8680693E-01
          1   -1    0    0  501    0  0.00000000000E+00  0.00000000000E+00  0.24668565370E+03  0.24668565370E+03  0.00000000000E+00 0. -1.
         -1   -1    0    0    0  501 -0.00000000000E+00 -0.00000000000E+00 -0.10141700850E+04  0.10141700850E+04  0.00000000000E+00 0. -1.
         36    2    1    2    0    0  0.00000000000E+00 -0.14210854715E-13 -0.76748443134E+03  0.12608557387E+04  0.10003623551E+04 0.  0.
         25    2    3    3    0    0 -0.61227109580E+02 -0.78023568204E+02 -0.26943584945E+03  0.31326002173E+03  0.12529855585E+03 0.  0.
         35    2    3    3    0    0  0.61227109580E+02  0.78023568204E+02 -0.49804858189E+03  0.94759571701E+03  0.80003050994E+03 0.  0.
         22    1    5    5    0    0 -0.11495551589E+03 -0.29915932635E+03 -0.31059569480E+02  0.32198722029E+03  0.00000000000E+00 0. -1.
         22    1    5    5    0    0  0.17618262547E+03  0.37718289455E+03 -0.46698901241E+03  0.62560849672E+03  0.00000000000E+00 0. -1.
          5    1    4    4  502    0 -0.36533062251E+02 -0.64649613269E+02 -0.44854159959E+02  0.86880508740E+02  0.47000000000E+01 0.  1.
         -5    1    4    4    0  502 -0.24694047329E+02 -0.13373954935E+02 -0.22458168949E+03  0.22637951299E+03  0.47000000000E+01 0.  1.
<mgrwt>
<rscale>  0 0.10003624E+04</rscale>
<asrwt>0</asrwt>
<pdfrwt beam="1">  1        1 0.37951638E-01 0.10003624E+04</pdfrwt>
<pdfrwt beam="2">  1       -1 0.15602617E+00 0.10003624E+04</pdfrwt>
<totfact> 0.41275920E+01</totfact>
</mgrwt>
</event>
<event>
 9    1  0.4369420E-036  0.9998866E+03  0.7818608E-02  0.8681146E-01
         -2   -1    0    0    0  501 -0.00000000000E+00  0.00000000000E+00  0.21530877157E+03  0.21530877157E+03  0.00000000000E+00 0.  1.
          2   -1    0    0  501    0  0.00000000000E+00 -0.00000000000E+00 -0.11608597233E+04  0.11608597233E+04  0.00000000000E+00 0.  1.
         36    2    1    2    0    0  0.28421709430E-13 -0.14210854715E-13 -0.94555095173E+03  0.13761684949E+04  0.99988655556E+03 0.  0.
         25    2    3    3    0    0  0.10950298470E+03 -0.82705967633E+02 -0.14323556122E+03  0.23484589894E+03  0.12571789654E+03 0.  0.
         35    2    3    3    0    0 -0.10950298470E+03  0.82705967633E+02 -0.80231539051E+03  0.11413225959E+04  0.80004756197E+03 0.  0.
         22    1    5    5    0    0 -0.41178598115E+03 -0.70033155165E+02 -0.64368181121E+03  0.76733213876E+03  0.00000000000E+00 0.  1.
         22    1    5    5    0    0  0.30228299645E+03  0.15273912280E+03 -0.15863357930E+03  0.37399045718E+03  0.00000000000E+00 0.  1.
          5    1    4    4  502    0  0.54890236913E+02 -0.11099412286E+03 -0.87310894108E+02  0.15158468145E+03  0.47000000000E+01 0.  1.
         -5    1    4    4    0  502  0.54612747786E+02  0.28288155232E+02 -0.55924667113E+02  0.83261217495E+02  0.47000000000E+01 0.  1.
<mgrwt>
<rscale>  0 0.99988656E+03</rscale>
<asrwt>0</asrwt>
<pdfrwt beam="1">  1        2 0.17859380E+00 0.99988656E+03</pdfrwt>
<pdfrwt beam="2">  1       -2 0.33124427E-01 0.99988656E+03</pdfrwt>
<totfact> 0.20509178E+02</totfact>
</mgrwt>
</event>
<event>
 9    1  0.4369420E-036  0.9994458E+03  0.7818608E-02  0.8681566E-01
          2   -1    0    0  501    0  0.00000000000E+00  0.00000000000E+00  0.17571372158E+04  0.17571372158E+04  0.00000000000E+00 0.  1.
         -2   -1    0    0    0  501 -0.00000000000E+00 -0.00000000000E+00 -0.14211923042E+03  0.14211923042E+03  0.00000000000E+00 0.  1.
         36    2    1    2    0    0 -0.14210854715E-13  0.14210854715E-13  0.16150179854E+04  0.18992564462E+04  0.99944582415E+03 0.  0.
         25    2    3    3    0    0 -0.11243842822E+03  0.41118908624E+02  0.16440043513E+03  0.23796228198E+03  0.12355314560E+03 0.  0.
         35    2    3    3    0    0  0.11243842822E+03 -0.41118908624E+02  0.14506175503E+04  0.16612941642E+04  0.80079576563E+03 0.  0.
         22    1    5    5    0    0  0.22994599242E+03 -0.37953624368E+03  0.91481730715E+03  0.10167662589E+04  0.00000000000E+00 0.  1.
         22    1    5    5    0    0 -0.11750756419E+03  0.33841733505E+03  0.53580024311E+03  0.64452790539E+03  0.00000000000E+00 0.  1.
          5    1    4    4  502    0 -0.73754588280E+02  0.61955592615E+02  0.16790988372E+03  0.19363381368E+03  0.47000000000E+01 0. -1.
         -5    1    4    4    0  502 -0.38683839944E+02 -0.20836683991E+02 -0.35094485921E+01  0.44328468301E+02  0.47000000000E+01 0. -1.
<mgrwt>
<rscale>  0 0.99944582E+03</rscale>
<asrwt>0</asrwt>
<pdfrwt beam="1">  1        2 0.27032879E+00 0.99944582E+03</pdfrwt>
<pdfrwt beam="2">  1       -2 0.21864498E-01 0.99944582E+03</pdfrwt>
<totfact> 0.19703885E+02</totfact>
</mgrwt>
</event>
<event>
 9    1  0.4369420E-036  0.9999613E+03  0.7818608E-02  0.8681075E-01
          2   -1    0    0  501    0  0.00000000000E+00  0.00000000000E+00  0.16066119634E+04  0.16066119634E+04  0.00000000000E+00 0. -1.
         -2   -1    0    0    0  501 -0.00000000000E+00 -0.00000000000E+00 -0.15559491104E+03  0.15559491104E+03  0.00000000000E+00 0. -1.
         36    2    1    2    0    0  0.14210854715E-13  0.28421709430E-13  0.14510170524E+04  0.17622068745E+04  0.99996129031E+03 0.  0.
         25    2    3    3    0    0  0.15564676905E+02  0.85359296950E+02  0.46205556439E+03  0.48642473828E+03  0.12484074927E+03 0.  0.
         35    2    3    3    0    0 -0.15564676905E+02 -0.85359296950E+02  0.98896148798E+03  0.12757821362E+04  0.80127820734E+03 0.  0.
         22    1    5    5    0    0 -0.29082197487E+03  0.24165922936E+03  0.44426382949E+03  0.58339262456E+03  0.00000000000E+00 0.  1.
         22    1    5    5    0    0  0.27525729797E+03 -0.32701852631E+03  0.54469765849E+03  0.69238951162E+03  0.00000000000E+00 0.  1.
          5    1    4    4  502    0  0.39534010371E+02  0.39901445633E+02  0.65025540472E+02  0.86055065239E+02  0.47000000000E+01 0.  1.
         -5    1    4    4    0  502 -0.23969333467E+02  0.45457851316E+02  0.39703002392E+03  0.40036967304E+03  0.47000000000E+01 0.  1.
<mgrwt>
<rscale>  0 0.99996129E+03</rscale>
<asrwt>0</asrwt>
<pdfrwt beam="1">  1        2 0.24717106E+00 0.99996129E+03</pdfrwt>
<pdfrwt beam="2">  1       -2 0.23937680E-01 0.99996129E+03</pdfrwt>
<totfact> 0.20430767E+02</totfact>
</mgrwt>
</event>
<event>
 9    1  0.4369420E-036  0.1000846E+04  0.7818608E-02  0.8680233E-01
         -1   -1    0    0    0  501 -0.00000000000E+00  0.00000000000E+00  0.87027057310E+03  0.87027057310E+03  0.00000000000E+00 0.  1.
          1   -1    0    0  501    0  0.00000000000E+00 -0.00000000000E+00 -0.28775313158E+03  0.28775313158E+03  0.00000000000E+00 0.  1.
         36    2    1    2    0    0  0.00000000000E+00  0.00000000000E+00  0.58251744151E+03  0.11580237047E+04  0.10008458078E+04 0.  0.
         25    2    3    3    0    0  0.45475192245E+02 -0.34164831011E+02 -0.39487238229E+02  0.14311640195E+03  0.12525108277E+03 0.  0.
         35    2    3    3    0    0 -0.45475192245E+02  0.34164831011E+02  0.62200467974E+03  0.10149073027E+04  0.79994486231E+03 0.  0.
         22    1    5    5    0    0  0.94074043391E+02  0.20579903069E+03  0.73320148857E+03  0.76732495692E+03  0.00000000000E+00 0. -1.
         22    1    5    5    0    0 -0.13954923564E+03 -0.17163419968E+03 -0.11119680883E+03  0.24758234581E+03  0.00000000000E+00 0. -1.
          5    1    4    4  502    0 -0.41312946237E+02 -0.26585609800E+02 -0.62146684711E+01  0.49741997139E+02  0.47000000000E+01 0.  1.
         -5    1    4    4    0  502  0.86788138482E+02 -0.75792212111E+01 -0.33272569758E+02  0.93374404810E+02  0.47000000000E+01 0.  1.
<mgrwt>
<rscale>  0 0.10008458E+04</rscale>
<asrwt>0</asrwt>
<pdfrwt beam="1">  1        1 0.44269713E-01 0.10008458E+04</pdfrwt>
<pdfrwt beam="2">  1       -1 0.13388778E+00 0.10008458E+04</pdfrwt>
<totfact> 0.52023928E+01</totfact>
</mgrwt>
</event>
<event>
 9    1  0.4369420E-036  0.1000324E+04  0.7818608E-02  0.8680729E-01
         -2   -1    0    0    0  501 -0.00000000000E+00  0.00000000000E+00  0.37733759773E+03  0.37733759773E+03  0.00000000000E+00 0. -1.
          2   -1    0    0  501    0  0.00000000000E+00 -0.00000000000E+00 -0.66296637295E+03  0.66296637295E+03  0.00000000000E+00 0. -1.
         36    2    1    2    0    0  0.28421709430E-13 -0.71054273576E-14 -0.28562877522E+03  0.10403039707E+04  0.10003242245E+04 0.  0.
         25    2    3    3    0    0 -0.13519238859E+03 -0.29307337077E+02 -0.23591992574E+02  0.18763833689E+03  0.12456187786E+03 0.  0.
         35    2    3    3    0    0  0.13519238859E+03  0.29307337077E+02 -0.26203678264E+03  0.85266563379E+03  0.79952454975E+03 0.  0.
         22    1    5    5    0    0  0.30188113599E+03 -0.12873716430E+03 -0.44923583497E+03  0.55634370056E+03  0.00000000000E+00 0.  1.
         22    1    5    5    0    0 -0.16668874740E+03  0.15804450137E+03  0.18719905232E+03  0.29632193323E+03  0.00000000000E+00 0.  1.
          5    1    4    4  502    0 -0.65508322068E+02 -0.25050044749E+02 -0.73492213290E+02  0.10169582300E+03  0.47000000000E+01 0. -1.
         -5    1    4    4    0  502 -0.69684066527E+02 -0.42572923284E+01  0.49900220716E+02  0.85942513887E+02  0.47000000000E+01 0. -1.
<mgrwt>
<rscale>  0 0.10003242E+04</rscale>
<asrwt>0</asrwt>
<pdfrwt beam="1">  1        2 0.10199483E+00 0.10003242E+04</pdfrwt>
<pdfrwt beam="2">  1       -2 0.58051938E-01 0.10003242E+04</pdfrwt>
<totfact> 0.14740319E+02</totfact>
</mgrwt>
</event>
<event>
 9    1  0.4369420E-036  0.1000702E+04  0.7818608E-02  0.8680370E-01
          2   -1    0    0  501    0  0.00000000000E+00  0.00000000000E+00  0.68923918369E+03  0.68923918369E+03  0.00000000000E+00 0.  1.
         -2   -1    0    0    0  501 -0.00000000000E+00 -0.00000000000E+00 -0.36322812943E+03  0.36322812943E+03  0.00000000000E+00 0.  1.
         36    2    1    2    0    0  0.00000000000E+00 -0.14210854715E-13  0.32601105426E+03  0.10524673131E+04  0.10007018725E+04 0.  0.
         25    2    3    3    0    0  0.11113471234E+03  0.90041692751E+02  0.64431097267E+02  0.20116598883E+03  0.12592838459E+03 0.  0.
         35    2    3    3    0    0 -0.11113471234E+03 -0.90041692751E+02  0.26157995699E+03  0.85130132430E+03  0.79739039380E+03 0.  0.
         22    1    5    5    0    0 -0.96267697182E+02 -0.21496993541E+03  0.51614237693E+03  0.56734689204E+03  0.00000000000E+00 0. -1.
         22    1    5    5    0    0 -0.14867015159E+02  0.12492824266E+03 -0.25456241993E+03  0.28395443225E+03  0.00000000000E+00 0. -1.
          5    1    4    4  502    0  0.13580467584E+02 -0.64522745666E+01  0.61872992966E+02  0.63846833950E+02  0.47000000000E+01 0.  1.
         -5    1    4    4    0  502  0.97554244757E+02  0.96493967318E+02  0.25581043015E+01  0.13731915488E+03  0.47000000000E+01 0.  1.
<mgrwt>
<rscale>  0 0.10007019E+04</rscale>
<asrwt>0</asrwt>
<pdfrwt beam="1">  1        2 0.10603680E+00 0.10007019E+04</pdfrwt>
<pdfrwt beam="2">  1       -2 0.55881251E-01 0.10007019E+04</pdfrwt>
<totfact> 0.15208776E+02</totfact>
</mgrwt>
</event>
<event>
 9    1  0.4369420E-036  0.1002420E+04  0.7818608E-02  0.8678737E-01
         -1   -1    0    0    0  501 -0.00000000000E+00  0.00000000000E+00  0.51443987487E+03  0.51443987487E+03  0.00000000000E+00 0.  1.
          1   -1    0    0  501    0  0.00000000000E+00 -0.00000000000E+00 -0.48832044615E+03  0.48832044615E+03  0.00000000000E+00 0.  1.
         36    2    1    2    0    0  0.14210854715E-13 -0.14210854715E-13  0.26119428710E+02  0.10027603210E+04  0.10024200900E+04 0.  0.
         25    2    3    3    0    0  0.61245641126E+02 -0.11397641366E+03  0.58883380656E+02  0.19123804304E+03  0.12791827532E+03 0.  0.
         35    2    3    3    0    0 -0.61245641126E+02  0.11397641366E+03 -0.32763951945E+02  0.81152227798E+03  0.80047066135E+03 0.  0.
         22    1    5    5    0    0  0.15595601122E+03 -0.29255825545E+03  0.71044145657E+02  0.33905734161E+03  0.00000000000E+00 0.  1.
         22    1    5    5    0    0 -0.21720165234E+03  0.40653466911E+03 -0.10380809760E+03  0.47246493637E+03  0.00000000000E+00 0.  1.
          5    1    4    4  502    0 -0.28247487140E+02  0.82294718990E+01  0.15615130913E+02  0.33638773029E+02  0.47000000000E+01 0. -1.
         -5    1    4    4    0  502  0.89493128266E+02 -0.12220588556E+03  0.43268249743E+02  0.15759927001E+03  0.47000000000E+01 0. -1.
<mgrwt>
<rscale>  0 0.10024201E+04</rscale>
<asrwt>0</asrwt>
<pdfrwt beam="1">  1        1 0.75126223E-01 0.10024201E+04</pdfrwt>
<pdfrwt beam="2">  1       -1 0.79144596E-01 0.10024201E+04</pdfrwt>
<totfact> 0.86386546E+01</totfact>
</mgrwt>
</event>
<event>
 9    1  0.4369420E-036  0.1000163E+04  0.7818608E-02  0.8680883E-01
          1   -1    0    0  501    0  0.00000000000E+00  0.00000000000E+00  0.34107439169E+04  0.34107439169E+04  0.00000000000E+00 0.  1.
         -1   -1    0    0    0  501 -0.00000000000E+00 -0.00000000000E+00 -0.73321627633E+02  0.73321627633E+02  0.00000000000E+00 0.  1.
         36    2    1    2    0    0  0.00000000000E+00 -0.17763568394E-13  0.33374222893E+04  0.34840655445E+04  0.10001625776E+04 0.  0.
         25    2    3    3    0    0  0.13492590788E+03 -0.19609274188E+02  0.54266277925E+03  0.57383526199E+03  0.12733613650E+03 0.  0.
         35    2    3    3    0    0 -0.13492590788E+03  0.19609274188E+02  0.27947595100E+04  0.29102302825E+04  0.80010627694E+03 0.  0.
         22    1    5    5    0    0  0.25007180789E+03 -0.22730097361E+03  0.14831697886E+04  0.15211818640E+04  0.00000000000E+00 0.  1.
         22    1    5    5    0    0 -0.38499771576E+03  0.24691024780E+03  0.13115897214E+04  0.13890484185E+04  0.00000000000E+00 0.  1.
          5    1    4    4  502    0 -0.23501980161E+02  0.86069363230E+01  0.80880972956E+02  0.84795307716E+02  0.47000000000E+01 0. -1.
         -5    1    4    4    0  502  0.15842788804E+03 -0.28216210511E+02  0.46178180630E+03  0.48903995427E+03  0.47000000000E+01 0. -1.
<mgrwt>
<rscale>  0 0.10001626E+04</rscale>
<asrwt>0</asrwt>
<pdfrwt beam="1">  1        1 0.52472971E+00 0.10001626E+04</pdfrwt>
<pdfrwt beam="2">  1       -1 0.11280253E-01 0.10001626E+04</pdfrwt>
<totfact> 0.15784006E+01</totfact>
</mgrwt>
</event>
<event>
 9    1  0.4369420E-036  0.1000256E+04  0.7818608E-02  0.8680795E-01
          2   -1    0    0  501    0  0.00000000000E+00  0.00000000000E+00  0.65043843768E+03  0.65043843768E+03  0.00000000000E+00 0. -1.
         -2   -1    0    0    0  501 -0.00000000000E+00 -0.00000000000E+00 -0.38455263636E+03  0.38455263636E+03  0.00000000000E+00 0. -1.
         36    2    1    2    0    0  0.00000000000E+00 -0.14210854715E-13  0.26588580132E+03  0.10349910740E+04  0.10002555993E+04 0.  0.
         25    2    3    3    0    0  0.71973536614E+02  0.10234938106E+03 -0.84443587806E+01  0.17885226671E+03  0.12751956845E+03 0.  0.
         35    2    3    3    0    0 -0.71973536614E+02 -0.10234938106E+03  0.27433016010E+03  0.85613880732E+03  0.80128711139E+03 0.  0.
         22    1    5    5    0    0 -0.29912034932E+03 -0.27096342260E+03 -0.70929009819E+02  0.40978663253E+03  0.00000000000E+00 0.  1.
         22    1    5    5    0    0  0.22714681271E+03  0.16861404154E+03  0.34525916992E+03  0.44635217479E+03  0.00000000000E+00 0.  1.
          5    1    4    4  502    0  0.21270628338E+02  0.98747054732E+02  0.39745434732E+02  0.10865178337E+03  0.47000000000E+01 0.  1.
         -5    1    4    4    0  502  0.50702908276E+02  0.36023263268E+01 -0.48189793513E+02  0.70200483342E+02  0.47000000000E+01 0.  1.
<mgrwt>
<rscale>  0 0.10002556E+04</rscale>
<asrwt>0</asrwt>
<pdfrwt beam="1">  1        2 0.10006745E+00 0.10002556E+04</pdfrwt>
<pdfrwt beam="2">  1       -2 0.59161944E-01 0.10002556E+04</pdfrwt>
<totfact> 0.14503094E+02</totfact>
</mgrwt>
</event>
<event>
 9    1  0.4369420E-036  0.1003975E+04  0.7818608E-02  0.8677262E-01
         -2   -1    0    0    0  501 -0.00000000000E+00  0.00000000000E+00  0.36842610951E+03  0.36842610951E+03  0.00000000000E+00 0.  1.
          2   -1    0    0  501    0  0.00000000000E+00 -0.00000000000E+00 -0.68396719889E+03  0.68396719889E+03  0.00000000000E+00 0.  1.
         36    2    1    2    0    0 -0.14210854715E-13  0.00000000000E+00 -0.31554108938E+03  0.10523933084E+04  0.10039748485E+04 0.  0.
         25    2    3    3    0    0  0.42519706984E+02  0.13807779405E+03 -0.26801123125E+02  0.19286734953E+03  0.12492442364E+03 0.  0.
         35    2    3    3    0    0 -0.42519706984E+02 -0.13807779405E+03 -0.28873996626E+03  0.85952595887E+03  0.79658063193E+03 0.  0.
         22    1    5    5    0    0  0.19885832976E+03 -0.99142267601E+02 -0.49311052090E+03  0.54086209922E+03  0.00000000000E+00 0. -1.
         22    1    5    5    0    0 -0.24137803675E+03 -0.38935526450E+02  0.20437055464E+03  0.31866385965E+03  0.00000000000E+00 0. -1.
          5    1    4    4  502    0 -0.16766431119E+02  0.37463409804E+01  0.30386004470E+02  0.35221407565E+02  0.47000000000E+01 0.  1.
         -5    1    4    4    0  502  0.59286138103E+02  0.13433145307E+03 -0.57187127595E+02  0.15764594196E+03  0.47000000000E+01 0.  1.
<mgrwt>
<rscale>  0 0.10039748E+04</rscale>
<asrwt>0</asrwt>
<pdfrwt beam="1">  1        2 0.10522572E+00 0.10039748E+04</pdfrwt>
<pdfrwt beam="2">  1       -2 0.56680941E-01 0.10039748E+04</pdfrwt>
<totfact> 0.14908523E+02</totfact>
</mgrwt>
</event>
<event>
 9    1  0.4369420E-036  0.9996848E+03  0.7818608E-02  0.8681338E-01
         -2   -1    0    0    0  501 -0.00000000000E+00  0.00000000000E+00  0.11129867407E+03  0.11129867407E+03  0.00000000000E+00 0.  1.
          2   -1    0    0  501    0  0.00000000000E+00 -0.00000000000E+00 -0.22447925589E+04  0.22447925589E+04  0.00000000000E+00 0.  1.
         36    2    1    2    0    0 -0.14210854715E-13  0.00000000000E+00 -0.21334938849E+04  0.23560912330E+04  0.99968482108E+03 0.  0.
         25    2    3    3    0    0  0.60499436749E+02 -0.10956037114E+03 -0.54782894744E+03  0.57552107903E+03  0.12427509797E+03 0.  0.
         35    2    3    3    0    0 -0.60499436749E+02  0.10956037114E+03 -0.15856649374E+04  0.17805701540E+04  0.80027065591E+03 0.  0.
         22    1    5    5    0    0  0.29619838822E+03 -0.12747122739E+03 -0.10282500676E+04  0.10776273013E+04  0.00000000000E+00 0. -1.
         22    1    5    5    0    0 -0.35669782497E+03  0.23703159853E+03 -0.55741486985E+03  0.70294285270E+03  0.00000000000E+00 0. -1.
          5    1    4    4  502    0  0.94939436327E+02 -0.82939284035E+02 -0.32903938045E+03  0.35239384968E+03  0.47000000000E+01 0. -1.
         -5    1    4    4    0  502 -0.34439999578E+02 -0.26621087108E+02 -0.21878956700E+03  0.22312722935E+03  0.47000000000E+01 0. -1.
<mgrwt>
<rscale>  0 0.99968482E+03</rscale>
<asrwt>0</asrwt>
<pdfrwt beam="1">  1        2 0.34535270E+00 0.99968482E+03</pdfrwt>
<pdfrwt beam="2">  1       -2 0.17122873E-01 0.99968482E+03</pdfrwt>
<totfact> 0.15809394E+02</totfact>
</mgrwt>
</event>
<event>
 9    1  0.4369420E-036  0.9994951E+03  0.7818608E-02  0.8681519E-01
          2   -1    0    0  501    0  0.00000000000E+00  0.00000000000E+00  0.40204833969E+03  0.40204833969E+03  0.00000000000E+00 0.  1.
         -2   -1    0    0    0  501 -0.00000000000E+00 -0.00000000000E+00 -0.62118805389E+03  0.62118805389E+03  0.00000000000E+00 0.  1.
         36    2    1    2    0    0 -0.28421709430E-13 -0.14210854715E-13 -0.21913971420E+03  0.10232363936E+04  0.99949512396E+03 0.  0.
         25    2    3    3    0    0 -0.10479395997E+03  0.45316567083E+02  0.39987098875E+02  0.17387486051E+03  0.12489248873E+03 0.  0.
         35    2    3    3    0    0  0.10479395997E+03 -0.45316567083E+02 -0.25912681307E+03  0.84936153308E+03  0.80077021880E+03 0.  0.
         22    1    5    5    0    0 -0.32728005632E+03  0.83693259963E+02 -0.20513461277E+03  0.39521766962E+03  0.00000000000E+00 0.  1.
         22    1    5    5    0    0  0.43207401628E+03 -0.12900982705E+03 -0.53992200300E+02  0.45414386346E+03  0.00000000000E+00 0.  1.
          5    1    4    4  502    0 -0.88666517540E+02 -0.32190787591E+01 -0.23798781663E+02  0.91981442745E+02  0.47000000000E+01 0.  1.
         -5    1    4    4    0  502 -0.16127442428E+02  0.48535645842E+02  0.63785880538E+02  0.81893417761E+02  0.47000000000E+01 0.  1.
<mgrwt>
<rscale>  0 0.99949512E+03</rscale>
<asrwt>0</asrwt>
<pdfrwt beam="1">  1        2 0.61853591E-01 0.99949512E+03</pdfrwt>
<pdfrwt beam="2">  1       -2 0.95567392E-01 0.99949512E+03</pdfrwt>
<totfact> 0.86582948E+01</totfact>
</mgrwt>
</event>
<event>
 9    1  0.4369420E-036  0.9987972E+03  0.7818608E-02  0.8682184E-01
          2   -1    0    0  501    0  0.00000000000E+00  0.00000000000E+00  0.38998515950E+03  0.38998515950E+03  0.00000000000E+00 0.  1.
         -2   -1    0    0    0  501 -0.00000000000E+00 -0.00000000000E+00 -0.63950883109E+03  0.63950883109E+03  0.00000000000E+00 0.  1.
         36    2    1    2    0    0 -0.42632564146E-13  0.00000000000E+00 -0.24952367160E+03  0.10294939906E+04  0.99879718360E+03 0.  0.
         25    2    3    3    0    0 -0.56034273566E+02 -0.11562938646E+03 -0.95019556984E+02  0.20356714404E+03  0.12609865620E+03 0.  0.
         35    2    3    3    0    0  0.56034273566E+02  0.11562938646E+03 -0.15450411461E+03  0.82592684655E+03  0.80110775779E+03 0.  0.
         22    1    5    5    0    0 -0.32354155816E+03  0.24455619735E+03 -0.12302702328E+03  0.42381897312E+03  0.00000000000E+00 0. -1.
         22    1    5    5    0    0  0.37957583173E+03 -0.12892681088E+03 -0.31477091329E+02  0.40210787343E+03  0.00000000000E+00 0. -1.
          5    1    4    4  502    0  0.13254616829E+02  0.17250475193E+02  0.56623344408E+01  0.22965534894E+02  0.47000000000E+01 0. -1.
         -5    1    4    4    0  502 -0.69288890395E+02 -0.13287986166E+03 -0.10068189143E+03  0.18060160915E+03  0.47000000000E+01 0. -1.
<mgrwt>
<rscale>  0 0.99879718E+03</rscale>
<asrwt>0</asrwt>
<pdfrwt beam="1">  1        2 0.59997718E-01 0.99879718E+03</pdfrwt>
<pdfrwt beam="2">  1       -2 0.98385973E-01 0.99879718E+03</pdfrwt>
<totfact> 0.83548066E+01</totfact>
</mgrwt>
</event>
<event>
 9    1  0.4369420E-036  0.9996382E+03  0.7818608E-02  0.8681383E-01
          2   -1    0    0  501    0  0.00000000000E+00  0.00000000000E+00  0.30360910135E+03  0.30360910135E+03  0.00000000000E+00 0. -1.
         -2   -1    0    0    0  501 -0.00000000000E+00 -0.00000000000E+00 -0.82283143454E+03  0.82283143454E+03  0.00000000000E+00 0. -1.
         36    2    1    2    0    0 -0.14210854715E-13  0.21316282073E-13 -0.51922233319E+03  0.11264405359E+04  0.99963815934E+03 0.  0.
         25    2    3    3    0    0  0.11874021674E+03  0.43100396790E+02 -0.15946724006E+03  0.23912653204E+03  0.12567742199E+03 0.  0.
         35    2    3    3    0    0 -0.11874021674E+03 -0.43100396790E+02 -0.35975509314E+03  0.88731400385E+03  0.80121503425E+03 0.  0.
         22    1    5    5    0    0 -0.35862029328E+03 -0.28572023347E+03 -0.27888508896E+03  0.53667630786E+03  0.00000000000E+00 0.  1.
         22    1    5    5    0    0  0.23988007654E+03  0.24261983668E+03 -0.80870004171E+02  0.35063769599E+03  0.00000000000E+00 0.  1.
          5    1    4    4  502    0  0.41499129897E+02 -0.25960038268E+02 -0.11725028290E+03  0.12714487881E+03  0.47000000000E+01 0. -1.
         -5    1    4    4    0  502  0.77241086846E+02  0.69060435058E+02 -0.42216957160E+02  0.11198165323E+03  0.47000000000E+01 0. -1.
<mgrwt>
<rscale>  0 0.99963816E+03</rscale>
<asrwt>0</asrwt>
<pdfrwt beam="1">  1        2 0.46709092E-01 0.99963816E+03</pdfrwt>
<pdfrwt beam="2">  1       -2 0.12658945E+00 0.99963816E+03</pdfrwt>
<totfact> 0.58301136E+01</totfact>
</mgrwt>
</event>
<event>
 9    1  0.4369420E-036  0.9983227E+03  0.7818608E-02  0.8682637E-01
         -2   -1    0    0    0  501 -0.00000000000E+00  0.00000000000E+00  0.53611522376E+03  0.53611522376E+03  0.00000000000E+00 0.  1.
          2   -1    0    0  501    0  0.00000000000E+00 -0.00000000000E+00 -0.46475471319E+03  0.46475471319E+03  0.00000000000E+00 0.  1.
         36    2    1    2    0    0  0.21316282073E-13 -0.28421709430E-13  0.71360510571E+02  0.10008699370E+04  0.99832274753E+03 0.  0.
         25    2    3    3    0    0  0.97032227447E+01 -0.13761992838E+03  0.18011774938E+02  0.18719428913E+03  0.12523530104E+03 0.  0.
         35    2    3    3    0    0 -0.97032227447E+01  0.13761992838E+03  0.53348735633E+02  0.81367564783E+03  0.80011785073E+03 0.  0.
         22    1    5    5    0    0 -0.28972172226E+03 -0.16125202399E+03 -0.14104833471E+03  0.36032696862E+03  0.00000000000E+00 0. -1.
         22    1    5    5    0    0  0.28001849952E+03  0.29887195237E+03  0.19439707034E+03  0.45334867921E+03  0.00000000000E+00 0. -1.
          5    1    4    4  502    0  0.47443894316E+02 -0.15934282598E+02  0.30976466744E+02  0.59046218860E+02  0.47000000000E+01 0. -1.
         -5    1    4    4    0  502 -0.37740671571E+02 -0.12168564578E+03 -0.12964691806E+02  0.12814807027E+03  0.47000000000E+01 0. -1.
<mgrwt>
<rscale>  0 0.99832275E+03</rscale>
<asrwt>0</asrwt>
<pdfrwt beam="1">  1        2 0.71500726E-01 0.99832275E+03</pdfrwt>
<pdfrwt beam="2">  1       -2 0.82479265E-01 0.99832275E+03</pdfrwt>
<totfact> 0.10395639E+02</totfact>
</mgrwt>
</event>
<event>
 9    1  0.4369420E-036  0.9995801E+03  0.7818608E-02  0.8681438E-01
         -1   -1    0    0    0  501 -0.00000000000E+00  0.00000000000E+00  0.21900020363E+03  0.21900020363E+03  0.00000000000E+00 0.  1.
          1   -1    0    0  501    0  0.00000000000E+00 -0.00000000000E+00 -0.11405928881E+04  0.11405928881E+04  0.00000000000E+00 0.  1.
         36    2    1    2    0    0  0.00000000000E+00 -0.17763568394E-13 -0.92159268450E+03  0.13595930917E+04  0.99958006133E+03 0.  0.
         25    2    3    3    0    0 -0.13543913236E+03 -0.96182917603E+01 -0.12974047885E+03  0.22595814500E+03  0.12565118912E+03 0.  0.
         35    2    3    3    0    0  0.13543913236E+03  0.96182917603E+01 -0.79185220564E+03  0.11336349468E+04  0.79978872636E+03 0.  0.
         22    1    5    5    0    0  0.16568772840E+03  0.31677553554E+03 -0.92588726874E+02  0.36928557460E+03  0.00000000000E+00 0.  1.
         22    1    5    5    0    0 -0.30248596041E+02 -0.30715724378E+03 -0.69926347877E+03  0.76434937215E+03  0.00000000000E+00 0.  1.
          5    1    4    4  502    0 -0.28228378230E+02  0.16171096338E+02 -0.10875235953E+03  0.11361122918E+03  0.47000000000E+01 0.  1.
         -5    1    4    4    0  502 -0.10721075413E+03 -0.25789388098E+02 -0.20988119327E+02  0.11234691581E+03  0.47000000000E+01 0.  1.
<mgrwt>
<rscale>  0 0.99958006E+03</rscale>
<asrwt>0</asrwt>
<pdfrwt beam="1">  1        1 0.17547583E+00 0.99958006E+03</pdfrwt>
<pdfrwt beam="2">  1       -1 0.33692340E-01 0.99958006E+03</pdfrwt>
<totfact> 0.10874000E+02</totfact>
</mgrwt>
</event>
<event>
 9    1  0.4369420E-036  0.1000365E+04  0.7818608E-02  0.8680691E-01
          1   -1    0    0  501    0  0.00000000000E+00  0.00000000000E+00  0.64483226950E+03  0.64483226950E+03  0.00000000000E+00 0. -1.
         -1   -1    0    0    0  501 -0.00000000000E+00 -0.00000000000E+00 -0.38798053221E+03  0.38798053221E+03  0.00000000000E+00 0. -1.
         36    2    1    2    0    0  0.71054273576E-14  0.42632564146E-13  0.25685173729E+03  0.10328128017E+04  0.10003646677E+04 0.  0.
         25    2    3    3    0    0 -0.23049787320E+02  0.23008564055E+02  0.19050379967E+03  0.22939573109E+03  0.12357191040E+03 0.  0.
         35    2    3    3    0    0  0.23049787320E+02 -0.23008564055E+02  0.66347937618E+02  0.80341707061E+03  0.80001015856E+03 0.  0.
         22    1    5    5    0    0  0.23426917003E+03  0.30943255758E+03 -0.53356541154E+02  0.39176200964E+03  0.00000000000E+00 0.  1.
         22    1    5    5    0    0 -0.21121938271E+03 -0.33244112163E+03  0.11970447877E+03  0.41165506097E+03  0.00000000000E+00 0.  1.
          5    1    4    4  502    0  0.12851435142E+01 -0.82161344569E+01  0.18927022312E+03  0.18951111793E+03  0.47000000000E+01 0.  1.
         -5    1    4    4    0  502 -0.24334930834E+02  0.31224698512E+02  0.12335765484E+01  0.39884613161E+02  0.47000000000E+01 0.  1.
<mgrwt>
<rscale>  0 0.10003647E+04</rscale>
<asrwt>0</asrwt>
<pdfrwt beam="1">  1        1 0.99204965E-01 0.10003647E+04</pdfrwt>
<pdfrwt beam="2">  1       -1 0.59689313E-01 0.10003647E+04</pdfrwt>
<totfact> 0.10148179E+02</totfact>
</mgrwt>
</event>
<event>
 9    1  0.4369420E-036  0.1000065E+04  0.7818608E-02  0.8680976E-01
          2   -1    0    0  501    0  0.00000000000E+00  0.00000000000E+00  0.14460902667E+04  0.14460902667E+04  0.00000000000E+00 0. -1.
         -2   -1    0    0    0  501 -0.00000000000E+00 -0.00000000000E+00 -0.17290258464E+03  0.17290258464E+03  0.00000000000E+00 0. -1.
         36    2    1    2    0    0 -0.39079850467E-13  0.71054273576E-14  0.12731876821E+04  0.16189928513E+04  0.10000654873E+04 0.  0.
         25    2    3    3    0    0  0.26274089033E+02 -0.29498938653E+01  0.16585619397E+02  0.12910074033E+03  0.12527126069E+03 0.  0.
         35    2    3    3    0    0 -0.26274089033E+02  0.29498938653E+01  0.12566020627E+04  0.14898921110E+04  0.80001920534E+03 0.  0.
         22    1    5    5    0    0  0.23826780735E+03 -0.30589125789E+03  0.52205384394E+03  0.65029318438E+03  0.00000000000E+00 0. -1.
         22    1    5    5    0    0 -0.26454189638E+03  0.30884115176E+03  0.73454821871E+03  0.83959892662E+03  0.00000000000E+00 0. -1.
          5    1    4    4  502    0  0.42084987397E+02 -0.53187722670E+02  0.30363475813E+02  0.74458785045E+02  0.47000000000E+01 0. -1.
         -5    1    4    4    0  502 -0.15810898363E+02  0.50237828805E+02 -0.13777856416E+02  0.54641955286E+02  0.47000000000E+01 0. -1.
<mgrwt>
<rscale>  0 0.10000655E+04</rscale>
<asrwt>0</asrwt>
<pdfrwt beam="1">  1        2 0.22247542E+00 0.10000655E+04</pdfrwt>
<pdfrwt beam="2">  1       -2 0.26600399E-01 0.10000655E+04</pdfrwt>
<totfact> 0.20878872E+02</totfact>
</mgrwt>
</event>
<event>
 9    1  0.4369420E-036  0.9994618E+03  0.7818608E-02  0.8681551E-01
          2   -1    0    0  501    0  0.00000000000E+00  0.00000000000E+00  0.58021990981E+03  0.58021990981E+03  0.00000000000E+00 0. -1.
         -2   -1    0    0    0  501 -0.00000000000E+00 -0.00000000000E+00 -0.43040741028E+03  0.43040741028E+03  0.00000000000E+00 0. -1.
         36    2    1    2    0    0  0.00000000000E+00 -0.14210854715E-13  0.14981249953E+03  0.10106273201E+04  0.99946175269E+03 0.  0.
         25    2    3    3    0    0 -0.11933911829E+03  0.10925497688E+02  0.99246094206E+02  0.19984303307E+03  0.12540438189E+03 0.  0.
         35    2    3    3    0    0  0.11933911829E+03 -0.10925497688E+02  0.50566405325E+02  0.81078428702E+03  0.80028307934E+03 0.  0.
         22    1    5    5    0    0 -0.83931161341E+02  0.21502824392E+03 -0.27923840276E+03  0.36229224544E+03  0.00000000000E+00 0.  1.
         22    1    5    5    0    0  0.20327027963E+03 -0.22595374161E+03  0.32980480809E+03  0.44849204158E+03  0.00000000000E+00 0.  1.
          5    1    4    4  502    0 -0.52017829508E+02  0.43447244764E+02  0.10461374066E+03  0.12473829564E+03  0.47000000000E+01 0. -1.
         -5    1    4    4    0  502 -0.67321288778E+02 -0.32521747076E+02 -0.53676464513E+01  0.75104737427E+02  0.47000000000E+01 0. -1.
<mgrwt>
<rscale>  0 0.99946175E+03</rscale>
<asrwt>0</asrwt>
<pdfrwt beam="1">  1        2 0.89264602E-01 0.99946175E+03</pdfrwt>
<pdfrwt beam="2">  1       -2 0.66216524E-01 0.99946175E+03</pdfrwt>
<totfact> 0.13105990E+02</totfact>
</mgrwt>
</event>
<event>
 9    1  0.4369420E-036  0.9976813E+03  0.7818608E-02  0.8683249E-01
          1   -1    0    0  501    0  0.00000000000E+00  0.00000000000E+00  0.14195062360E+04  0.14195062360E+04  0.00000000000E+00 0.  1.
         -1   -1    0    0    0  501 -0.00000000000E+00 -0.00000000000E+00 -0.17530178873E+03  0.17530178873E+03  0.00000000000E+00 0.  1.
         36    2    1    2    0    0  0.00000000000E+00  0.00000000000E+00  0.12442044472E+04  0.15948080247E+04  0.99768127631E+03 0.  0.
         25    2    3    3    0    0  0.11722644005E+03 -0.64161430437E+02  0.22684824685E+03  0.29149788087E+03  0.12510859304E+03 0.  0.
         35    2    3    3    0    0 -0.11722644005E+03  0.64161430437E+02  0.10173562004E+04  0.13033101438E+04  0.80358258139E+03 0.  0.
         22    1    5    5    0    0 -0.18350456537E+03  0.15715924895E+03 -0.35569850720E+02  0.24420927362E+03  0.00000000000E+00 0. -1.
         22    1    5    5    0    0  0.66278125321E+02 -0.92997818515E+02  0.10529260511E+04  0.10591008702E+04  0.00000000000E+00 0. -1.
          5    1    4    4  502    0  0.68970872729E+02 -0.71537991187E+02  0.22068339722E+03  0.24207006687E+03  0.47000000000E+01 0. -1.
         -5    1    4    4    0  502  0.48255567323E+02  0.73765607499E+01  0.61648496329E+01  0.49427814004E+02  0.47000000000E+01 0. -1.
<mgrwt>
<rscale>  0 0.99768128E+03</rscale>
<asrwt>0</asrwt>
<pdfrwt beam="1">  1        1 0.21838557E+00 0.99768128E+03</pdfrwt>
<pdfrwt beam="2">  1       -1 0.26969507E-01 0.99768128E+03</pdfrwt>
<totfact> 0.99311085E+01</totfact>
</mgrwt>
</event>
<event>
 9    1  0.4369420E-036  0.1000119E+04  0.7818608E-02  0.8680924E-01
          2   -1    0    0  501    0  0.00000000000E+00  0.00000000000E+00  0.17185870884E+04  0.17185870884E+04  0.00000000000E+00 0.  1.
         -2   -1    0    0    0  501 -0.00000000000E+00 -0.00000000000E+00 -0.14550308332E+03  0.14550308332E+03  0.00000000000E+00 0.  1.
         36    2    1    2    0    0  0.00000000000E+00  0.00000000000E+00  0.15730840051E+04  0.18640901717E+04  0.10001194335E+04 0.  0.
         25    2    3    3    0    0 -0.86440233793E+02  0.10107824635E+03  0.21178660540E+03  0.27954631267E+03  0.12491536653E+03 0.  0.
         35    2    3    3    0    0  0.86440233793E+02 -0.10107824635E+03  0.13612973997E+04  0.15845438590E+04  0.79997494020E+03 0.  0.
         22    1    5    5    0    0 -0.12642471070E+03  0.29785125561E+03  0.34938882294E+03  0.47620492180E+03  0.00000000000E+00 0. -1.
         22    1    5    5    0    0  0.21286494450E+03 -0.39892950197E+03  0.10119085767E+04  0.11083389372E+04  0.00000000000E+00 0. -1.
          5    1    4    4  502    0 -0.11624532561E+02 -0.23361454229E+02  0.52399763012E+01  0.27026554582E+02  0.47000000000E+01 0.  1.
         -5    1    4    4    0  502 -0.74815701232E+02  0.12443970058E+03  0.20654662910E+03  0.25251975809E+03  0.47000000000E+01 0.  1.
<mgrwt>
<rscale>  0 0.10001194E+04</rscale>
<asrwt>0</asrwt>
<pdfrwt beam="1">  1        2 0.26439800E+00 0.10001194E+04</pdfrwt>
<pdfrwt beam="2">  1       -2 0.22385091E-01 0.10001194E+04</pdfrwt>
<totfact> 0.19878738E+02</totfact>
</mgrwt>
</event>
<event>
 9    1  0.4369420E-036  0.1000352E+04  0.7818608E-02  0.8680703E-01
          2   -1    0    0  501    0  0.00000000000E+00  0.00000000000E+00  0.93947263174E+03  0.93947263174E+03  0.00000000000E+00 0. -1.
         -2   -1    0    0    0  501 -0.00000000000E+00 -0.00000000000E+00 -0.26629396604E+03  0.26629396604E+03  0.00000000000E+00 0. -1.
         36    2    1    2    0    0 -0.42632564146E-13  0.00000000000E+00  0.67317866571E+03  0.12057665978E+04  0.10003517243E+04 0.  0.
         25    2    3    3    0    0 -0.40163295643E+02  0.73557981375E+02  0.25801606534E+03  0.29857882240E+03  0.12471229398E+03 0.  0.
         35    2    3    3    0    0  0.40163295643E+02 -0.73557981375E+02  0.41516260037E+03  0.90718777538E+03  0.80225046470E+03 0.  0.
         22    1    5    5    0    0  0.36974291849E+03 -0.23528707477E+03  0.20085822990E+03  0.48209320867E+03  0.00000000000E+00 0.  1.
         22    1    5    5    0    0 -0.32957962285E+03  0.16172909339E+03  0.21430437047E+03  0.42509456671E+03  0.00000000000E+00 0.  1.
          5    1    4    4  502    0 -0.22116451867E+02 -0.32224079587E+02  0.43463116489E+02  0.58640099279E+02  0.47000000000E+01 0.  1.
         -5    1    4    4    0  502 -0.18046843776E+02  0.10578206096E+03  0.21455294885E+03  0.23993872312E+03  0.47000000000E+01 0.  1.
<mgrwt>
<rscale>  0 0.10003517E+04</rscale>
<asrwt>0</asrwt>
<pdfrwt beam="1">  1        2 0.14453425E+00 0.10003517E+04</pdfrwt>
<pdfrwt beam="2">  1       -2 0.40968303E-01 0.10003517E+04</pdfrwt>
<totfact> 0.18827871E+02</totfact>
</mgrwt>
</event>
<event>
 9    1  0.4369420E-036  0.1000363E+04  0.7818608E-02  0.8680692E-01
          3   -1    0    0  501    0  0.00000000000E+00  0.00000000000E+00  0.11602556597E+04  0.11602556597E+04  0.00000000000E+00 0. -1.
         -3   -1    0    0    0  501 -0.00000000000E+00 -0.00000000000E+00 -0.21562640010E+03  0.21562640010E+03  0.00000000000E+00 0. -1.
         36    2    1    2    0    0  0.00000000000E+00  0.00000000000E+00  0.94462925961E+03  0.13758820598E+04  0.10003634362E+04 0.  0.
         25    2    3    3    0    0  0.11358685718E+03 -0.68617637346E+02  0.11253725490E+03  0.21426206715E+03  0.12503297726E+03 0.  0.
         35    2    3    3    0    0 -0.11358685718E+03  0.68617637346E+02  0.83209200471E+03  0.11616199927E+04  0.79960837213E+03 0.  0.
         22    1    5    5    0    0 -0.42718434611E+03  0.52166511189E+02  0.24343225658E+03  0.49443611720E+03  0.00000000000E+00 0.  1.
         22    1    5    5    0    0  0.31359748893E+03  0.16451126157E+02  0.58865974813E+03  0.66718387547E+03  0.00000000000E+00 0.  1.
          5    1    4    4  502    0  0.24769457168E+02 -0.87496979761E+02  0.62927225666E+02  0.11068501798E+03  0.47000000000E+01 0.  1.
         -5    1    4    4    0  502  0.88817400010E+02  0.18879342415E+02  0.49610029236E+02  0.10357704917E+03  0.47000000000E+01 0.  1.
<mgrwt>
<rscale>  0 0.10003634E+04</rscale>
<asrwt>0</asrwt>
<pdfrwt beam="1">  1        3 0.17850087E+00 0.10003634E+04</pdfrwt>
<pdfrwt beam="2">  1       -3 0.33173293E-01 0.10003634E+04</pdfrwt>
<totfact> 0.74111468E+00</totfact>
</mgrwt>
</event>
<event>
 9    1  0.4369420E-036  0.1000001E+04  0.7818608E-02  0.8681037E-01
          1   -1    0    0  501    0  0.00000000000E+00  0.00000000000E+00  0.35086988404E+03  0.35086988404E+03  0.00000000000E+00 0. -1.
         -1   -1    0    0    0  501 -0.00000000000E+00 -0.00000000000E+00 -0.71251622338E+03  0.71251622338E+03  0.00000000000E+00 0. -1.
         36    2    1    2    0    0  0.49737991503E-13  0.28421709430E-13 -0.36164633934E+03  0.10633861074E+04  0.10000009694E+04 0.  0.
         25    2    3    3    0    0  0.43458904072E+02 -0.10767539078E+03 -0.14129266100E+03  0.22478454306E+03  0.13069739333E+03 0.  0.
         35    2    3    3    0    0 -0.43458904072E+02  0.10767539078E+03 -0.22035367834E+03  0.83860156436E+03  0.80075849922E+03 0.  0.
         22    1    5    5    0    0 -0.39753889238E+03 -0.70917647425E+02 -0.49664466556E+02  0.40685752163E+03  0.00000000000E+00 0. -1.
         22    1    5    5    0    0  0.35407998831E+03  0.17859303821E+03 -0.17068921179E+03  0.43174404273E+03  0.00000000000E+00 0. -1.
          5    1    4    4  502    0  0.56844600021E+02 -0.67880011342E+02 -0.12871388414E+02  0.89592226957E+02  0.47000000000E+01 0. -1.
         -5    1    4    4    0  502 -0.13385695949E+02 -0.39795379439E+02 -0.12842127258E+03  0.13519231610E+03  0.47000000000E+01 0. -1.
<mgrwt>
<rscale>  0 0.10000010E+04</rscale>
<asrwt>0</asrwt>
<pdfrwt beam="1">  1        1 0.53979983E-01 0.10000010E+04</pdfrwt>
<pdfrwt beam="2">  1       -1 0.10961788E+00 0.10000010E+04</pdfrwt>
<totfact> 0.66056419E+01</totfact>
</mgrwt>
</event>
<event>
 9    1  0.4369420E-036  0.9995595E+03  0.7818608E-02  0.8681458E-01
         -1   -1    0    0    0  501 -0.00000000000E+00  0.00000000000E+00  0.18458743204E+03  0.18458743204E+03  0.00000000000E+00 0.  1.
          1   -1    0    0  501    0  0.00000000000E+00 -0.00000000000E+00 -0.13531788686E+04  0.13531788686E+04  0.00000000000E+00 0.  1.
         36    2    1    2    0    0  0.28421709430E-13  0.28421709430E-13 -0.11685914365E+04  0.15377663006E+04  0.99955952787E+03 0.  0.
         25    2    3    3    0    0  0.42991632580E+02 -0.10347612117E+03 -0.92386019467E+02  0.19187060083E+03  0.12539363120E+03 0.  0.
         35    2    3    3    0    0 -0.42991632580E+02  0.10347612117E+03 -0.10762054171E+04  0.13458956998E+04  0.80041335998E+03 0.  0.
         22    1    5    5    0    0 -0.23809760800E+03  0.39245017815E+03 -0.63537632762E+03  0.78384353729E+03  0.00000000000E+00 0.  1.
         22    1    5    5    0    0  0.19510597542E+03 -0.28897405698E+03 -0.44082908946E+03  0.56205216250E+03  0.00000000000E+00 0.  1.
          5    1    4    4  502    0  0.66457143113E+02 -0.11992950892E+03 -0.86657524848E+02  0.16226908391E+03  0.47000000000E+01 0. -1.
         -5    1    4    4    0  502 -0.23465510534E+02  0.16453387751E+02 -0.57284946192E+01  0.29601516915E+02  0.47000000000E+01 0. -1.
<mgrwt>
<rscale>  0 0.99955953E+03</rscale>
<asrwt>0</asrwt>
<pdfrwt beam="1">  1        1 0.20818136E+00 0.99955953E+03</pdfrwt>
<pdfrwt beam="2">  1       -1 0.28398066E-01 0.99955953E+03</pdfrwt>
<totfact> 0.10155286E+02</totfact>
</mgrwt>
</event>
<event>
 9    1  0.4369420E-036  0.1000682E+04  0.7818608E-02  0.8680389E-01
          2   -1    0    0  501    0  0.00000000000E+00  0.00000000000E+00  0.43381171142E+03  0.43381171142E+03  0.00000000000E+00 0. -1.
         -2   -1    0    0    0  501 -0.00000000000E+00 -0.00000000000E+00 -0.57707314919E+03  0.57707314919E+03  0.00000000000E+00 0. -1.
         36    2    1    2    0    0  0.00000000000E+00  0.00000000000E+00 -0.14326143778E+03  0.10108848606E+04  0.10006819484E+04 0.  0.
         25    2    3    3    0    0  0.11140354923E+03 -0.85172302673E+02 -0.15745178702E+02  0.18792923026E+03  0.12411451572E+03 0.  0.
         35    2    3    3    0    0 -0.11140354923E+03  0.85172302673E+02 -0.12751625907E+03  0.82295563035E+03  0.80083113156E+03 0.  0.
         22    1    5    5    0    0 -0.29103962328E+03  0.81543188719E+02 -0.39706501740E+03  0.49901300783E+03  0.00000000000E+00 0. -1.
         22    1    5    5    0    0  0.17963607405E+03  0.36291139549E+01  0.26954875833E+03  0.32394262252E+03  0.00000000000E+00 0. -1.
          5    1    4    4  502    0  0.16251207670E+02  0.28918658941E+02 -0.20389774828E+02  0.39220192545E+02  0.47000000000E+01 0.  1.
         -5    1    4    4    0  502  0.95152341557E+02 -0.11409096161E+03  0.46445961267E+01  0.14870903772E+03  0.47000000000E+01 0.  1.
<mgrwt>
<rscale>  0 0.10006819E+04</rscale>
<asrwt>0</asrwt>
<pdfrwt beam="1">  1        2 0.66740264E-01 0.10006819E+04</pdfrwt>
<pdfrwt beam="2">  1       -2 0.88780484E-01 0.10006819E+04</pdfrwt>
<totfact> 0.94595954E+01</totfact>
</mgrwt>
</event>
<event>
 9    1  0.4369420E-036  0.1000998E+04  0.7818608E-02  0.8680088E-01
         -1   -1    0    0    0  501 -0.00000000000E+00  0.00000000000E+00  0.99639434031E+03  0.99639434031E+03  0.00000000000E+00 0.  1.
          1   -1    0    0  501    0  0.00000000000E+00 -0.00000000000E+00 -0.25140555052E+03  0.25140555052E+03  0.00000000000E+00 0.  1.
         36    2    1    2    0    0  0.00000000000E+00  0.14210854715E-13  0.74498878979E+03  0.12477998908E+04  0.10009976377E+04 0.  0.
         25    2    3    3    0    0 -0.12995172624E+02  0.40540214878E+02 -0.26884753673E+02  0.13486817828E+03  0.12511695328E+03 0.  0.
         35    2    3    3    0    0  0.12995172624E+02 -0.40540214878E+02  0.77187354347E+03  0.11129317125E+04  0.80063465211E+03 0.  0.
         22    1    5    5    0    0  0.26478783513E+03 -0.29542991334E+03  0.59039375765E+03  0.71130599632E+03  0.00000000000E+00 0. -1.
         22    1    5    5    0    0 -0.25179266251E+03  0.25488969846E+03  0.18147978582E+03  0.40162571623E+03  0.00000000000E+00 0. -1.
          5    1    4    4  502    0  0.26608084730E+02  0.29182688421E+02  0.39849474076E+02  0.56300000538E+02  0.47000000000E+01 0.  1.
         -5    1    4    4    0  502 -0.39603257354E+02  0.11357526457E+02 -0.66734227749E+02  0.78568177741E+02  0.47000000000E+01 0.  1.
<mgrwt>
<rscale>  0 0.10009976E+04</rscale>
<asrwt>0</asrwt>
<pdfrwt beam="1">  1        1 0.38677777E-01 0.10009976E+04</pdfrwt>
<pdfrwt beam="2">  1       -1 0.15329144E+00 0.10009976E+04</pdfrwt>
<totfact> 0.42450489E+01</totfact>
</mgrwt>
</event>
<event>
 9    1  0.4369420E-036  0.9996995E+03  0.7818608E-02  0.8681324E-01
         -2   -1    0    0    0  501 -0.00000000000E+00  0.00000000000E+00  0.11599177113E+03  0.11599177113E+03  0.00000000000E+00 0.  1.
          2   -1    0    0  501    0  0.00000000000E+00 -0.00000000000E+00 -0.21540300943E+04  0.21540300943E+04  0.00000000000E+00 0.  1.
         36    2    1    2    0    0  0.14210854715E-13  0.00000000000E+00 -0.20380383232E+04  0.22700218655E+04  0.99969948627E+03 0.  0.
         25    2    3    3    0    0 -0.11153178881E+03 -0.70987086306E+02 -0.28068418645E+03  0.33440003800E+03  0.12474480573E+03 0.  0.
         35    2    3    3    0    0  0.11153178881E+03  0.70987086306E+02 -0.17573541368E+04  0.19356218275E+04  0.80053718879E+03 0.  0.
         22    1    5    5    0    0  0.40722022316E+03 -0.12940036969E+03 -0.11982904465E+04  0.12721921081E+04  0.00000000000E+00 0. -1.
         22    1    5    5    0    0 -0.29568843435E+03  0.20038745600E+03 -0.55906369028E+03  0.66342971935E+03  0.00000000000E+00 0. -1.
          5    1    4    4  502    0 -0.10682286541E+03  0.34274917596E+01 -0.17000239226E+03  0.20086257902E+03  0.47000000000E+01 0. -1.
         -5    1    4    4    0  502 -0.47089233976E+01 -0.74414578065E+02 -0.11068179418E+03  0.13353745898E+03  0.47000000000E+01 0. -1.
<mgrwt>
<rscale>  0 0.99969949E+03</rscale>
<asrwt>0</asrwt>
<pdfrwt beam="1">  1        2 0.33138923E+00 0.99969949E+03</pdfrwt>
<pdfrwt beam="2">  1       -2 0.17844889E-01 0.99969949E+03</pdfrwt>
<totfact> 0.16638828E+02</totfact>
</mgrwt>
</event>
<event>
 9    1  0.4369420E-036  0.9985361E+03  0.7818608E-02  0.8682433E-01
         -2   -1    0    0    0  501 -0.00000000000E+00  0.00000000000E+00  0.92209520881E+03  0.92209520881E+03  0.00000000000E+00 0.  1.
          2   -1    0    0  501    0  0.00000000000E+00 -0.00000000000E+00 -0.27032847732E+03  0.27032847732E+03  0.00000000000E+00 0.  1.
         36    2    1    2    0    0  0.00000000000E+00  0.00000000000E+00  0.65176673150E+03  0.11924236861E+04  0.99853611600E+03 0.  0.
         25    2    3    3    0    0  0.11103578542E+03 -0.80920008977E+02  0.10332432888E+03  0.21264326961E+03  0.12515690024E+03 0.  0.
         35    2    3    3    0    0 -0.11103578542E+03  0.80920008977E+02  0.54844240262E+03  0.97978041652E+03  0.80018972882E+03 0.  0.
         22    1    5    5    0    0  0.29350154823E+03 -0.16454537893E+03  0.19236646871E+03  0.38758637595E+03  0.00000000000E+00 0.  1.
         22    1    5    5    0    0 -0.40453733365E+03  0.24546538791E+03  0.35607593391E+03  0.59219404057E+03  0.00000000000E+00 0.  1.
          5    1    4    4  502    0  0.55113035719E+02 -0.10716026172E+03  0.48724187878E+02  0.13006500253E+03  0.47000000000E+01 0.  1.
         -5    1    4    4    0  502  0.55922749698E+02  0.26240252741E+02  0.54600141000E+02  0.82578267086E+02  0.47000000000E+01 0.  1.
<mgrwt>
<rscale>  0 0.99853612E+03</rscale>
<asrwt>0</asrwt>
<pdfrwt beam="1">  1        2 0.41588997E-01 0.99853612E+03</pdfrwt>
<pdfrwt beam="2">  1       -2 0.14186080E+00 0.99853612E+03</pdfrwt>
<totfact> 0.48824708E+01</totfact>
</mgrwt>
</event>
<event>
 9    1  0.4369420E-036  0.9954090E+03  0.7818608E-02  0.8685422E-01
         -1   -1    0    0    0  501 -0.00000000000E+00  0.00000000000E+00  0.46497846587E+03  0.46497846587E+03  0.00000000000E+00 0.  1.
          1   -1    0    0  501    0  0.00000000000E+00 -0.00000000000E+00 -0.53273380041E+03  0.53273380041E+03  0.00000000000E+00 0.  1.
         36    2    1    2    0    0 -0.71054273576E-14  0.00000000000E+00 -0.67755334539E+02  0.99771226628E+03  0.99540895160E+03 0.  0.
         25    2    3    3    0    0  0.40876752164E+02  0.12959156329E+03  0.35111493430E+02  0.18313545739E+03  0.11764734013E+03 0.  0.
         35    2    3    3    0    0 -0.40876752164E+02 -0.12959156329E+03 -0.10286682797E+03  0.81457680889E+03  0.79654812231E+03 0.  0.
         22    1    5    5    0    0  0.36258739978E+03  0.48294485543E+02 -0.69893536202E+02  0.37240715114E+03  0.00000000000E+00 0.  1.
         22    1    5    5    0    0 -0.40346415194E+03 -0.17788604883E+03 -0.32973291767E+02  0.44216965776E+03  0.00000000000E+00 0.  1.
          5    1    4    4  502    0  0.47132896502E+02  0.12613150706E+03  0.66749921869E+02  0.15036059682E+03  0.47000000000E+01 0.  1.
         -5    1    4    4    0  502 -0.62561443379E+01  0.34600562236E+01 -0.31638428439E+02  0.32774860566E+02  0.47000000000E+01 0.  1.
<mgrwt>
<rscale>  0 0.99540895E+03</rscale>
<asrwt>0</asrwt>
<pdfrwt beam="1">  1        1 0.81959046E-01 0.99540895E+03</pdfrwt>
<pdfrwt beam="2">  1       -1 0.71535149E-01 0.99540895E+03</pdfrwt>
<totfact> 0.94040325E+01</totfact>
</mgrwt>
</event>
<event>
 9    1  0.4369420E-036  0.9990643E+03  0.7818608E-02  0.8681930E-01
          1   -1    0    0  501    0  0.00000000000E+00  0.00000000000E+00  0.17730376507E+03  0.17730376507E+03  0.00000000000E+00 0.  1.
         -1   -1    0    0    0  501 -0.00000000000E+00 -0.00000000000E+00 -0.14073719652E+04  0.14073719652E+04  0.00000000000E+00 0.  1.
         36    2    1    2    0    0  0.00000000000E+00 -0.14210854715E-13 -0.12300682001E+04  0.15846757302E+04  0.99906425875E+03 0.  0.
         25    2    3    3    0    0  0.69973500514E+02 -0.69802970447E+02 -0.76206296383E+02  0.17681060768E+03  0.12524314720E+03 0.  0.
         35    2    3    3    0    0 -0.69973500514E+02  0.69802970447E+02 -0.11538619037E+04  0.14078651225E+04  0.80057364747E+03 0.  0.
         22    1    5    5    0    0 -0.34934581927E+02 -0.36643426859E+03 -0.56061768741E+03  0.67066138225E+03  0.00000000000E+00 0.  1.
         22    1    5    5    0    0 -0.35038918587E+02  0.43623723904E+03 -0.59324421630E+03  0.73720374030E+03  0.00000000000E+00 0.  1.
          5    1    4    4  502    0 -0.12052498575E+02 -0.54159941363E+01  0.26744895415E+02  0.30198926225E+02  0.47000000000E+01 0. -1.
         -5    1    4    4    0  502  0.82025999089E+02 -0.64386976310E+02 -0.10295119180E+03  0.14661168145E+03  0.47000000000E+01 0. -1.
<mgrwt>
<rscale>  0 0.99906426E+03</rscale>
<asrwt>0</asrwt>
<pdfrwt beam="1">  1        1 0.27277503E-01 0.99906426E+03</pdfrwt>
<pdfrwt beam="2">  1       -1 0.21651876E+00 0.99906426E+03</pdfrwt>
<totfact> 0.19568901E+01</totfact>
</mgrwt>
</event>
<event>
 9    1  0.4369420E-036  0.9991543E+03  0.7818608E-02  0.8681844E-01
          2   -1    0    0  501    0  0.00000000000E+00  0.00000000000E+00  0.12063317303E+04  0.12063317303E+04  0.00000000000E+00 0. -1.
         -2   -1    0    0    0  501 -0.00000000000E+00 -0.00000000000E+00 -0.20688946806E+03  0.20688946806E+03  0.00000000000E+00 0. -1.
         36    2    1    2    0    0  0.00000000000E+00 -0.28421709430E-13  0.99944226225E+03  0.14132211984E+04  0.99915430237E+03 0.  0.
         25    2    3    3    0    0  0.64839771858E+02  0.84925582737E+02  0.61022943262E+02  0.17574812686E+03  0.12548726578E+03 0.  0.
         35    2    3    3    0    0 -0.64839771858E+02 -0.84925582737E+02  0.93841931899E+03  0.12374730715E+04  0.79955752378E+03 0.  0.
         22    1    5    5    0    0  0.24983109685E+03 -0.32281407174E+03  0.41565213611E+03  0.58257291399E+03  0.00000000000E+00 0.  1.
         22    1    5    5    0    0 -0.31467086871E+03  0.23788848901E+03  0.52276718288E+03  0.65490015751E+03  0.00000000000E+00 0.  1.
          5    1    4    4  502    0  0.42026847125E+02 -0.26663986167E+02  0.10624479971E+02  0.51109623480E+02  0.47000000000E+01 0. -1.
         -5    1    4    4    0  502  0.22812924733E+02  0.11158956890E+03  0.50398463291E+02  0.12463850338E+03  0.47000000000E+01 0. -1.
<mgrwt>
<rscale>  0 0.99915430E+03</rscale>
<asrwt>0</asrwt>
<pdfrwt beam="1">  1        2 0.18558949E+00 0.99915430E+03</pdfrwt>
<pdfrwt beam="2">  1       -2 0.31829150E-01 0.99915430E+03</pdfrwt>
<totfact> 0.20744419E+02</totfact>
</mgrwt>
</event>
<event>
 9    1  0.4369420E-036  0.9996202E+03  0.7818608E-02  0.8681400E-01
         -1   -1    0    0    0  501 -0.00000000000E+00  0.00000000000E+00  0.14408693415E+03  0.14408693415E+03  0.00000000000E+00 0.  1.
          1   -1    0    0  501    0  0.00000000000E+00 -0.00000000000E+00 -0.17337460965E+04  0.17337460965E+04  0.00000000000E+00 0.  1.
         36    2    1    2    0    0 -0.14210854715E-13  0.00000000000E+00 -0.15896591624E+04  0.18778330307E+04  0.99962024719E+03 0.  0.
         25    2    3    3    0    0  0.85293434316E+01 -0.11408832601E+03 -0.14770577847E+03  0.22500580392E+03  0.12538627904E+03 0.  0.
         35    2    3    3    0    0 -0.85293434316E+01  0.11408832601E+03 -0.14419533839E+04  0.16528272268E+04  0.79969955880E+03 0.  0.
         22    1    5    5    0    0 -0.14061090603E+03 -0.70072249597E+02 -0.14160323906E+04  0.14247207721E+04  0.00000000000E+00 0.  1.
         22    1    5    5    0    0  0.13208156260E+03  0.18416057560E+03 -0.25920993286E+02  0.22810645470E+03  0.00000000000E+00 0.  1.
          5    1    4    4  502    0  0.89289117351E+01 -0.39101425896E+02 -0.14424498703E+03  0.14979103196E+03  0.47000000000E+01 0. -1.
         -5    1    4    4    0  502 -0.39956830355E+00 -0.74986900111E+02 -0.34607914365E+01  0.75214771957E+02  0.47000000000E+01 0. -1.
<mgrwt>
<rscale>  0 0.99962025E+03</rscale>
<asrwt>0</asrwt>
<pdfrwt beam="1">  1        1 0.26673017E+00 0.99962025E+03</pdfrwt>
<pdfrwt beam="2">  1       -1 0.22167220E-01 0.99962025E+03</pdfrwt>
<totfact> 0.82574351E+01</totfact>
</mgrwt>
</event>
<event>
 9    1  0.4369420E-036  0.1002524E+04  0.7818608E-02  0.8678638E-01
         -1   -1    0    0    0  501 -0.00000000000E+00  0.00000000000E+00  0.44369560348E+03  0.44369560348E+03  0.00000000000E+00 0.  1.
          1   -1    0    0  501    0  0.00000000000E+00 -0.00000000000E+00 -0.56629760457E+03  0.56629760457E+03  0.00000000000E+00 0.  1.
         36    2    1    2    0    0  0.14210854715E-13  0.00000000000E+00 -0.12260200109E+03  0.10099932080E+04  0.10025243287E+04 0.  0.
         25    2    3    3    0    0  0.10290996223E+03 -0.99874498431E+02 -0.17962536047E+02  0.19101813942E+03  0.12489956414E+03 0.  0.
         35    2    3    3    0    0 -0.10290996223E+03  0.99874498431E+02 -0.10463946504E+03  0.81897506863E+03  0.79950320176E+03 0.  0.
         22    1    5    5    0    0 -0.11465487401E+02 -0.23437326852E+03  0.23617776427E+03  0.33292975646E+03  0.00000000000E+00 0.  1.
         22    1    5    5    0    0 -0.91444474827E+02  0.33424776695E+03 -0.34081722931E+03  0.48604531217E+03  0.00000000000E+00 0.  1.
          5    1    4    4  502    0  0.54158815184E+02 -0.11829002375E+03 -0.36996833707E+02  0.13533869619E+03  0.47000000000E+01 0.  1.
         -5    1    4    4    0  502  0.48751147044E+02  0.18415525321E+02  0.19034297660E+02  0.55679443229E+02  0.47000000000E+01 0.  1.
<mgrwt>
<rscale>  0 0.10025243E+04</rscale>
<asrwt>0</asrwt>
<pdfrwt beam="1">  1        1 0.87122708E-01 0.10025243E+04</pdfrwt>
<pdfrwt beam="2">  1       -1 0.68260862E-01 0.10025243E+04</pdfrwt>
<totfact> 0.94553189E+01</totfact>
</mgrwt>
</event>
<event>
 9    1  0.4369420E-036  0.1000314E+04  0.7818608E-02  0.8680739E-01
         -1   -1    0    0    0  501 -0.00000000000E+00  0.00000000000E+00  0.35893682119E+03  0.35893682119E+03  0.00000000000E+00 0. -1.
          1   -1    0    0  501    0  0.00000000000E+00 -0.00000000000E+00 -0.69693912130E+03  0.69693912130E+03  0.00000000000E+00 0. -1.
         36    2    1    2    0    0  0.00000000000E+00  0.28421709430E-13 -0.33800230011E+03  0.10558759425E+04  0.10003141762E+04 0.  0.
         25    2    3    3    0    0 -0.64513767957E+02 -0.77790737881E+02  0.38917084233E+02  0.16520671144E+03  0.12476094302E+03 0.  0.
         35    2    3    3    0    0  0.64513767957E+02  0.77790737881E+02 -0.37691938434E+03  0.89066923105E+03  0.80063102094E+03 0.  0.
         22    1    5    5    0    0 -0.30463695805E+03 -0.16355902408E+03 -0.26501744668E+03  0.43564834168E+03  0.00000000000E+00 0.  1.
         22    1    5    5    0    0  0.36915072600E+03  0.24134976196E+03 -0.11190193766E+03  0.45502088937E+03  0.00000000000E+00 0.  1.
          5    1    4    4  502    0 -0.34184604145E+02 -0.74089581199E+02 -0.32056646349E+02  0.87792777481E+02  0.47000000000E+01 0. -1.
         -5    1    4    4    0  502 -0.30329163812E+02 -0.37011566823E+01  0.70973730582E+02  0.77413933959E+02  0.47000000000E+01 0. -1.
<mgrwt>
<rscale>  0 0.10003142E+04</rscale>
<asrwt>0</asrwt>
<pdfrwt beam="1">  1        1 0.10722140E+00 0.10003142E+04</pdfrwt>
<pdfrwt beam="2">  1       -1 0.55221050E-01 0.10003142E+04</pdfrwt>
<totfact> 0.10461451E+02</totfact>
</mgrwt>
</event>
<event>
 9    1  0.4369420E-036  0.1000212E+04  0.7818608E-02  0.8680836E-01
         -1   -1    0    0    0  501 -0.00000000000E+00  0.00000000000E+00  0.23056152494E+03  0.23056152494E+03  0.00000000000E+00 0. -1.
          1   -1    0    0  501    0  0.00000000000E+00 -0.00000000000E+00 -0.10847689303E+04  0.10847689303E+04  0.00000000000E+00 0. -1.
         36    2    1    2    0    0  0.00000000000E+00  0.00000000000E+00 -0.85420740534E+03  0.13153304552E+04  0.10002119351E+04 0.  0.
         25    2    3    3    0    0  0.47875692899E+02 -0.13846785612E+03 -0.18260538790E+03  0.26075666269E+03  0.11482107952E+03 0.  0.
         35    2    3    3    0    0 -0.47875692899E+02  0.13846785612E+03 -0.67160201744E+03  0.10545737925E+04  0.79975695364E+03 0.  0.
         22    1    5    5    0    0  0.20700883262E+03 -0.16538211982E+02  0.97666005114E+02  0.22948816483E+03  0.00000000000E+00 0. -1.
         22    1    5    5    0    0 -0.25488452552E+03  0.15500606810E+03 -0.76926802256E+03  0.82508562769E+03  0.00000000000E+00 0. -1.
          5    1    4    4  502    0  0.71972422172E+01 -0.11592949844E+03 -0.62735145369E+02  0.13209556150E+03  0.47000000000E+01 0.  1.
         -5    1    4    4    0  502  0.40678450681E+02 -0.22538357681E+02 -0.11987024253E+03  0.12866110119E+03  0.47000000000E+01 0.  1.
<mgrwt>
<rscale>  0 0.10002119E+04</rscale>
<asrwt>0</asrwt>
<pdfrwt beam="1">  1        1 0.16688753E+00 0.10002119E+04</pdfrwt>
<pdfrwt beam="2">  1       -1 0.35471004E-01 0.10002119E+04</pdfrwt>
<totfact> 0.10967511E+02</totfact>
</mgrwt>
</event>
<event>
 9    1  0.4369420E-036  0.1000875E+04  0.7818608E-02  0.8680205E-01
          2   -1    0    0  501    0  0.00000000000E+00  0.00000000000E+00  0.11644780753E+04  0.11644780753E+04  0.00000000000E+00 0. -1.
         -2   -1    0    0    0  501 -0.00000000000E+00 -0.00000000000E+00 -0.21506430294E+03  0.21506430294E+03  0.00000000000E+00 0. -1.
         36    2    1    2    0    0 -0.28421709430E-13 -0.14210854715E-13  0.94941377238E+03  0.13795423783E+04  0.10008749484E+04 0.  0.
         25    2    3    3    0    0  0.59283026787E+02 -0.10865318436E+03  0.28078032971E+03  0.33017719032E+03  0.12189910466E+03 0.  0.
         35    2    3    3    0    0 -0.59283026787E+02  0.10865318436E+03  0.66863344267E+03  0.10493651879E+04  0.79923502505E+03 0.  0.
         22    1    5    5    0    0  0.25006687651E+03 -0.70765424795E+02  0.63982487106E+03  0.69059181410E+03  0.00000000000E+00 0. -1.
         22    1    5    5    0    0 -0.30934990330E+03  0.17941860916E+03  0.28808571611E+02  0.35877337385E+03  0.00000000000E+00 0. -1.
          5    1    4    4  502    0  0.54411682073E+02  0.94168192480E+01  0.92837366615E+02  0.10812110927E+03  0.47000000000E+01 0. -1.
         -5    1    4    4    0  502  0.48713447144E+01 -0.11807000361E+03  0.18794296309E+03  0.22205608104E+03  0.47000000000E+01 0. -1.
<mgrwt>
<rscale>  0 0.10008749E+04</rscale>
<asrwt>0</asrwt>
<pdfrwt beam="1">  1        2 0.17915047E+00 0.10008749E+04</pdfrwt>
<pdfrwt beam="2">  1       -2 0.33086816E-01 0.10008749E+04</pdfrwt>
<totfact> 0.20450329E+02</totfact>
</mgrwt>
</event>
<event>
 9    1  0.4369420E-036  0.1001842E+04  0.7818608E-02  0.8679285E-01
         -1   -1    0    0    0  501 -0.00000000000E+00  0.00000000000E+00  0.44482630096E+03  0.44482630096E+03  0.00000000000E+00 0. -1.
          1   -1    0    0  501    0  0.00000000000E+00 -0.00000000000E+00 -0.56409002639E+03  0.56409002639E+03  0.00000000000E+00 0. -1.
         36    2    1    2    0    0  0.14210854715E-13 -0.14210854715E-13 -0.11926372543E+03  0.10089163273E+04  0.10018424624E+04 0.  0.
         25    2    3    3    0    0 -0.11030792673E+03 -0.65178801357E+02  0.40073172791E+02  0.18355302679E+03  0.12517883056E+03 0.  0.
         35    2    3    3    0    0  0.11030792673E+03  0.65178801357E+02 -0.15933689822E+03  0.82536330056E+03  0.79963755285E+03 0.  0.
         22    1    5    5    0    0  0.11072005661E+03  0.42973434299E+03 -0.62353999384E+02  0.44812783636E+03  0.00000000000E+00 0. -1.
         22    1    5    5    0    0 -0.41212988959E+00 -0.36455554163E+03 -0.96982898832E+02  0.37723546420E+03  0.00000000000E+00 0. -1.
          5    1    4    4  502    0 -0.75808758935E+02 -0.42416447447E+01  0.73532871752E+02  0.10580232847E+03  0.47000000000E+01 0. -1.
         -5    1    4    4    0  502 -0.34499167790E+02 -0.60937156612E+02 -0.33459698961E+02  0.77750698317E+02  0.47000000000E+01 0. -1.
<mgrwt>
<rscale>  0 0.10018425E+04</rscale>
<asrwt>0</asrwt>
<pdfrwt beam="1">  1        1 0.86783081E-01 0.10018425E+04</pdfrwt>
<pdfrwt beam="2">  1       -1 0.68434816E-01 0.10018425E+04</pdfrwt>
<totfact> 0.94613907E+01</totfact>
</mgrwt>
</event>
<event>
 9    1  0.4369420E-036  0.9995635E+03  0.7818608E-02  0.8681454E-01
          2   -1    0    0  501    0  0.00000000000E+00  0.00000000000E+00  0.11361263420E+03  0.11361263420E+03  0.00000000000E+00 0. -1.
         -2   -1    0    0    0  501 -0.00000000000E+00 -0.00000000000E+00 -0.21985390427E+04  0.21985390427E+04  0.00000000000E+00 0. -1.
         36    2    1    2    0    0  0.00000000000E+00  0.10658141036E-13 -0.20849264085E+04  0.23121516769E+04  0.99956352882E+03 0.  0.
         25    2    3    3    0    0 -0.11480651188E+03  0.66574726754E+01 -0.20757702374E+03  0.26833685412E+03  0.12526607434E+03 0.  0.
         35    2    3    3    0    0  0.11480651188E+03 -0.66574726754E+01 -0.18773493847E+04  0.20438148228E+04  0.79969585485E+03 0.  0.
         22    1    5    5    0    0 -0.59332162009E+02  0.37719508443E+03 -0.10014104880E+04  0.10717366293E+04  0.00000000000E+00 0.  1.
         22    1    5    5    0    0  0.17413867389E+03 -0.38385255711E+03 -0.87593889675E+03  0.97207819345E+03  0.00000000000E+00 0.  1.
          5    1    4    4  502    0 -0.13243511139E+03 -0.87811326102E+01 -0.20505146073E+03  0.24430382430E+03  0.47000000000E+01 0. -1.
         -5    1    4    4    0  502  0.17628599508E+02  0.15438605286E+02 -0.25255630102E+01  0.24033029819E+02  0.47000000000E+01 0. -1.
<mgrwt>
<rscale>  0 0.99956353E+03</rscale>
<asrwt>0</asrwt>
<pdfrwt beam="1">  1        2 0.17478867E-01 0.99956353E+03</pdfrwt>
<pdfrwt beam="2">  1       -2 0.33823678E+00 0.99956353E+03</pdfrwt>
<totfact> 0.73031533E+00</totfact>
</mgrwt>
</event>
<event>
 9    1  0.4369420E-036  0.9998810E+03  0.7818608E-02  0.8681151E-01
         -1   -1    0    0    0  501 -0.00000000000E+00  0.00000000000E+00  0.12236892357E+03  0.12236892357E+03  0.00000000000E+00 0.  1.
          1   -1    0    0  501    0  0.00000000000E+00 -0.00000000000E+00 -0.20425160509E+04  0.20425160509E+04  0.00000000000E+00 0.  1.
         36    2    1    2    0    0  0.00000000000E+00  0.00000000000E+00 -0.19201471274E+04  0.21648849745E+04  0.99988097398E+03 0.  0.
         25    2    3    3    0    0 -0.22405960520E+02  0.12857771536E+03 -0.46980598121E+03  0.50313198509E+03  0.12405594904E+03 0.  0.
         35    2    3    3    0    0  0.22405960520E+02 -0.12857771536E+03 -0.14503411461E+04  0.16617529894E+04  0.80056186622E+03 0.  0.
         22    1    5    5    0    0 -0.12702657597E+02 -0.46649793230E+03 -0.74957864805E+03  0.88297781850E+03  0.00000000000E+00 0.  1.
         22    1    5    5    0    0  0.35108618117E+02  0.33792021694E+03 -0.70076249810E+03  0.77877517091E+03  0.00000000000E+00 0.  1.
          5    1    4    4  502    0 -0.64585826555E+02  0.85283022614E+02 -0.37983262945E+03  0.39463836526E+03  0.47000000000E+01 0.  1.
         -5    1    4    4    0  502  0.42179866035E+02  0.43294692743E+02 -0.89973351756E+02  0.10849361983E+03  0.47000000000E+01 0.  1.
<mgrwt>
<rscale>  0 0.99988097E+03</rscale>
<asrwt>0</asrwt>
<pdfrwt beam="1">  1        1 0.31423320E+00 0.99988097E+03</pdfrwt>
<pdfrwt beam="2">  1       -1 0.18825990E-01 0.99988097E+03</pdfrwt>
<totfact> 0.65707547E+01</totfact>
</mgrwt>
</event>
<event>
 9    1  0.4369420E-036  0.1000026E+04  0.7818608E-02  0.8681013E-01
         -2   -1    0    0    0  501 -0.00000000000E+00  0.00000000000E+00  0.75484560248E+02  0.75484560248E+02  0.00000000000E+00 0.  1.
          2   -1    0    0  501    0  0.00000000000E+00 -0.00000000000E+00 -0.33121105026E+04  0.33121105026E+04  0.00000000000E+00 0.  1.
         36    2    1    2    0    0 -0.10658141036E-13  0.21316282073E-13 -0.32366259423E+04  0.33875950628E+04  0.10000264092E+04 0.  0.
         25    2    3    3    0    0 -0.28794949309E+00 -0.38868274344E+01 -0.10863119924E+04  0.10936297941E+04  0.12624258919E+03 0.  0.
         35    2    3    3    0    0  0.28794949309E+00  0.38868274344E+01 -0.21503139499E+04  0.22939652687E+04  0.79900649596E+03 0.  0.
         22    1    5    5    0    0  0.31043841134E+03 -0.18611193691E+03 -0.59296513470E+03  0.69470663684E+03  0.00000000000E+00 0. -1.
         22    1    5    5    0    0 -0.31015046184E+03  0.18999876435E+03 -0.15573488152E+04  0.15992586319E+04  0.00000000000E+00 0. -1.
          5    1    4    4  502    0  0.19582139963E+02  0.57025673711E+02 -0.44092310066E+03  0.44505129857E+03  0.47000000000E+01 0. -1.
         -5    1    4    4    0  502 -0.19870089456E+02 -0.60912501146E+02 -0.64538889177E+03  0.64857849554E+03  0.47000000000E+01 0. -1.
<mgrwt>
<rscale>  0 0.10000264E+04</rscale>
<asrwt>0</asrwt>
<pdfrwt beam="1">  1        2 0.50955555E+00 0.10000264E+04</pdfrwt>
<pdfrwt beam="2">  1       -2 0.11613007E-01 0.10000264E+04</pdfrwt>
<totfact> 0.62198252E+01</totfact>
</mgrwt>
</event>
<event>
 9    1  0.4369420E-036  0.9996207E+03  0.7818608E-02  0.8681399E-01
         -1   -1    0    0    0  501 -0.00000000000E+00  0.00000000000E+00  0.18046937530E+03  0.18046937530E+03  0.00000000000E+00 0. -1.
          1   -1    0    0  501    0  0.00000000000E+00 -0.00000000000E+00 -0.13842258126E+04  0.13842258126E+04  0.00000000000E+00 0. -1.
         36    2    1    2    0    0  0.71054273576E-14  0.00000000000E+00 -0.12037564372E+04  0.15646951879E+04  0.99962066340E+03 0.  0.
         25    2    3    3    0    0 -0.38556298643E+02 -0.15412453532E+00 -0.16361657837E+02  0.13242901358E+03  0.12563091925E+03 0.  0.
         35    2    3    3    0    0  0.38556298643E+02  0.15412453532E+00 -0.11873947794E+04  0.14322661743E+04  0.79999588741E+03 0.  0.
         22    1    5    5    0    0 -0.21600226324E+03  0.19462934335E+03 -0.10395602826E+04  0.10794550199E+04  0.00000000000E+00 0.  1.
         22    1    5    5    0    0  0.25455856188E+03 -0.19447521882E+03 -0.14783449686E+03  0.35281115433E+03  0.00000000000E+00 0.  1.
          5    1    4    4  502    0  0.36250908658E+01 -0.39174984510E+02  0.36748976779E+02  0.54040706782E+02  0.47000000000E+01 0.  1.
         -5    1    4    4    0  502 -0.42181389509E+02  0.39020859974E+02 -0.53110634617E+02  0.78388306803E+02  0.47000000000E+01 0.  1.
<mgrwt>
<rscale>  0 0.99962066E+03</rscale>
<asrwt>0</asrwt>
<pdfrwt beam="1">  1        1 0.21295781E+00 0.99962066E+03</pdfrwt>
<pdfrwt beam="2">  1       -1 0.27764520E-01 0.99962066E+03</pdfrwt>
<totfact> 0.10021281E+02</totfact>
</mgrwt>
</event>
<event>
 9    1  0.4369420E-036  0.1004203E+04  0.7818608E-02  0.8677046E-01
         -2   -1    0    0    0  501 -0.00000000000E+00  0.00000000000E+00  0.22746618665E+03  0.22746618665E+03  0.00000000000E+00 0. -1.
          2   -1    0    0  501    0  0.00000000000E+00 -0.00000000000E+00 -0.11083226147E+04  0.11083226147E+04  0.00000000000E+00 0. -1.
         36    2    1    2    0    0  0.00000000000E+00  0.00000000000E+00 -0.88085642805E+03  0.13357888014E+04  0.10042030049E+04 0.  0.
         25    2    3    3    0    0  0.47477859554E+02 -0.11398596558E+03 -0.25335614590E+03  0.30819722444E+03  0.12469661180E+03 0.  0.
         35    2    3    3    0    0 -0.47477859554E+02  0.11398596558E+03 -0.62750028216E+03  0.10275915769E+04  0.80432636245E+03 0.  0.
         22    1    5    5    0    0 -0.12531448092E+02 -0.13298560779E+03  0.15598363892E+03  0.20536091322E+03  0.00000000000E+00 0.  1.
         22    1    5    5    0    0 -0.34946411462E+02  0.24697157337E+03 -0.78348392107E+03  0.82223066369E+03  0.00000000000E+00 0.  1.
          5    1    4    4  502    0  0.51414092531E+02 -0.31356913856E+02 -0.25179585612E+02  0.65442849029E+02  0.47000000000E+01 0. -1.
         -5    1    4    4    0  502 -0.39362329771E+01 -0.82629051720E+02 -0.22817656029E+03  0.24275437541E+03  0.47000000000E+01 0. -1.
<mgrwt>
<rscale>  0 0.10042030E+04</rscale>
<asrwt>0</asrwt>
<pdfrwt beam="1">  1        2 0.17051117E+00 0.10042030E+04</pdfrwt>
<pdfrwt beam="2">  1       -2 0.34994798E-01 0.10042030E+04</pdfrwt>
<totfact> 0.19914148E+02</totfact>
</mgrwt>
</event>
<event>
 9    1  0.4369420E-036  0.1000223E+04  0.7818608E-02  0.8680826E-01
         -2   -1    0    0    0  501 -0.00000000000E+00  0.00000000000E+00  0.39736343668E+03  0.39736343668E+03  0.00000000000E+00 0.  1.
          2   -1    0    0  501    0  0.00000000000E+00 -0.00000000000E+00 -0.62942736413E+03  0.62942736413E+03  0.00000000000E+00 0.  1.
         36    2    1    2    0    0  0.14210854715E-13 -0.28421709430E-13 -0.23206392745E+03  0.10267908008E+04  0.10002228163E+04 0.  0.
         25    2    3    3    0    0  0.32758436607E+02 -0.10755494528E+03  0.51060192814E+02  0.17036475591E+03  0.11737046197E+03 0.  0.
         35    2    3    3    0    0 -0.32758436607E+02  0.10755494528E+03 -0.28312412027E+03  0.85642604490E+03  0.80041559298E+03 0.  0.
         22    1    5    5    0    0  0.13228905683E+03  0.34694201432E+03  0.91291090835E+02  0.38236529540E+03  0.00000000000E+00 0.  1.
         22    1    5    5    0    0 -0.16504749343E+03 -0.23938706904E+03 -0.37441521110E+03  0.47406074950E+03  0.00000000000E+00 0.  1.
          5    1    4    4  502    0  0.62875526151E+02 -0.74893475283E+02 -0.57777236248E+01  0.98070569076E+02  0.47000000000E+01 0. -1.
         -5    1    4    4    0  502 -0.30117089544E+02 -0.32661469995E+02  0.56837916438E+02  0.72294186833E+02  0.47000000000E+01 0. -1.
<mgrwt>
<rscale>  0 0.10002228E+04</rscale>
<asrwt>0</asrwt>
<pdfrwt beam="1">  1        2 0.96834979E-01 0.10002228E+04</pdfrwt>
<pdfrwt beam="2">  1       -2 0.61132837E-01 0.10002228E+04</pdfrwt>
<totfact> 0.14089918E+02</totfact>
</mgrwt>
</event>
<event>
 9    1  0.4369420E-036  0.9992090E+03  0.7818608E-02  0.8681792E-01
          2   -1    0    0  501    0  0.00000000000E+00  0.00000000000E+00  0.71472016843E+03  0.71472016843E+03  0.00000000000E+00 0. -1.
         -2   -1    0    0    0  501 -0.00000000000E+00 -0.00000000000E+00 -0.34923408964E+03  0.34923408964E+03  0.00000000000E+00 0. -1.
         36    2    1    2    0    0  0.00000000000E+00  0.00000000000E+00  0.36548607880E+03  0.10639542581E+04  0.99920898188E+03 0.  0.
         25    2    3    3    0    0  0.96943268414E+02 -0.90549532943E+02  0.24517468074E+02  0.18386481563E+03  0.12493177730E+03 0.  0.
         35    2    3    3    0    0 -0.96943268414E+02  0.90549532943E+02  0.34096861072E+03  0.88008944244E+03  0.80043776647E+03 0.  0.
         22    1    5    5    0    0 -0.43868081303E+03 -0.24940479412E+02  0.25943780567E+03  0.51026547820E+03  0.00000000000E+00 0.  1.
         22    1    5    5    0    0  0.34173754462E+03  0.11549001235E+03  0.81530805057E+02  0.36982396424E+03  0.00000000000E+00 0.  1.
          5    1    4    4  502    0 -0.15139168422E+02 -0.63061653895E+02  0.20931995832E+02  0.68309626422E+02  0.47000000000E+01 0. -1.
         -5    1    4    4    0  502  0.11208243684E+03 -0.27487879048E+02  0.35854722420E+01  0.11555518921E+03  0.47000000000E+01 0. -1.
<mgrwt>
<rscale>  0 0.99920898E+03</rscale>
<asrwt>0</asrwt>
<pdfrwt beam="1">  1        2 0.10995695E+00 0.99920898E+03</pdfrwt>
<pdfrwt beam="2">  1       -2 0.53728322E-01 0.99920898E+03</pdfrwt>
<totfact> 0.15761236E+02</totfact>
</mgrwt>
</event>
<event>
 9    1  0.4369420E-036  0.9994576E+03  0.7818608E-02  0.8681555E-01
         -1   -1    0    0    0  501 -0.00000000000E+00  0.00000000000E+00  0.56354281443E+03  0.56354281443E+03  0.00000000000E+00 0.  1.
          1   -1    0    0  501    0  0.00000000000E+00 -0.00000000000E+00 -0.44314087086E+03  0.44314087086E+03  0.00000000000E+00 0.  1.
         36    2    1    2    0    0  0.00000000000E+00 -0.14210854715E-13  0.12040194356E+03  0.10066836853E+04  0.99945755998E+03 0.  0.
         25    2    3    3    0    0 -0.55595142028E+02 -0.82811454769E+02  0.12374150087E+03  0.20199097609E+03  0.12465888868E+03 0.  0.
         35    2    3    3    0    0  0.55595142028E+02  0.82811454769E+02 -0.33395573050E+01  0.80469270920E+03  0.79848021061E+03 0.  0.
         22    1    5    5    0    0 -0.31657427245E+03 -0.74321173339E+02  0.16783927188E+03  0.36594115370E+03  0.00000000000E+00 0.  1.
         22    1    5    5    0    0  0.37216941448E+03  0.15713262811E+03 -0.17117882919E+03  0.43875155550E+03  0.00000000000E+00 0.  1.
          5    1    4    4  502    0  0.34919662704E+02 -0.38659173847E+02  0.71066320693E+02  0.88240730407E+02  0.47000000000E+01 0.  1.
         -5    1    4    4    0  502 -0.90514804732E+02 -0.44152280922E+02  0.52675180176E+02  0.11375024568E+03  0.47000000000E+01 0.  1.
<mgrwt>
<rscale>  0 0.99945756E+03</rscale>
<asrwt>0</asrwt>
<pdfrwt beam="1">  1        1 0.68175519E-01 0.99945756E+03</pdfrwt>
<pdfrwt beam="2">  1       -1 0.86698895E-01 0.99945756E+03</pdfrwt>
<totfact> 0.81410894E+01</totfact>
</mgrwt>
</event>
<event>
 9    1  0.4369420E-036  0.1000870E+04  0.7818608E-02  0.8680210E-01
         -1   -1    0    0    0  501 -0.00000000000E+00  0.00000000000E+00  0.17270100925E+03  0.17270100925E+03  0.00000000000E+00 0.  1.
          1   -1    0    0  501    0  0.00000000000E+00 -0.00000000000E+00 -0.14501079544E+04  0.14501079544E+04  0.00000000000E+00 0.  1.
         36    2    1    2    0    0  0.00000000000E+00 -0.28421709430E-13 -0.12774069451E+04  0.16228089636E+04  0.10008698362E+04 0.  0.
         25    2    3    3    0    0  0.98306564165E+02  0.96710552769E+02 -0.19182922815E+03  0.26702783750E+03  0.12445200541E+03 0.  0.
         35    2    3    3    0    0 -0.98306564165E+02 -0.96710552769E+02 -0.10855777170E+04  0.13557811261E+04  0.80040387979E+03 0.  0.
         22    1    5    5    0    0  0.10249444707E+03 -0.35003342225E+03 -0.20644925819E+03  0.41910595865E+03  0.00000000000E+00 0.  1.
         22    1    5    5    0    0 -0.20080101124E+03  0.25332286948E+03 -0.87912845879E+03  0.93667516748E+03  0.00000000000E+00 0.  1.
          5    1    4    4  502    0  0.47848179224E+02  0.98352959500E+02 -0.57946054030E+02  0.12386520123E+03  0.47000000000E+01 0. -1.
         -5    1    4    4    0  502  0.50458384941E+02 -0.16424067310E+01 -0.13388317412E+03  0.14316263627E+03  0.47000000000E+01 0. -1.
<mgrwt>
<rscale>  0 0.10008698E+04</rscale>
<asrwt>0</asrwt>
<pdfrwt beam="1">  1        1 0.22309353E+00 0.10008698E+04</pdfrwt>
<pdfrwt beam="2">  1       -1 0.26569387E-01 0.10008698E+04</pdfrwt>
<totfact> 0.96810215E+01</totfact>
</mgrwt>
</event>
<event>
 9    1  0.4369420E-036  0.1000439E+04  0.7818608E-02  0.8680620E-01
         -2   -1    0    0    0  501 -0.00000000000E+00  0.00000000000E+00  0.57116576897E+03  0.57116576897E+03  0.00000000000E+00 0.  1.
          2   -1    0    0  501    0  0.00000000000E+00 -0.00000000000E+00 -0.43808549545E+03  0.43808549545E+03  0.00000000000E+00 0.  1.
         36    2    1    2    0    0 -0.28421709430E-13  0.28421709430E-13  0.13308027352E+03  0.10092512644E+04  0.10004387815E+04 0.  0.
         25    2    3    3    0    0 -0.12263568554E+03 -0.62784807238E+02 -0.83811019967E+00  0.18564476281E+03  0.12442601071E+03 0.  0.
         35    2    3    3    0    0  0.12263568554E+03  0.62784807238E+02  0.13391838372E+03  0.82360650162E+03  0.80088207160E+03 0.  0.
         22    1    5    5    0    0  0.28419905933E+03  0.34493354655E+03 -0.50562755507E+02  0.44978311340E+03  0.00000000000E+00 0.  1.
         22    1    5    5    0    0 -0.16156337378E+03 -0.28214873931E+03  0.18448113922E+03  0.37382338821E+03  0.00000000000E+00 0.  1.
          5    1    4    4  502    0 -0.95850765045E+02 -0.99539790058E+02 -0.11346379418E+02  0.13873128447E+03  0.47000000000E+01 0. -1.
         -5    1    4    4    0  502 -0.26784920497E+02  0.36754982820E+02  0.10508269219E+02  0.46913478341E+02  0.47000000000E+01 0. -1.
<mgrwt>
<rscale>  0 0.10004388E+04</rscale>
<asrwt>0</asrwt>
<pdfrwt beam="1">  1        2 0.67397769E-01 0.10004388E+04</pdfrwt>
<pdfrwt beam="2">  1       -2 0.87871657E-01 0.10004388E+04</pdfrwt>
<totfact> 0.95840250E+01</totfact>
</mgrwt>
</event>
<event>
 9    1  0.4369420E-036  0.1000266E+04  0.7818608E-02  0.8680784E-01
          1   -1    0    0  501    0  0.00000000000E+00  0.00000000000E+00  0.57600751207E+03  0.57600751207E+03  0.00000000000E+00 0. -1.
         -1   -1    0    0    0  501 -0.00000000000E+00 -0.00000000000E+00 -0.43425322189E+03  0.43425322189E+03  0.00000000000E+00 0. -1.
         36    2    1    2    0    0  0.14210854715E-13  0.00000000000E+00  0.14175429018E+03  0.10102607340E+04  0.10002662005E+04 0.  0.
         25    2    3    3    0    0  0.10983728562E+03  0.16568623288E+02  0.11464744150E+03  0.20243220654E+03  0.12448298603E+03 0.  0.
         35    2    3    3    0    0 -0.10983728562E+03 -0.16568623288E+02  0.27106848677E+02  0.80782852743E+03  0.79969581710E+03 0.  0.
         22    1    5    5    0    0 -0.17838010767E+03  0.32181556106E+01  0.39482024498E+03  0.43325840463E+03  0.00000000000E+00 0.  1.
         22    1    5    5    0    0  0.68542822042E+02 -0.19786778898E+02 -0.36771339630E+03  0.37457012280E+03  0.00000000000E+00 0.  1.
          5    1    4    4  502    0  0.41019708520E+02 -0.37028278697E+02 -0.34176680371E+01  0.55565100244E+02  0.47000000000E+01 0.  1.
         -5    1    4    4    0  502  0.68817577103E+02  0.53596901984E+02  0.11806510954E+03  0.14686710629E+03  0.47000000000E+01 0.  1.
<mgrwt>
<rscale>  0 0.10002662E+04</rscale>
<asrwt>0</asrwt>
<pdfrwt beam="1">  1        1 0.88616540E-01 0.10002662E+04</pdfrwt>
<pdfrwt beam="2">  1       -1 0.66808188E-01 0.10002662E+04</pdfrwt>
<totfact> 0.96276265E+01</totfact>
</mgrwt>
</event>
<event>
 9    1  0.4369420E-036  0.9995456E+03  0.7818608E-02  0.8681471E-01
         -2   -1    0    0    0  501 -0.00000000000E+00  0.00000000000E+00  0.32593064943E+03  0.32593064943E+03  0.00000000000E+00 0. -1.
          2   -1    0    0  501    0  0.00000000000E+00 -0.00000000000E+00 -0.76633745963E+03  0.76633745963E+03  0.00000000000E+00 0. -1.
         36    2    1    2    0    0 -0.28421709430E-13  0.00000000000E+00 -0.44040681020E+03  0.10922681091E+04  0.99954562857E+03 0.  0.
         25    2    3    3    0    0 -0.71564084100E+02 -0.10689619831E+03 -0.22946163209E+02  0.18052199158E+03  0.12455299150E+03 0.  0.
         35    2    3    3    0    0  0.71564084100E+02  0.10689619831E+03 -0.41746064699E+03  0.91174611747E+03  0.80028705825E+03 0.  0.
         22    1    5    5    0    0 -0.13561323001E+03 -0.30384156227E+03 -0.82842299576E+02  0.34288990903E+03  0.00000000000E+00 0.  1.
         22    1    5    5    0    0  0.20717731411E+03  0.41073776059E+03 -0.33461834741E+03  0.56885620844E+03  0.00000000000E+00 0.  1.
          5    1    4    4  502    0 -0.68615115043E+02 -0.13114540565E+03 -0.36043834048E+02  0.15240865923E+03  0.47000000000E+01 0. -1.
         -5    1    4    4    0  502 -0.29489690578E+01  0.24249207333E+02  0.13097670838E+02  0.28113332357E+02  0.47000000000E+01 0. -1.
<mgrwt>
<rscale>  0 0.99954563E+03</rscale>
<asrwt>0</asrwt>
<pdfrwt beam="1">  1        2 0.11789807E+00 0.99954563E+03</pdfrwt>
<pdfrwt beam="2">  1       -2 0.50143177E-01 0.99954563E+03</pdfrwt>
<totfact> 0.16602564E+02</totfact>
</mgrwt>
</event>
<event>
 9    1  0.4369420E-036  0.1000045E+04  0.7818608E-02  0.8680995E-01
         -2   -1    0    0    0  501 -0.00000000000E+00  0.00000000000E+00  0.10985422345E+03  0.10985422345E+03  0.00000000000E+00 0. -1.
          2   -1    0    0  501    0  0.00000000000E+00 -0.00000000000E+00 -0.22759495371E+04  0.22759495371E+04  0.00000000000E+00 0. -1.
         36    2    1    2    0    0 -0.21316282073E-13 -0.14210854715E-13 -0.21660953137E+04  0.23858037606E+04  0.10000453370E+04 0.  0.
         25    2    3    3    0    0  0.14233451492E+02 -0.55317844282E+02 -0.99983688359E+02  0.16980574609E+03  0.12479823087E+03 0.  0.
         35    2    3    3    0    0 -0.14233451492E+02  0.55317844282E+02 -0.20661116253E+04  0.22159980145E+04  0.79910405886E+03 0.  0.
         22    1    5    5    0    0  0.38492136409E+03  0.90825411883E+02 -0.11489472065E+04  0.12151104457E+04  0.00000000000E+00 0. -1.
         22    1    5    5    0    0 -0.39915481558E+03 -0.35507567601E+02 -0.91716441885E+03  0.10008875688E+04  0.00000000000E+00 0. -1.
          5    1    4    4  502    0  0.38158637898E+02  0.29836674502E+02 -0.34684902439E+02  0.59761536533E+02  0.47000000000E+01 0.  1.
         -5    1    4    4    0  502 -0.23925186406E+02 -0.85154518784E+02 -0.65298785920E+02  0.11004420955E+03  0.47000000000E+01 0.  1.
<mgrwt>
<rscale>  0 0.10000453E+04</rscale>
<asrwt>0</asrwt>
<pdfrwt beam="1">  1        2 0.35014608E+00 0.10000453E+04</pdfrwt>
<pdfrwt beam="2">  1       -2 0.16900650E-01 0.10000453E+04</pdfrwt>
<totfact> 0.15498143E+02</totfact>
</mgrwt>
</event>
<event>
 9    1  0.4369420E-036  0.1000681E+04  0.7818608E-02  0.8680389E-01
         -2   -1    0    0    0  501 -0.00000000000E+00  0.00000000000E+00  0.42009910628E+03  0.42009910628E+03  0.00000000000E+00 0. -1.
          2   -1    0    0  501    0  0.00000000000E+00 -0.00000000000E+00 -0.59590891252E+03  0.59590891252E+03  0.00000000000E+00 0. -1.
         36    2    1    2    0    0  0.00000000000E+00 -0.14210854715E-13 -0.17580980624E+03  0.10160080188E+04  0.10006813710E+04 0.  0.
         25    2    3    3    0    0  0.83835558984E+02 -0.60275348349E+02  0.66884200909E+02  0.17400493174E+03  0.12305568402E+03 0.  0.
         35    2    3    3    0    0 -0.83835558984E+02  0.60275348349E+02 -0.24269400715E+03  0.84200308706E+03  0.79962947603E+03 0.  0.
         22    1    5    5    0    0 -0.15179335406E+03 -0.15283039767E+03 -0.47374638979E+03  0.52041713522E+03  0.00000000000E+00 0.  1.
         22    1    5    5    0    0  0.67957795076E+02  0.21310574602E+03  0.23105238264E+03  0.32158595184E+03  0.00000000000E+00 0.  1.
          5    1    4    4  502    0 -0.20260497242E+02 -0.51635045914E+02  0.17366646006E+02  0.58312572474E+02  0.47000000000E+01 0.  1.
         -5    1    4    4    0  502  0.10409605623E+03 -0.86403024345E+01  0.49517554904E+02  0.11569235926E+03  0.47000000000E+01 0.  1.
<mgrwt>
<rscale>  0 0.10006814E+04</rscale>
<asrwt>0</asrwt>
<pdfrwt beam="1">  1        2 0.91678294E-01 0.10006814E+04</pdfrwt>
<pdfrwt beam="2">  1       -2 0.64630632E-01 0.10006814E+04</pdfrwt>
<totfact> 0.13372762E+02</totfact>
</mgrwt>
</event>
<event>
 9    1  0.4369420E-036  0.1000617E+04  0.7818608E-02  0.8680451E-01
          2   -1    0    0  501    0  0.00000000000E+00  0.00000000000E+00  0.20509955059E+04  0.20509955059E+04  0.00000000000E+00 0.  1.
         -2   -1    0    0    0  501 -0.00000000000E+00 -0.00000000000E+00 -0.12204243992E+03  0.12204243992E+03  0.00000000000E+00 0.  1.
         36    2    1    2    0    0 -0.28421709430E-13 -0.28421709430E-13  0.19289530660E+04  0.21730379458E+04  0.10006168014E+04 0.  0.
         25    2    3    3    0    0 -0.43452021977E+01 -0.12141148972E+03  0.20958092341E+03  0.27290308174E+03  0.12566741003E+03 0.  0.
         35    2    3    3    0    0  0.43452021977E+01  0.12141148972E+03  0.17193721426E+04  0.19001348641E+04  0.79969513342E+03 0.  0.
         22    1    5    5    0    0 -0.13220467717E+03 -0.23161623605E+03  0.19739819758E+03  0.33179844164E+03  0.00000000000E+00 0. -1.
         22    1    5    5    0    0  0.13654987937E+03  0.35302772577E+03  0.15219739450E+04  0.15683364224E+04  0.00000000000E+00 0. -1.
          5    1    4    4  502    0  0.25378937013E+02 -0.60574325934E+02  0.15988635572E+02  0.67757404567E+02  0.47000000000E+01 0. -1.
         -5    1    4    4    0  502 -0.29724139210E+02 -0.60837163789E+02  0.19359228784E+03  0.20514567717E+03  0.47000000000E+01 0. -1.
<mgrwt>
<rscale>  0 0.10006168E+04</rscale>
<asrwt>0</asrwt>
<pdfrwt beam="1">  1        2 0.31553775E+00 0.10006168E+04</pdfrwt>
<pdfrwt beam="2">  1       -2 0.18775761E-01 0.10006168E+04</pdfrwt>
<totfact> 0.17479611E+02</totfact>
</mgrwt>
</event>
<event>
 9    1  0.4369420E-036  0.1000243E+04  0.7818608E-02  0.8680806E-01
          2   -1    0    0  501    0  0.00000000000E+00  0.00000000000E+00  0.76054891324E+03  0.76054891324E+03  0.00000000000E+00 0. -1.
         -2   -1    0    0    0  501 -0.00000000000E+00 -0.00000000000E+00 -0.32886991533E+03  0.32886991533E+03  0.00000000000E+00 0. -1.
         36    2    1    2    0    0  0.42632564146E-13  0.00000000000E+00  0.43167899791E+03  0.10894188286E+04  0.10002432838E+04 0.  0.
         25    2    3    3    0    0  0.41341648402E+02 -0.13509934510E+03  0.85005203573E+02  0.20652425113E+03  0.12436002867E+03 0.  0.
         35    2    3    3    0    0 -0.41341648402E+02  0.13509934510E+03  0.34667379433E+03  0.88289457744E+03  0.79959936859E+03 0.  0.
         22    1    5    5    0    0 -0.41517432882E+03  0.13951284779E+03  0.19515155489E+03  0.47949732782E+03  0.00000000000E+00 0.  1.
         22    1    5    5    0    0  0.37383268042E+03 -0.44135026876E+01  0.15152223944E+03  0.40339724962E+03  0.00000000000E+00 0.  1.
          5    1    4    4  502    0  0.86203516350E+01  0.10097222150E+02 -0.19893610952E+02  0.24374374129E+02  0.47000000000E+01 0. -1.
         -5    1    4    4    0  502  0.32721296767E+02 -0.14519656725E+03  0.10489881453E+03  0.18214987700E+03  0.47000000000E+01 0. -1.
<mgrwt>
<rscale>  0 0.10002433E+04</rscale>
<asrwt>0</asrwt>
<pdfrwt beam="1">  1        2 0.11700752E+00 0.10002433E+04</pdfrwt>
<pdfrwt beam="2">  1       -2 0.50595372E-01 0.10002433E+04</pdfrwt>
<totfact> 0.16463703E+02</totfact>
</mgrwt>
</event>
<event>
 9    1  0.4369420E-036  0.1000037E+04  0.7818608E-02  0.8681003E-01
          1   -1    0    0  501    0  0.00000000000E+00  0.00000000000E+00  0.79082097663E+03  0.79082097663E+03  0.00000000000E+00 0.  1.
         -1   -1    0    0    0  501 -0.00000000000E+00 -0.00000000000E+00 -0.31615039756E+03  0.31615039756E+03  0.00000000000E+00 0.  1.
         36    2    1    2    0    0  0.28421709430E-13  0.14210854715E-13  0.47467057907E+03  0.11069713742E+04  0.10000367317E+04 0.  0.
         25    2    3    3    0    0  0.13884378179E+03  0.20177008391E+02  0.10956718860E+03  0.21709219935E+03  0.12425516807E+03 0.  0.
         35    2    3    3    0    0 -0.13884378179E+03 -0.20177008391E+02  0.36510339047E+03  0.88987917484E+03  0.79931204963E+03 0.  0.
         22    1    5    5    0    0 -0.36361268652E+03  0.24449494843E+03  0.91060195115E+02  0.44753092043E+03  0.00000000000E+00 0.  1.
         22    1    5    5    0    0  0.22476890473E+03 -0.26467195682E+03  0.27404319536E+03  0.44234825441E+03  0.00000000000E+00 0.  1.
          5    1    4    4  502    0  0.11163422691E+02  0.24102541094E+02  0.82004571435E+02  0.86327250794E+02  0.47000000000E+01 0.  1.
         -5    1    4    4    0  502  0.12768035910E+03 -0.39255327028E+01  0.27562617164E+02  0.13076494856E+03  0.47000000000E+01 0.  1.
<mgrwt>
<rscale>  0 0.10000367E+04</rscale>
<asrwt>0</asrwt>
<pdfrwt beam="1">  1        1 0.12166476E+00 0.10000367E+04</pdfrwt>
<pdfrwt beam="2">  1       -1 0.48638523E-01 0.10000367E+04</pdfrwt>
<totfact> 0.10860047E+02</totfact>
</mgrwt>
</event>
<event>
 9    1  0.4369420E-036  0.9980467E+03  0.7818608E-02  0.8682900E-01
         -1   -1    0    0    0  501 -0.00000000000E+00  0.00000000000E+00  0.11978053243E+04  0.11978053243E+04  0.00000000000E+00 0.  1.
          1   -1    0    0  501    0  0.00000000000E+00 -0.00000000000E+00 -0.20790046507E+03  0.20790046507E+03  0.00000000000E+00 0.  1.
         36    2    1    2    0    0  0.00000000000E+00  0.00000000000E+00  0.98990485924E+03  0.14057057894E+04  0.99804666021E+03 0.  0.
         25    2    3    3    0    0  0.97883420591E+02  0.60981096203E+02  0.74920536000E+02  0.18561528869E+03  0.12465989957E+03 0.  0.
         35    2    3    3    0    0 -0.97883420591E+02 -0.60981096203E+02  0.91498432324E+03  0.12200905007E+04  0.79882705260E+03 0.  0.
         22    1    5    5    0    0  0.21336242981E+03 -0.23565438142E+03  0.77329030782E+03  0.83608277946E+03  0.00000000000E+00 0. -1.
         22    1    5    5    0    0 -0.31124585040E+03  0.17467328522E+03  0.14169401542E+03  0.38400772123E+03  0.00000000000E+00 0. -1.
          5    1    4    4  502    0 -0.15889842654E+02  0.45746028567E+02  0.46423151053E+02  0.67248681645E+02  0.47000000000E+01 0.  1.
         -5    1    4    4    0  502  0.11377326325E+03  0.15235067636E+02  0.28497384947E+02  0.11836660705E+03  0.47000000000E+01 0.  1.
<mgrwt>
<rscale>  0 0.99804666E+03</rscale>
<asrwt>0</asrwt>
<pdfrwt beam="1">  1        1 0.31984688E-01 0.99804666E+03</pdfrwt>
<pdfrwt beam="2">  1       -1 0.18427774E+00 0.99804666E+03</pdfrwt>
<totfact> 0.29910647E+01</totfact>
</mgrwt>
</event>
<event>
 9    1  0.4369420E-036  0.1000505E+04  0.7818608E-02  0.8680557E-01
          2   -1    0    0  501    0  0.00000000000E+00  0.00000000000E+00  0.35855560026E+04  0.35855560026E+04  0.00000000000E+00 0. -1.
         -2   -1    0    0    0  501 -0.00000000000E+00 -0.00000000000E+00 -0.69794624467E+02  0.69794624467E+02  0.00000000000E+00 0. -1.
         36    2    1    2    0    0  0.10658141036E-13  0.00000000000E+00  0.35157613781E+04  0.36553506271E+04  0.10005049419E+04 0.  0.
         25    2    3    3    0    0  0.67251794267E+01 -0.13698266924E+03  0.58938237314E+03  0.61881618687E+03  0.12943110775E+03 0.  0.
         35    2    3    3    0    0 -0.67251794267E+01  0.13698266924E+03  0.29263790050E+04  0.30365344402E+04  0.79877271231E+03 0.  0.
         22    1    5    5    0    0  0.27946816068E+03 -0.71550269373E+02  0.44707008058E+03  0.53206536331E+03  0.00000000000E+00 0.  1.
         22    1    5    5    0    0 -0.28619334011E+03  0.20853293861E+03  0.24793089244E+04  0.25044690769E+04  0.00000000000E+00 0.  1.
          5    1    4    4  502    0 -0.16920040417E+02 -0.91969518675E+02  0.15242840755E+03  0.17888876309E+03  0.47000000000E+01 0.  1.
         -5    1    4    4    0  502  0.23645219844E+02 -0.45013150567E+02  0.43695396559E+03  0.43992742378E+03  0.47000000000E+01 0.  1.
<mgrwt>
<rscale>  0 0.10005049E+04</rscale>
<asrwt>0</asrwt>
<pdfrwt beam="1">  1        2 0.55162386E+00 0.10005049E+04</pdfrwt>
<pdfrwt beam="2">  1       -2 0.10737637E-01 0.10005049E+04</pdfrwt>
<totfact> 0.44204697E+01</totfact>
</mgrwt>
</event>
<event>
 9    1  0.4369420E-036  0.1000202E+04  0.7818608E-02  0.8680846E-01
          2   -1    0    0  501    0  0.00000000000E+00  0.00000000000E+00  0.25306228483E+04  0.25306228483E+04  0.00000000000E+00 0. -1.
         -2   -1    0    0    0  501 -0.00000000000E+00 -0.00000000000E+00 -0.98829781073E+02  0.98829781073E+02  0.00000000000E+00 0. -1.
         36    2    1    2    0    0  0.00000000000E+00  0.00000000000E+00  0.24317930673E+04  0.26294526294E+04  0.10002017838E+04 0.  0.
         25    2    3    3    0    0  0.38231276054E+02 -0.96912971572E+02  0.64227626140E+03  0.66250796224E+03  0.12467657979E+03 0.  0.
         35    2    3    3    0    0 -0.38231276054E+02  0.96912971572E+02  0.17895168059E+04  0.19669446672E+04  0.80972042750E+03 0.  0.
         22    1    5    5    0    0 -0.11906115664E+03 -0.32159759361E+03  0.11366327398E+04  0.11872382054E+04  0.00000000000E+00 0.  1.
         22    1    5    5    0    0  0.80829880585E+02  0.41851056518E+03  0.65288406607E+03  0.77970646175E+03  0.00000000000E+00 0.  1.
          5    1    4    4  502    0  0.34574477578E+02 -0.88635171791E+02  0.64496571416E+03  0.65196200090E+03  0.47000000000E+01 0. -1.
         -5    1    4    4    0  502  0.36567984761E+01 -0.82777997810E+01 -0.26894527647E+01  0.10545961335E+02  0.47000000000E+01 0. -1.
<mgrwt>
<rscale>  0 0.10002018E+04</rscale>
<asrwt>0</asrwt>
<pdfrwt beam="1">  1        2 0.38932654E+00 0.10002018E+04</pdfrwt>
<pdfrwt beam="2">  1       -2 0.15204584E-01 0.10002018E+04</pdfrwt>
<totfact> 0.13039289E+02</totfact>
</mgrwt>
</event>
<event>
 9    1  0.4369420E-036  0.1005325E+04  0.7818608E-02  0.8675984E-01
          2   -1    0    0  501    0  0.00000000000E+00  0.00000000000E+00  0.10657042505E+04  0.10657042505E+04  0.00000000000E+00 0.  1.
         -2   -1    0    0    0  501 -0.00000000000E+00 -0.00000000000E+00 -0.23709155386E+03  0.23709155386E+03  0.00000000000E+00 0.  1.
         36    2    1    2    0    0  0.00000000000E+00  0.00000000000E+00  0.82861269664E+03  0.13027958044E+04  0.10053247768E+04 0.  0.
         25    2    3    3    0    0  0.13418063337E+03  0.60908797612E+02  0.17702694900E+03  0.26160496696E+03  0.12403343933E+03 0.  0.
         35    2    3    3    0    0 -0.13418063337E+03 -0.60908797612E+02  0.65158574764E+03  0.10411908374E+04  0.79862384722E+03 0.  0.
         22    1    5    5    0    0 -0.28278905356E+03 -0.10126715413E+03 -0.65772131448E+02  0.30749090815E+03  0.00000000000E+00 0.  1.
         22    1    5    5    0    0  0.14860842019E+03  0.40358356515E+02  0.71735787909E+03  0.73369992925E+03  0.00000000000E+00 0.  1.
          5    1    4    4  502    0 -0.19845067576E+02 -0.70067477867E+01  0.35945604408E+02  0.41917749199E+02  0.47000000000E+01 0.  1.
         -5    1    4    4    0  502  0.15402570094E+03  0.67915545399E+02  0.14108134459E+03  0.21968721776E+03  0.47000000000E+01 0.  1.
<mgrwt>
<rscale>  0 0.10053248E+04</rscale>
<asrwt>0</asrwt>
<pdfrwt beam="1">  1        2 0.16395450E+00 0.10053248E+04</pdfrwt>
<pdfrwt beam="2">  1       -2 0.36475624E-01 0.10053248E+04</pdfrwt>
<totfact> 0.19561423E+02</totfact>
</mgrwt>
</event>
<event>
 9    1  0.4369420E-036  0.1000330E+04  0.7818608E-02  0.8680724E-01
          1   -1    0    0  501    0  0.00000000000E+00  0.00000000000E+00  0.38367126035E+03  0.38367126035E+03  0.00000000000E+00 0. -1.
         -1   -1    0    0    0  501 -0.00000000000E+00 -0.00000000000E+00 -0.65202961749E+03  0.65202961749E+03  0.00000000000E+00 0. -1.
         36    2    1    2    0    0 -0.14210854715E-13  0.28421709430E-13 -0.26835835714E+03  0.10357008778E+04  0.10003299958E+04 0.  0.
         25    2    3    3    0    0  0.10307221513E+03 -0.93674568486E+02 -0.79030507034E+02  0.20318205090E+03  0.12505326246E+03 0.  0.
         35    2    3    3    0    0 -0.10307221513E+03  0.93674568486E+02 -0.18932785011E+03  0.83251882695E+03  0.79865121053E+03 0.  0.
         22    1    5    5    0    0 -0.28119798958E+03  0.27446539121E+03 -0.35489920804E+03  0.52948749577E+03  0.00000000000E+00 0. -1.
         22    1    5    5    0    0  0.17812577446E+03 -0.18079082272E+03  0.16557135793E+03  0.30303133117E+03  0.00000000000E+00 0. -1.
          5    1    4    4  502    0  0.10092055373E+03 -0.16807112303E+02 -0.73264666252E+02  0.12592552763E+03  0.47000000000E+01 0. -1.
         -5    1    4    4    0  502  0.21516613980E+01 -0.76867456183E+02 -0.57658407814E+01  0.77256523263E+02  0.47000000000E+01 0. -1.
<mgrwt>
<rscale>  0 0.10003300E+04</rscale>
<asrwt>0</asrwt>
<pdfrwt beam="1">  1        1 0.59026348E-01 0.10003300E+04</pdfrwt>
<pdfrwt beam="2">  1       -1 0.10031225E+00 0.10003300E+04</pdfrwt>
<totfact> 0.71910398E+01</totfact>
</mgrwt>
</event>
<event>
 9    1  0.4369420E-036  0.9917755E+03  0.7818608E-02  0.8688910E-01
         -1   -1    0    0    0  501 -0.00000000000E+00  0.00000000000E+00  0.30500966339E+03  0.30500966339E+03  0.00000000000E+00 0.  1.
          1   -1    0    0  501    0  0.00000000000E+00 -0.00000000000E+00 -0.80621922399E+03  0.80621922399E+03  0.00000000000E+00 0.  1.
         36    2    1    2    0    0  0.00000000000E+00  0.28421709430E-13 -0.50120956060E+03  0.11112288874E+04  0.99177548694E+03 0.  0.
         25    2    3    3    0    0 -0.10059920999E+03  0.45776123649E+02 -0.11749239010E+02  0.16647098108E+03  0.12393098231E+03 0.  0.
         35    2    3    3    0    0  0.10059920999E+03 -0.45776123649E+02 -0.48946032159E+03  0.94475790630E+03  0.80048762674E+03 0.  0.
         22    1    5    5    0    0  0.19087736267E+02 -0.30431453519E+03  0.78990561967E+02  0.31497807365E+03  0.00000000000E+00 0.  1.
         22    1    5    5    0    0  0.81511473719E+02  0.25853841154E+03 -0.56845088356E+03  0.62977983264E+03  0.00000000000E+00 0.  1.
          5    1    4    4  502    0 -0.11424675271E+03  0.35883163900E+02  0.27974824223E+02  0.12306340945E+03  0.47000000000E+01 0. -1.
         -5    1    4    4    0  502  0.13647542719E+02  0.98929597488E+01 -0.39724063233E+02  0.43407571627E+02  0.47000000000E+01 0. -1.
<mgrwt>
<rscale>  0 0.99177549E+03</rscale>
<asrwt>0</asrwt>
<pdfrwt beam="1">  1        1 0.12403373E+00 0.99177549E+03</pdfrwt>
<pdfrwt beam="2">  1       -1 0.46924564E-01 0.99177549E+03</pdfrwt>
<totfact> 0.11248439E+02</totfact>
</mgrwt>
</event>
<event>
 9    1  0.4369420E-036  0.9884481E+03  0.7818608E-02  0.8692117E-01
          2   -1    0    0  501    0  0.00000000000E+00  0.00000000000E+00  0.13186808779E+04  0.13186808779E+04  0.00000000000E+00 0.  1.
         -2   -1    0    0    0  501 -0.00000000000E+00 -0.00000000000E+00 -0.18522859762E+03  0.18522859762E+03  0.00000000000E+00 0.  1.
         36    2    1    2    0    0  0.00000000000E+00  0.88817841970E-15  0.11334522803E+04  0.15039094755E+04  0.98844809620E+03 0.  0.
         25    2    3    3    0    0 -0.12402499973E+03 -0.35030581545E+00  0.25987360215E+03  0.31346150994E+03  0.12386083258E+03 0.  0.
         35    2    3    3    0    0  0.12402499973E+03  0.35030581545E+00  0.87357867811E+03  0.11904479656E+04  0.79915225620E+03 0.  0.
         22    1    5    5    0    0 -0.19416539231E+03  0.19393568939E+03  0.39848466967E+02  0.27730696260E+03  0.00000000000E+00 0.  1.
         22    1    5    5    0    0  0.31819039204E+03 -0.19358538357E+03  0.83373021114E+03  0.91314100296E+03  0.00000000000E+00 0.  1.
          5    1    4    4  502    0 -0.55609155158E+02  0.67863214315E+01  0.13767312958E+02  0.57879713217E+02  0.47000000000E+01 0.  1.
         -5    1    4    4    0  502 -0.68415844568E+02 -0.71366272470E+01  0.24610628919E+03  0.25558179673E+03  0.47000000000E+01 0.  1.
<mgrwt>
<rscale>  0 0.98844810E+03</rscale>
<asrwt>0</asrwt>
<pdfrwt beam="1">  1        2 0.20287398E+00 0.98844810E+03</pdfrwt>
<pdfrwt beam="2">  1       -2 0.28496708E-01 0.98844810E+03</pdfrwt>
<totfact> 0.21822432E+02</totfact>
</mgrwt>
</event>
<event>
 9    1  0.4369420E-036  0.9995179E+03  0.7818608E-02  0.8681497E-01
         -2   -1    0    0    0  501 -0.00000000000E+00  0.00000000000E+00  0.23794328864E+03  0.23794328864E+03  0.00000000000E+00 0. -1.
          2   -1    0    0  501    0  0.00000000000E+00 -0.00000000000E+00 -0.10496576459E+04  0.10496576459E+04  0.00000000000E+00 0. -1.
         36    2    1    2    0    0  0.00000000000E+00 -0.42632564146E-13 -0.81171435730E+03  0.12876009346E+04  0.99951786823E+03 0.  0.
         25    2    3    3    0    0 -0.96953863504E+02 -0.95134598196E+02 -0.12140817473E+03  0.22142946673E+03  0.12585873200E+03 0.  0.
         35    2    3    3    0    0  0.96953863504E+02  0.95134598196E+02 -0.69030618257E+03  0.10661714679E+04  0.80109196087E+03 0.  0.
         22    1    5    5    0    0  0.40474611550E+02  0.33214386525E+03 -0.74479846818E+03  0.81650627653E+03  0.00000000000E+00 0. -1.
         22    1    5    5    0    0  0.56479251954E+02 -0.23700926706E+03  0.54492285610E+02  0.24966519133E+03  0.00000000000E+00 0. -1.
          5    1    4    4  502    0 -0.54995284941E+02 -0.67950194983E+01 -0.10947987872E+03  0.12279490014E+03  0.47000000000E+01 0. -1.
         -5    1    4    4    0  502 -0.41958578564E+02 -0.88339578698E+02 -0.11928296008E+02  0.98634566584E+02  0.47000000000E+01 0. -1.
<mgrwt>
<rscale>  0 0.99951787E+03</rscale>
<asrwt>0</asrwt>
<pdfrwt beam="1">  1        2 0.16148579E+00 0.99951787E+03</pdfrwt>
<pdfrwt beam="2">  1       -2 0.36606661E-01 0.99951787E+03</pdfrwt>
<totfact> 0.19877613E+02</totfact>
</mgrwt>
</event>
<event>
 9    1  0.4369420E-036  0.1000066E+04  0.7818608E-02  0.8680975E-01
         -2   -1    0    0    0  501 -0.00000000000E+00  0.00000000000E+00  0.64862390650E+03  0.64862390650E+03  0.00000000000E+00 0. -1.
          2   -1    0    0  501    0  0.00000000000E+00 -0.00000000000E+00 -0.38548255208E+03  0.38548255208E+03  0.00000000000E+00 0. -1.
         36    2    1    2    0    0  0.28421709430E-13 -0.28421709430E-13  0.26314135442E+03  0.10341064586E+04  0.10000663954E+04 0.  0.
         25    2    3    3    0    0 -0.11724492788E+03 -0.68112872773E+02  0.61716225242E+02  0.19726246833E+03  0.12929753439E+03 0.  0.
         35    2    3    3    0    0  0.11724492788E+03  0.68112872773E+02  0.20142512917E+03  0.83684399026E+03  0.80084333350E+03 0.  0.
         22    1    5    5    0    0 -0.15249170181E+03  0.14157878774E+03 -0.23793190956E+03  0.31608521928E+03  0.00000000000E+00 0. -1.
         22    1    5    5    0    0  0.26973662969E+03 -0.73465914971E+02  0.43935703874E+03  0.52075877098E+03  0.00000000000E+00 0. -1.
          5    1    4    4  502    0 -0.10786334302E+03 -0.49275742005E+01  0.75382307857E+02  0.13177011836E+03  0.47000000000E+01 0.  1.
         -5    1    4    4    0  502 -0.93815848660E+01 -0.63185298573E+02 -0.13666082615E+02  0.65492349968E+02  0.47000000000E+01 0.  1.
<mgrwt>
<rscale>  0 0.10000664E+04</rscale>
<asrwt>0</asrwt>
<pdfrwt beam="1">  1        2 0.59305008E-01 0.10000664E+04</pdfrwt>
<pdfrwt beam="2">  1       -2 0.99788293E-01 0.10000664E+04</pdfrwt>
<totfact> 0.81773004E+01</totfact>
</mgrwt>
</event>
<event>
 9    1  0.4369420E-036  0.1000187E+04  0.7818608E-02  0.8680860E-01
         -2   -1    0    0    0  501 -0.00000000000E+00  0.00000000000E+00  0.29471215680E+03  0.29471215680E+03  0.00000000000E+00 0.  1.
          2   -1    0    0  501    0  0.00000000000E+00 -0.00000000000E+00 -0.84860296346E+03  0.84860296346E+03  0.00000000000E+00 0.  1.
         36    2    1    2    0    0  0.00000000000E+00  0.14210854715E-13 -0.55389080666E+03  0.11433151203E+04  0.10001872017E+04 0.  0.
         25    2    3    3    0    0 -0.98863645015E+02  0.90815826906E+02 -0.14884076619E+03  0.23548705530E+03  0.12360843342E+03 0.  0.
         35    2    3    3    0    0  0.98863645015E+02 -0.90815826906E+02 -0.40505004047E+03  0.90782806496E+03  0.80128941433E+03 0.  0.
         22    1    5    5    0    0  0.43414851938E+03  0.70945240751E+02 -0.23132044422E+03  0.49701842218E+03  0.00000000000E+00 0.  1.
         22    1    5    5    0    0 -0.33528487437E+03 -0.16176106766E+03 -0.17372959625E+03  0.41080964278E+03  0.00000000000E+00 0.  1.
          5    1    4    4  502    0 -0.51212162590E+02  0.11382772351E+03 -0.79211017068E+02  0.14790507584E+03  0.47000000000E+01 0.  1.
         -5    1    4    4    0  502 -0.47651482425E+02 -0.23011896601E+02 -0.69629749119E+02  0.87581979453E+02  0.47000000000E+01 0.  1.
<mgrwt>
<rscale>  0 0.10001872E+04</rscale>
<asrwt>0</asrwt>
<pdfrwt beam="1">  1        2 0.13055430E+00 0.10001872E+04</pdfrwt>
<pdfrwt beam="2">  1       -2 0.45340332E-01 0.10001872E+04</pdfrwt>
<totfact> 0.17757525E+02</totfact>
</mgrwt>
</event>
<event>
 9    1  0.4369420E-036  0.1000180E+04  0.7818608E-02  0.8680866E-01
          2   -1    0    0  501    0  0.00000000000E+00  0.00000000000E+00  0.16192750054E+04  0.16192750054E+04  0.00000000000E+00 0.  1.
         -2   -1    0    0    0  501 -0.00000000000E+00 -0.00000000000E+00 -0.15444574142E+03  0.15444574142E+03  0.00000000000E+00 0.  1.
         36    2    1    2    0    0 -0.56843418861E-13 -0.35527136788E-14  0.14648292639E+04  0.17737207468E+04  0.10001802413E+04 0.  0.
         25    2    3    3    0    0 -0.13496001312E+03 -0.50561399807E+01  0.34291213833E+03  0.38916652536E+03  0.12498832006E+03 0.  0.
         35    2    3    3    0    0  0.13496001312E+03  0.50561399807E+01  0.11219171256E+04  0.13845542214E+04  0.80003286536E+03 0.  0.
         22    1    5    5    0    0 -0.28617105928E+03 -0.14411133376E+03  0.25578989041E+03  0.40998831657E+03  0.00000000000E+00 0.  1.
         22    1    5    5    0    0  0.42113107240E+03  0.14916747374E+03  0.86612723520E+03  0.97456590486E+03  0.00000000000E+00 0.  1.
          5    1    4    4  502    0 -0.52845072159E+02 -0.30775094325E+02  0.37636248086E+02  0.71960303308E+02  0.47000000000E+01 0. -1.
         -5    1    4    4    0  502 -0.82114940959E+02  0.25718954344E+02  0.30527589024E+03  0.31720622205E+03  0.47000000000E+01 0. -1.
<mgrwt>
<rscale>  0 0.10001802E+04</rscale>
<asrwt>0</asrwt>
<pdfrwt beam="1">  1        2 0.24911922E+00 0.10001802E+04</pdfrwt>
<pdfrwt beam="2">  1       -2 0.23760884E-01 0.10001802E+04</pdfrwt>
<totfact> 0.20362466E+02</totfact>
</mgrwt>
</event>
<event>
 9    1  0.4369420E-036  0.9987428E+03  0.7818608E-02  0.8682236E-01
         -1   -1    0    0    0  501 -0.00000000000E+00  0.00000000000E+00  0.41913303871E+03  0.41913303871E+03  0.00000000000E+00 0.  1.
          1   -1    0    0  501    0  0.00000000000E+00 -0.00000000000E+00 -0.59497045400E+03  0.59497045400E+03  0.00000000000E+00 0.  1.
         36    2    1    2    0    0 -0.14210854715E-13 -0.28421709430E-13 -0.17583741529E+03  0.10141034927E+04  0.99874275833E+03 0.  0.
         25    2    3    3    0    0 -0.10920445286E+03  0.82444511214E+02 -0.71153348175E+02  0.19817302449E+03  0.12444693136E+03 0.  0.
         35    2    3    3    0    0  0.10920445286E+03 -0.82444511214E+02 -0.10468406711E+03  0.81593046822E+03  0.79753436610E+03 0.  0.
         22    1    5    5    0    0 -0.16700463755E+03 -0.25264882726E+03  0.20635801982E+03  0.36647729973E+03  0.00000000000E+00 0.  1.
         22    1    5    5    0    0  0.27620909041E+03  0.17020431604E+03 -0.31104208693E+03  0.44945316849E+03  0.00000000000E+00 0.  1.
          5    1    4    4  502    0  0.47332062214E+01 -0.25340299693E+02 -0.81325790991E+00  0.26216128969E+02  0.47000000000E+01 0. -1.
         -5    1    4    4    0  502 -0.11393765908E+03  0.10778481091E+03 -0.70340090265E+02  0.17195689552E+03  0.47000000000E+01 0. -1.
<mgrwt>
<rscale>  0 0.99874276E+03</rscale>
<asrwt>0</asrwt>
<pdfrwt beam="1">  1        1 0.91533915E-01 0.99874276E+03</pdfrwt>
<pdfrwt beam="2">  1       -1 0.64482006E-01 0.99874276E+03</pdfrwt>
<totfact> 0.98459309E+01</totfact>
</mgrwt>
</event>
<event>
 9    1  0.4369420E-036  0.1000913E+04  0.7818608E-02  0.8680169E-01
         -2   -1    0    0    0  501 -0.00000000000E+00  0.00000000000E+00  0.70169879598E+03  0.70169879598E+03  0.00000000000E+00 0.  1.
          2   -1    0    0  501    0  0.00000000000E+00 -0.00000000000E+00 -0.35692934039E+03  0.35692934039E+03  0.00000000000E+00 0.  1.
         36    2    1    2    0    0 -0.14210854715E-13 -0.14210854715E-13  0.34476945559E+03  0.10586281364E+04  0.10009133597E+04 0.  0.
         25    2    3    3    0    0 -0.48122945033E+02 -0.75186067864E+01 -0.66980330232E+02  0.15171870398E+03  0.12712141131E+03 0.  0.
         35    2    3    3    0    0  0.48122945033E+02  0.75186067864E+01  0.41174978582E+03  0.90690943238E+03  0.80658197669E+03 0.  0.
         22    1    5    5    0    0 -0.29024901033E+03 -0.20072856531E+03  0.36357798529E+03  0.50668076371E+03  0.00000000000E+00 0. -1.
         22    1    5    5    0    0  0.33837195536E+03  0.20824717210E+03  0.48171800531E+02  0.40022866867E+03  0.00000000000E+00 0. -1.
          5    1    4    4  502    0 -0.25056420440E+02 -0.65902937952E+02 -0.20847721934E+02  0.73673190143E+02  0.47000000000E+01 0.  1.
         -5    1    4    4    0  502 -0.23066524592E+02  0.58384331165E+02 -0.46132608298E+02  0.78045513841E+02  0.47000000000E+01 0.  1.
<mgrwt>
<rscale>  0 0.10009134E+04</rscale>
<asrwt>0</asrwt>
<pdfrwt beam="1">  1        2 0.54912206E-01 0.10009134E+04</pdfrwt>
<pdfrwt beam="2">  1       -2 0.10795366E+00 0.10009134E+04</pdfrwt>
<totfact> 0.73380037E+01</totfact>
</mgrwt>
</event>
<event>
 9    1  0.4369420E-036  0.9983792E+03  0.7818608E-02  0.8682583E-01
          2   -1    0    0  501    0  0.00000000000E+00  0.00000000000E+00  0.12734856856E+04  0.12734856856E+04  0.00000000000E+00 0. -1.
         -2   -1    0    0    0  501 -0.00000000000E+00 -0.00000000000E+00 -0.19567574910E+03  0.19567574910E+03  0.00000000000E+00 0. -1.
         36    2    1    2    0    0  0.14210854715E-13  0.35527136788E-14  0.10778099365E+04  0.14691614347E+04  0.99837921754E+03 0.  0.
         25    2    3    3    0    0  0.70624262770E+01 -0.17406571808E+01 -0.10749038118E+02  0.11817816099E+03  0.11746330560E+03 0.  0.
         35    2    3    3    0    0 -0.70624262770E+01  0.17406571808E+01  0.10885589746E+04  0.13509832737E+04  0.80008890562E+03 0.  0.
         22    1    5    5    0    0 -0.11122729753E+03 -0.75876586895E+02 -0.92144998081E+02  0.16315473890E+03  0.00000000000E+00 0. -1.
         22    1    5    5    0    0  0.10416487126E+03  0.77617244075E+02  0.11807039727E+04  0.11878285348E+04  0.00000000000E+00 0. -1.
          5    1    4    4  502    0  0.52829525554E+02 -0.10074908234E+02 -0.36145435639E+02  0.64969570291E+02  0.47000000000E+01 0.  1.
         -5    1    4    4    0  502 -0.45767099277E+02  0.83342510535E+01  0.25396397522E+02  0.53208590697E+02  0.47000000000E+01 0.  1.
<mgrwt>
<rscale>  0 0.99837922E+03</rscale>
<asrwt>0</asrwt>
<pdfrwt beam="1">  1        2 0.19592087E+00 0.99837922E+03</pdfrwt>
<pdfrwt beam="2">  1       -2 0.30103962E-01 0.99837922E+03</pdfrwt>
<totfact> 0.20982409E+02</totfact>
</mgrwt>
</event>
<event>
 9    1  0.4369420E-036  0.9986551E+03  0.7818608E-02  0.8682320E-01
          2   -1    0    0  501    0  0.00000000000E+00  0.00000000000E+00  0.88362189028E+03  0.88362189028E+03  0.00000000000E+00 0.  1.
         -2   -1    0    0    0  501 -0.00000000000E+00 -0.00000000000E+00 -0.28216591671E+03  0.28216591671E+03  0.00000000000E+00 0.  1.
         36    2    1    2    0    0  0.00000000000E+00  0.10658141036E-13  0.60145597357E+03  0.11657878070E+04  0.99865505696E+03 0.  0.
         25    2    3    3    0    0  0.90632260696E+02 -0.28547983272E+02 -0.43213582615E+01  0.15721215316E+03  0.12517105471E+03 0.  0.
         35    2    3    3    0    0 -0.90632260696E+02  0.28547983272E+02  0.60577733183E+03  0.10085756538E+04  0.80076805613E+03 0.  0.
         22    1    5    5    0    0  0.66113885435E+01 -0.23144524047E+03  0.68239963120E+03  0.72061075933E+03  0.00000000000E+00 0.  1.
         22    1    5    5    0    0 -0.97243649239E+02  0.25999322374E+03 -0.76622299371E+02  0.28796489451E+03  0.00000000000E+00 0.  1.
          5    1    4    4  502    0  0.43727745274E+02  0.28545160215E+02 -0.48139163729E+02  0.71178725495E+02  0.47000000000E+01 0.  1.
         -5    1    4    4    0  502  0.46904515421E+02 -0.57093143487E+02  0.43817805468E+02  0.86033427667E+02  0.47000000000E+01 0.  1.
<mgrwt>
<rscale>  0 0.99865506E+03</rscale>
<asrwt>0</asrwt>
<pdfrwt beam="1">  1        2 0.13594183E+00 0.99865506E+03</pdfrwt>
<pdfrwt beam="2">  1       -2 0.43410142E-01 0.99865506E+03</pdfrwt>
<totfact> 0.18313432E+02</totfact>
</mgrwt>
</event>
<event>
 9    1  0.4369420E-036  0.9989266E+03  0.7818608E-02  0.8682061E-01
         -1   -1    0    0    0  501 -0.00000000000E+00  0.00000000000E+00  0.15000526728E+03  0.15000526728E+03  0.00000000000E+00 0. -1.
          1   -1    0    0  501    0  0.00000000000E+00 -0.00000000000E+00 -0.16630322906E+04  0.16630322906E+04  0.00000000000E+00 0. -1.
         36    2    1    2    0    0  0.00000000000E+00  0.71054273576E-14 -0.15130270233E+04  0.18130375579E+04  0.99892663042E+03 0.  0.
         25    2    3    3    0    0  0.10589864386E+03  0.40142275403E+02 -0.42823349116E+03  0.46028151854E+03  0.12509687571E+03 0.  0.
         35    2    3    3    0    0 -0.10589864386E+03 -0.40142275403E+02 -0.10847935321E+04  0.13527560393E+04  0.80021620172E+03 0.  0.
         22    1    5    5    0    0 -0.18478222220E+03 -0.17674220341E+03  0.86181154267E+00  0.25570103407E+03  0.00000000000E+00 0.  1.
         22    1    5    5    0    0  0.78883578344E+02  0.13659992800E+03 -0.10856553437E+04  0.10970550052E+04  0.00000000000E+00 0.  1.
          5    1    4    4  502    0  0.98129998430E+02 -0.19017758071E+02 -0.33381503635E+03  0.34849066014E+03  0.47000000000E+01 0.  1.
         -5    1    4    4    0  502  0.77686454310E+01  0.59160033473E+02 -0.94418454812E+02  0.11179085840E+03  0.47000000000E+01 0.  1.
<mgrwt>
<rscale>  0 0.99892663E+03</rscale>
<asrwt>0</asrwt>
<pdfrwt beam="1">  1        1 0.25585112E+00 0.99892663E+03</pdfrwt>
<pdfrwt beam="2">  1       -1 0.23077734E-01 0.99892663E+03</pdfrwt>
<totfact> 0.86608796E+01</totfact>
</mgrwt>
</event>
<event>
 9    1  0.4369420E-036  0.9992333E+03  0.7818608E-02  0.8681768E-01
         -2   -1    0    0    0  501 -0.00000000000E+00  0.00000000000E+00  0.13796631070E+03  0.13796631070E+03  0.00000000000E+00 0. -1.
          2   -1    0    0  501    0  0.00000000000E+00 -0.00000000000E+00 -0.18092589086E+04  0.18092589086E+04  0.00000000000E+00 0. -1.
         36    2    1    2    0    0  0.00000000000E+00  0.14210854715E-13 -0.16712925979E+04  0.19472252193E+04  0.99923325950E+03 0.  0.
         25    2    3    3    0    0  0.66397597767E+02 -0.11137483394E+03 -0.20849651021E+03  0.27509593424E+03  0.12407249350E+03 0.  0.
         35    2    3    3    0    0 -0.66397597767E+02  0.11137483394E+03 -0.14627960877E+04  0.16721292851E+04  0.79964426914E+03 0.  0.
         22    1    5    5    0    0  0.57601508042E+02  0.74573069561E+02  0.80189829168E+02  0.12373150421E+03  0.00000000000E+00 0.  1.
         22    1    5    5    0    0 -0.12399910581E+03  0.36801764375E+02 -0.15429859169E+04  0.15483977809E+04  0.00000000000E+00 0.  1.
          5    1    4    4  502    0  0.22788584347E+02 -0.10161003544E+03 -0.60713310266E+02  0.12063214713E+03  0.47000000000E+01 0.  1.
         -5    1    4    4    0  502  0.43609013420E+02 -0.97647984954E+01 -0.14778319995E+03  0.15446378711E+03  0.47000000000E+01 0.  1.
<mgrwt>
<rscale>  0 0.99923326E+03</rscale>
<asrwt>0</asrwt>
<pdfrwt beam="1">  1        2 0.27834751E+00 0.99923326E+03</pdfrwt>
<pdfrwt beam="2">  1       -2 0.21225587E-01 0.99923326E+03</pdfrwt>
<totfact> 0.19391334E+02</totfact>
</mgrwt>
</event>
<event>
 9    1  0.4369420E-036  0.1000082E+04  0.7818608E-02  0.8680960E-01
          2   -1    0    0  501    0  0.00000000000E+00  0.00000000000E+00  0.13396595243E+04  0.13396595243E+04  0.00000000000E+00 0.  1.
         -2   -1    0    0    0  501 -0.00000000000E+00 -0.00000000000E+00 -0.18664512439E+03  0.18664512439E+03  0.00000000000E+00 0.  1.
         36    2    1    2    0    0 -0.14210854715E-13  0.14210854715E-13  0.11530143999E+04  0.15263046487E+04  0.10000818338E+04 0.  0.
         25    2    3    3    0    0 -0.98498558312E+01  0.11821829294E+03  0.10275800624E+03  0.20066161300E+03  0.12503315815E+03 0.  0.
         35    2    3    3    0    0  0.98498558312E+01 -0.11821829294E+03  0.10502563937E+04  0.13256430357E+04  0.80013647662E+03 0.  0.
         22    1    5    5    0    0  0.11884542250E+03  0.12761599516E+03 -0.59124354657E+02  0.18413518399E+03  0.00000000000E+00 0. -1.
         22    1    5    5    0    0 -0.10899556666E+03 -0.24583428810E+03  0.11093807484E+04  0.11415078517E+04  0.00000000000E+00 0. -1.
          5    1    4    4  502    0  0.49349826856E+02  0.91296049411E+02  0.81628654700E+02  0.13212002618E+03  0.47000000000E+01 0.  1.
         -5    1    4    4    0  502 -0.59199682687E+02  0.26922243534E+02  0.21129351540E+02  0.68541586819E+02  0.47000000000E+01 0.  1.
<mgrwt>
<rscale>  0 0.10000818E+04</rscale>
<asrwt>0</asrwt>
<pdfrwt beam="1">  1        2 0.20610146E+00 0.10000818E+04</pdfrwt>
<pdfrwt beam="2">  1       -2 0.28714635E-01 0.10000818E+04</pdfrwt>
<totfact> 0.20931245E+02</totfact>
</mgrwt>
</event>
<event>
 9    1  0.4369420E-036  0.9999878E+03  0.7818608E-02  0.8681050E-01
         -2   -1    0    0    0  501 -0.00000000000E+00  0.00000000000E+00  0.49103705668E+03  0.49103705668E+03  0.00000000000E+00 0. -1.
          2   -1    0    0  501    0  0.00000000000E+00 -0.00000000000E+00 -0.50911408166E+03  0.50911408166E+03  0.00000000000E+00 0. -1.
         36    2    1    2    0    0  0.71054273576E-14  0.28421709430E-13 -0.18077024981E+02  0.10001511383E+04  0.99998776026E+03 0.  0.
         25    2    3    3    0    0  0.53058817965E+02  0.34061752461E+02 -0.13015494841E+03  0.19149928570E+03  0.12552380127E+03 0.  0.
         35    2    3    3    0    0 -0.53058817965E+02 -0.34061752461E+02  0.11207792343E+03  0.80865185263E+03  0.79836139479E+03 0.  0.
         22    1    5    5    0    0  0.13748607052E+02 -0.37832690357E+03 -0.10917194305E+03  0.39400353210E+03  0.00000000000E+00 0. -1.
         22    1    5    5    0    0 -0.66807425018E+02  0.34426515110E+03  0.22124986648E+03  0.41464832053E+03  0.00000000000E+00 0. -1.
          5    1    4    4  502    0  0.26224000801E+02 -0.23804655599E+02  0.10287314768E+02  0.37179008746E+02  0.47000000000E+01 0. -1.
         -5    1    4    4    0  502  0.26834817165E+02  0.57866408060E+02 -0.14044226318E+03  0.15432027696E+03  0.47000000000E+01 0. -1.
<mgrwt>
<rscale>  0 0.99998776E+03</rscale>
<asrwt>0</asrwt>
<pdfrwt beam="1">  1        2 0.78325243E-01 0.99998776E+03</pdfrwt>
<pdfrwt beam="2">  1       -2 0.75544163E-01 0.99998776E+03</pdfrwt>
<totfact> 0.11443526E+02</totfact>
</mgrwt>
</event>
<event>
 9    1  0.4369420E-036  0.9994575E+03  0.7818608E-02  0.8681555E-01
          2   -1    0    0  501    0  0.00000000000E+00  0.00000000000E+00  0.92310805203E+03  0.92310805203E+03  0.00000000000E+00 0. -1.
         -2   -1    0    0    0  501 -0.00000000000E+00 -0.00000000000E+00 -0.27053042764E+03  0.27053042764E+03  0.00000000000E+00 0. -1.
         36    2    1    2    0    0 -0.14210854715E-13  0.00000000000E+00  0.65257762438E+03  0.11936384797E+04  0.99945748499E+03 0.  0.
         25    2    3    3    0    0 -0.36816156673E+02  0.11635762004E+03  0.38563163583E+02  0.17844470007E+03  0.12434173983E+03 0.  0.
         35    2    3    3    0    0  0.36816156673E+02 -0.11635762004E+03  0.61401446080E+03  0.10151937796E+04  0.79919342273E+03 0.  0.
         22    1    5    5    0    0 -0.14761815467E+03  0.12160177959E+03 -0.11728102671E+03  0.22435006488E+03  0.00000000000E+00 0.  1.
         22    1    5    5    0    0  0.18443431134E+03 -0.23795939963E+03  0.73129548750E+03  0.79084371472E+03  0.00000000000E+00 0.  1.
          5    1    4    4  502    0 -0.66641382757E+02  0.11504315721E+03  0.47852507071E+01  0.13312021086E+03  0.47000000000E+01 0. -1.
         -5    1    4    4    0  502  0.29825226084E+02  0.13144628337E+01  0.33777912876E+02  0.45324489206E+02  0.47000000000E+01 0. -1.
<mgrwt>
<rscale>  0 0.99945748E+03</rscale>
<asrwt>0</asrwt>
<pdfrwt beam="1">  1        2 0.14201662E+00 0.99945748E+03</pdfrwt>
<pdfrwt beam="2">  1       -2 0.41620066E-01 0.99945748E+03</pdfrwt>
<totfact> 0.18715955E+02</totfact>
</mgrwt>
</event>
<event>
 9    1  0.4369420E-036  0.9998517E+03  0.7818608E-02  0.8681179E-01
          2   -1    0    0  501    0  0.00000000000E+00  0.00000000000E+00  0.26497234844E+04  0.26497234844E+04  0.00000000000E+00 0.  1.
         -2   -1    0    0    0  501 -0.00000000000E+00 -0.00000000000E+00 -0.94321491357E+02  0.94321491357E+02  0.00000000000E+00 0.  1.
         36    2    1    2    0    0 -0.28421709430E-13  0.35527136788E-13  0.25554019930E+04  0.27440449758E+04  0.99985173047E+03 0.  0.
         25    2    3    3    0    0  0.13021558037E+03 -0.10238825438E+02  0.57778490928E+03  0.60571804694E+03  0.12648327983E+03 0.  0.
         35    2    3    3    0    0 -0.13021558037E+03  0.10238825438E+02  0.19776170838E+04  0.21383269288E+04  0.80275263537E+03 0.  0.
         22    1    5    5    0    0  0.16222476724E+03 -0.31366887397E+03  0.63523550415E+03  0.72679376947E+03  0.00000000000E+00 0. -1.
         22    1    5    5    0    0 -0.29244034762E+03  0.32390769941E+03  0.13423815796E+04  0.14115331593E+04  0.00000000000E+00 0. -1.
          5    1    4    4  502    0  0.13660846347E+03  0.13037216096E+02  0.55651588645E+03  0.57320490504E+03  0.47000000000E+01 0.  1.
         -5    1    4    4    0  502 -0.63928830979E+01 -0.23276041535E+02  0.21269022837E+02  0.32513141901E+02  0.47000000000E+01 0.  1.
<mgrwt>
<rscale>  0 0.99985173E+03</rscale>
<asrwt>0</asrwt>
<pdfrwt beam="1">  1        2 0.40764971E+00 0.99985173E+03</pdfrwt>
<pdfrwt beam="2">  1       -2 0.14511001E-01 0.99985173E+03</pdfrwt>
<totfact> 0.11901826E+02</totfact>
</mgrwt>
</event>
<event>
 9    1  0.4369420E-036  0.1000271E+04  0.7818608E-02  0.8680780E-01
          2   -1    0    0  501    0  0.00000000000E+00  0.00000000000E+00  0.74717403618E+03  0.74717403618E+03  0.00000000000E+00 0. -1.
         -2   -1    0    0    0  501 -0.00000000000E+00 -0.00000000000E+00 -0.33477519207E+03  0.33477519207E+03  0.00000000000E+00 0. -1.
         36    2    1    2    0    0 -0.28421709430E-13  0.00000000000E+00  0.41239884411E+03  0.10819492282E+04  0.10002706263E+04 0.  0.
         25    2    3    3    0    0 -0.64765035485E+02  0.10161937707E+02  0.21181697142E+03  0.25298887533E+03  0.12181611904E+03 0.  0.
         35    2    3    3    0    0  0.64765035485E+02 -0.10161937707E+02  0.20058187269E+03  0.82896035292E+03  0.80165104894E+03 0.  0.
         22    1    5    5    0    0 -0.32176515186E+03  0.96037307196E+01  0.28826942968E+03  0.43211608242E+03  0.00000000000E+00 0. -1.
         22    1    5    5    0    0  0.38653018734E+03 -0.19765668427E+02 -0.87687556996E+02  0.39684427050E+03  0.00000000000E+00 0. -1.
          5    1    4    4  502    0 -0.20330101834E+01 -0.11235652744E+02  0.17800640371E+03  0.17843414131E+03  0.47000000000E+01 0. -1.
         -5    1    4    4    0  502 -0.62732025301E+02  0.21397590451E+02  0.33810567715E+02  0.74554734020E+02  0.47000000000E+01 0. -1.
<mgrwt>
<rscale>  0 0.10002706E+04</rscale>
<asrwt>0</asrwt>
<pdfrwt beam="1">  1        2 0.11494985E+00 0.10002706E+04</pdfrwt>
<pdfrwt beam="2">  1       -2 0.51503876E-01 0.10002706E+04</pdfrwt>
<totfact> 0.16244527E+02</totfact>
</mgrwt>
</event>
<event>
 9    1  0.4369420E-036  0.1002949E+04  0.7818608E-02  0.8678235E-01
          2   -1    0    0  501    0  0.00000000000E+00  0.00000000000E+00  0.11391483414E+04  0.11391483414E+04  0.00000000000E+00 0. -1.
         -2   -1    0    0    0  501 -0.00000000000E+00 -0.00000000000E+00 -0.22075837840E+03  0.22075837840E+03  0.00000000000E+00 0. -1.
         36    2    1    2    0    0  0.00000000000E+00  0.00000000000E+00  0.91838996300E+03  0.13599067198E+04  0.10029487337E+04 0.  0.
         25    2    3    3    0    0 -0.15443290379E+01 -0.13934786089E+03  0.13475488379E+03  0.23090509569E+03  0.12545147756E+03 0.  0.
         35    2    3    3    0    0  0.15443290379E+01  0.13934786089E+03  0.78363507920E+03  0.11290016241E+04  0.80071250682E+03 0.  0.
         22    1    5    5    0    0  0.35470698070E+03  0.12021502917E+03  0.65143235694E+03  0.75142052877E+03  0.00000000000E+00 0.  1.
         22    1    5    5    0    0 -0.35316265166E+03  0.19132831719E+02  0.13220272227E+03  0.37758109533E+03  0.00000000000E+00 0.  1.
          5    1    4    4  502    0 -0.38140815119E+02 -0.65145778898E+02  0.12681285424E+03  0.14765596597E+03  0.47000000000E+01 0.  1.
         -5    1    4    4    0  502  0.36596486081E+02 -0.74202081992E+02  0.79420295540E+01  0.83249129719E+02  0.47000000000E+01 0.  1.
<mgrwt>
<rscale>  0 0.10029487E+04</rscale>
<asrwt>0</asrwt>
<pdfrwt beam="1">  1        2 0.17525359E+00 0.10029487E+04</pdfrwt>
<pdfrwt beam="2">  1       -2 0.33962828E-01 0.10029487E+04</pdfrwt>
<totfact> 0.20174783E+02</totfact>
</mgrwt>
</event>
<event>
 9    1  0.4369420E-036  0.1000321E+04  0.7818608E-02  0.8680732E-01
          2   -1    0    0  501    0  0.00000000000E+00  0.00000000000E+00  0.76987404414E+03  0.76987404414E+03  0.00000000000E+00 0.  1.
         -2   -1    0    0    0  501 -0.00000000000E+00 -0.00000000000E+00 -0.32493696642E+03  0.32493696642E+03  0.00000000000E+00 0.  1.
         36    2    1    2    0    0 -0.14210854715E-13  0.00000000000E+00  0.44493707772E+03  0.10948110106E+04  0.10003210213E+04 0.  0.
         25    2    3    3    0    0  0.99563532248E+02 -0.34448542184E+02 -0.17658554454E+02  0.16461600328E+03  0.12524777434E+03 0.  0.
         35    2    3    3    0    0 -0.99563532248E+02  0.34448542184E+02  0.46259563218E+03  0.93019500728E+03  0.80010526411E+03 0.  0.
         22    1    5    5    0    0 -0.46978024208E+02  0.37351857825E+02  0.69211421356E+03  0.69471158091E+03  0.00000000000E+00 0.  1.
         22    1    5    5    0    0 -0.52585508040E+02 -0.29033156407E+01 -0.22951858138E+03  0.23548342637E+03  0.00000000000E+00 0.  1.
          5    1    4    4  502    0  0.75012456535E+02  0.28083643125E+02 -0.44932153425E+02  0.91959491397E+02  0.47000000000E+01 0.  1.
         -5    1    4    4    0  502  0.24551075713E+02 -0.62532185309E+02  0.27273598971E+02  0.72656511883E+02  0.47000000000E+01 0.  1.
<mgrwt>
<rscale>  0 0.10003210E+04</rscale>
<asrwt>0</asrwt>
<pdfrwt beam="1">  1        2 0.11844216E+00 0.10003210E+04</pdfrwt>
<pdfrwt beam="2">  1       -2 0.49990303E-01 0.10003210E+04</pdfrwt>
<totfact> 0.16606571E+02</totfact>
</mgrwt>
</event>
<event>
 9    1  0.4369420E-036  0.1001115E+04  0.7818608E-02  0.8679977E-01
         -2   -1    0    0    0  501 -0.00000000000E+00  0.00000000000E+00  0.14720035869E+04  0.14720035869E+04  0.00000000000E+00 0. -1.
          2   -1    0    0  501    0  0.00000000000E+00 -0.00000000000E+00 -0.17021533071E+03  0.17021533071E+03  0.00000000000E+00 0. -1.
         36    2    1    2    0    0  0.21316282073E-13 -0.14210854715E-13  0.13017882562E+04  0.16422189176E+04  0.10011145336E+04 0.  0.
         25    2    3    3    0    0 -0.58683215627E+02  0.10468269009E+03  0.36766947273E+03  0.40676982648E+03  0.12601057556E+03 0.  0.
         35    2    3    3    0    0  0.58683215627E+02 -0.10468269009E+03  0.93411878342E+03  0.12354490911E+04  0.79959637928E+03 0.  0.
         22    1    5    5    0    0  0.29211888328E+03 -0.33409881565E+03  0.34733753725E+03  0.56355906999E+03  0.00000000000E+00 0. -1.
         22    1    5    5    0    0 -0.23343566765E+03  0.22941612556E+03  0.58678124617E+03  0.67189002110E+03  0.00000000000E+00 0. -1.
          5    1    4    4  502    0 -0.59280021627E+01 -0.89713188184E+01 -0.55998580136E+01  0.13002852793E+02  0.47000000000E+01 0. -1.
         -5    1    4    4    0  502 -0.52755213464E+02  0.11365400891E+03  0.37326933075E+03  0.39376697369E+03  0.47000000000E+01 0. -1.
<mgrwt>
<rscale>  0 0.10011145E+04</rscale>
<asrwt>0</asrwt>
<pdfrwt beam="1">  1        2 0.26186975E-01 0.10011145E+04</pdfrwt>
<pdfrwt beam="2">  1       -2 0.22646208E+00 0.10011145E+04</pdfrwt>
<totfact> 0.20136346E+01</totfact>
</mgrwt>
</event>
<event>
 9    1  0.4369420E-036  0.1000839E+04  0.7818608E-02  0.8680240E-01
          1   -1    0    0  501    0  0.00000000000E+00  0.00000000000E+00  0.20398205545E+04  0.20398205545E+04  0.00000000000E+00 0.  1.
         -1   -1    0    0    0  501 -0.00000000000E+00 -0.00000000000E+00 -0.12276544590E+03  0.12276544590E+03  0.00000000000E+00 0.  1.
         36    2    1    2    0    0  0.28421709430E-13  0.14210854715E-13  0.19170551086E+04  0.21625860004E+04  0.10008386082E+04 0.  0.
         25    2    3    3    0    0  0.67382575034E+01  0.87016616853E+02  0.12436149026E+03  0.19738599717E+03  0.12600855485E+03 0.  0.
         35    2    3    3    0    0 -0.67382575034E+01 -0.87016616853E+02  0.17926936184E+04  0.19652000033E+04  0.80040199134E+03 0.  0.
         22    1    5    5    0    0  0.34824067618E+03  0.26459044540E+01  0.42556658087E+03  0.54989588479E+03  0.00000000000E+00 0.  1.
         22    1    5    5    0    0 -0.35497893368E+03 -0.89662521307E+02  0.13671270375E+04  0.14153041185E+04  0.00000000000E+00 0.  1.
          5    1    4    4  502    0 -0.48891725703E+02  0.83561024872E+02  0.85797407642E+02  0.12944547454E+03  0.47000000000E+01 0. -1.
         -5    1    4    4    0  502  0.55629983206E+02  0.34555919807E+01  0.38564082619E+02  0.67940522633E+02  0.47000000000E+01 0. -1.
<mgrwt>
<rscale>  0 0.10008386E+04</rscale>
<asrwt>0</asrwt>
<pdfrwt beam="1">  1        1 0.31381852E+00 0.10008386E+04</pdfrwt>
<pdfrwt beam="2">  1       -1 0.18886993E-01 0.10008386E+04</pdfrwt>
<totfact> 0.65639824E+01</totfact>
</mgrwt>
</event>
<event>
 9    1  0.4369420E-036  0.9997902E+03  0.7818608E-02  0.8681238E-01
          2   -1    0    0  501    0  0.00000000000E+00  0.00000000000E+00  0.19807386098E+04  0.19807386098E+04  0.00000000000E+00 0. -1.
         -2   -1    0    0    0  501 -0.00000000000E+00 -0.00000000000E+00 -0.12616258889E+03  0.12616258889E+03  0.00000000000E+00 0. -1.
         36    2    1    2    0    0 -0.14210854715E-13  0.14210854715E-13  0.18545760209E+04  0.21069011987E+04  0.99979019984E+03 0.  0.
         25    2    3    3    0    0  0.95044915246E+02 -0.40929079691E+02  0.15538200634E+03  0.22623520761E+03  0.12778918495E+03 0.  0.
         35    2    3    3    0    0 -0.95044915246E+02  0.40929079691E+02  0.16991940146E+04  0.18806659911E+04  0.79933443898E+03 0.  0.
         22    1    5    5    0    0 -0.63114076431E+02  0.25366848611E+03  0.12129961682E+03  0.28817474652E+03  0.00000000000E+00 0.  1.
         22    1    5    5    0    0 -0.31930838815E+02 -0.21273940642E+03  0.15778943978E+04  0.15924912446E+04  0.00000000000E+00 0.  1.
          5    1    4    4  502    0 -0.16981451326E+02 -0.48898809867E+02  0.46539883720E+02  0.69767571781E+02  0.47000000000E+01 0. -1.
         -5    1    4    4    0  502  0.11202636657E+03  0.79697301757E+01  0.10884212262E+03  0.15646763583E+03  0.47000000000E+01 0. -1.
<mgrwt>
<rscale>  0 0.99979020E+03</rscale>
<asrwt>0</asrwt>
<pdfrwt beam="1">  1        2 0.30472899E+00 0.99979020E+03</pdfrwt>
<pdfrwt beam="2">  1       -2 0.19409631E-01 0.99979020E+03</pdfrwt>
<totfact> 0.18105184E+02</totfact>
</mgrwt>
</event>
<event>
 9    1  0.4369420E-036  0.1000041E+04  0.7818608E-02  0.8680999E-01
         -1   -1    0    0    0  501 -0.00000000000E+00  0.00000000000E+00  0.31667273136E+03  0.31667273136E+03  0.00000000000E+00 0.  1.
          1   -1    0    0  501    0  0.00000000000E+00 -0.00000000000E+00 -0.78952307035E+03  0.78952307035E+03  0.00000000000E+00 0.  1.
         36    2    1    2    0    0  0.14210854715E-13 -0.14210854715E-13 -0.47285033900E+03  0.11061958017E+04  0.10000408535E+04 0.  0.
         25    2    3    3    0    0  0.55785686958E+02  0.69299299277E+02  0.31214115141E+02  0.15665544705E+03  0.12510864222E+03 0.  0.
         35    2    3    3    0    0 -0.55785686958E+02 -0.69299299277E+02 -0.50406445414E+03  0.94954035466E+03  0.79976963899E+03 0.  0.
         22    1    5    5    0    0  0.23584907207E+03  0.23995679860E+03 -0.73288155687E+02  0.34434750436E+03  0.00000000000E+00 0. -1.
         22    1    5    5    0    0 -0.29163475903E+03 -0.30925609788E+03 -0.43077629845E+03  0.60519285030E+03  0.00000000000E+00 0. -1.
          5    1    4    4  502    0  0.24297635402E+02  0.91326774520E+02 -0.15609898564E+02  0.95899498244E+02  0.47000000000E+01 0. -1.
         -5    1    4    4    0  502  0.31488051556E+02 -0.22027475243E+02  0.46824013705E+02  0.60755948810E+02  0.47000000000E+01 0. -1.
<mgrwt>
<rscale>  0 0.10000409E+04</rscale>
<asrwt>0</asrwt>
<pdfrwt beam="1">  1        1 0.12146509E+00 0.10000409E+04</pdfrwt>
<pdfrwt beam="2">  1       -1 0.48718883E-01 0.10000409E+04</pdfrwt>
<totfact> 0.10855927E+02</totfact>
</mgrwt>
</event>
<event>
 9    1  0.4369420E-036  0.9996700E+03  0.7818608E-02  0.8681352E-01
          2   -1    0    0  501    0  0.00000000000E+00  0.00000000000E+00  0.26403591717E+03  0.26403591717E+03  0.00000000000E+00 0.  1.
         -2   -1    0    0    0  501 -0.00000000000E+00 -0.00000000000E+00 -0.94621615230E+03  0.94621615230E+03  0.00000000000E+00 0.  1.
         36    2    1    2    0    0  0.00000000000E+00 -0.14210854715E-13 -0.68218023513E+03  0.12102520695E+04  0.99967004478E+03 0.  0.
         25    2    3    3    0    0 -0.20286974688E+02  0.62318100300E+02 -0.27516776309E+03  0.30952090593E+03  0.12566139581E+03 0.  0.
         35    2    3    3    0    0  0.20286974688E+02 -0.62318100300E+02 -0.40701247205E+03  0.90073116354E+03  0.80085102834E+03 0.  0.
         22    1    5    5    0    0 -0.31893470980E+03 -0.10343112527E+03  0.40449375334E+02  0.33771807585E+03  0.00000000000E+00 0.  1.
         22    1    5    5    0    0  0.33922168449E+03  0.41113024970E+02 -0.44746184738E+03  0.56301308769E+03  0.00000000000E+00 0.  1.
          5    1    4    4  502    0  0.25962882511E+02 -0.26185661967E+02 -0.11358204924E+03  0.11951038478E+03  0.47000000000E+01 0. -1.
         -5    1    4    4    0  502 -0.46249857198E+02  0.88503762267E+02 -0.16158571384E+03  0.19001052114E+03  0.47000000000E+01 0. -1.
<mgrwt>
<rscale>  0 0.99967004E+03</rscale>
<asrwt>0</asrwt>
<pdfrwt beam="1">  1        2 0.40620911E-01 0.99967004E+03</pdfrwt>
<pdfrwt beam="2">  1       -2 0.14557171E+00 0.99967004E+03</pdfrwt>
<totfact> 0.46684567E+01</totfact>
</mgrwt>
</event>
<event>
 9    1  0.4369420E-036  0.9997207E+03  0.7818608E-02  0.8681304E-01
         -2   -1    0    0    0  501 -0.00000000000E+00  0.00000000000E+00  0.28964068658E+03  0.28964068658E+03  0.00000000000E+00 0.  1.
          2   -1    0    0  501    0  0.00000000000E+00 -0.00000000000E+00 -0.86265633752E+03  0.86265633752E+03  0.00000000000E+00 0.  1.
         36    2    1    2    0    0  0.00000000000E+00  0.00000000000E+00 -0.57301565093E+03  0.11522970241E+04  0.99972070877E+03 0.  0.
         25    2    3    3    0    0 -0.67077451105E+02  0.13535103923E+03 -0.85977730567E+02  0.20705325232E+03  0.11251484736E+03 0.  0.
         35    2    3    3    0    0  0.67077451105E+02 -0.13535103923E+03 -0.48703792037E+03  0.94524377178E+03  0.79590235830E+03 0.  0.
         22    1    5    5    0    0  0.63461612444E+02 -0.20700342125E+03 -0.69358398627E+03  0.72659241578E+03  0.00000000000E+00 0. -1.
         22    1    5    5    0    0  0.36158386618E+01  0.71652382016E+02  0.20654606590E+03  0.21865135600E+03  0.00000000000E+00 0. -1.
          5    1    4    4  502    0 -0.11582128329E+02  0.12181111961E+03 -0.86179376513E+02  0.14973666716E+03  0.47000000000E+01 0. -1.
         -5    1    4    4    0  502 -0.55495322776E+02  0.13539919620E+02  0.20164594635E+00  0.57316585160E+02  0.47000000000E+01 0. -1.
<mgrwt>
<rscale>  0 0.99972071E+03</rscale>
<asrwt>0</asrwt>
<pdfrwt beam="1">  1        2 0.13271636E+00 0.99972071E+03</pdfrwt>
<pdfrwt beam="2">  1       -2 0.44560106E-01 0.99972071E+03</pdfrwt>
<totfact> 0.17974145E+02</totfact>
</mgrwt>
</event>
<event>
 9    1  0.4369420E-036  0.1000425E+04  0.7818608E-02  0.8680633E-01
         -1   -1    0    0    0  501 -0.00000000000E+00  0.00000000000E+00  0.17154523301E+03  0.17154523301E+03  0.00000000000E+00 0.  1.
          1   -1    0    0  501    0  0.00000000000E+00 -0.00000000000E+00 -0.14585815689E+04  0.14585815689E+04  0.00000000000E+00 0.  1.
         36    2    1    2    0    0  0.00000000000E+00 -0.14210854715E-13 -0.12870363359E+04  0.16301268019E+04  0.10004253397E+04 0.  0.
         25    2    3    3    0    0 -0.68676992846E+02 -0.12216128042E+03 -0.29049877384E+03  0.34608945956E+03  0.12549290272E+03 0.  0.
         35    2    3    3    0    0  0.68676992846E+02  0.12216128042E+03 -0.99653756202E+03  0.12840373423E+04  0.79751167779E+03 0.  0.
         22    1    5    5    0    0  0.14828860829E+03  0.41947949140E+03 -0.34346638019E+03  0.56206913220E+03  0.00000000000E+00 0.  1.
         22    1    5    5    0    0 -0.79611615446E+02 -0.29731821099E+03 -0.65307118184E+03  0.72196821013E+03  0.00000000000E+00 0.  1.
          5    1    4    4  502    0 -0.77773070864E+02 -0.10713871734E+03 -0.13361302073E+03  0.18815388546E+03  0.47000000000E+01 0.  1.
         -5    1    4    4    0  502  0.90960780179E+01 -0.15022563079E+02 -0.15688575311E+03  0.15793557410E+03  0.47000000000E+01 0.  1.
<mgrwt>
<rscale>  0 0.10004253E+04</rscale>
<asrwt>0</asrwt>
<pdfrwt beam="1">  1        1 0.22439716E+00 0.10004253E+04</pdfrwt>
<pdfrwt beam="2">  1       -1 0.26391575E-01 0.10004253E+04</pdfrwt>
<totfact> 0.96561189E+01</totfact>
</mgrwt>
</event>
<event>
 9    1  0.4369420E-036  0.9993945E+03  0.7818608E-02  0.8681615E-01
         -2   -1    0    0    0  501 -0.00000000000E+00  0.00000000000E+00  0.23049007731E+03  0.23049007731E+03  0.00000000000E+00 0.  1.
          2   -1    0    0  501    0  0.00000000000E+00 -0.00000000000E+00 -0.10833322169E+04  0.10833322169E+04  0.00000000000E+00 0.  1.
         36    2    1    2    0    0  0.00000000000E+00  0.21316282073E-13 -0.85284213960E+03  0.13138222942E+04  0.99939446952E+03 0.  0.
         25    2    3    3    0    0  0.99078412434E+02 -0.16636730602E+02 -0.28809897300E+03  0.33020263248E+03  0.12625152528E+03 0.  0.
         35    2    3    3    0    0 -0.99078412434E+02  0.16636730602E+02 -0.56474316660E+03  0.98361966175E+03  0.79904911121E+03 0.  0.
         22    1    5    5    0    0 -0.10110932980E+03 -0.35788580029E+03 -0.96864674720E+02  0.38430210490E+03  0.00000000000E+00 0.  1.
         22    1    5    5    0    0  0.20309173640E+01  0.37452253090E+03 -0.46787849188E+03  0.59931755684E+03  0.00000000000E+00 0.  1.
          5    1    4    4  502    0  0.57552235783E+00  0.37296624910E+02 -0.13586167382E+03  0.14096756318E+03  0.47000000000E+01 0.  1.
         -5    1    4    4    0  502  0.98502890076E+02 -0.53933355512E+02 -0.15223729918E+03  0.18923506930E+03  0.47000000000E+01 0.  1.
<mgrwt>
<rscale>  0 0.99939447E+03</rscale>
<asrwt>0</asrwt>
<pdfrwt beam="1">  1        2 0.16666650E+00 0.99939447E+03</pdfrwt>
<pdfrwt beam="2">  1       -2 0.35460012E-01 0.99939447E+03</pdfrwt>
<totfact> 0.20120515E+02</totfact>
</mgrwt>
</event>
<event>
 9    1  0.4369420E-036  0.9996852E+03  0.7818608E-02  0.8681338E-01
         -1   -1    0    0    0  501 -0.00000000000E+00  0.00000000000E+00  0.11041036313E+04  0.11041036313E+04  0.00000000000E+00 0. -1.
          1   -1    0    0  501    0  0.00000000000E+00 -0.00000000000E+00 -0.22628549358E+03  0.22628549358E+03  0.00000000000E+00 0. -1.
         36    2    1    2    0    0 -0.14210854715E-13 -0.14210854715E-13  0.87781813773E+03  0.13303891249E+04  0.99968522082E+03 0.  0.
         25    2    3    3    0    0 -0.11178171373E+03 -0.81903958786E+02  0.16351679979E+03  0.24811462463E+03  0.12497885083E+03 0.  0.
         35    2    3    3    0    0  0.11178171373E+03  0.81903958786E+02  0.71430133794E+03  0.10822745003E+04  0.80117930737E+03 0.  0.
         22    1    5    5    0    0 -0.27086279799E+03  0.12147029277E+03  0.31440189878E+02  0.29851327090E+03  0.00000000000E+00 0.  1.
         22    1    5    5    0    0  0.38264451172E+03 -0.39566333986E+02  0.68286114806E+03  0.78376122937E+03  0.00000000000E+00 0.  1.
          5    1    4    4  502    0 -0.62303177940E+01  0.29414391780E+02  0.12818041334E+02  0.33021439811E+02  0.47000000000E+01 0. -1.
         -5    1    4    4    0  502 -0.10555139593E+03 -0.11131835057E+03  0.15069875846E+03  0.21509318482E+03  0.47000000000E+01 0. -1.
<mgrwt>
<rscale>  0 0.99968522E+03</rscale>
<asrwt>0</asrwt>
<pdfrwt beam="1">  1        1 0.34813153E-01 0.99968522E+03</pdfrwt>
<pdfrwt beam="2">  1       -1 0.16986209E+00 0.99968522E+03</pdfrwt>
<totfact> 0.35375296E+01</totfact>
</mgrwt>
</event>
<event>
 9    1  0.4369420E-036  0.1000074E+04  0.7818608E-02  0.8680968E-01
          2   -1    0    0  501    0  0.00000000000E+00  0.00000000000E+00  0.15523229303E+04  0.15523229303E+04  0.00000000000E+00 0. -1.
         -2   -1    0    0    0  501 -0.00000000000E+00 -0.00000000000E+00 -0.16107267976E+03  0.16107267976E+03  0.00000000000E+00 0. -1.
         36    2    1    2    0    0  0.00000000000E+00  0.00000000000E+00  0.13912502505E+04  0.17133956101E+04  0.10000736258E+04 0.  0.
         25    2    3    3    0    0 -0.11468177959E+03  0.72347136227E+02  0.32541096740E+03  0.37393453244E+03  0.12469449932E+03 0.  0.
         35    2    3    3    0    0  0.11468177959E+03 -0.72347136227E+02  0.10658392831E+04  0.13394610776E+04  0.79984784944E+03 0.  0.
         22    1    5    5    0    0 -0.80176788036E+02 -0.37841965089E+03  0.29159457719E+03  0.48441423077E+03  0.00000000000E+00 0.  1.
         22    1    5    5    0    0  0.19485856762E+03  0.30607251467E+03  0.77424470595E+03  0.85504684685E+03  0.00000000000E+00 0.  1.
          5    1    4    4  502    0  0.10207009617E+02  0.33129539031E+02  0.17072093907E+02  0.38926800435E+02  0.47000000000E+01 0. -1.
         -5    1    4    4    0  502 -0.12488878920E+03  0.39217597196E+02  0.30833887349E+03  0.33500773201E+03  0.47000000000E+01 0. -1.
<mgrwt>
<rscale>  0 0.10000736E+04</rscale>
<asrwt>0</asrwt>
<pdfrwt beam="1">  1        2 0.23881890E+00 0.10000736E+04</pdfrwt>
<pdfrwt beam="2">  1       -2 0.24780413E-01 0.10000736E+04</pdfrwt>
<totfact> 0.20622404E+02</totfact>
</mgrwt>
</event>
<event>
 9    1  0.4369420E-036  0.1001097E+04  0.7818608E-02  0.8679994E-01
         -2   -1    0    0    0  501 -0.00000000000E+00  0.00000000000E+00  0.51967011182E+03  0.51967011182E+03  0.00000000000E+00 0. -1.
          2   -1    0    0  501    0  0.00000000000E+00 -0.00000000000E+00 -0.48213036809E+03  0.48213036809E+03  0.00000000000E+00 0. -1.
         36    2    1    2    0    0 -0.21316282073E-13  0.00000000000E+00  0.37539743733E+02  0.10018004799E+04  0.10010968830E+04 0.  0.
         25    2    3    3    0    0  0.33662139502E+02  0.50730289462E+02 -0.11966899046E+03  0.18417685341E+03  0.12607039363E+03 0.  0.
         35    2    3    3    0    0 -0.33662139502E+02 -0.50730289462E+02  0.15720873419E+03  0.81762362650E+03  0.80005443977E+03 0.  0.
         22    1    5    5    0    0 -0.32069547284E+03 -0.63877818812E+02  0.34423088253E+03  0.47478506982E+03  0.00000000000E+00 0. -1.
         22    1    5    5    0    0  0.28703333334E+03  0.13147529350E+02 -0.18702214834E+03  0.34283855668E+03  0.00000000000E+00 0. -1.
          5    1    4    4  502    0  0.44432747222E+02 -0.39483920928E+01  0.72918803822E+01  0.45443595207E+02  0.47000000000E+01 0. -1.
         -5    1    4    4    0  502 -0.10770607720E+02  0.54678681554E+02 -0.12696087084E+03  0.13873325820E+03  0.47000000000E+01 0. -1.
<mgrwt>
<rscale>  0 0.10010969E+04</rscale>
<asrwt>0</asrwt>
<pdfrwt beam="1">  1        2 0.74173903E-01 0.10010969E+04</pdfrwt>
<pdfrwt beam="2">  1       -2 0.79949247E-01 0.10010969E+04</pdfrwt>
<totfact> 0.10713313E+02</totfact>
</mgrwt>
</event>
<event>
 9    1  0.4369420E-036  0.1000209E+04  0.7818608E-02  0.8680839E-01
          1   -1    0    0  501    0  0.00000000000E+00  0.00000000000E+00  0.24555704342E+04  0.24555704342E+04  0.00000000000E+00 0. -1.
         -1   -1    0    0    0  501 -0.00000000000E+00 -0.00000000000E+00 -0.10185182065E+03  0.10185182065E+03  0.00000000000E+00 0. -1.
         36    2    1    2    0    0  0.71054273576E-14  0.00000000000E+00  0.23537186135E+04  0.25574222549E+04  0.10002086172E+04 0.  0.
         25    2    3    3    0    0 -0.24721718259E+01  0.98802946659E+02  0.18831507116E+03  0.24684406430E+03  0.12530479700E+03 0.  0.
         35    2    3    3    0    0  0.24721718259E+01 -0.98802946659E+02  0.21654035424E+04  0.23105781906E+04  0.80001933687E+03 0.  0.
         22    1    5    5    0    0 -0.14174952692E+03  0.25071834858E+02  0.21066873688E+04  0.21115996768E+04  0.00000000000E+00 0. -1.
         22    1    5    5    0    0  0.14422169875E+03 -0.12387478152E+03  0.58716173585E+02  0.19897851373E+03  0.00000000000E+00 0. -1.
          5    1    4    4  502    0  0.41745874982E+02  0.17272096065E+02  0.11082637187E+02  0.46754232188E+02  0.47000000000E+01 0. -1.
         -5    1    4    4    0  502 -0.44218046808E+02  0.81530850595E+02  0.17723243397E+03  0.20008983211E+03  0.47000000000E+01 0. -1.
<mgrwt>
<rscale>  0 0.10002086E+04</rscale>
<asrwt>0</asrwt>
<pdfrwt beam="1">  1        1 0.37778002E+00 0.10002086E+04</pdfrwt>
<pdfrwt beam="2">  1       -1 0.15669513E-01 0.10002086E+04</pdfrwt>
<totfact> 0.45457185E+01</totfact>
</mgrwt>
</event>
<event>
 9    1  0.4369420E-036  0.1000207E+04  0.7818608E-02  0.8680840E-01
          2   -1    0    0  501    0  0.00000000000E+00  0.00000000000E+00  0.15917819970E+04  0.15917819970E+04  0.00000000000E+00 0.  1.
         -2   -1    0    0    0  501 -0.00000000000E+00 -0.00000000000E+00 -0.15712185892E+03  0.15712185892E+03  0.00000000000E+00 0.  1.
         36    2    1    2    0    0 -0.35527136788E-14  0.00000000000E+00  0.14346601381E+04  0.17489038559E+04  0.10002074712E+04 0.  0.
         25    2    3    3    0    0  0.27689401073E+02  0.13181522290E+03  0.19914594728E+03  0.27073438484E+03  0.12448310286E+03 0.  0.
         35    2    3    3    0    0 -0.27689401073E+02 -0.13181522290E+03  0.12355141908E+04  0.14781694711E+04  0.80021729152E+03 0.  0.
         22    1    5    5    0    0 -0.41323235160E+02  0.81655647923E+02  0.12595925268E+04  0.12629127397E+04  0.00000000000E+00 0.  1.
         22    1    5    5    0    0  0.13633834087E+02 -0.21347087082E+03 -0.24078336012E+02  0.21525673134E+03  0.00000000000E+00 0.  1.
          5    1    4    4  502    0  0.41900181624E+00  0.12137013169E+03  0.20711343814E+03  0.24010195894E+03  0.47000000000E+01 0. -1.
         -5    1    4    4    0  502  0.27270399257E+02  0.10445091213E+02 -0.79674908609E+01  0.30632425903E+02  0.47000000000E+01 0. -1.
<mgrwt>
<rscale>  0 0.10002075E+04</rscale>
<asrwt>0</asrwt>
<pdfrwt beam="1">  1        2 0.24488953E+00 0.10002075E+04</pdfrwt>
<pdfrwt beam="2">  1       -2 0.24172595E-01 0.10002075E+04</pdfrwt>
<totfact> 0.20471560E+02</totfact>
</mgrwt>
</event>
<event>
 9    1  0.4369420E-036  0.1001494E+04  0.7818608E-02  0.8679616E-01
         -1   -1    0    0    0  501 -0.00000000000E+00  0.00000000000E+00  0.21534764012E+03  0.21534764012E+03  0.00000000000E+00 0. -1.
          1   -1    0    0  501    0  0.00000000000E+00 -0.00000000000E+00 -0.11643854718E+04  0.11643854718E+04  0.00000000000E+00 0. -1.
         36    2    1    2    0    0  0.28421709430E-13  0.00000000000E+00 -0.94903783168E+03  0.13797331119E+04  0.10014942107E+04 0.  0.
         25    2    3    3    0    0  0.10375927503E+03  0.72213776430E+02 -0.26677024459E+03  0.32065987016E+03  0.12520212568E+03 0.  0.
         35    2    3    3    0    0 -0.10375927503E+03 -0.72213776430E+02 -0.68226758709E+03  0.10590732418E+04  0.80010390221E+03 0.  0.
         22    1    5    5    0    0 -0.35271620676E+03  0.22482379000E+03 -0.30029103863E+03  0.51490694979E+03  0.00000000000E+00 0. -1.
         22    1    5    5    0    0  0.24895693174E+03 -0.29703756643E+03 -0.38197654846E+03  0.54416629196E+03  0.00000000000E+00 0. -1.
          5    1    4    4  502    0 -0.26606450698E+02  0.10278191550E+02 -0.76616544220E+02  0.81888517440E+02  0.47000000000E+01 0. -1.
         -5    1    4    4    0  502  0.13036572572E+03  0.61935584880E+02 -0.19015370037E+03  0.23877135272E+03  0.47000000000E+01 0. -1.
<mgrwt>
<rscale>  0 0.10014942E+04</rscale>
<asrwt>0</asrwt>
<pdfrwt beam="1">  1        1 0.17913623E+00 0.10014942E+04</pdfrwt>
<pdfrwt beam="2">  1       -1 0.33130406E-01 0.10014942E+04</pdfrwt>
<totfact> 0.10739802E+02</totfact>
</mgrwt>
</event>
<event>
 9    1  0.4369420E-036  0.9998679E+03  0.7818608E-02  0.8681164E-01
         -1   -1    0    0    0  501 -0.00000000000E+00  0.00000000000E+00  0.15410795152E+03  0.15410795152E+03  0.00000000000E+00 0.  1.
          1   -1    0    0  501    0  0.00000000000E+00 -0.00000000000E+00 -0.16218108658E+04  0.16218108658E+04  0.00000000000E+00 0.  1.
         36    2    1    2    0    0  0.00000000000E+00  0.14210854715E-13 -0.14677029143E+04  0.17759188174E+04  0.99986789184E+03 0.  0.
         25    2    3    3    0    0  0.12860284875E+03 -0.32815513343E+02 -0.35286228320E+03  0.39698407968E+03  0.12437450701E+03 0.  0.
         35    2    3    3    0    0 -0.12860284875E+03  0.32815513343E+02 -0.11148406311E+04  0.13789347377E+04  0.80060965978E+03 0.  0.
         22    1    5    5    0    0 -0.14447314215E+03 -0.18542093554E+03 -0.11351028318E+04  0.11591858569E+04  0.00000000000E+00 0. -1.
         22    1    5    5    0    0  0.15870293399E+02  0.21823644888E+03  0.20262200633E+02  0.21974888079E+03  0.00000000000E+00 0. -1.
          5    1    4    4  502    0  0.12470860913E+03  0.44509195543E+01 -0.33000582938E+03  0.35284272034E+03  0.47000000000E+01 0. -1.
         -5    1    4    4    0  502  0.38942396216E+01 -0.37266432898E+02 -0.22856453821E+02  0.44141359340E+02  0.47000000000E+01 0. -1.
<mgrwt>
<rscale>  0 0.99986789E+03</rscale>
<asrwt>0</asrwt>
<pdfrwt beam="1">  1        1 0.24950935E+00 0.99986789E+03</pdfrwt>
<pdfrwt beam="2">  1       -1 0.23708917E-01 0.99986789E+03</pdfrwt>
<totfact> 0.88528010E+01</totfact>
</mgrwt>
</event>
<event>
 9    1  0.4369420E-036  0.9996708E+03  0.7818608E-02  0.8681351E-01
         -2   -1    0    0    0  501 -0.00000000000E+00  0.00000000000E+00  0.45017285462E+03  0.45017285462E+03  0.00000000000E+00 0. -1.
          2   -1    0    0  501    0  0.00000000000E+00 -0.00000000000E+00 -0.55497668373E+03  0.55497668373E+03  0.00000000000E+00 0. -1.
         36    2    1    2    0    0  0.00000000000E+00  0.56843418861E-13 -0.10480382912E+03  0.10051495383E+04  0.99967082174E+03 0.  0.
         25    2    3    3    0    0  0.69404699206E+02 -0.10769714272E+03  0.33021813343E+02  0.18167165573E+03  0.12449282516E+03 0.  0.
         35    2    3    3    0    0 -0.69404699206E+02  0.10769714272E+03 -0.13782564246E+03  0.82347788262E+03  0.80168836128E+03 0.  0.
         22    1    5    5    0    0 -0.67016085440E+02 -0.33444737602E+03 -0.16814621463E+03  0.38028851223E+03  0.00000000000E+00 0. -1.
         22    1    5    5    0    0 -0.23886137662E+01  0.44214451874E+03  0.30320572173E+02  0.44318937039E+03  0.00000000000E+00 0. -1.
          5    1    4    4  502    0 -0.39695146524E+01 -0.22517398343E+02 -0.40862519751E+02  0.47059810827E+02  0.47000000000E+01 0.  1.
         -5    1    4    4    0  502  0.73374213858E+02 -0.85179744380E+02  0.73884333094E+02  0.13461184490E+03  0.47000000000E+01 0.  1.
<mgrwt>
<rscale>  0 0.99967082E+03</rscale>
<asrwt>0</asrwt>
<pdfrwt beam="1">  1        2 0.85381028E-01 0.99967082E+03</pdfrwt>
<pdfrwt beam="2">  1       -2 0.69257362E-01 0.99967082E+03</pdfrwt>
<totfact> 0.12535467E+02</totfact>
</mgrwt>
</event>
<event>
 9    1  0.4369420E-036  0.9997712E+03  0.7818608E-02  0.8681256E-01
          1   -1    0    0  501    0  0.00000000000E+00  0.00000000000E+00  0.23949581908E+03  0.23949581908E+03  0.00000000000E+00 0. -1.
         -1   -1    0    0    0  501 -0.00000000000E+00 -0.00000000000E+00 -0.10433820200E+04  0.10433820200E+04  0.00000000000E+00 0. -1.
         36    2    1    2    0    0  0.00000000000E+00  0.00000000000E+00 -0.80388620087E+03  0.12828778390E+04  0.99977123681E+03 0.  0.
         25    2    3    3    0    0 -0.11680089678E+03 -0.76547953563E+02 -0.16433062331E+03  0.24916845944E+03  0.12481317534E+03 0.  0.
         35    2    3    3    0    0  0.11680089678E+03  0.76547953563E+02 -0.63955557757E+03  0.10337093796E+04  0.80001356613E+03 0.  0.
         22    1    5    5    0    0 -0.55143050300E+02 -0.34385636298E+03 -0.35732699950E+03  0.49895945620E+03  0.00000000000E+00 0. -1.
         22    1    5    5    0    0  0.17194394708E+03  0.42040431654E+03 -0.28222857807E+03  0.53474992341E+03  0.00000000000E+00 0. -1.
          5    1    4    4  502    0 -0.11589839097E+03 -0.41100133793E+02 -0.17305706967E+03  0.21234994087E+03  0.47000000000E+01 0. -1.
         -5    1    4    4    0  502 -0.90250581174E+00 -0.35447819770E+02  0.87264463606E+01  0.36818518564E+02  0.47000000000E+01 0. -1.
<mgrwt>
<rscale>  0 0.99977124E+03</rscale>
<asrwt>0</asrwt>
<pdfrwt beam="1">  1        1 0.36845510E-01 0.99977124E+03</pdfrwt>
<pdfrwt beam="2">  1       -1 0.16052031E+00 0.99977124E+03</pdfrwt>
<totfact> 0.39336804E+01</totfact>
</mgrwt>
</event>
<event>
 9    1  0.4369420E-036  0.9995229E+03  0.7818608E-02  0.8681492E-01
         -1   -1    0    0    0  501 -0.00000000000E+00  0.00000000000E+00  0.48411117314E+03  0.48411117314E+03  0.00000000000E+00 0. -1.
          1   -1    0    0  501    0  0.00000000000E+00 -0.00000000000E+00 -0.51591765997E+03  0.51591765997E+03  0.00000000000E+00 0. -1.
         36    2    1    2    0    0  0.14210854715E-13 -0.14210854715E-13 -0.31806486831E+02  0.10000288331E+04  0.99952289341E+03 0.  0.
         25    2    3    3    0    0 -0.10365706664E+03 -0.37369200248E+02  0.79762434555E+02  0.18470552663E+03  0.12495135458E+03 0.  0.
         35    2    3    3    0    0  0.10365706664E+03  0.37369200248E+02 -0.11156892139E+03  0.81532330648E+03  0.80010200929E+03 0.  0.
         22    1    5    5    0    0 -0.14365969958E+03  0.14109657876E+03 -0.38365176561E+03  0.43328400741E+03  0.00000000000E+00 0. -1.
         22    1    5    5    0    0  0.24731676623E+03 -0.10372737851E+03  0.27208284422E+03  0.38203929907E+03  0.00000000000E+00 0. -1.
          5    1    4    4  502    0 -0.97786783528E+02  0.14536638663E+02  0.86982082684E+02  0.13176320277E+03  0.47000000000E+01 0.  1.
         -5    1    4    4    0  502 -0.58702831160E+01 -0.51905838911E+02 -0.72196481290E+01  0.52942323863E+02  0.47000000000E+01 0.  1.
<mgrwt>
<rscale>  0 0.99952289E+03</rscale>
<asrwt>0</asrwt>
<pdfrwt beam="1">  1        1 0.79371948E-01 0.99952289E+03</pdfrwt>
<pdfrwt beam="2">  1       -1 0.74478642E-01 0.99952289E+03</pdfrwt>
<totfact> 0.90672589E+01</totfact>
</mgrwt>
</event>
<event>
 9    1  0.4369420E-036  0.9998874E+03  0.7818608E-02  0.8681145E-01
         -2   -1    0    0    0  501 -0.00000000000E+00  0.00000000000E+00  0.28512156388E+03  0.28512156388E+03  0.00000000000E+00 0.  1.
          2   -1    0    0  501    0  0.00000000000E+00 -0.00000000000E+00 -0.87662159157E+03  0.87662159157E+03  0.00000000000E+00 0.  1.
         36    2    1    2    0    0 -0.14210854715E-13  0.00000000000E+00 -0.59150002769E+03  0.11617431555E+04  0.99988743191E+03 0.  0.
         25    2    3    3    0    0  0.53787525868E+02 -0.12677856698E+03 -0.13427555446E+03  0.22922760427E+03  0.12469750218E+03 0.  0.
         35    2    3    3    0    0 -0.53787525868E+02  0.12677856698E+03 -0.45722447323E+03  0.93251555119E+03  0.80097760974E+03 0.  0.
         22    1    5    5    0    0 -0.80624191379E+02  0.15428943844E+02 -0.67844991038E+03  0.68339782956E+03  0.00000000000E+00 0. -1.
         22    1    5    5    0    0  0.26836665511E+02  0.11134962313E+03  0.22122543715E+03  0.24911772163E+03  0.00000000000E+00 0. -1.
          5    1    4    4  502    0  0.35462179624E+02  0.11007211069E+02 -0.62174859568E+02  0.72570848428E+02  0.47000000000E+01 0. -1.
         -5    1    4    4    0  502  0.18325346244E+02 -0.13778577805E+03 -0.72100694888E+02  0.15665675584E+03  0.47000000000E+01 0. -1.
<mgrwt>
<rscale>  0 0.99988743E+03</rscale>
<asrwt>0</asrwt>
<pdfrwt beam="1">  1        2 0.13486486E+00 0.99988743E+03</pdfrwt>
<pdfrwt beam="2">  1       -2 0.43864856E-01 0.99988743E+03</pdfrwt>
<totfact> 0.18139122E+02</totfact>
</mgrwt>
</event>
<event>
 9    1  0.4369420E-036  0.9990650E+03  0.7818608E-02  0.8681929E-01
         -2   -1    0    0    0  501 -0.00000000000E+00  0.00000000000E+00  0.12239342111E+03  0.12239342111E+03  0.00000000000E+00 0. -1.
          2   -1    0    0  501    0  0.00000000000E+00 -0.00000000000E+00 -0.20387757830E+04  0.20387757830E+04  0.00000000000E+00 0. -1.
         36    2    1    2    0    0  0.00000000000E+00 -0.28421709430E-13 -0.19163823619E+04  0.21611692041E+04  0.99906504883E+03 0.  0.
         25    2    3    3    0    0  0.12887512793E+03 -0.50363524614E+02 -0.37536593160E+03  0.41911580044E+03  0.12495274453E+03 0.  0.
         35    2    3    3    0    0 -0.12887512793E+03  0.50363524614E+02 -0.15410164303E+04  0.17420534037E+04  0.80054552623E+03 0.  0.
         22    1    5    5    0    0  0.20492825945E+03 -0.15704808503E+03 -0.15442028596E+03  0.30084101656E+03  0.00000000000E+00 0. -1.
         22    1    5    5    0    0 -0.33380338738E+03  0.20741160964E+03 -0.13865961444E+04  0.14412123871E+04  0.00000000000E+00 0. -1.
          5    1    4    4  502    0  0.50919369068E+01 -0.35195841897E+02 -0.20396450121E+03  0.20709486441E+03  0.47000000000E+01 0. -1.
         -5    1    4    4    0  502  0.12378319102E+03 -0.15167682717E+02 -0.17140143038E+03  0.21202093603E+03  0.47000000000E+01 0. -1.
<mgrwt>
<rscale>  0 0.99906505E+03</rscale>
<asrwt>0</asrwt>
<pdfrwt beam="1">  1        2 0.31365781E+00 0.99906505E+03</pdfrwt>
<pdfrwt beam="2">  1       -2 0.18829758E-01 0.99906505E+03</pdfrwt>
<totfact> 0.17675955E+02</totfact>
</mgrwt>
</event>
<event>
 9    1  0.4369420E-036  0.1000045E+04  0.7818608E-02  0.8680995E-01
         -2   -1    0    0    0  501 -0.00000000000E+00  0.00000000000E+00  0.29877003161E+03  0.29877003161E+03  0.00000000000E+00 0.  1.
          2   -1    0    0  501    0  0.00000000000E+00 -0.00000000000E+00 -0.83683875515E+03  0.83683875515E+03  0.00000000000E+00 0.  1.
         36    2    1    2    0    0  0.00000000000E+00  0.00000000000E+00 -0.53806872354E+03  0.11356087868E+04  0.10000446816E+04 0.  0.
         25    2    3    3    0    0  0.13533917405E+03  0.20542242048E+02 -0.14741112694E+03  0.23468696611E+03  0.12086875517E+03 0.  0.
         35    2    3    3    0    0 -0.13533917405E+03 -0.20542242048E+02 -0.39065759660E+03  0.90092182064E+03  0.80019253519E+03 0.  0.
         22    1    5    5    0    0 -0.39971240182E+03 -0.12354260188E+03 -0.44636037002E+03  0.61177639589E+03  0.00000000000E+00 0. -1.
         22    1    5    5    0    0  0.26437322777E+03  0.10300035983E+03  0.55702773419E+02  0.28914542475E+03  0.00000000000E+00 0. -1.
          5    1    4    4  502    0  0.12171793625E+03  0.46124913102E+02 -0.15681857647E+03  0.20385514352E+03  0.47000000000E+01 0.  1.
         -5    1    4    4    0  502  0.13621237799E+02 -0.25582671054E+02  0.94074495345E+01  0.30831822589E+02  0.47000000000E+01 0.  1.
<mgrwt>
<rscale>  0 0.10000447E+04</rscale>
<asrwt>0</asrwt>
<pdfrwt beam="1">  1        2 0.12874442E+00 0.10000447E+04</pdfrwt>
<pdfrwt beam="2">  1       -2 0.45964621E-01 0.10000447E+04</pdfrwt>
<totfact> 0.17608964E+02</totfact>
</mgrwt>
</event>
<event>
 9    1  0.4369420E-036  0.1000194E+04  0.7818608E-02  0.8680853E-01
         -2   -1    0    0    0  501 -0.00000000000E+00  0.00000000000E+00  0.27553936160E+03  0.27553936160E+03  0.00000000000E+00 0. -1.
          2   -1    0    0  501    0  0.00000000000E+00 -0.00000000000E+00 -0.90766344438E+03  0.90766344438E+03  0.00000000000E+00 0. -1.
         36    2    1    2    0    0 -0.12434497876E-13 -0.71054273576E-14 -0.63212408278E+03  0.11832028060E+04  0.10001939932E+04 0.  0.
         25    2    3    3    0    0  0.15264596867E+01  0.39295830786E+02  0.41482004382E+02  0.13619357076E+03  0.12361812016E+03 0.  0.
         35    2    3    3    0    0 -0.15264596867E+01 -0.39295830786E+02 -0.67360608716E+03  0.10470092352E+04  0.80058521444E+03 0.  0.
         22    1    5    5    0    0 -0.10765176278E+03  0.35631058179E+03 -0.20614784456E+03  0.42549155872E+03  0.00000000000E+00 0.  1.
         22    1    5    5    0    0  0.10612530309E+03 -0.39560641258E+03 -0.46745824261E+03  0.62151767651E+03  0.00000000000E+00 0.  1.
          5    1    4    4  502    0  0.12450417608E+02 -0.39407469908E+02  0.38287139752E+02  0.56532792727E+02  0.47000000000E+01 0.  1.
         -5    1    4    4    0  502 -0.10923957921E+02  0.78703300694E+02  0.31948646300E+01  0.79660778033E+02  0.47000000000E+01 0.  1.
<mgrwt>
<rscale>  0 0.10001940E+04</rscale>
<asrwt>0</asrwt>
<pdfrwt beam="1">  1        2 0.13964053E+00 0.10001940E+04</pdfrwt>
<pdfrwt beam="2">  1       -2 0.42390671E-01 0.10001940E+04</pdfrwt>
<totfact> 0.18488698E+02</totfact>
</mgrwt>
</event>
<event>
 9    1  0.4369420E-036  0.9974723E+03  0.7818608E-02  0.8683449E-01
         -2   -1    0    0    0  501 -0.00000000000E+00  0.00000000000E+00  0.67575329475E+03  0.67575329475E+03  0.00000000000E+00 0. -1.
          2   -1    0    0  501    0  0.00000000000E+00 -0.00000000000E+00 -0.36808961668E+03  0.36808961668E+03  0.00000000000E+00 0. -1.
         36    2    1    2    0    0  0.14210854715E-13  0.14210854715E-13  0.30766367807E+03  0.10438429114E+04  0.99747234795E+03 0.  0.
         25    2    3    3    0    0  0.12563593407E+03  0.69463103345E+02  0.29288219674E+02  0.19263595144E+03  0.12506518028E+03 0.  0.
         35    2    3    3    0    0 -0.12563593407E+03 -0.69463103345E+02  0.27837545840E+03  0.85120695999E+03  0.79148650161E+03 0.  0.
         22    1    5    5    0    0 -0.15784393697E+03 -0.19681830576E+03 -0.22065690050E+03  0.33517401698E+03  0.00000000000E+00 0. -1.
         22    1    5    5    0    0  0.32208002893E+02  0.12735520241E+03  0.49903235890E+03  0.51603294300E+03  0.00000000000E+00 0. -1.
          5    1    4    4  502    0  0.10095239542E+03  0.95761781632E+02  0.53269860544E+02  0.14906868553E+03  0.47000000000E+01 0. -1.
         -5    1    4    4    0  502  0.24683538656E+02 -0.26298678287E+02 -0.23981640870E+02  0.43567265912E+02  0.47000000000E+01 0. -1.
<mgrwt>
<rscale>  0 0.99747235E+03</rscale>
<asrwt>0</asrwt>
<pdfrwt beam="1">  1        2 0.56629172E-01 0.99747235E+03</pdfrwt>
<pdfrwt beam="2">  1       -2 0.10396205E+00 0.99747235E+03</pdfrwt>
<totfact> 0.77883087E+01</totfact>
</mgrwt>
</event>
<event>
 9    1  0.4369420E-036  0.9995791E+03  0.7818608E-02  0.8681439E-01
         -2   -1    0    0    0  501 -0.00000000000E+00  0.00000000000E+00  0.14805574726E+03  0.14805574726E+03  0.00000000000E+00 0. -1.
          2   -1    0    0  501    0  0.00000000000E+00 -0.00000000000E+00 -0.16871320371E+04  0.16871320371E+04  0.00000000000E+00 0. -1.
         36    2    1    2    0    0  0.28421709430E-13  0.00000000000E+00 -0.15390762899E+04  0.18351877844E+04  0.99957910040E+03 0.  0.
         25    2    3    3    0    0  0.49381770490E+02 -0.12658263104E+03 -0.33730436014E+03  0.38472893497E+03  0.12562006328E+03 0.  0.
         35    2    3    3    0    0 -0.49381770490E+02  0.12658263104E+03 -0.12017719297E+04  0.14504588494E+04  0.80069556078E+03 0.  0.
         22    1    5    5    0    0  0.15910922219E+03 -0.26127288761E+02 -0.11801573597E+04  0.11911212253E+04  0.00000000000E+00 0. -1.
         22    1    5    5    0    0 -0.20849099269E+03  0.15270991980E+03 -0.21614570048E+02  0.25933762410E+03  0.00000000000E+00 0. -1.
          5    1    4    4  502    0 -0.27415316167E+02 -0.25273272135E+02 -0.17244776687E+03  0.17649549610E+03  0.47000000000E+01 0.  1.
         -5    1    4    4    0  502  0.76797086658E+02 -0.10130935890E+03 -0.16485659327E+03  0.20823343888E+03  0.47000000000E+01 0.  1.
<mgrwt>
<rscale>  0 0.99957910E+03</rscale>
<asrwt>0</asrwt>
<pdfrwt beam="1">  1        2 0.25955878E+00 0.99957910E+03</pdfrwt>
<pdfrwt beam="2">  1       -2 0.22777807E-01 0.99957910E+03</pdfrwt>
<totfact> 0.20084618E+02</totfact>
</mgrwt>
</event>
<event>
 9    1  0.4369420E-036  0.1000226E+04  0.7818608E-02  0.8680823E-01
          2   -1    0    0  501    0  0.00000000000E+00  0.00000000000E+00  0.15199806307E+04  0.15199806307E+04  0.00000000000E+00 0. -1.
         -2   -1    0    0    0  501 -0.00000000000E+00 -0.00000000000E+00 -0.16455011072E+03  0.16455011072E+03  0.00000000000E+00 0. -1.
         36    2    1    2    0    0  0.00000000000E+00  0.14210854715E-13  0.13554305200E+04  0.16845307414E+04  0.10002259366E+04 0.  0.
         25    2    3    3    0    0  0.91119002123E+02  0.91788651632E+02  0.16012664501E+03  0.24079943096E+03  0.12496397238E+03 0.  0.
         35    2    3    3    0    0 -0.91119002123E+02 -0.91788651632E+02  0.11953038749E+04  0.14437313104E+04  0.79930026534E+03 0.  0.
         22    1    5    5    0    0 -0.24275017201E+03  0.51351238363E+02  0.12095376072E+04  0.12347249973E+04  0.00000000000E+00 0. -1.
         22    1    5    5    0    0  0.15163116988E+03 -0.14313988999E+03 -0.14233732290E+02  0.20900631312E+03  0.00000000000E+00 0. -1.
          5    1    4    4  502    0  0.80363593373E+01  0.12734008687E+02 -0.21062208486E+02  0.26314343521E+02  0.47000000000E+01 0. -1.
         -5    1    4    4    0  502  0.83082642785E+02  0.79054642944E+02  0.18118885350E+03  0.21448508744E+03  0.47000000000E+01 0. -1.
<mgrwt>
<rscale>  0 0.10002259E+04</rscale>
<asrwt>0</asrwt>
<pdfrwt beam="1">  1        2 0.23384316E+00 0.10002259E+04</pdfrwt>
<pdfrwt beam="2">  1       -2 0.25315403E-01 0.10002259E+04</pdfrwt>
<totfact> 0.20709330E+02</totfact>
</mgrwt>
</event>
<event>
 9    1  0.4369420E-036  0.9946924E+03  0.7818608E-02  0.8686109E-01
         -2   -1    0    0    0  501 -0.00000000000E+00  0.00000000000E+00  0.14483543314E+03  0.14483543314E+03  0.00000000000E+00 0.  1.
          2   -1    0    0  501    0  0.00000000000E+00 -0.00000000000E+00 -0.17078226341E+04  0.17078226341E+04  0.00000000000E+00 0.  1.
         36    2    1    2    0    0 -0.14210854715E-13 -0.42632564146E-13 -0.15629872009E+04  0.18526580672E+04  0.99469237644E+03 0.  0.
         25    2    3    3    0    0 -0.34978199380E+02  0.30983620734E+02 -0.52208465488E+02  0.14314456481E+03  0.12482461048E+03 0.  0.
         35    2    3    3    0    0  0.34978199380E+02 -0.30983620734E+02 -0.15107787354E+04  0.17095135024E+04  0.79862417209E+03 0.  0.
         22    1    5    5    0    0 -0.91197111842E+02 -0.39843699441E+03 -0.84504050207E+03  0.93870250978E+03  0.00000000000E+00 0.  1.
         22    1    5    5    0    0  0.12617531122E+03  0.36745337367E+03 -0.66573823337E+03  0.77081099262E+03  0.00000000000E+00 0.  1.
          5    1    4    4  502    0 -0.48306998827E+00 -0.42346543032E+02  0.63126713781E+01  0.43074387788E+02  0.47000000000E+01 0. -1.
         -5    1    4    4    0  502 -0.34495129392E+02  0.73330163766E+02 -0.58521136866E+02  0.10007017703E+03  0.47000000000E+01 0. -1.
<mgrwt>
<rscale>  0 0.99469238E+03</rscale>
<asrwt>0</asrwt>
<pdfrwt beam="1">  1        2 0.26274193E+00 0.99469238E+03</pdfrwt>
<pdfrwt beam="2">  1       -2 0.22282376E-01 0.99469238E+03</pdfrwt>
<totfact> 0.20320985E+02</totfact>
</mgrwt>
</event>
<event>
 9    1  0.4369420E-036  0.9997942E+03  0.7818608E-02  0.8681234E-01
          1   -1    0    0  501    0  0.00000000000E+00  0.00000000000E+00  0.16132435606E+03  0.16132435606E+03  0.00000000000E+00 0.  1.
         -1   -1    0    0    0  501 -0.00000000000E+00 -0.00000000000E+00 -0.15490350882E+04  0.15490350882E+04  0.00000000000E+00 0.  1.
         36    2    1    2    0    0  0.28421709430E-13  0.71054273576E-14 -0.13877107322E+04  0.17103594443E+04  0.99979415507E+03 0.  0.
         25    2    3    3    0    0 -0.13378758043E+03  0.35392640501E+02 -0.23510109772E+03  0.29978528338E+03  0.12428569629E+03 0.  0.
         35    2    3    3    0    0  0.13378758043E+03 -0.35392640501E+02 -0.11526096345E+04  0.14105741609E+04  0.80128567836E+03 0.  0.
         22    1    5    5    0    0 -0.30921293099E+03  0.45282008721E+02 -0.24391089277E+03  0.39642858199E+03  0.00000000000E+00 0.  1.
         22    1    5    5    0    0  0.44300051141E+03 -0.80674649222E+02 -0.90869874169E+03  0.10141455789E+04  0.00000000000E+00 0.  1.
          5    1    4    4  502    0 -0.89758577245E+02 -0.16380203653E+02 -0.53609886718E+02  0.10592933123E+03  0.47000000000E+01 0. -1.
         -5    1    4    4    0  502 -0.44029003181E+02  0.51772844154E+02 -0.18149121100E+03  0.19385595215E+03  0.47000000000E+01 0. -1.
<mgrwt>
<rscale>  0 0.99979416E+03</rscale>
<asrwt>0</asrwt>
<pdfrwt beam="1">  1        1 0.24819133E-01 0.99979416E+03</pdfrwt>
<pdfrwt beam="2">  1       -1 0.23831308E+00 0.99979416E+03</pdfrwt>
<totfact> 0.14194223E+01</totfact>
</mgrwt>
</event>
<event>
 9    1  0.4369420E-036  0.9993202E+03  0.7818608E-02  0.8681686E-01
         -2   -1    0    0    0  501 -0.00000000000E+00  0.00000000000E+00  0.76368533979E+02  0.76368533979E+02  0.00000000000E+00 0.  1.
          2   -1    0    0  501    0  0.00000000000E+00 -0.00000000000E+00 -0.32691504925E+04  0.32691504925E+04  0.00000000000E+00 0.  1.
         36    2    1    2    0    0  0.00000000000E+00  0.71054273576E-14 -0.31927819585E+04  0.33455190265E+04  0.99932022989E+03 0.  0.
         25    2    3    3    0    0  0.49730573957E+02  0.22829033208E+02 -0.16740055591E+03  0.21620511756E+03  0.12540897892E+03 0.  0.
         35    2    3    3    0    0 -0.49730573957E+02 -0.22829033208E+02 -0.30253814026E+04  0.31293139089E+04  0.79792143384E+03 0.  0.
         22    1    5    5    0    0 -0.13553850449E+03 -0.21271173764E+03 -0.28376803023E+04  0.28488675764E+04  0.00000000000E+00 0. -1.
         22    1    5    5    0    0  0.85807930536E+02  0.18988270443E+03 -0.18770110025E+03  0.28044633252E+03  0.00000000000E+00 0. -1.
          5    1    4    4  502    0  0.59787196539E+02 -0.26953238688E+02 -0.35358785522E+02  0.74654669374E+02  0.47000000000E+01 0. -1.
         -5    1    4    4    0  502 -0.10056622582E+02  0.49782271896E+02 -0.13204177039E+03  0.14155044819E+03  0.47000000000E+01 0. -1.
<mgrwt>
<rscale>  0 0.99932023E+03</rscale>
<asrwt>0</asrwt>
<pdfrwt beam="1">  1        2 0.50294615E+00 0.99932023E+03</pdfrwt>
<pdfrwt beam="2">  1       -2 0.11749007E-01 0.99932023E+03</pdfrwt>
<totfact> 0.65495648E+01</totfact>
</mgrwt>
</event>
<event>
 9    1  0.4369420E-036  0.1012574E+04  0.7818608E-02  0.8669156E-01
         -2   -1    0    0    0  501 -0.00000000000E+00  0.00000000000E+00  0.14364846759E+03  0.14364846759E+03  0.00000000000E+00 0.  1.
          2   -1    0    0  501    0  0.00000000000E+00 -0.00000000000E+00 -0.17844000558E+04  0.17844000558E+04  0.00000000000E+00 0.  1.
         36    2    1    2    0    0 -0.10658141036E-13  0.28421709430E-13 -0.16407515882E+04  0.19280485233E+04  0.10125736192E+04 0.  0.
         25    2    3    3    0    0  0.26278697903E+02  0.63514818634E+02 -0.56595817409E+03  0.58356272735E+03  0.12454758039E+03 0.  0.
         35    2    3    3    0    0 -0.26278697903E+02 -0.63514818634E+02 -0.10747934141E+04  0.13444857960E+04  0.80482076920E+03 0.  0.
         22    1    5    5    0    0 -0.20226195247E+03  0.28144078364E+03 -0.79339167884E+03  0.86578817743E+03  0.00000000000E+00 0.  1.
         22    1    5    5    0    0  0.17598325457E+03 -0.34495560227E+03 -0.28140173523E+03  0.47869761857E+03  0.00000000000E+00 0.  1.
          5    1    4    4  502    0  0.25855752261E+02  0.72013306571E+02 -0.15926795401E+03  0.17675635045E+03  0.47000000000E+01 0. -1.
         -5    1    4    4    0  502  0.42294564261E+00 -0.84984879367E+01 -0.40669022008E+03  0.40680637690E+03  0.47000000000E+01 0. -1.
<mgrwt>
<rscale>  0 0.10125736E+04</rscale>
<asrwt>0</asrwt>
<pdfrwt beam="1">  1        2 0.27452308E+00 0.10125736E+04</pdfrwt>
<pdfrwt beam="2">  1       -2 0.22099765E-01 0.10125736E+04</pdfrwt>
<totfact> 0.18665688E+02</totfact>
</mgrwt>
</event>
<event>
 9    1  0.4369420E-036  0.1000921E+04  0.7818608E-02  0.8680161E-01
         -2   -1    0    0    0  501 -0.00000000000E+00  0.00000000000E+00  0.28448054130E+03  0.28448054130E+03  0.00000000000E+00 0.  1.
          2   -1    0    0  501    0  0.00000000000E+00 -0.00000000000E+00 -0.88041438504E+03  0.88041438504E+03  0.00000000000E+00 0.  1.
         36    2    1    2    0    0  0.28421709430E-13  0.00000000000E+00 -0.59593384374E+03  0.11648949263E+04  0.10009210974E+04 0.  0.
         25    2    3    3    0    0  0.13481461004E+03 -0.34970716365E+02 -0.91355440292E+02  0.20867148325E+03  0.12569821546E+03 0.  0.
         35    2    3    3    0    0 -0.13481461004E+03  0.34970716365E+02 -0.50457840345E+03  0.95622344308E+03  0.80022870343E+03 0.  0.
         22    1    5    5    0    0 -0.39255295757E+03 -0.36751544006E+02 -0.55817132460E+03  0.68337671024E+03  0.00000000000E+00 0.  1.
         22    1    5    5    0    0  0.25773834754E+03  0.71722260371E+02  0.53592921156E+02  0.27284673284E+03  0.00000000000E+00 0.  1.
          5    1    4    4  502    0  0.26870718014E+02 -0.61161507951E+02 -0.36547432931E+01  0.67068716179E+02  0.47000000000E+01 0. -1.
         -5    1    4    4    0  502  0.10794389202E+03  0.26190791586E+02 -0.87700696999E+02  0.14160276707E+03  0.47000000000E+01 0. -1.
<mgrwt>
<rscale>  0 0.10009211E+04</rscale>
<asrwt>0</asrwt>
<pdfrwt beam="1">  1        2 0.13544836E+00 0.10009211E+04</pdfrwt>
<pdfrwt beam="2">  1       -2 0.43766238E-01 0.10009211E+04</pdfrwt>
<totfact> 0.18112789E+02</totfact>
</mgrwt>
</event>
<event>
 9    1  0.4369420E-036  0.1000130E+04  0.7818608E-02  0.8680915E-01
          1   -1    0    0  501    0  0.00000000000E+00  0.00000000000E+00  0.26149803781E+04  0.26149803781E+04  0.00000000000E+00 0. -1.
         -1   -1    0    0    0  501 -0.00000000000E+00 -0.00000000000E+00 -0.95627777466E+02  0.95627777466E+02  0.00000000000E+00 0. -1.
         36    2    1    2    0    0  0.00000000000E+00  0.28421709430E-13  0.25193526006E+04  0.27106081556E+04  0.10001295150E+04 0.  0.
         25    2    3    3    0    0 -0.56606021582E+01  0.10944801984E+03  0.70068646582E+03  0.72030916513E+03  0.12598753319E+03 0.  0.
         35    2    3    3    0    0  0.56606021582E+01 -0.10944801984E+03  0.18186661348E+04  0.19902989904E+04  0.80108217429E+03 0.  0.
         22    1    5    5    0    0 -0.12946085716E+03 -0.29015935315E+03  0.17110636966E+04  0.17403136319E+04  0.00000000000E+00 0. -1.
         22    1    5    5    0    0  0.13512145932E+03  0.18071133331E+03  0.10760243826E+03  0.24998535852E+03  0.00000000000E+00 0. -1.
          5    1    4    4  502    0  0.16694770045E+02 -0.21898404549E+02  0.64264646977E+02  0.70073463734E+02  0.47000000000E+01 0.  1.
         -5    1    4    4    0  502 -0.22355372204E+02  0.13134642439E+03  0.63642181884E+03  0.65023570139E+03  0.47000000000E+01 0.  1.
<mgrwt>
<rscale>  0 0.10001295E+04</rscale>
<asrwt>0</asrwt>
<pdfrwt beam="1">  1        1 0.40230462E+00 0.10001295E+04</pdfrwt>
<pdfrwt beam="2">  1       -1 0.14711968E-01 0.10001295E+04</pdfrwt>
<totfact> 0.38898966E+01</totfact>
</mgrwt>
</event>
<event>
 9    1  0.4369420E-036  0.9993302E+03  0.7818608E-02  0.8681676E-01
         -4   -1    0    0    0  501 -0.00000000000E+00  0.00000000000E+00  0.48065819962E+03  0.48065819962E+03  0.00000000000E+00 0.  1.
          4   -1    0    0  501    0  0.00000000000E+00 -0.00000000000E+00 -0.51942357267E+03  0.51942357267E+03  0.00000000000E+00 0.  1.
         36    2    1    2    0    0  0.71054273576E-14  0.28421709430E-13 -0.38765373051E+02  0.10000817723E+04  0.99933017422E+03 0.  0.
         25    2    3    3    0    0  0.53731791508E+02  0.12228130836E+03  0.36015785198E+02  0.18576879461E+03  0.12398824329E+03 0.  0.
         35    2    3    3    0    0 -0.53731791508E+02 -0.12228130836E+03 -0.74781158249E+02  0.81431297768E+03  0.79979596160E+03 0.  0.
         22    1    5    5    0    0  0.20195710289E+03  0.23341911961E+03 -0.18858051916E+03  0.36170950915E+03  0.00000000000E+00 0.  1.
         22    1    5    5    0    0 -0.25568889440E+03 -0.35570042797E+03  0.11379936091E+03  0.45260346852E+03  0.00000000000E+00 0.  1.
          5    1    4    4  502    0  0.32865865678E+02  0.14247905097E+03  0.48049325935E+02  0.15398465123E+03  0.47000000000E+01 0.  1.
         -5    1    4    4    0  502  0.20865925830E+02 -0.20197742614E+02 -0.12033540737E+02  0.31784143375E+02  0.47000000000E+01 0.  1.
<mgrwt>
<rscale>  0 0.99933017E+03</rscale>
<asrwt>0</asrwt>
<pdfrwt beam="1">  1        4 0.79911319E-01 0.99933017E+03</pdfrwt>
<pdfrwt beam="2">  1       -4 0.73947415E-01 0.99933017E+03</pdfrwt>
<totfact> 0.53178064E+00</totfact>
</mgrwt>
</event>
<event>
 9    1  0.4369420E-036  0.9998609E+03  0.7818608E-02  0.8681170E-01
          2   -1    0    0  501    0  0.00000000000E+00  0.00000000000E+00  0.61351380677E+03  0.61351380677E+03  0.00000000000E+00 0.  1.
         -2   -1    0    0    0  501 -0.00000000000E+00 -0.00000000000E+00 -0.40737543161E+03  0.40737543161E+03  0.00000000000E+00 0.  1.
         36    2    1    2    0    0  0.17763568394E-13 -0.35527136788E-13  0.20613837516E+03  0.10208892384E+04  0.99986089399E+03 0.  0.
         25    2    3    3    0    0 -0.62771172323E+01  0.30542821232E+02 -0.10204629299E+03  0.16328487671E+03  0.12359708297E+03 0.  0.
         35    2    3    3    0    0  0.62771172323E+01 -0.30542821232E+02  0.30818466815E+03  0.85760436168E+03  0.79970943808E+03 0.  0.
         22    1    5    5    0    0  0.23830422305E+03  0.28735486788E+03  0.27742684256E+02  0.37434126055E+03  0.00000000000E+00 0.  1.
         22    1    5    5    0    0 -0.23202710582E+03 -0.31789768911E+03  0.28044198390E+03  0.48326310113E+03  0.00000000000E+00 0.  1.
          5    1    4    4  502    0  0.19897044122E+02 -0.25587681107E+02 -0.95344463269E+02  0.10081308678E+03  0.47000000000E+01 0. -1.
         -5    1    4    4    0  502 -0.26174161354E+02  0.56130502340E+02 -0.67018297207E+01  0.62471789931E+02  0.47000000000E+01 0. -1.
<mgrwt>
<rscale>  0 0.99986089E+03</rscale>
<asrwt>0</asrwt>
<pdfrwt beam="1">  1        2 0.94386740E-01 0.99986089E+03</pdfrwt>
<pdfrwt beam="2">  1       -2 0.62673143E-01 0.99986089E+03</pdfrwt>
<totfact> 0.13787485E+02</totfact>
</mgrwt>
</event>
<event>
 9    1  0.4369420E-036  0.9998991E+03  0.7818608E-02  0.8681134E-01
         -2   -1    0    0    0  501 -0.00000000000E+00  0.00000000000E+00  0.15867416714E+03  0.15867416714E+03  0.00000000000E+00 0.  1.
          2   -1    0    0  501    0  0.00000000000E+00 -0.00000000000E+00 -0.15752377238E+04  0.15752377238E+04  0.00000000000E+00 0.  1.
         36    2    1    2    0    0  0.00000000000E+00  0.00000000000E+00 -0.14165635567E+04  0.17339118910E+04  0.99989906266E+03 0.  0.
         25    2    3    3    0    0  0.93668049541E+02  0.10114061429E+03 -0.31073537345E+03  0.36250193277E+03  0.12588904474E+03 0.  0.
         35    2    3    3    0    0 -0.93668049541E+02 -0.10114061429E+03 -0.11058281832E+04  0.13714099582E+04  0.79931606718E+03 0.  0.
         22    1    5    5    0    0  0.30927334043E+03 -0.75962908569E+00 -0.79400144236E+03  0.85210848288E+03  0.00000000000E+00 0.  1.
         22    1    5    5    0    0 -0.40294138997E+03 -0.10038098520E+03 -0.31182674087E+03  0.51930147531E+03  0.00000000000E+00 0.  1.
          5    1    4    4  502    0 -0.28732276163E+02  0.26507504881E+02 -0.10105816152E+03  0.10845751942E+03  0.47000000000E+01 0. -1.
         -5    1    4    4    0  502  0.12240032570E+03  0.74633109406E+02 -0.20967721192E+03  0.25404441335E+03  0.47000000000E+01 0. -1.
<mgrwt>
<rscale>  0 0.99989906E+03</rscale>
<asrwt>0</asrwt>
<pdfrwt beam="1">  1        2 0.24234427E+00 0.99989906E+03</pdfrwt>
<pdfrwt beam="2">  1       -2 0.24411409E-01 0.99989906E+03</pdfrwt>
<totfact> 0.20555826E+02</totfact>
</mgrwt>
</event>
<event>
 9    1  0.4369420E-036  0.1000304E+04  0.7818608E-02  0.8680749E-01
          2   -1    0    0  501    0  0.00000000000E+00  0.00000000000E+00  0.14105345126E+04  0.14105345126E+04  0.00000000000E+00 0. -1.
         -2   -1    0    0    0  501 -0.00000000000E+00 -0.00000000000E+00 -0.17734549703E+03  0.17734549703E+03  0.00000000000E+00 0. -1.
         36    2    1    2    0    0  0.00000000000E+00  0.00000000000E+00  0.12331890156E+04  0.15878800096E+04  0.10003038423E+04 0.  0.
         25    2    3    3    0    0  0.12706521335E+03  0.39867428742E+02  0.15250858575E+03  0.23761398774E+03  0.12436461766E+03 0.  0.
         35    2    3    3    0    0 -0.12706521335E+03 -0.39867428742E+02  0.10806804298E+04  0.13502660219E+04  0.79850683039E+03 0.  0.
         22    1    5    5    0    0  0.20875622427E+03 -0.10905056020E+03  0.95733489810E+03  0.98588097303E+03  0.00000000000E+00 0.  1.
         22    1    5    5    0    0 -0.33582143763E+03  0.69183131455E+02  0.12334553173E+03  0.36438504888E+03  0.00000000000E+00 0.  1.
          5    1    4    4  502    0  0.66129829889E+02  0.85952249189E+01  0.15511963682E+03  0.16891188241E+03  0.47000000000E+01 0.  1.
         -5    1    4    4    0  502  0.60935383464E+02  0.31272203823E+02 -0.26110510672E+01  0.68702105335E+02  0.47000000000E+01 0.  1.
<mgrwt>
<rscale>  0 0.10003038E+04</rscale>
<asrwt>0</asrwt>
<pdfrwt beam="1">  1        2 0.21700530E+00 0.10003038E+04</pdfrwt>
<pdfrwt beam="2">  1       -2 0.27283924E-01 0.10003038E+04</pdfrwt>
<totfact> 0.20903126E+02</totfact>
</mgrwt>
</event>
<event>
 9    1  0.4369420E-036  0.1000026E+04  0.7818608E-02  0.8681013E-01
          2   -1    0    0  501    0  0.00000000000E+00  0.00000000000E+00  0.71469022083E+03  0.71469022083E+03  0.00000000000E+00 0. -1.
         -2   -1    0    0    0  501 -0.00000000000E+00 -0.00000000000E+00 -0.34982002653E+03  0.34982002653E+03  0.00000000000E+00 0. -1.
         36    2    1    2    0    0  0.46185277824E-13 -0.14210854715E-13  0.36487019429E+03  0.10645102474E+04  0.10000259037E+04 0.  0.
         25    2    3    3    0    0  0.12297130587E+02  0.11070448433E+03 -0.20888151325E+02  0.16843885973E+03  0.12461393313E+03 0.  0.
         35    2    3    3    0    0 -0.12297130587E+02 -0.11070448433E+03  0.38575834562E+03  0.89607138763E+03  0.80107910237E+03 0.  0.
         22    1    5    5    0    0  0.36152690992E+03 -0.18045057399E+03  0.30766663170E+03  0.50786107599E+03  0.00000000000E+00 0. -1.
         22    1    5    5    0    0 -0.37382404050E+03  0.69746089662E+02  0.78091713917E+02  0.38821031164E+03  0.00000000000E+00 0. -1.
          5    1    4    4  502    0 -0.26637363996E+02  0.12282268848E+03 -0.20260147049E+02  0.12738730519E+03  0.47000000000E+01 0. -1.
         -5    1    4    4    0  502  0.38934494583E+02 -0.12118204152E+02 -0.62800427551E+00  0.41051554534E+02  0.47000000000E+01 0. -1.
<mgrwt>
<rscale>  0 0.10000259E+04</rscale>
<asrwt>0</asrwt>
<pdfrwt beam="1">  1        2 0.10995234E+00 0.10000259E+04</pdfrwt>
<pdfrwt beam="2">  1       -2 0.53818466E-01 0.10000259E+04</pdfrwt>
<totfact> 0.15708037E+02</totfact>
</mgrwt>
</event>
<event>
 9    1  0.4369420E-036  0.9998052E+03  0.7818608E-02  0.8681224E-01
          2   -1    0    0  501    0  0.00000000000E+00  0.00000000000E+00  0.22103456073E+04  0.22103456073E+04  0.00000000000E+00 0. -1.
         -2   -1    0    0    0  501 -0.00000000000E+00 -0.00000000000E+00 -0.11306041668E+03  0.11306041668E+03  0.00000000000E+00 0. -1.
         36    2    1    2    0    0  0.00000000000E+00  0.00000000000E+00  0.20972851906E+04  0.23234060240E+04  0.99980517175E+03 0.  0.
         25    2    3    3    0    0  0.10569542846E+03 -0.78585942936E+02  0.45878068598E+03  0.49354381436E+03  0.12553288349E+03 0.  0.
         35    2    3    3    0    0 -0.10569542846E+03  0.78585942936E+02  0.16385045046E+04  0.18298622096E+04  0.80395983758E+03 0.  0.
         22    1    5    5    0    0 -0.35808531334E+02  0.24762639820E+03  0.16274934290E+04  0.16466134778E+04  0.00000000000E+00 0. -1.
         22    1    5    5    0    0 -0.69886897122E+02 -0.16904045526E+03  0.11011075628E+02  0.18324873176E+03  0.00000000000E+00 0. -1.
          5    1    4    4  502    0  0.13896207541E+01  0.30097473115E+02  0.61705731994E+02  0.68829327286E+02  0.47000000000E+01 0. -1.
         -5    1    4    4    0  502  0.10430580770E+03 -0.10868341605E+03  0.39707495399E+03  0.42471448707E+03  0.47000000000E+01 0. -1.
<mgrwt>
<rscale>  0 0.99980517E+03</rscale>
<asrwt>0</asrwt>
<pdfrwt beam="1">  1        2 0.34005314E+00 0.99980517E+03</pdfrwt>
<pdfrwt beam="2">  1       -2 0.17393912E-01 0.99980517E+03</pdfrwt>
<totfact> 0.16121728E+02</totfact>
</mgrwt>
</event>
<event>
 9    1  0.4369420E-036  0.1000507E+04  0.7818608E-02  0.8680555E-01
         -1   -1    0    0    0  501 -0.00000000000E+00  0.00000000000E+00  0.79815947224E+03  0.79815947224E+03  0.00000000000E+00 0.  1.
          1   -1    0    0  501    0  0.00000000000E+00 -0.00000000000E+00 -0.31353843231E+03  0.31353843231E+03  0.00000000000E+00 0.  1.
         36    2    1    2    0    0 -0.28421709430E-13  0.00000000000E+00  0.48462103993E+03  0.11116979046E+04  0.10005072107E+04 0.  0.
         25    2    3    3    0    0 -0.97123705176E+02  0.86511022098E+02  0.15237936100E+03  0.23624235144E+03  0.12519507939E+03 0.  0.
         35    2    3    3    0    0  0.97123705176E+02 -0.86511022098E+02  0.33224167893E+03  0.87545555311E+03  0.79945026187E+03 0.  0.
         22    1    5    5    0    0 -0.19096406771E+03  0.28121501795E+03  0.10357842381E+03  0.35535566881E+03  0.00000000000E+00 0. -1.
         22    1    5    5    0    0  0.28808777288E+03 -0.36772604005E+03  0.22866325512E+03  0.52009988430E+03  0.00000000000E+00 0. -1.
          5    1    4    4  502    0 -0.30718028734E+02  0.48437395238E+02  0.14871825797E+03  0.15946469452E+03  0.47000000000E+01 0. -1.
         -5    1    4    4    0  502 -0.66405676441E+02  0.38073626860E+02  0.36611030319E+01  0.76777656915E+02  0.47000000000E+01 0. -1.
<mgrwt>
<rscale>  0 0.10005072E+04</rscale>
<asrwt>0</asrwt>
<pdfrwt beam="1">  1        1 0.48236682E-01 0.10005072E+04</pdfrwt>
<pdfrwt beam="2">  1       -1 0.12279376E+00 0.10005072E+04</pdfrwt>
<totfact> 0.58142755E+01</totfact>
</mgrwt>
</event>
<event>
 9    1  0.4369420E-036  0.1000389E+04  0.7818608E-02  0.8680668E-01
          1   -1    0    0  501    0  0.00000000000E+00  0.00000000000E+00  0.65033682619E+03  0.65033682619E+03  0.00000000000E+00 0. -1.
         -1   -1    0    0    0  501 -0.00000000000E+00 -0.00000000000E+00 -0.38471528491E+03  0.38471528491E+03  0.00000000000E+00 0. -1.
         36    2    1    2    0    0  0.71054273576E-14  0.14210854715E-13  0.26562154127E+03  0.10350521111E+04  0.10003889591E+04 0.  0.
         25    2    3    3    0    0  0.92068311573E+01 -0.10558732326E+03 -0.45538775758E+02  0.16990862669E+03  0.12474659416E+03 0.  0.
         35    2    3    3    0    0 -0.92068311573E+01  0.10558732326E+03  0.31116031703E+03  0.86514348441E+03  0.80026186786E+03 0.  0.
         22    1    5    5    0    0  0.10462531943E+03  0.37490960813E+03  0.40141483788E+03  0.55914000376E+03  0.00000000000E+00 0.  1.
         22    1    5    5    0    0 -0.11383215058E+03 -0.26932228487E+03 -0.90254520849E+02  0.30600348065E+03  0.00000000000E+00 0.  1.
          5    1    4    4  502    0 -0.54396661326E+02 -0.41434549089E+02  0.20183784704E+00  0.68541588544E+02  0.47000000000E+01 0. -1.
         -5    1    4    4    0  502  0.63603492483E+02 -0.64152774172E+02 -0.45740613605E+02  0.10136703815E+03  0.47000000000E+01 0. -1.
<mgrwt>
<rscale>  0 0.10003890E+04</rscale>
<asrwt>0</asrwt>
<pdfrwt beam="1">  1        1 0.10005182E+00 0.10003890E+04</pdfrwt>
<pdfrwt beam="2">  1       -1 0.59186967E-01 0.10003890E+04</pdfrwt>
<totfact> 0.10183376E+02</totfact>
</mgrwt>
</event>
<event>
 9    1  0.4369420E-036  0.9992272E+03  0.7818608E-02  0.8681774E-01
          2   -1    0    0  501    0  0.00000000000E+00  0.00000000000E+00  0.56109355610E+03  0.56109355610E+03  0.00000000000E+00 0.  1.
         -2   -1    0    0    0  501 -0.00000000000E+00 -0.00000000000E+00 -0.44487006157E+03  0.44487006157E+03  0.00000000000E+00 0.  1.
         36    2    1    2    0    0  0.14210854715E-13 -0.28421709430E-13  0.11622349453E+03  0.10059636177E+04  0.99922715105E+03 0.  0.
         25    2    3    3    0    0 -0.42721485126E+02 -0.82290105150E+02 -0.80182446172E+02  0.17876657766E+03  0.13012101259E+03 0.  0.
         35    2    3    3    0    0  0.42721485126E+02  0.82290105150E+02  0.19640594070E+03  0.82719704001E+03  0.79817470692E+03 0.  0.
         22    1    5    5    0    0 -0.17577604516E+03 -0.71713469593E+02 -0.24573687402E+03  0.31052640955E+03  0.00000000000E+00 0.  1.
         22    1    5    5    0    0  0.21849753029E+03  0.15400357474E+03  0.44214281472E+03  0.51667063046E+03  0.00000000000E+00 0.  1.
          5    1    4    4  502    0  0.13872352402E+02 -0.19229830625E+02 -0.90137705785E+02  0.93322690441E+02  0.47000000000E+01 0.  1.
         -5    1    4    4    0  502 -0.56593837528E+02 -0.63060274525E+02  0.99552596132E+01  0.85443887220E+02  0.47000000000E+01 0.  1.
<mgrwt>
<rscale>  0 0.99922715E+03</rscale>
<asrwt>0</asrwt>
<pdfrwt beam="1">  1        2 0.86322086E-01 0.99922715E+03</pdfrwt>
<pdfrwt beam="2">  1       -2 0.68441548E-01 0.99922715E+03</pdfrwt>
<totfact> 0.12697357E+02</totfact>
</mgrwt>
</event>
<event>
 9    1  0.4369420E-036  0.9981543E+03  0.7818608E-02  0.8682798E-01
          1   -1    0    0  501    0  0.00000000000E+00  0.00000000000E+00  0.49354949809E+03  0.49354949809E+03  0.00000000000E+00 0. -1.
         -1   -1    0    0    0  501 -0.00000000000E+00 -0.00000000000E+00 -0.50466666282E+03  0.50466666282E+03  0.00000000000E+00 0. -1.
         36    2    1    2    0    0  0.28421709430E-13 -0.14210854715E-13 -0.11117164723E+02  0.99821616091E+03  0.99815425288E+03 0.  0.
         25    2    3    3    0    0  0.12755986618E+03 -0.53144899417E+02 -0.10134703974E+02  0.18644133989E+03  0.12474678834E+03 0.  0.
         35    2    3    3    0    0 -0.12755986618E+03  0.53144899417E+02 -0.98246074894E+00  0.81177482102E+03  0.79992593096E+03 0.  0.
         22    1    5    5    0    0  0.21067817640E+02 -0.27324397519E+03  0.25246735321E+03  0.37262029917E+03  0.00000000000E+00 0. -1.
         22    1    5    5    0    0 -0.14862768382E+03  0.32638887460E+03 -0.25344981396E+03  0.43915452185E+03  0.00000000000E+00 0. -1.
          5    1    4    4  502    0  0.14937184431E+03 -0.27727821287E+02 -0.12680836771E+02  0.15252433762E+03  0.47000000000E+01 0. -1.
         -5    1    4    4    0  502 -0.21811978130E+02 -0.25417078130E+02  0.25461327973E+01  0.33917002268E+02  0.47000000000E+01 0. -1.
<mgrwt>
<rscale>  0 0.99815425E+03</rscale>
<asrwt>0</asrwt>
<pdfrwt beam="1">  1        1 0.75930691E-01 0.99815425E+03</pdfrwt>
<pdfrwt beam="2">  1       -1 0.77641026E-01 0.99815425E+03</pdfrwt>
<totfact> 0.88602810E+01</totfact>
</mgrwt>
</event>
<event>
 9    1  0.4369420E-036  0.9988726E+03  0.7818608E-02  0.8682112E-01
          2   -1    0    0  501    0  0.00000000000E+00  0.00000000000E+00  0.29472185018E+04  0.29472185018E+04  0.00000000000E+00 0. -1.
         -2   -1    0    0    0  501 -0.00000000000E+00 -0.00000000000E+00 -0.84634593534E+02  0.84634593534E+02  0.00000000000E+00 0. -1.
         36    2    1    2    0    0  0.28421709430E-13 -0.28421709430E-13  0.28625839083E+04  0.30318530953E+04  0.99887264444E+03 0.  0.
         25    2    3    3    0    0 -0.67536594635E+02 -0.10449110816E+03  0.72049185612E+03  0.74178186340E+03  0.12510889190E+03 0.  0.
         35    2    3    3    0    0  0.67536594635E+02  0.10449110816E+03  0.21420920521E+04  0.22900712319E+04  0.80024265330E+03 0.  0.
         22    1    5    5    0    0  0.85136691259E+02  0.43606759396E+03  0.89052900649E+03  0.99521109022E+03  0.00000000000E+00 0.  1.
         22    1    5    5    0    0 -0.17600096624E+02 -0.33157648580E+03  0.12515630456E+04  0.12948601417E+04  0.00000000000E+00 0.  1.
          5    1    4    4  502    0 -0.44508833000E+02  0.20239167779E+02  0.22406839641E+03  0.22938918108E+03  0.47000000000E+01 0. -1.
         -5    1    4    4    0  502 -0.23027761635E+02 -0.12473027594E+03  0.49642345971E+03  0.51239268232E+03  0.47000000000E+01 0. -1.
<mgrwt>
<rscale>  0 0.99887264E+03</rscale>
<asrwt>0</asrwt>
<pdfrwt beam="1">  1        2 0.45341815E+00 0.99887264E+03</pdfrwt>
<pdfrwt beam="2">  1       -2 0.13020709E-01 0.99887264E+03</pdfrwt>
<totfact> 0.91839087E+01</totfact>
</mgrwt>
</event>
<event>
 9    1  0.4369420E-036  0.1000989E+04  0.7818608E-02  0.8680097E-01
          1   -1    0    0  501    0  0.00000000000E+00  0.00000000000E+00  0.12326826002E+04  0.12326826002E+04  0.00000000000E+00 0. -1.
         -1   -1    0    0    0  501 -0.00000000000E+00 -0.00000000000E+00 -0.20321086417E+03  0.20321086417E+03  0.00000000000E+00 0. -1.
         36    2    1    2    0    0  0.28421709430E-13  0.00000000000E+00  0.10294717360E+04  0.14358934644E+04  0.10009885043E+04 0.  0.
         25    2    3    3    0    0 -0.10389445355E+03 -0.93057160872E+02  0.19935765538E+03  0.27489946183E+03  0.12795525269E+03 0.  0.
         35    2    3    3    0    0  0.10389445355E+03  0.93057160872E+02  0.83011408065E+03  0.11609940025E+04  0.79960239767E+03 0.  0.
         22    1    5    5    0    0  0.19837672943E+03  0.28824870966E+03  0.52651587737E+02  0.35385425685E+03  0.00000000000E+00 0. -1.
         22    1    5    5    0    0 -0.94482275886E+02 -0.19519154878E+03  0.77746249291E+03  0.80713974568E+03  0.00000000000E+00 0. -1.
          5    1    4    4  502    0 -0.96168726670E+02 -0.11477668337E+03  0.20170577187E+03  0.25125568539E+03  0.47000000000E+01 0.  1.
         -5    1    4    4    0  502 -0.77257268784E+01  0.21719522499E+02 -0.23481164920E+01  0.23643776443E+02  0.47000000000E+01 0.  1.
<mgrwt>
<rscale>  0 0.10009885E+04</rscale>
<asrwt>0</asrwt>
<pdfrwt beam="1">  1        1 0.18964347E+00 0.10009885E+04</pdfrwt>
<pdfrwt beam="2">  1       -1 0.31263210E-01 0.10009885E+04</pdfrwt>
<totfact> 0.10554707E+02</totfact>
</mgrwt>
</event>
<event>
 9    1  0.4369420E-036  0.1007359E+04  0.7818608E-02  0.8674061E-01
          2   -1    0    0  501    0  0.00000000000E+00  0.00000000000E+00  0.23709610733E+04  0.23709610733E+04  0.00000000000E+00 0.  1.
         -2   -1    0    0    0  501 -0.00000000000E+00 -0.00000000000E+00 -0.10700007314E+03  0.10700007314E+03  0.00000000000E+00 0.  1.
         36    2    1    2    0    0  0.28421709430E-13  0.00000000000E+00  0.22639610001E+04  0.24779611464E+04  0.10073589395E+04 0.  0.
         25    2    3    3    0    0 -0.56586418233E+02 -0.83394959251E+02  0.17070004528E+03  0.23453695769E+03  0.12534886161E+03 0.  0.
         35    2    3    3    0    0  0.56586418233E+02  0.83394959251E+02  0.20932609548E+04  0.22434241887E+04  0.80065843123E+03 0.  0.
         22    1    5    5    0    0  0.37837402793E+03  0.56584014878E+02  0.57118795340E+03  0.68747678787E+03  0.00000000000E+00 0.  1.
         22    1    5    5    0    0 -0.32178760969E+03  0.26810944373E+02  0.15220730014E+04  0.15559474008E+04  0.00000000000E+00 0.  1.
          5    1    4    4  502    0 -0.60203079311E+02  0.52176194212E+01  0.11416910426E+03  0.12926062308E+03  0.47000000000E+01 0.  1.
         -5    1    4    4    0  502  0.36166610776E+01 -0.88612578672E+02  0.56530941021E+02  0.10527633461E+03  0.47000000000E+01 0.  1.
<mgrwt>
<rscale>  0 0.10073589E+04</rscale>
<asrwt>0</asrwt>
<pdfrwt beam="1">  1        2 0.36476320E+00 0.10073589E+04</pdfrwt>
<pdfrwt beam="2">  1       -2 0.16461552E-01 0.10073589E+04</pdfrwt>
<totfact> 0.14237093E+02</totfact>
</mgrwt>
</event>
<event>
 9    1  0.4369420E-036  0.1000065E+04  0.7818608E-02  0.8680976E-01
         -2   -1    0    0    0  501 -0.00000000000E+00  0.00000000000E+00  0.22419823385E+03  0.22419823385E+03  0.00000000000E+00 0. -1.
          2   -1    0    0  501    0  0.00000000000E+00 -0.00000000000E+00 -0.11152297800E+04  0.11152297800E+04  0.00000000000E+00 0. -1.
         36    2    1    2    0    0  0.71054273576E-14  0.00000000000E+00 -0.89103154611E+03  0.13394280138E+04  0.10000650919E+04 0.  0.
         25    2    3    3    0    0  0.20940902138E+02  0.94594064463E+02 -0.30211685589E+03  0.34096718946E+03  0.12488983652E+03 0.  0.
         35    2    3    3    0    0 -0.20940902138E+02 -0.94594064463E+02 -0.58891469022E+03  0.99846082434E+03  0.80044796643E+03 0.  0.
         22    1    5    5    0    0  0.38426587921E+03 -0.11309915631E+03 -0.28487854711E+03  0.49153582950E+03  0.00000000000E+00 0. -1.
         22    1    5    5    0    0 -0.40520678135E+03  0.18505091843E+02 -0.30403614311E+03  0.50692499484E+03  0.00000000000E+00 0. -1.
          5    1    4    4  502    0  0.36307386853E+02  0.11995206708E+03 -0.21602385640E+03  0.24979015448E+03  0.47000000000E+01 0. -1.
         -5    1    4    4    0  502 -0.15366484715E+02 -0.25358002619E+02 -0.86092999483E+02  0.91177034988E+02  0.47000000000E+01 0. -1.
<mgrwt>
<rscale>  0 0.10000651E+04</rscale>
<asrwt>0</asrwt>
<pdfrwt beam="1">  1        2 0.17157381E+00 0.10000651E+04</pdfrwt>
<pdfrwt beam="2">  1       -2 0.34492036E-01 0.10000651E+04</pdfrwt>
<totfact> 0.20263596E+02</totfact>
</mgrwt>
</event>
<event>
 9    1  0.4369420E-036  0.9999488E+03  0.7818608E-02  0.8681087E-01
         -1   -1    0    0    0  501 -0.00000000000E+00  0.00000000000E+00  0.26674400681E+03  0.26674400681E+03  0.00000000000E+00 0.  1.
          1   -1    0    0  501    0  0.00000000000E+00 -0.00000000000E+00 -0.93713211942E+03  0.93713211942E+03  0.00000000000E+00 0.  1.
         36    2    1    2    0    0 -0.71054273576E-14 -0.28421709430E-13 -0.67038811261E+03  0.12038761262E+04  0.99994875158E+03 0.  0.
         25    2    3    3    0    0 -0.36955270059E+02 -0.73482692230E+02 -0.26469489882E+03  0.30293741364E+03  0.12223865624E+03 0.  0.
         35    2    3    3    0    0  0.36955270059E+02  0.73482692230E+02 -0.40569321379E+03  0.90093871259E+03  0.80021133589E+03 0.  0.
         22    1    5    5    0    0  0.28267689163E+02  0.41128216986E+03 -0.58378791419E+02  0.41636542697E+03  0.00000000000E+00 0. -1.
         22    1    5    5    0    0  0.86875808961E+01 -0.33779947763E+03 -0.34731442237E+03  0.48457328562E+03  0.00000000000E+00 0. -1.
          5    1    4    4  502    0  0.30905460453E+02  0.91894867691E+01 -0.11061501860E+03  0.11531420768E+03  0.47000000000E+01 0. -1.
         -5    1    4    4    0  502 -0.67860730513E+02 -0.82672178999E+02 -0.15407988022E+03  0.18762320596E+03  0.47000000000E+01 0. -1.
<mgrwt>
<rscale>  0 0.99994875E+03</rscale>
<asrwt>0</asrwt>
<pdfrwt beam="1">  1        1 0.14417417E+00 0.99994875E+03</pdfrwt>
<pdfrwt beam="2">  1       -1 0.41037540E-01 0.99994875E+03</pdfrwt>
<totfact> 0.11096660E+02</totfact>
</mgrwt>
</event>
<event>
 9    1  0.4369420E-036  0.9992799E+03  0.7818608E-02  0.8681724E-01
          3   -1    0    0  501    0  0.00000000000E+00  0.00000000000E+00  0.32788737943E+03  0.32788737943E+03  0.00000000000E+00 0. -1.
         -3   -1    0    0    0  501 -0.00000000000E+00 -0.00000000000E+00 -0.76135915094E+03  0.76135915094E+03  0.00000000000E+00 0. -1.
         36    2    1    2    0    0  0.71054273576E-14 -0.21316282073E-13 -0.43347177151E+03  0.10892465304E+04  0.99927985431E+03 0.  0.
         25    2    3    3    0    0  0.33838082342E+02 -0.31761557329E+02 -0.22450968823E+03  0.26142888964E+03  0.12564494374E+03 0.  0.
         35    2    3    3    0    0 -0.33838082342E+02  0.31761557329E+02 -0.20896208328E+03  0.82781764074E+03  0.79966435567E+03 0.  0.
         22    1    5    5    0    0  0.32224725104E+02  0.38796513955E+03 -0.25085777012E+03  0.46312525654E+03  0.00000000000E+00 0.  1.
         22    1    5    5    0    0 -0.66062807445E+02 -0.35620358222E+03  0.41895686838E+02  0.36469238420E+03  0.00000000000E+00 0.  1.
          5    1    4    4  502    0 -0.29318070248E+02  0.31525152623E+02 -0.58119838694E+02  0.72480274149E+02  0.47000000000E+01 0.  1.
         -5    1    4    4    0  502  0.63156152590E+02 -0.63286709952E+02 -0.16638984953E+03  0.18894861549E+03  0.47000000000E+01 0.  1.
<mgrwt>
<rscale>  0 0.99927985E+03</rscale>
<asrwt>0</asrwt>
<pdfrwt beam="1">  1        3 0.50444213E-01 0.99927985E+03</pdfrwt>
<pdfrwt beam="2">  1       -3 0.11713218E+00 0.99927985E+03</pdfrwt>
<totfact> 0.82605449E+00</totfact>
</mgrwt>
</event>
<event>
 9    1  0.4369420E-036  0.1000449E+04  0.7818608E-02  0.8680610E-01
          2   -1    0    0  501    0  0.00000000000E+00  0.00000000000E+00  0.83902060908E+03  0.83902060908E+03  0.00000000000E+00 0.  1.
         -2   -1    0    0    0  501 -0.00000000000E+00 -0.00000000000E+00 -0.29823438229E+03  0.29823438229E+03  0.00000000000E+00 0.  1.
         36    2    1    2    0    0  0.00000000000E+00  0.53290705182E-14  0.54078622679E+03  0.11372549914E+04  0.10004494851E+04 0.  0.
         25    2    3    3    0    0 -0.11754252150E+02 -0.12631503569E+02  0.25800958040E+03  0.28725423527E+03  0.12509330428E+03 0.  0.
         35    2    3    3    0    0  0.11754252150E+02  0.12631503569E+02  0.28277664639E+03  0.85000075609E+03  0.80139936130E+03 0.  0.
         22    1    5    5    0    0 -0.24273099752E+03  0.12625004277E+03 -0.16724583869E+03  0.32066895861E+03  0.00000000000E+00 0. -1.
         22    1    5    5    0    0  0.25448524967E+03 -0.11361853920E+03  0.45002248508E+03  0.52933179748E+03  0.00000000000E+00 0. -1.
          5    1    4    4  502    0 -0.45521422152E+02  0.14267796490E+02  0.23142274298E+03  0.23633524041E+03  0.47000000000E+01 0.  1.
         -5    1    4    4    0  502  0.33767170002E+02 -0.26899300059E+02  0.26586837425E+02  0.50918994863E+02  0.47000000000E+01 0.  1.
<mgrwt>
<rscale>  0 0.10004495E+04</rscale>
<asrwt>0</asrwt>
<pdfrwt beam="1">  1        2 0.12908009E+00 0.10004495E+04</pdfrwt>
<pdfrwt beam="2">  1       -2 0.45882213E-01 0.10004495E+04</pdfrwt>
<totfact> 0.17610521E+02</totfact>
</mgrwt>
</event>
<event>
 9    1  0.4369420E-036  0.1000084E+04  0.7818608E-02  0.8680958E-01
         -1   -1    0    0    0  501 -0.00000000000E+00  0.00000000000E+00  0.49429927691E+03  0.49429927691E+03  0.00000000000E+00 0. -1.
          1   -1    0    0  501    0  0.00000000000E+00 -0.00000000000E+00 -0.50585146548E+03  0.50585146548E+03  0.00000000000E+00 0. -1.
         36    2    1    2    0    0  0.00000000000E+00  0.00000000000E+00 -0.11552188564E+02  0.10001507424E+04  0.10000840237E+04 0.  0.
         25    2    3    3    0    0  0.12496568584E+03 -0.42388324206E+02 -0.47390524139E+02  0.18798736750E+03  0.12522058895E+03 0.  0.
         35    2    3    3    0    0 -0.12496568584E+03  0.42388324206E+02  0.35838335575E+02  0.81216337489E+03  0.80056965253E+03 0.  0.
         22    1    5    5    0    0 -0.40485595100E+03 -0.42118449030E+02 -0.18367139190E+03  0.44656184903E+03  0.00000000000E+00 0.  1.
         22    1    5    5    0    0  0.27989026516E+03  0.84506773236E+02  0.21950972748E+03  0.36560152586E+03  0.00000000000E+00 0.  1.
          5    1    4    4  502    0  0.13810833964E+03 -0.58951406056E+02 -0.61282327498E+02  0.16225534018E+03  0.47000000000E+01 0. -1.
         -5    1    4    4    0  502 -0.13142653805E+02  0.16563081850E+02  0.13891803359E+02  0.25732027320E+02  0.47000000000E+01 0. -1.
<mgrwt>
<rscale>  0 0.10000840E+04</rscale>
<asrwt>0</asrwt>
<pdfrwt beam="1">  1        1 0.77823302E-01 0.10000840E+04</pdfrwt>
<pdfrwt beam="2">  1       -1 0.76046043E-01 0.10000840E+04</pdfrwt>
<totfact> 0.89330585E+01</totfact>
</mgrwt>
</event>
<event>
 9    1  0.4369420E-036  0.1000262E+04  0.7818608E-02  0.8680788E-01
         -2   -1    0    0    0  501 -0.00000000000E+00  0.00000000000E+00  0.95836948628E+02  0.95836948628E+02  0.00000000000E+00 0.  1.
          2   -1    0    0  501    0  0.00000000000E+00 -0.00000000000E+00 -0.26099645967E+04  0.26099645967E+04  0.00000000000E+00 0.  1.
         36    2    1    2    0    0  0.00000000000E+00  0.10658141036E-13 -0.25141276481E+04  0.27058015454E+04  0.10002620516E+04 0.  0.
         25    2    3    3    0    0 -0.13181225856E+03 -0.10382615272E+02 -0.36148063371E+03  0.40540081693E+03  0.12727648492E+03 0.  0.
         35    2    3    3    0    0  0.13181225856E+03  0.10382615272E+02 -0.21526470144E+04  0.23004007284E+04  0.80029499097E+03 0.  0.
         22    1    5    5    0    0 -0.93852067770E+02  0.13213529151E+03 -0.19903544627E+04  0.19969423710E+04  0.00000000000E+00 0.  1.
         22    1    5    5    0    0  0.22566432633E+03 -0.12175267624E+03 -0.16229255166E+03  0.30345835740E+03  0.00000000000E+00 0.  1.
          5    1    4    4  502    0 -0.68519254242E+02 -0.14009929891E+02 -0.32422940856E+03  0.33171970957E+03  0.47000000000E+01 0.  1.
         -5    1    4    4    0  502 -0.63293004322E+02  0.36273146193E+01 -0.37251225145E+02  0.73681107363E+02  0.47000000000E+01 0.  1.
<mgrwt>
<rscale>  0 0.10002621E+04</rscale>
<asrwt>0</asrwt>
<pdfrwt beam="1">  1        2 0.40153302E+00 0.10002621E+04</pdfrwt>
<pdfrwt beam="2">  1       -2 0.14744146E-01 0.10002621E+04</pdfrwt>
<totfact> 0.12268351E+02</totfact>
</mgrwt>
</event>
<event>
 9    1  0.4369420E-036  0.1000403E+04  0.7818608E-02  0.8680654E-01
         -2   -1    0    0    0  501 -0.00000000000E+00  0.00000000000E+00  0.43064772570E+03  0.43064772570E+03  0.00000000000E+00 0. -1.
          2   -1    0    0  501    0  0.00000000000E+00 -0.00000000000E+00 -0.58098877481E+03  0.58098877481E+03  0.00000000000E+00 0. -1.
         36    2    1    2    0    0  0.00000000000E+00  0.00000000000E+00 -0.15034104911E+03  0.10116365005E+04  0.10004029079E+04 0.  0.
         25    2    3    3    0    0  0.24693698152E+02  0.13531551099E+03 -0.58977387898E+02  0.19570892310E+03  0.12610941303E+03 0.  0.
         35    2    3    3    0    0 -0.24693698152E+02 -0.13531551099E+03 -0.91363661208E+02  0.81592757741E+03  0.79904344485E+03 0.  0.
         22    1    5    5    0    0 -0.22741077986E+02 -0.37464457049E+03 -0.31376650843E+03  0.48920868005E+03  0.00000000000E+00 0.  1.
         22    1    5    5    0    0 -0.19526201656E+01  0.23932905950E+03  0.22240284722E+03  0.32671889737E+03  0.00000000000E+00 0.  1.
          5    1    4    4  502    0 -0.27707607430E+02  0.11919808636E+03 -0.67799260382E+02  0.13998115948E+03  0.47000000000E+01 0. -1.
         -5    1    4    4    0  502  0.52401305582E+02  0.16117424628E+02  0.88218724842E+01  0.55727763614E+02  0.47000000000E+01 0. -1.
<mgrwt>
<rscale>  0 0.10004029E+04</rscale>
<asrwt>0</asrwt>
<pdfrwt beam="1">  1        2 0.89382889E-01 0.10004029E+04</pdfrwt>
<pdfrwt beam="2">  1       -2 0.66253496E-01 0.10004029E+04</pdfrwt>
<totfact> 0.13069638E+02</totfact>
</mgrwt>
</event>
<event>
 9    1  0.4369420E-036  0.9992129E+03  0.7818608E-02  0.8681788E-01
         -1   -1    0    0    0  501 -0.00000000000E+00  0.00000000000E+00  0.27492282728E+03  0.27492282728E+03  0.00000000000E+00 0.  1.
          1   -1    0    0  501    0  0.00000000000E+00 -0.00000000000E+00 -0.90791515004E+03  0.90791515004E+03  0.00000000000E+00 0.  1.
         36    2    1    2    0    0  0.71054273576E-14  0.00000000000E+00 -0.63299232276E+03  0.11828379773E+04  0.99921289019E+03 0.  0.
         25    2    3    3    0    0  0.41412951861E+02 -0.57737448984E+02 -0.26201848541E+03  0.29814048529E+03  0.12322912268E+03 0.  0.
         35    2    3    3    0    0 -0.41412951861E+02  0.57737448984E+02 -0.37097383735E+03  0.88469749204E+03  0.80001213667E+03 0.  0.
         22    1    5    5    0    0  0.31336803315E+01  0.35166754418E+03  0.64377899790E+02  0.35752537751E+03  0.00000000000E+00 0.  1.
         22    1    5    5    0    0 -0.44546632193E+02 -0.29393009520E+03 -0.43535173714E+03  0.52717211453E+03  0.00000000000E+00 0.  1.
          5    1    4    4  502    0  0.49971888033E+02 -0.79937857052E+02 -0.11333947716E+03  0.14749636493E+03  0.47000000000E+01 0. -1.
         -5    1    4    4    0  502 -0.85589361716E+01  0.22200408068E+02 -0.14867900824E+03  0.15064412036E+03  0.47000000000E+01 0. -1.
<mgrwt>
<rscale>  0 0.99921289E+03</rscale>
<asrwt>0</asrwt>
<pdfrwt beam="1">  1        1 0.13967926E+00 0.99921289E+03</pdfrwt>
<pdfrwt beam="2">  1       -1 0.42295819E-01 0.99921289E+03</pdfrwt>
<totfact> 0.11111444E+02</totfact>
</mgrwt>
</event>
<event>
 9    1  0.4369420E-036  0.1000079E+04  0.7818608E-02  0.8680963E-01
         -1   -1    0    0    0  501 -0.00000000000E+00  0.00000000000E+00  0.92846433856E+02  0.92846433856E+02  0.00000000000E+00 0. -1.
          1   -1    0    0  501    0  0.00000000000E+00 -0.00000000000E+00 -0.26930438322E+04  0.26930438322E+04  0.00000000000E+00 0. -1.
         36    2    1    2    0    0  0.71054273576E-14  0.00000000000E+00 -0.26001973984E+04  0.27858902661E+04  0.10000790290E+04 0.  0.
         25    2    3    3    0    0  0.50675266494E+02 -0.10363197728E+03 -0.26690670018E+03  0.31638026091E+03  0.12469849054E+03 0.  0.
         35    2    3    3    0    0 -0.50675266494E+02  0.10363197728E+03 -0.23332906982E+04  0.24695100052E+04  0.80057892431E+03 0.  0.
         22    1    5    5    0    0 -0.35475664197E+03 -0.11957971868E+03 -0.16191713189E+04  0.16618866821E+04  0.00000000000E+00 0. -1.
         22    1    5    5    0    0  0.30408137547E+03  0.22321169596E+03 -0.71411937930E+03  0.80762332310E+03  0.00000000000E+00 0. -1.
          5    1    4    4  502    0  0.82768336358E+02 -0.82051981157E+02 -0.13290525330E+03  0.17683048796E+03  0.47000000000E+01 0.  1.
         -5    1    4    4    0  502 -0.32093069864E+02 -0.21579996123E+02 -0.13400144688E+03  0.13954977295E+03  0.47000000000E+01 0.  1.
<mgrwt>
<rscale>  0 0.10000790E+04</rscale>
<asrwt>0</asrwt>
<pdfrwt beam="1">  1        1 0.41431449E+00 0.10000790E+04</pdfrwt>
<pdfrwt beam="2">  1       -1 0.14284065E-01 0.10000790E+04</pdfrwt>
<totfact> 0.35942029E+01</totfact>
</mgrwt>
</event>
<event>
 9    1  0.4369420E-036  0.9997499E+03  0.7818608E-02  0.8681276E-01
          2   -1    0    0  501    0  0.00000000000E+00  0.00000000000E+00  0.14337514766E+04  0.14337514766E+04  0.00000000000E+00 0.  1.
         -2   -1    0    0    0  501 -0.00000000000E+00 -0.00000000000E+00 -0.17428051902E+03  0.17428051902E+03  0.00000000000E+00 0.  1.
         36    2    1    2    0    0 -0.71054273576E-14  0.00000000000E+00  0.12594709576E+04  0.16080319956E+04  0.99974987169E+03 0.  0.
         25    2    3    3    0    0 -0.57152576309E+02 -0.12038595775E+03  0.16953896690E+03  0.24935237900E+03  0.12519565413E+03 0.  0.
         35    2    3    3    0    0  0.57152576309E+02  0.12038595775E+03  0.10899319907E+04  0.13586796166E+04  0.80018707843E+03 0.  0.
         22    1    5    5    0    0  0.28878073329E+03  0.27439995453E+02  0.10696385477E+04  0.11082751861E+04  0.00000000000E+00 0.  1.
         22    1    5    5    0    0 -0.23162815698E+03  0.92945962301E+02  0.20293442957E+02  0.25040443055E+03  0.00000000000E+00 0.  1.
          5    1    4    4  502    0 -0.85314354402E+02 -0.61630697389E+02  0.14573234261E+03  0.17982460235E+03  0.47000000000E+01 0.  1.
         -5    1    4    4    0  502  0.28161778092E+02 -0.58755260365E+02  0.23806624288E+02  0.69527776650E+02  0.47000000000E+01 0.  1.
<mgrwt>
<rscale>  0 0.99974987E+03</rscale>
<asrwt>0</asrwt>
<pdfrwt beam="1">  1        2 0.22057714E+00 0.99974987E+03</pdfrwt>
<pdfrwt beam="2">  1       -2 0.26812389E-01 0.99974987E+03</pdfrwt>
<totfact> 0.20919839E+02</totfact>
</mgrwt>
</event>
<event>
 9    1  0.4369420E-036  0.1000187E+04  0.7818608E-02  0.8680860E-01
          1   -1    0    0  501    0  0.00000000000E+00  0.00000000000E+00  0.43689689194E+03  0.43689689194E+03  0.00000000000E+00 0.  1.
         -1   -1    0    0    0  501 -0.00000000000E+00 -0.00000000000E+00 -0.57243185367E+03  0.57243185367E+03  0.00000000000E+00 0.  1.
         36    2    1    2    0    0 -0.14210854715E-13 -0.28421709430E-13 -0.13553496173E+03  0.10093287456E+04  0.10001873779E+04 0.  0.
         25    2    3    3    0    0 -0.10996901097E+03  0.65028149773E+02  0.14267805559E+02  0.17943202685E+03  0.12518162144E+03 0.  0.
         35    2    3    3    0    0  0.10996901097E+03 -0.65028149773E+02 -0.14980276729E+03  0.82989671876E+03  0.80620459629E+03 0.  0.
         22    1    5    5    0    0 -0.18955435029E+03 -0.33132638477E+03  0.44848815812E+02  0.38434286937E+03  0.00000000000E+00 0.  1.
         22    1    5    5    0    0  0.29952336126E+03  0.26629823499E+03 -0.19465158310E+03  0.44555384939E+03  0.00000000000E+00 0.  1.
          5    1    4    4  502    0 -0.10282793501E+03  0.97419702696E+02 -0.29687704413E+01  0.14175713841E+03  0.47000000000E+01 0. -1.
         -5    1    4    4    0  502 -0.71410759596E+01 -0.32391552924E+02  0.17236576000E+02  0.37674888439E+02  0.47000000000E+01 0. -1.
<mgrwt>
<rscale>  0 0.10001874E+04</rscale>
<asrwt>0</asrwt>
<pdfrwt beam="1">  1        1 0.67214906E-01 0.10001874E+04</pdfrwt>
<pdfrwt beam="2">  1       -1 0.88066439E-01 0.10001874E+04</pdfrwt>
<totfact> 0.80259981E+01</totfact>
</mgrwt>
</event>
<event>
 9    1  0.4369420E-036  0.9996228E+03  0.7818608E-02  0.8681397E-01
          2   -1    0    0  501    0  0.00000000000E+00  0.00000000000E+00  0.12231051908E+04  0.12231051908E+04  0.00000000000E+00 0. -1.
         -2   -1    0    0    0  501 -0.00000000000E+00 -0.00000000000E+00 -0.20424361174E+03  0.20424361174E+03  0.00000000000E+00 0. -1.
         36    2    1    2    0    0  0.56843418861E-13  0.71054273576E-14  0.10188615791E+04  0.14273488026E+04  0.99962277227E+03 0.  0.
         25    2    3    3    0    0  0.68137003864E+02  0.78861125198E+00  0.23882712216E+02  0.14907564706E+03  0.13042197437E+03 0.  0.
         35    2    3    3    0    0 -0.68137003864E+02 -0.78861125198E+00  0.99497886688E+03  0.12782731555E+04  0.79959742456E+03 0.  0.
         22    1    5    5    0    0  0.35209591379E+03  0.78110838992E+02  0.57629305107E+03  0.67984300863E+03  0.00000000000E+00 0. -1.
         22    1    5    5    0    0 -0.42023291766E+03 -0.78899450244E+02  0.41868581581E+03  0.59843014687E+03  0.00000000000E+00 0. -1.
          5    1    4    4  502    0 -0.46905485945E+01 -0.29681591561E+02 -0.37988556066E+02  0.48664345426E+02  0.47000000000E+01 0.  1.
         -5    1    4    4    0  502  0.72827552459E+02  0.30470202813E+02  0.61871268282E+02  0.10041130163E+03  0.47000000000E+01 0.  1.
<mgrwt>
<rscale>  0 0.99962277E+03</rscale>
<asrwt>0</asrwt>
<pdfrwt beam="1">  1        2 0.18817002E+00 0.99962277E+03</pdfrwt>
<pdfrwt beam="2">  1       -2 0.31422095E-01 0.99962277E+03</pdfrwt>
<totfact> 0.20762656E+02</totfact>
</mgrwt>
</event>
<event>
 9    1  0.4369420E-036  0.9995737E+03  0.7818608E-02  0.8681444E-01
         -2   -1    0    0    0  501 -0.00000000000E+00  0.00000000000E+00  0.48742086521E+03  0.48742086521E+03  0.00000000000E+00 0.  1.
          2   -1    0    0  501    0  0.00000000000E+00 -0.00000000000E+00 -0.51246655048E+03  0.51246655048E+03  0.00000000000E+00 0.  1.
         36    2    1    2    0    0 -0.56843418861E-13 -0.21316282073E-13 -0.25045685266E+02  0.99988741568E+03  0.99957368798E+03 0.  0.
         25    2    3    3    0    0  0.11889701115E+03  0.10280584322E+02  0.72238448213E+02  0.18803388088E+03  0.12607996385E+03 0.  0.
         35    2    3    3    0    0 -0.11889701115E+03 -0.10280584322E+02 -0.97284133479E+02  0.81185353480E+03  0.79711967086E+03 0.  0.
         22    1    5    5    0    0 -0.36733176703E+03 -0.22724070119E+03  0.77085740535E+02  0.43876323313E+03  0.00000000000E+00 0.  1.
         22    1    5    5    0    0  0.24843475588E+03  0.21696011687E+03 -0.17436987401E+03  0.37309030168E+03  0.00000000000E+00 0.  1.
          5    1    4    4  502    0  0.13373880114E+03  0.32930125378E+02  0.35790700569E+02  0.14238512681E+03  0.47000000000E+01 0.  1.
         -5    1    4    4    0  502 -0.14841789991E+02 -0.22649541056E+02  0.36447747644E+02  0.45648754074E+02  0.47000000000E+01 0.  1.
<mgrwt>
<rscale>  0 0.99957369E+03</rscale>
<asrwt>0</asrwt>
<pdfrwt beam="1">  1        2 0.78841008E-01 0.99957369E+03</pdfrwt>
<pdfrwt beam="2">  1       -2 0.74987825E-01 0.99957369E+03</pdfrwt>
<totfact> 0.11546520E+02</totfact>
</mgrwt>
</event>
<event>
 9    1  0.4369420E-036  0.9994764E+03  0.7818608E-02  0.8681537E-01
         -1   -1    0    0    0  501 -0.00000000000E+00  0.00000000000E+00  0.86572030278E+02  0.86572030278E+02  0.00000000000E+00 0. -1.
          1   -1    0    0  501    0  0.00000000000E+00 -0.00000000000E+00 -0.28847455529E+04  0.28847455529E+04  0.00000000000E+00 0. -1.
         36    2    1    2    0    0  0.00000000000E+00 -0.28421709430E-13 -0.27981735226E+04  0.29713175832E+04  0.99947642164E+03 0.  0.
         25    2    3    3    0    0  0.52480073334E+02 -0.38031048287E+02 -0.88782253837E+03  0.89892955475E+03  0.12507983866E+03 0.  0.
         35    2    3    3    0    0 -0.52480073334E+02  0.38031048287E+02 -0.19103509843E+04  0.20723880284E+04  0.80071888863E+03 0.  0.
         22    1    5    5    0    0 -0.13417177731E+03 -0.27294130139E+03 -0.28928418235E+03  0.41974320482E+03  0.00000000000E+00 0.  1.
         22    1    5    5    0    0  0.81691703980E+02  0.31097234968E+03 -0.16210668019E+04  0.16526448236E+04  0.00000000000E+00 0.  1.
          5    1    4    4  502    0  0.11226932336E+02  0.38736848527E+02 -0.48829660337E+03  0.48998188773E+03  0.47000000000E+01 0. -1.
         -5    1    4    4    0  502  0.41253140998E+02 -0.76767896815E+02 -0.39952593500E+03  0.40894766702E+03  0.47000000000E+01 0. -1.
<mgrwt>
<rscale>  0 0.99947642E+03</rscale>
<asrwt>0</asrwt>
<pdfrwt beam="1">  1        1 0.44380701E+00 0.99947642E+03</pdfrwt>
<pdfrwt beam="2">  1       -1 0.13318774E-01 0.99947642E+03</pdfrwt>
<totfact> 0.29371027E+01</totfact>
</mgrwt>
</event>
<event>
 9    1  0.4369420E-036  0.9997168E+03  0.7818608E-02  0.8681308E-01
          2   -1    0    0  501    0  0.00000000000E+00  0.00000000000E+00  0.62131654278E+03  0.62131654278E+03  0.00000000000E+00 0. -1.
         -2   -1    0    0    0  501 -0.00000000000E+00 -0.00000000000E+00 -0.40214352917E+03  0.40214352917E+03  0.00000000000E+00 0. -1.
         36    2    1    2    0    0  0.00000000000E+00  0.00000000000E+00  0.21917301361E+03  0.10234600719E+04  0.99971681439E+03 0.  0.
         25    2    3    3    0    0  0.13615695746E+02  0.13837035023E+03  0.71562217137E+02  0.19969074971E+03  0.12419139907E+03 0.  0.
         35    2    3    3    0    0 -0.13615695746E+02 -0.13837035023E+03  0.14761079648E+03  0.82376932224E+03  0.79842044565E+03 0.  0.
         22    1    5    5    0    0 -0.91750400252E+01  0.10881150451E+03  0.43278773677E+03  0.44635115097E+03  0.00000000000E+00 0.  1.
         22    1    5    5    0    0 -0.44406557208E+01 -0.24718185473E+03 -0.28517694029E+03  0.37741817127E+03  0.00000000000E+00 0.  1.
          5    1    4    4  502    0  0.44274865685E+02  0.91830715545E+01  0.45463015364E+02  0.64292832420E+02  0.47000000000E+01 0. -1.
         -5    1    4    4    0  502 -0.30659169939E+02  0.12918727867E+03  0.26099201772E+02  0.13539791728E+03  0.47000000000E+01 0. -1.
<mgrwt>
<rscale>  0 0.99971681E+03</rscale>
<asrwt>0</asrwt>
<pdfrwt beam="1">  1        2 0.95587161E-01 0.99971681E+03</pdfrwt>
<pdfrwt beam="2">  1       -2 0.61868235E-01 0.99971681E+03</pdfrwt>
<totfact> 0.13955821E+02</totfact>
</mgrwt>
</event>
<event>
 9    1  0.4369420E-036  0.9987412E+03  0.7818608E-02  0.8682238E-01
         -1   -1    0    0    0  501 -0.00000000000E+00  0.00000000000E+00  0.35528066757E+03  0.35528066757E+03  0.00000000000E+00 0. -1.
          1   -1    0    0  501    0  0.00000000000E+00 -0.00000000000E+00 -0.70189855355E+03  0.70189855355E+03  0.00000000000E+00 0. -1.
         36    2    1    2    0    0  0.14210854715E-13  0.14210854715E-13 -0.34661788598E+03  0.10571792211E+04  0.99874118103E+03 0.  0.
         25    2    3    3    0    0 -0.84401280166E+02 -0.10973694073E+03 -0.44831071853E+02  0.19246631235E+03  0.12596699620E+03 0.  0.
         35    2    3    3    0    0  0.84401280166E+02  0.10973694073E+03 -0.30178681413E+03  0.86471290877E+03  0.79842805634E+03 0.  0.
         22    1    5    5    0    0 -0.11929375628E+03 -0.56236076338E+02  0.23363814973E+03  0.26829141168E+03  0.00000000000E+00 0.  1.
         22    1    5    5    0    0  0.20369503645E+03  0.16597301707E+03 -0.53542496386E+03  0.59642149709E+03  0.00000000000E+00 0.  1.
          5    1    4    4  502    0 -0.23219898416E+02  0.26650933999E+02  0.20991094585E+01  0.35720193533E+02  0.47000000000E+01 0. -1.
         -5    1    4    4    0  502 -0.61181381750E+02 -0.13638787473E+03 -0.46930181311E+02  0.15674611882E+03  0.47000000000E+01 0. -1.
<mgrwt>
<rscale>  0 0.99874118E+03</rscale>
<asrwt>0</asrwt>
<pdfrwt beam="1">  1        1 0.10798439E+00 0.99874118E+03</pdfrwt>
<pdfrwt beam="2">  1       -1 0.54658565E-01 0.99874118E+03</pdfrwt>
<totfact> 0.10551180E+02</totfact>
</mgrwt>
</event>
<event>
 9    1  0.4369420E-036  0.1000162E+04  0.7818608E-02  0.8680883E-01
          1   -1    0    0  501    0  0.00000000000E+00  0.00000000000E+00  0.10277631269E+04  0.10277631269E+04  0.00000000000E+00 0. -1.
         -1   -1    0    0    0  501 -0.00000000000E+00 -0.00000000000E+00 -0.24332577133E+03  0.24332577133E+03  0.00000000000E+00 0. -1.
         36    2    1    2    0    0  0.14210854715E-13  0.00000000000E+00  0.78443735556E+03  0.12710888982E+04  0.10001624980E+04 0.  0.
         25    2    3    3    0    0 -0.63427833900E+02 -0.10616884487E+03  0.23510322866E+03  0.29370601207E+03  0.12527880773E+03 0.  0.
         35    2    3    3    0    0  0.63427833900E+02  0.10616884487E+03  0.54933412691E+03  0.97738288615E+03  0.79888322639E+03 0.  0.
         22    1    5    5    0    0  0.15967468941E+03 -0.96215249373E+02 -0.15236472590E+03  0.24076625667E+03  0.00000000000E+00 0.  1.
         22    1    5    5    0    0 -0.96246855515E+02  0.20238409424E+03  0.70169885280E+03  0.73661662948E+03  0.00000000000E+00 0.  1.
          5    1    4    4  502    0 -0.47832481806E+02 -0.59045541398E+02  0.28696494852E+02  0.81362774605E+02  0.47000000000E+01 0.  1.
         -5    1    4    4    0  502 -0.15595352094E+02 -0.47123303468E+02  0.20640673381E+03  0.21234323746E+03  0.47000000000E+01 0.  1.
<mgrwt>
<rscale>  0 0.10001625E+04</rscale>
<asrwt>0</asrwt>
<pdfrwt beam="1">  1        1 0.15811740E+00 0.10001625E+04</pdfrwt>
<pdfrwt beam="2">  1       -1 0.37434735E-01 0.10001625E+04</pdfrwt>
<totfact> 0.11051915E+02</totfact>
</mgrwt>
</event>
<event>
 9    1  0.4369420E-036  0.9984166E+03  0.7818608E-02  0.8682547E-01
          2   -1    0    0  501    0  0.00000000000E+00  0.00000000000E+00  0.96068983523E+03  0.96068983523E+03  0.00000000000E+00 0.  1.
         -2   -1    0    0    0  501 -0.00000000000E+00 -0.00000000000E+00 -0.25940622741E+03  0.25940622741E+03  0.00000000000E+00 0.  1.
         36    2    1    2    0    0 -0.71054273576E-14  0.00000000000E+00  0.70128360782E+03  0.12200960626E+04  0.99841659815E+03 0.  0.
         25    2    3    3    0    0 -0.11441678577E+02  0.12695092318E+03  0.19906661551E+03  0.26699392565E+03  0.12414020308E+03 0.  0.
         35    2    3    3    0    0  0.11441678577E+02 -0.12695092318E+03  0.50221699231E+03  0.95310213698E+03  0.79995895348E+03 0.  0.
         22    1    5    5    0    0 -0.10553750456E+03 -0.45117466148E+03  0.25457127622E+03  0.52868069258E+03  0.00000000000E+00 0. -1.
         22    1    5    5    0    0  0.11697918314E+03  0.32422373831E+03  0.24764571609E+03  0.42442144440E+03  0.00000000000E+00 0. -1.
          5    1    4    4  502    0 -0.64041601886E+02  0.92621722142E+02  0.10673491891E+03  0.15522417047E+03  0.47000000000E+01 0.  1.
         -5    1    4    4    0  502  0.52599923309E+02  0.34329201036E+02  0.92331696597E+02  0.11176975518E+03  0.47000000000E+01 0.  1.
<mgrwt>
<rscale>  0 0.99841660E+03</rscale>
<asrwt>0</asrwt>
<pdfrwt beam="1">  1        2 0.14779843E+00 0.99841660E+03</pdfrwt>
<pdfrwt beam="2">  1       -2 0.39908651E-01 0.99841660E+03</pdfrwt>
<totfact> 0.19187256E+02</totfact>
</mgrwt>
</event>
<event>
 9    1  0.4369420E-036  0.9999916E+03  0.7818608E-02  0.8681046E-01
          1   -1    0    0  501    0  0.00000000000E+00  0.00000000000E+00  0.90142633204E+03  0.90142633204E+03  0.00000000000E+00 0.  1.
         -1   -1    0    0    0  501 -0.00000000000E+00 -0.00000000000E+00 -0.27733360365E+03  0.27733360365E+03  0.00000000000E+00 0.  1.
         36    2    1    2    0    0  0.00000000000E+00  0.28421709430E-13  0.62409272840E+03  0.11787599357E+04  0.99999162614E+03 0.  0.
         25    2    3    3    0    0 -0.12154760490E+03  0.63348496549E+02  0.14383702398E+03  0.23535595102E+03  0.12616054035E+03 0.  0.
         35    2    3    3    0    0  0.12154760490E+03 -0.63348496549E+02  0.48025570441E+03  0.94340398467E+03  0.80036159603E+03 0.  0.
         22    1    5    5    0    0  0.16713156885E+02 -0.38128499688E+03  0.47402733153E+03  0.60857167983E+03  0.00000000000E+00 0. -1.
         22    1    5    5    0    0  0.10483444802E+03  0.31793650033E+03  0.62283728844E+01  0.33483230484E+03  0.00000000000E+00 0. -1.
          5    1    4    4  502    0 -0.62964958180E+02  0.17082667147E+02 -0.81942332156E+01  0.65921460340E+02  0.47000000000E+01 0.  1.
         -5    1    4    4    0  502 -0.58582646721E+02  0.46265829403E+02  0.15203125720E+03  0.16943449068E+03  0.47000000000E+01 0.  1.
<mgrwt>
<rscale>  0 0.99999163E+03</rscale>
<asrwt>0</asrwt>
<pdfrwt beam="1">  1        1 0.13868097E+00 0.99999163E+03</pdfrwt>
<pdfrwt beam="2">  1       -1 0.42666708E-01 0.99999163E+03</pdfrwt>
<totfact> 0.11074201E+02</totfact>
</mgrwt>
</event>
<event>
 9    1  0.4369420E-036  0.1000615E+04  0.7818608E-02  0.8680452E-01
         -1   -1    0    0    0  501 -0.00000000000E+00  0.00000000000E+00  0.79476662474E+03  0.79476662474E+03  0.00000000000E+00 0. -1.
          1   -1    0    0  501    0  0.00000000000E+00 -0.00000000000E+00 -0.31494491747E+03  0.31494491747E+03  0.00000000000E+00 0. -1.
         36    2    1    2    0    0 -0.35527136788E-14 -0.35527136788E-14  0.47982170727E+03  0.11097115422E+04  0.10006152288E+04 0.  0.
         25    2    3    3    0    0 -0.68440271110E+01  0.30164577376E+02 -0.62112482998E+02  0.14322471926E+03  0.12529412287E+03 0.  0.
         35    2    3    3    0    0  0.68440271110E+01 -0.30164577376E+02  0.54193419027E+03  0.96648682295E+03  0.79965453160E+03 0.  0.
         22    1    5    5    0    0 -0.25401188440E+02  0.38378514641E+03  0.27633540744E+03  0.47360058740E+03  0.00000000000E+00 0. -1.
         22    1    5    5    0    0  0.32245215551E+02 -0.41394972379E+03  0.26559878283E+03  0.49288623555E+03  0.00000000000E+00 0. -1.
          5    1    4    4  502    0 -0.43568412733E+02 -0.20529986114E+02 -0.64223523517E+02  0.80414164740E+02  0.47000000000E+01 0. -1.
         -5    1    4    4    0  502  0.36724385622E+02  0.50694563491E+02  0.21110405191E+01  0.62810554518E+02  0.47000000000E+01 0. -1.
<mgrwt>
<rscale>  0 0.10006152E+04</rscale>
<asrwt>0</asrwt>
<pdfrwt beam="1">  1        1 0.48453065E-01 0.10006152E+04</pdfrwt>
<pdfrwt beam="2">  1       -1 0.12227179E+00 0.10006152E+04</pdfrwt>
<totfact> 0.58422924E+01</totfact>
</mgrwt>
</event>
<event>
 9    1  0.4369420E-036  0.1000941E+04  0.7818608E-02  0.8680143E-01
         -2   -1    0    0    0  501 -0.00000000000E+00  0.00000000000E+00  0.25746514902E+03  0.25746514902E+03  0.00000000000E+00 0. -1.
          2   -1    0    0  501    0  0.00000000000E+00 -0.00000000000E+00 -0.97283306032E+03  0.97283306032E+03  0.00000000000E+00 0. -1.
         36    2    1    2    0    0 -0.14210854715E-13  0.26645352591E-13 -0.71536791130E+03  0.12302982093E+04  0.10009407752E+04 0.  0.
         25    2    3    3    0    0 -0.12746849394E+03  0.65979481751E+01 -0.64952994612E+02  0.19028572947E+03  0.12529172943E+03 0.  0.
         35    2    3    3    0    0  0.12746849394E+03 -0.65979481751E+01 -0.65041491669E+03  0.10400124799E+04  0.80143286965E+03 0.  0.
         22    1    5    5    0    0  0.25012460567E+03  0.34140800245E+03 -0.45895506626E+03  0.62430881408E+03  0.00000000000E+00 0. -1.
         22    1    5    5    0    0 -0.12265611173E+03 -0.34800595063E+03 -0.19145985043E+03  0.41570366578E+03  0.00000000000E+00 0. -1.
          5    1    4    4  502    0  0.18845197451E+02  0.16333895816E+02  0.77670020358E+01  0.26539667295E+02  0.47000000000E+01 0. -1.
         -5    1    4    4    0  502 -0.14631369139E+03 -0.97359476411E+01 -0.72719996648E+02  0.16374606217E+03  0.47000000000E+01 0. -1.
<mgrwt>
<rscale>  0 0.10009408E+04</rscale>
<asrwt>0</asrwt>
<pdfrwt beam="1">  1        2 0.14966663E+00 0.10009408E+04</pdfrwt>
<pdfrwt beam="2">  1       -2 0.39610023E-01 0.10009408E+04</pdfrwt>
<totfact> 0.19120531E+02</totfact>
</mgrwt>
</event>
<event>
 9    1  0.4369420E-036  0.1011379E+04  0.7818608E-02  0.8670277E-01
          2   -1    0    0  501    0  0.00000000000E+00  0.00000000000E+00  0.11477695727E+04  0.11477695727E+04  0.00000000000E+00 0.  1.
         -2   -1    0    0    0  501 -0.00000000000E+00 -0.00000000000E+00 -0.22279898360E+03  0.22279898360E+03  0.00000000000E+00 0.  1.
         36    2    1    2    0    0 -0.14210854715E-13  0.14210854715E-13  0.92497058908E+03  0.13705685563E+04  0.10113790470E+04 0.  0.
         25    2    3    3    0    0 -0.93377904197E+02 -0.11710136641E+03  0.16810304708E+03  0.25741267572E+03  0.12478176218E+03 0.  0.
         35    2    3    3    0    0  0.93377904197E+02  0.11710136641E+03  0.75686754199E+03  0.11131558806E+04  0.80239352894E+03 0.  0.
         22    1    5    5    0    0 -0.27173615679E+03 -0.43389680730E+01  0.66380100743E+03  0.71728037964E+03  0.00000000000E+00 0. -1.
         22    1    5    5    0    0  0.36511406099E+03  0.12144033448E+03  0.93066534564E+02  0.39587550092E+03  0.00000000000E+00 0. -1.
          5    1    4    4  502    0  0.13083857553E+02 -0.79673511690E+02  0.56725134998E+02  0.98787077768E+02  0.47000000000E+01 0. -1.
         -5    1    4    4    0  502 -0.10646176175E+03 -0.37427854721E+02  0.11137791208E+03  0.15862559795E+03  0.47000000000E+01 0. -1.
<mgrwt>
<rscale>  0 0.10113790E+04</rscale>
<asrwt>0</asrwt>
<pdfrwt beam="1">  1        2 0.17657993E+00 0.10113790E+04</pdfrwt>
<pdfrwt beam="2">  1       -2 0.34276767E-01 0.10113790E+04</pdfrwt>
<totfact> 0.19597068E+02</totfact>
</mgrwt>
</event>
<event>
 9    1  0.4369420E-036  0.1000089E+04  0.7818608E-02  0.8680953E-01
         -2   -1    0    0    0  501 -0.00000000000E+00  0.00000000000E+00  0.61442779054E+03  0.61442779054E+03  0.00000000000E+00 0. -1.
          2   -1    0    0  501    0  0.00000000000E+00 -0.00000000000E+00 -0.40695481183E+03  0.40695481183E+03  0.00000000000E+00 0. -1.
         36    2    1    2    0    0  0.21316282073E-13 -0.56843418861E-13  0.20747297871E+03  0.10213826024E+04  0.10000886878E+04 0.  0.
         25    2    3    3    0    0 -0.15575562812E+02 -0.13714940156E+03  0.56749365129E+02  0.19519072684E+03  0.12580291290E+03 0.  0.
         35    2    3    3    0    0  0.15575562812E+02  0.13714940156E+03  0.15072361358E+03  0.82619187553E+03  0.80051411667E+03 0.  0.
         22    1    5    5    0    0  0.15591162462E+03  0.43314826449E+03 -0.11809421948E+02  0.46050550070E+03  0.00000000000E+00 0. -1.
         22    1    5    5    0    0 -0.14033606181E+03 -0.29599886293E+03  0.16253303553E+03  0.36568637483E+03  0.00000000000E+00 0. -1.
          5    1    4    4  502    0  0.51754863488E+02 -0.32232202465E+02  0.99863342925E+01  0.61962066162E+02  0.47000000000E+01 0.  1.
         -5    1    4    4    0  502 -0.67330426300E+02 -0.10491719910E+03  0.46763030837E+02  0.13322866068E+03  0.47000000000E+01 0.  1.
<mgrwt>
<rscale>  0 0.10000887E+04</rscale>
<asrwt>0</asrwt>
<pdfrwt beam="1">  1        2 0.62608433E-01 0.10000887E+04</pdfrwt>
<pdfrwt beam="2">  1       -2 0.94527352E-01 0.10000887E+04</pdfrwt>
<totfact> 0.87666674E+01</totfact>
</mgrwt>
</event>
<event>
 9    1  0.4369420E-036  0.9978903E+03  0.7818608E-02  0.8683050E-01
         -2   -1    0    0    0  501 -0.00000000000E+00  0.00000000000E+00  0.10856921544E+03  0.10856921544E+03  0.00000000000E+00 0. -1.
          2   -1    0    0  501    0  0.00000000000E+00 -0.00000000000E+00 -0.22929727214E+04  0.22929727214E+04  0.00000000000E+00 0. -1.
         36    2    1    2    0    0 -0.71054273576E-14 -0.14210854715E-13 -0.21844035059E+04  0.24015419368E+04  0.99789027328E+03 0.  0.
         25    2    3    3    0    0  0.34476423954E+02 -0.12418792708E+03 -0.52027282708E+03  0.55077539386E+03  0.12672195883E+03 0.  0.
         35    2    3    3    0    0 -0.34476423954E+02  0.12418792708E+03 -0.16641306789E+04  0.18507665429E+04  0.79962154494E+03 0.  0.
         22    1    5    5    0    0  0.33355834236E+03  0.17652465816E+03 -0.48563290067E+03  0.61502962280E+03  0.00000000000E+00 0.  1.
         22    1    5    5    0    0 -0.36803476632E+03 -0.52336731085E+02 -0.11784977782E+04  0.12357369201E+04  0.00000000000E+00 0.  1.
          5    1    4    4  502    0 -0.70499293205E+01 -0.78515996494E+02 -0.45103893832E+03  0.45790029164E+03  0.47000000000E+01 0.  1.
         -5    1    4    4    0  502  0.41526353275E+02 -0.45671930584E+02 -0.69233888761E+02  0.92875102221E+02  0.47000000000E+01 0.  1.
<mgrwt>
<rscale>  0 0.99789027E+03</rscale>
<asrwt>0</asrwt>
<pdfrwt beam="1">  1        2 0.35276501E+00 0.99789027E+03</pdfrwt>
<pdfrwt beam="2">  1       -2 0.16702957E-01 0.99789027E+03</pdfrwt>
<totfact> 0.15450614E+02</totfact>
</mgrwt>
</event>
<event>
 9    1  0.4369420E-036  0.9993855E+03  0.7818608E-02  0.8681623E-01
         -2   -1    0    0    0  501 -0.00000000000E+00  0.00000000000E+00  0.13574813538E+04  0.13574813538E+04  0.00000000000E+00 0.  1.
          2   -1    0    0  501    0  0.00000000000E+00 -0.00000000000E+00 -0.18393832003E+03  0.18393832003E+03  0.00000000000E+00 0.  1.
         36    2    1    2    0    0  0.00000000000E+00  0.71054273576E-14  0.11735430338E+04  0.15414196739E+04  0.99938549060E+03 0.  0.
         25    2    3    3    0    0 -0.68578074155E+02 -0.45464311930E+02  0.36454780858E+03  0.39400282033E+03  0.12479247482E+03 0.  0.
         35    2    3    3    0    0  0.68578074155E+02  0.45464311930E+02  0.80899522524E+03  0.11474168536E+04  0.80951973754E+03 0.  0.
         22    1    5    5    0    0 -0.23840705412E+03  0.82923977547E+00 -0.41607918695E+02  0.24201204514E+03  0.00000000000E+00 0. -1.
         22    1    5    5    0    0  0.30698512827E+03  0.44635072154E+02  0.85060314393E+03  0.90540480842E+03  0.00000000000E+00 0. -1.
          5    1    4    4  502    0  0.21685582653E+02  0.23133662586E+02  0.12335926361E+03  0.12745598754E+03  0.47000000000E+01 0. -1.
         -5    1    4    4    0  502 -0.90263656808E+02 -0.68597974516E+02  0.24118854496E+03  0.26654683279E+03  0.47000000000E+01 0. -1.
<mgrwt>
<rscale>  0 0.99938549E+03</rscale>
<asrwt>0</asrwt>
<pdfrwt beam="1">  1        2 0.28298204E-01 0.99938549E+03</pdfrwt>
<pdfrwt beam="2">  1       -2 0.20884328E+00 0.99938549E+03</pdfrwt>
<totfact> 0.24032750E+01</totfact>
</mgrwt>
</event>
<event>
 9    1  0.4369420E-036  0.9998161E+03  0.7818608E-02  0.8681213E-01
          1   -1    0    0  501    0  0.00000000000E+00  0.00000000000E+00  0.14511403850E+04  0.14511403850E+04  0.00000000000E+00 0. -1.
         -1   -1    0    0    0  501 -0.00000000000E+00 -0.00000000000E+00 -0.17221493052E+03  0.17221493052E+03  0.00000000000E+00 0. -1.
         36    2    1    2    0    0  0.00000000000E+00  0.19539925233E-13  0.12789254545E+04  0.16233553155E+04  0.99981606422E+03 0.  0.
         25    2    3    3    0    0 -0.39588321622E+00 -0.34718050435E+00  0.46601886859E+03  0.48266131627E+03  0.12565063903E+03 0.  0.
         35    2    3    3    0    0  0.39588321622E+00  0.34718050435E+00  0.81290658588E+03  0.11406939992E+04  0.80022834569E+03 0.  0.
         22    1    5    5    0    0 -0.24382896823E+03 -0.26469462491E+03  0.65469869501E+03  0.74709182263E+03  0.00000000000E+00 0. -1.
         22    1    5    5    0    0  0.24422485145E+03  0.26504180542E+03  0.15820789087E+03  0.39360217659E+03  0.00000000000E+00 0. -1.
          5    1    4    4  502    0 -0.46911917064E+02  0.83354655724E+01  0.76476187812E+02  0.90226965211E+02  0.47000000000E+01 0. -1.
         -5    1    4    4    0  502  0.46516033848E+02 -0.86826460768E+01  0.38954268078E+03  0.39243435106E+03  0.47000000000E+01 0. -1.
<mgrwt>
<rscale>  0 0.99981606E+03</rscale>
<asrwt>0</asrwt>
<pdfrwt beam="1">  1        1 0.22325236E+00 0.99981606E+03</pdfrwt>
<pdfrwt beam="2">  1       -1 0.26494606E-01 0.99981606E+03</pdfrwt>
<totfact> 0.97115503E+01</totfact>
</mgrwt>
</event>
<event>
 9    1  0.4369420E-036  0.9998631E+03  0.7818608E-02  0.8681168E-01
         -2   -1    0    0    0  501 -0.00000000000E+00  0.00000000000E+00  0.62602340597E+03  0.62602340597E+03  0.00000000000E+00 0. -1.
          2   -1    0    0  501    0  0.00000000000E+00 -0.00000000000E+00 -0.39923676024E+03  0.39923676024E+03  0.00000000000E+00 0. -1.
         36    2    1    2    0    0  0.00000000000E+00  0.00000000000E+00  0.22678664573E+03  0.10252601662E+04  0.99986310350E+03 0.  0.
         25    2    3    3    0    0  0.11927744546E+03 -0.80975194418E+02  0.57385422381E+02  0.19906527396E+03  0.12469885922E+03 0.  0.
         35    2    3    3    0    0 -0.11927744546E+03  0.80975194418E+02  0.16940122335E+03  0.82619489225E+03  0.79568658051E+03 0.  0.
         22    1    5    5    0    0  0.19654866034E+03 -0.18015248872E+03  0.29495176066E+03  0.39759632316E+03  0.00000000000E+00 0.  1.
         22    1    5    5    0    0 -0.31582610580E+03  0.26112768313E+03 -0.12555053731E+03  0.42859856909E+03  0.00000000000E+00 0.  1.
          5    1    4    4  502    0  0.13059651059E+03 -0.30002452498E+02  0.22147626214E+02  0.13589776702E+03  0.47000000000E+01 0. -1.
         -5    1    4    4    0  502 -0.11319065133E+02 -0.50972741920E+02  0.35237796167E+02  0.63167506940E+02  0.47000000000E+01 0. -1.
<mgrwt>
<rscale>  0 0.99986310E+03</rscale>
<asrwt>0</asrwt>
<pdfrwt beam="1">  1        2 0.61421040E-01 0.99986310E+03</pdfrwt>
<pdfrwt beam="2">  1       -2 0.96311293E-01 0.99986310E+03</pdfrwt>
<totfact> 0.85660850E+01</totfact>
</mgrwt>
</event>
<event>
 9    1  0.4369420E-036  0.9995722E+03  0.7818608E-02  0.8681445E-01
         -1   -1    0    0    0  501 -0.00000000000E+00  0.00000000000E+00  0.31153117487E+03  0.31153117487E+03  0.00000000000E+00 0.  1.
          1   -1    0    0  501    0  0.00000000000E+00 -0.00000000000E+00 -0.80180142918E+03  0.80180142918E+03  0.00000000000E+00 0.  1.
         36    2    1    2    0    0 -0.56843418861E-13  0.00000000000E+00 -0.49027025431E+03  0.11133326040E+04  0.99957219098E+03 0.  0.
         25    2    3    3    0    0 -0.12105026489E+03 -0.64377003176E+02 -0.60252209151E+02  0.19473503563E+03  0.12447425526E+03 0.  0.
         35    2    3    3    0    0  0.12105026489E+03  0.64377003176E+02 -0.43001804516E+03  0.91859756842E+03  0.80006775237E+03 0.  0.
         22    1    5    5    0    0 -0.34228079509E+03 -0.73434824873E+01 -0.19778723982E+03  0.39538571252E+03  0.00000000000E+00 0. -1.
         22    1    5    5    0    0  0.46333105999E+03  0.71720485663E+02 -0.23223080534E+03  0.52321185591E+03  0.00000000000E+00 0. -1.
          5    1    4    4  502    0 -0.89606010303E+02 -0.10002944999E+03 -0.59496947491E+02  0.14695953426E+03  0.47000000000E+01 0. -1.
         -5    1    4    4    0  502 -0.31444254591E+02  0.35652446817E+02 -0.75526166002E+00  0.47775501369E+02  0.47000000000E+01 0. -1.
<mgrwt>
<rscale>  0 0.99957219E+03</rscale>
<asrwt>0</asrwt>
<pdfrwt beam="1">  1        1 0.12335406E+00 0.99957219E+03</pdfrwt>
<pdfrwt beam="2">  1       -1 0.47927874E-01 0.99957219E+03</pdfrwt>
<totfact> 0.10911027E+02</totfact>
</mgrwt>
</event>
<event>
 9    1  0.4369420E-036  0.1000249E+04  0.7818608E-02  0.8680801E-01
         -2   -1    0    0    0  501 -0.00000000000E+00  0.00000000000E+00  0.26605918874E+03  0.26605918874E+03  0.00000000000E+00 0.  1.
          2   -1    0    0  501    0  0.00000000000E+00 -0.00000000000E+00 -0.94010801964E+03  0.94010801964E+03  0.00000000000E+00 0.  1.
         36    2    1    2    0    0 -0.14210854715E-13 -0.71054273576E-14 -0.67404883090E+03  0.12061672084E+04  0.10002487231E+04 0.  0.
         25    2    3    3    0    0  0.74975151695E+02 -0.56110299736E+02 -0.44829274144E+00  0.15618578710E+03  0.12499664003E+03 0.  0.
         35    2    3    3    0    0 -0.74975151695E+02  0.56110299736E+02 -0.67360053816E+03  0.10499814213E+04  0.79997103756E+03 0.  0.
         22    1    5    5    0    0  0.14002819734E+03 -0.19419395772E+03  0.58933245730E+02  0.24656097971E+03  0.00000000000E+00 0. -1.
         22    1    5    5    0    0 -0.21500334904E+03  0.25030425745E+03 -0.73253378389E+03  0.80342044157E+03  0.00000000000E+00 0. -1.
          5    1    4    4  502    0  0.27609013217E+02 -0.37201444420E+02  0.60647598734E+02  0.76461927192E+02  0.47000000000E+01 0.  1.
         -5    1    4    4    0  502  0.47366138478E+02 -0.18908855316E+02 -0.61095891475E+02  0.79723859909E+02  0.47000000000E+01 0.  1.
<mgrwt>
<rscale>  0 0.10002487E+04</rscale>
<asrwt>0</asrwt>
<pdfrwt beam="1">  1        2 0.14463201E+00 0.10002487E+04</pdfrwt>
<pdfrwt beam="2">  1       -2 0.40932182E-01 0.10002487E+04</pdfrwt>
<totfact> 0.18842050E+02</totfact>
</mgrwt>
</event>
<event>
 9    1  0.4369420E-036  0.1002022E+04  0.7818608E-02  0.8679115E-01
         -1   -1    0    0    0  501 -0.00000000000E+00  0.00000000000E+00  0.47165007592E+03  0.47165007592E+03  0.00000000000E+00 0. -1.
          1   -1    0    0  501    0  0.00000000000E+00 -0.00000000000E+00 -0.53219977779E+03  0.53219977779E+03  0.00000000000E+00 0. -1.
         36    2    1    2    0    0  0.14210854715E-13 -0.71054273576E-14 -0.60549701865E+02  0.10038498537E+04  0.10020220868E+04 0.  0.
         25    2    3    3    0    0  0.83483555601E+02 -0.23674285964E+02 -0.12375303684E+03  0.19619175700E+03  0.12508563273E+03 0.  0.
         35    2    3    3    0    0 -0.83483555601E+02  0.23674285964E+02  0.63203334973E+02  0.80765809671E+03  0.80049170124E+03 0.  0.
         22    1    5    5    0    0  0.57498047025E+02  0.35390550893E+03 -0.15156373013E+03  0.38926430475E+03  0.00000000000E+00 0. -1.
         22    1    5    5    0    0 -0.14098160263E+03 -0.33023122297E+03  0.21476706510E+03  0.41839379196E+03  0.00000000000E+00 0. -1.
          5    1    4    4  502    0  0.37789308480E+02 -0.31221078757E+02  0.13664312260E+02  0.51103728080E+02  0.47000000000E+01 0.  1.
         -5    1    4    4    0  502  0.45694247122E+02  0.75467927930E+01 -0.13741734910E+03  0.14508802892E+03  0.47000000000E+01 0.  1.
<mgrwt>
<rscale>  0 0.10020221E+04</rscale>
<asrwt>0</asrwt>
<pdfrwt beam="1">  1        1 0.81876889E-01 0.10020221E+04</pdfrwt>
<pdfrwt beam="2">  1       -1 0.72561550E-01 0.10020221E+04</pdfrwt>
<totfact> 0.91466708E+01</totfact>
</mgrwt>
</event>
<event>
 9    1  0.4369420E-036  0.1002053E+04  0.7818608E-02  0.8679085E-01
          2   -1    0    0  501    0  0.00000000000E+00  0.00000000000E+00  0.13479040034E+04  0.13479040034E+04  0.00000000000E+00 0. -1.
         -2   -1    0    0    0  501 -0.00000000000E+00 -0.00000000000E+00 -0.18623552229E+03  0.18623552229E+03  0.00000000000E+00 0. -1.
         36    2    1    2    0    0  0.35527136788E-14  0.21316282073E-13  0.11616684812E+04  0.15341395257E+04  0.10020531045E+04 0.  0.
         25    2    3    3    0    0  0.31722131217E+02  0.12158277043E+02  0.43281246892E+03  0.45188777787E+03  0.12538665488E+03 0.  0.
         35    2    3    3    0    0 -0.31722131217E+02 -0.12158277043E+02  0.72885601224E+03  0.10822517479E+04  0.79930197165E+03 0.  0.
         22    1    5    5    0    0  0.29387531480E+02  0.14945793637E+03  0.85491020307E+03  0.86837362758E+03  0.00000000000E+00 0. -1.
         22    1    5    5    0    0 -0.61109662696E+02 -0.16161621342E+03 -0.12605419084E+03  0.21387812030E+03  0.00000000000E+00 0. -1.
          5    1    4    4  502    0 -0.53978357961E+01  0.54484325038E+02  0.98113033754E+02  0.11245414932E+03  0.47000000000E+01 0.  1.
         -5    1    4    4    0  502  0.37119967013E+02 -0.42326047994E+02  0.33469943517E+03  0.33943362855E+03  0.47000000000E+01 0.  1.
<mgrwt>
<rscale>  0 0.10020531E+04</rscale>
<asrwt>0</asrwt>
<pdfrwt beam="1">  1        2 0.20736984E+00 0.10020531E+04</pdfrwt>
<pdfrwt beam="2">  1       -2 0.28651620E-01 0.10020531E+04</pdfrwt>
<totfact> 0.20786089E+02</totfact>
</mgrwt>
</event>
<event>
 9    1  0.4369420E-036  0.1014947E+04  0.7818608E-02  0.8666933E-01
         -2   -1    0    0    0  501 -0.00000000000E+00  0.00000000000E+00  0.13720992782E+04  0.13720992782E+04  0.00000000000E+00 0.  1.
          2   -1    0    0  501    0  0.00000000000E+00 -0.00000000000E+00 -0.18769012130E+03  0.18769012130E+03  0.00000000000E+00 0.  1.
         36    2    1    2    0    0 -0.14210854715E-13  0.14210854715E-13  0.11844091569E+04  0.15597893995E+04  0.10149472498E+04 0.  0.
         25    2    3    3    0    0 -0.67343814473E+02 -0.58308281287E+02  0.42624529731E+03  0.45326161100E+03  0.12580138915E+03 0.  0.
         35    2    3    3    0    0  0.67343814473E+02  0.58308281287E+02  0.75816385961E+03  0.11065277885E+04  0.80103449598E+03 0.  0.
         22    1    5    5    0    0 -0.47545185762E+02  0.27610901644E+03  0.80808219048E+03  0.85527396793E+03  0.00000000000E+00 0.  1.
         22    1    5    5    0    0  0.11488900023E+03 -0.21780073515E+03 -0.49918330872E+02  0.25125382060E+03  0.00000000000E+00 0.  1.
          5    1    4    4  502    0 -0.63356642341E+02 -0.91720769445E+02  0.37890406305E+03  0.39499005389E+03  0.47000000000E+01 0. -1.
         -5    1    4    4    0  502 -0.39871721324E+01  0.33412488158E+02  0.47341234262E+02  0.58271557109E+02  0.47000000000E+01 0. -1.
<mgrwt>
<rscale>  0 0.10149472E+04</rscale>
<asrwt>0</asrwt>
<pdfrwt beam="1">  1        2 0.28875404E-01 0.10149472E+04</pdfrwt>
<pdfrwt beam="2">  1       -2 0.21109219E+00 0.10149472E+04</pdfrwt>
<totfact> 0.22645801E+01</totfact>
</mgrwt>
</event>
<event>
 9    1  0.4369420E-036  0.1000413E+04  0.7818608E-02  0.8680644E-01
          3   -1    0    0  501    0  0.00000000000E+00  0.00000000000E+00  0.28659523934E+03  0.28659523934E+03  0.00000000000E+00 0. -1.
         -3   -1    0    0    0  501 -0.00000000000E+00 -0.00000000000E+00 -0.87303152531E+03  0.87303152531E+03  0.00000000000E+00 0. -1.
         36    2    1    2    0    0  0.00000000000E+00 -0.28421709430E-13 -0.58643628596E+03  0.11596267646E+04  0.10004132725E+04 0.  0.
         25    2    3    3    0    0 -0.10797933514E+03  0.88303191125E+02 -0.86888212468E+02  0.20654093467E+03  0.12511037467E+03 0.  0.
         35    2    3    3    0    0  0.10797933514E+03 -0.88303191125E+02 -0.49954807349E+03  0.95308582997E+03  0.79960448422E+03 0.  0.
         22    1    5    5    0    0  0.11898381932E+03  0.33724285764E+03 -0.35401861643E+03  0.50320877881E+03  0.00000000000E+00 0. -1.
         22    1    5    5    0    0 -0.11004484175E+02 -0.42554604877E+03 -0.14552945706E+03  0.44987705116E+03  0.00000000000E+00 0. -1.
          5    1    4    4  502    0 -0.93426592460E+02  0.73808872695E+02 -0.21015814631E+01  0.11917543586E+03  0.47000000000E+01 0. -1.
         -5    1    4    4    0  502 -0.14552742685E+02  0.14494318429E+02 -0.84786631005E+02  0.87365498817E+02  0.47000000000E+01 0. -1.
<mgrwt>
<rscale>  0 0.10004133E+04</rscale>
<asrwt>0</asrwt>
<pdfrwt beam="1">  1        3 0.44091575E-01 0.10004133E+04</pdfrwt>
<pdfrwt beam="2">  1       -3 0.13431254E+00 0.10004133E+04</pdfrwt>
<totfact> 0.73598769E+00</totfact>
</mgrwt>
</event>
<event>
 9    1  0.4369420E-036  0.9994783E+03  0.7818608E-02  0.8681535E-01
         -2   -1    0    0    0  501 -0.00000000000E+00  0.00000000000E+00  0.37522350461E+03  0.37522350461E+03  0.00000000000E+00 0.  1.
          2   -1    0    0  501    0  0.00000000000E+00 -0.00000000000E+00 -0.66557457091E+03  0.66557457091E+03  0.00000000000E+00 0.  1.
         36    2    1    2    0    0 -0.14210854715E-13 -0.35527136788E-14 -0.29035106630E+03  0.10407980755E+04  0.99947831008E+03 0.  0.
         25    2    3    3    0    0 -0.74380261778E+02  0.23829562836E+01  0.67384590892E+02  0.16072934943E+03  0.12551947600E+03 0.  0.
         35    2    3    3    0    0  0.74380261778E+02 -0.23829562836E+01 -0.35773565719E+03  0.88006872610E+03  0.80062978985E+03 0.  0.
         22    1    5    5    0    0  0.32626238611E+03  0.79467502008E+01  0.11358878787E+03  0.34556143905E+03  0.00000000000E+00 0.  1.
         22    1    5    5    0    0 -0.25188212433E+03 -0.10329706484E+02 -0.47132444506E+03  0.53450728705E+03  0.00000000000E+00 0.  1.
          5    1    4    4  502    0  0.25547103001E+02 -0.30539095120E+02  0.24714498507E+02  0.47097635174E+02  0.47000000000E+01 0.  1.
         -5    1    4    4    0  502 -0.99927364779E+02  0.32922051404E+02  0.42670092385E+02  0.11363171425E+03  0.47000000000E+01 0.  1.
<mgrwt>
<rscale>  0 0.99947831E+03</rscale>
<asrwt>0</asrwt>
<pdfrwt beam="1">  1        2 0.10239609E+00 0.99947831E+03</pdfrwt>
<pdfrwt beam="2">  1       -2 0.57726693E-01 0.99947831E+03</pdfrwt>
<totfact> 0.14842302E+02</totfact>
</mgrwt>
</event>
<event>
 9    1  0.4369420E-036  0.9958374E+03  0.7818608E-02  0.8685012E-01
         -2   -1    0    0    0  501 -0.00000000000E+00  0.00000000000E+00  0.38665661323E+03  0.38665661323E+03  0.00000000000E+00 0. -1.
          2   -1    0    0  501    0  0.00000000000E+00 -0.00000000000E+00 -0.64119686159E+03  0.64119686159E+03  0.00000000000E+00 0. -1.
         36    2    1    2    0    0  0.00000000000E+00 -0.35527136788E-14 -0.25454024836E+03  0.10278534748E+04  0.99583735000E+03 0.  0.
         25    2    3    3    0    0 -0.29724152981E+02 -0.21468678543E+02 -0.18406542078E+03  0.22375924334E+03  0.12183468481E+03 0.  0.
         35    2    3    3    0    0  0.29724152981E+02  0.21468678543E+02 -0.70474827575E+02  0.80409423148E+03  0.80016023542E+03 0.  0.
         22    1    5    5    0    0  0.73885888295E+02  0.56557405769E+02 -0.43011157749E+03  0.44006117044E+03  0.00000000000E+00 0.  1.
         22    1    5    5    0    0 -0.44161735314E+02 -0.35088727226E+02  0.35963674991E+03  0.36403306104E+03  0.00000000000E+00 0.  1.
          5    1    4    4  502    0 -0.62844683683E+02 -0.40043952606E+02 -0.66022452450E+02  0.99669587312E+02  0.47000000000E+01 0. -1.
         -5    1    4    4    0  502  0.33120530702E+02  0.18575274063E+02 -0.11804296833E+03  0.12408965603E+03  0.47000000000E+01 0. -1.
<mgrwt>
<rscale>  0 0.99583735E+03</rscale>
<asrwt>0</asrwt>
<pdfrwt beam="1">  1        2 0.98645670E-01 0.99583735E+03</pdfrwt>
<pdfrwt beam="2">  1       -2 0.59485633E-01 0.99583735E+03</pdfrwt>
<totfact> 0.14590690E+02</totfact>
</mgrwt>
</event>
<event>
 9    1  0.4369420E-036  0.9989442E+03  0.7818608E-02  0.8682044E-01
          2   -1    0    0  501    0  0.00000000000E+00  0.00000000000E+00  0.14812946727E+03  0.14812946727E+03  0.00000000000E+00 0.  1.
         -2   -1    0    0    0  501 -0.00000000000E+00 -0.00000000000E+00 -0.16841509831E+04  0.16841509831E+04  0.00000000000E+00 0.  1.
         36    2    1    2    0    0  0.00000000000E+00  0.28421709430E-13 -0.15360215158E+04  0.18322804503E+04  0.99894421850E+03 0.  0.
         25    2    3    3    0    0  0.74551950960E+02  0.13304066794E+03 -0.25489671501E+03  0.32180258482E+03  0.12380127444E+03 0.  0.
         35    2    3    3    0    0 -0.74551950960E+02 -0.13304066794E+03 -0.12811248008E+04  0.15104778655E+04  0.78549653997E+03 0.  0.
         22    1    5    5    0    0 -0.15801098924E+03 -0.42809020095E+03 -0.97845762819E+03  0.10796332817E+04  0.00000000000E+00 0. -1.
         22    1    5    5    0    0  0.83459038276E+02  0.29504953301E+03 -0.30266717259E+03  0.43084458377E+03  0.00000000000E+00 0. -1.
          5    1    4    4  502    0  0.64613461848E+02  0.15179599911E+03 -0.18179659473E+03  0.24553821832E+03  0.47000000000E+01 0.  1.
         -5    1    4    4    0  502  0.99384891118E+01 -0.18755331169E+02 -0.73100120280E+02  0.76264366502E+02  0.47000000000E+01 0.  1.
<mgrwt>
<rscale>  0 0.99894422E+03</rscale>
<asrwt>0</asrwt>
<pdfrwt beam="1">  1        2 0.22789148E-01 0.99894422E+03</pdfrwt>
<pdfrwt beam="2">  1       -2 0.25910016E+00 0.99894422E+03</pdfrwt>
<totfact> 0.14776849E+01</totfact>
</mgrwt>
</event>
<event>
 9    1  0.4369420E-036  0.1000247E+04  0.7818608E-02  0.8680802E-01
          2   -1    0    0  501    0  0.00000000000E+00  0.00000000000E+00  0.16709385999E+04  0.16709385999E+04  0.00000000000E+00 0.  1.
         -2   -1    0    0    0  501 -0.00000000000E+00 -0.00000000000E+00 -0.14969055942E+03  0.14969055942E+03  0.00000000000E+00 0.  1.
         36    2    1    2    0    0  0.21316282073E-13  0.30198066270E-13  0.15212480405E+04  0.18206291593E+04  0.10002474369E+04 0.  0.
         25    2    3    3    0    0  0.34590802296E+02 -0.13937370413E+02  0.52718095051E+03  0.54391912570E+03  0.12859816027E+03 0.  0.
         35    2    3    3    0    0 -0.34590802296E+02  0.13937370413E+02  0.99406708995E+03  0.12767100336E+04  0.80026767814E+03 0.  0.
         22    1    5    5    0    0 -0.14759950551E+03 -0.27829133123E+03  0.10183206954E+03  0.33106109625E+03  0.00000000000E+00 0.  1.
         22    1    5    5    0    0  0.11300870322E+03  0.29222870164E+03  0.89223502041E+03  0.94564893735E+03  0.00000000000E+00 0.  1.
          5    1    4    4  502    0  0.45955305254E+02 -0.12614672147E+02  0.52922097251E+03  0.53138305184E+03  0.47000000000E+01 0.  1.
         -5    1    4    4    0  502 -0.11364502958E+02 -0.13226982653E+01 -0.20400220000E+01  0.12536073865E+02  0.47000000000E+01 0.  1.
<mgrwt>
<rscale>  0 0.10002474E+04</rscale>
<asrwt>0</asrwt>
<pdfrwt beam="1">  1        2 0.25706746E+00 0.10002474E+04</pdfrwt>
<pdfrwt beam="2">  1       -2 0.23029318E-01 0.10002474E+04</pdfrwt>
<totfact> 0.20119438E+02</totfact>
</mgrwt>
</event>
<event>
 9    1  0.4369420E-036  0.1001838E+04  0.7818608E-02  0.8679289E-01
         -2   -1    0    0    0  501 -0.00000000000E+00  0.00000000000E+00  0.94621501753E+02  0.94621501753E+02  0.00000000000E+00 0. -1.
          2   -1    0    0  501    0  0.00000000000E+00 -0.00000000000E+00 -0.26518277577E+04  0.26518277577E+04  0.00000000000E+00 0. -1.
         36    2    1    2    0    0 -0.28421709430E-13 -0.14210854715E-13 -0.25572062559E+04  0.27464492594E+04  0.10018381602E+04 0.  0.
         25    2    3    3    0    0 -0.98425987705E+02  0.72401123204E+02 -0.28381583090E+03  0.33285683144E+03  0.12374427935E+03 0.  0.
         35    2    3    3    0    0  0.98425987705E+02 -0.72401123204E+02 -0.22733904250E+04  0.24135924280E+04  0.80137056731E+03 0.  0.
         22    1    5    5    0    0  0.21720892479E+03 -0.39177694259E+03 -0.15592679292E+04  0.16223394727E+04  0.00000000000E+00 0.  1.
         22    1    5    5    0    0 -0.11878293709E+03  0.31937581939E+03 -0.71412249580E+03  0.79125295523E+03  0.00000000000E+00 0.  1.
          5    1    4    4  502    0 -0.80992300899E+02  0.66197468401E+02 -0.89910731103E+02  0.13801408332E+03  0.47000000000E+01 0.  1.
         -5    1    4    4    0  502 -0.17433686806E+02  0.62036548035E+01 -0.19390509979E+03  0.19484274812E+03  0.47000000000E+01 0.  1.
<mgrwt>
<rscale>  0 0.10018382E+04</rscale>
<asrwt>0</asrwt>
<pdfrwt beam="1">  1        2 0.40797357E+00 0.10018382E+04</pdfrwt>
<pdfrwt beam="2">  1       -2 0.14557152E-01 0.10018382E+04</pdfrwt>
<totfact> 0.11802388E+02</totfact>
</mgrwt>
</event>
<event>
 9    1  0.4369420E-036  0.9993689E+03  0.7818608E-02  0.8681639E-01
         -2   -1    0    0    0  501 -0.00000000000E+00  0.00000000000E+00  0.40650051253E+03  0.40650051253E+03  0.00000000000E+00 0.  1.
          2   -1    0    0  501    0  0.00000000000E+00 -0.00000000000E+00 -0.61422939575E+03  0.61422939575E+03  0.00000000000E+00 0.  1.
         36    2    1    2    0    0 -0.14210854715E-13 -0.28421709430E-13 -0.20772888322E+03  0.10207299083E+04  0.99936892924E+03 0.  0.
         25    2    3    3    0    0 -0.35889526781E+02  0.12260730408E+03  0.16720628375E+02  0.18012758648E+03  0.12587993823E+03 0.  0.
         35    2    3    3    0    0  0.35889526781E+02 -0.12260730408E+03 -0.22444951159E+03  0.84060232180E+03  0.79994629258E+03 0.  0.
         22    1    5    5    0    0  0.26868500846E+03 -0.37754696374E+03 -0.15346368816E+03  0.48814387959E+03  0.00000000000E+00 0.  1.
         22    1    5    5    0    0 -0.23279548168E+03  0.25493965965E+03 -0.70985823430E+02  0.35245844221E+03  0.00000000000E+00 0.  1.
          5    1    4    4  502    0  0.38107342150E+02  0.19229520932E+02 -0.20487824978E+02  0.47579249399E+02  0.47000000000E+01 0.  1.
         -5    1    4    4    0  502 -0.73996868931E+02  0.10337778315E+03  0.37208453353E+02  0.13254833708E+03  0.47000000000E+01 0.  1.
<mgrwt>
<rscale>  0 0.99936893E+03</rscale>
<asrwt>0</asrwt>
<pdfrwt beam="1">  1        2 0.94496829E-01 0.99936893E+03</pdfrwt>
<pdfrwt beam="2">  1       -2 0.62538541E-01 0.99936893E+03</pdfrwt>
<totfact> 0.13831053E+02</totfact>
</mgrwt>
</event>
<event>
 9    1  0.4369420E-036  0.9984569E+03  0.7818608E-02  0.8682509E-01
         -1   -1    0    0    0  501 -0.00000000000E+00  0.00000000000E+00  0.23131406562E+03  0.23131406562E+03  0.00000000000E+00 0.  1.
          1   -1    0    0  501    0  0.00000000000E+00 -0.00000000000E+00 -0.10774486368E+04  0.10774486368E+04  0.00000000000E+00 0.  1.
         36    2    1    2    0    0  0.00000000000E+00 -0.14210854715E-13 -0.84613457114E+03  0.13087627024E+04  0.99845685868E+03 0.  0.
         25    2    3    3    0    0  0.35872756234E+01  0.10469361293E+03 -0.37395158870E+02  0.16678129333E+03  0.12427381367E+03 0.  0.
         35    2    3    3    0    0 -0.35872756234E+01 -0.10469361293E+03 -0.80873941227E+03  0.11419814090E+04  0.79943009732E+03 0.  0.
         22    1    5    5    0    0 -0.15578373128E+02 -0.45516751575E+03 -0.46786516580E+03  0.65293029220E+03  0.00000000000E+00 0. -1.
         22    1    5    5    0    0  0.11991097505E+02  0.35047390282E+03 -0.34087424647E+03  0.48905111684E+03  0.00000000000E+00 0. -1.
          5    1    4    4  502    0 -0.16007143049E+02  0.23180921975E+02 -0.70854484030E+02  0.76393924361E+02  0.47000000000E+01 0. -1.
         -5    1    4    4    0  502  0.19594418672E+02  0.81512690951E+02  0.33459325160E+02  0.90387368970E+02  0.47000000000E+01 0. -1.
<mgrwt>
<rscale>  0 0.99845686E+03</rscale>
<asrwt>0</asrwt>
<pdfrwt beam="1">  1        1 0.16576133E+00 0.99845686E+03</pdfrwt>
<pdfrwt beam="2">  1       -1 0.35586778E-01 0.99845686E+03</pdfrwt>
<totfact> 0.11049822E+02</totfact>
</mgrwt>
</event>
<event>
 9    1  0.4369420E-036  0.1001812E+04  0.7818608E-02  0.8679314E-01
         -1   -1    0    0    0  501 -0.00000000000E+00  0.00000000000E+00  0.28864290045E+03  0.28864290045E+03  0.00000000000E+00 0. -1.
          1   -1    0    0  501    0  0.00000000000E+00 -0.00000000000E+00 -0.86926416005E+03  0.86926416005E+03  0.00000000000E+00 0. -1.
         36    2    1    2    0    0 -0.71054273576E-14 -0.28421709430E-13 -0.58062125959E+03  0.11579070605E+04  0.10018122148E+04 0.  0.
         25    2    3    3    0    0  0.37974684771E+02  0.67001260075E+02  0.31142955566E+02  0.14834256667E+03  0.12289990997E+03 0.  0.
         35    2    3    3    0    0 -0.37974684771E+02 -0.67001260075E+02 -0.61176421516E+03  0.10095644938E+04  0.79939587609E+03 0.  0.
         22    1    5    5    0    0 -0.15183013918E+03  0.34365201797E+03 -0.25855127102E+03  0.45606782430E+03  0.00000000000E+00 0. -1.
         22    1    5    5    0    0  0.11385545441E+03 -0.41065327804E+03 -0.35321294414E+03  0.55349666953E+03  0.00000000000E+00 0. -1.
          5    1    4    4  502    0  0.33597941627E+02  0.16716522857E+02  0.73253446983E+02  0.82440410678E+02  0.47000000000E+01 0. -1.
         -5    1    4    4    0  502  0.43767431444E+01  0.50284737217E+02 -0.42110491417E+02  0.65902155996E+02  0.47000000000E+01 0. -1.
<mgrwt>
<rscale>  0 0.10018122E+04</rscale>
<asrwt>0</asrwt>
<pdfrwt beam="1">  1        1 0.13373294E+00 0.10018122E+04</pdfrwt>
<pdfrwt beam="2">  1       -1 0.44406601E-01 0.10018122E+04</pdfrwt>
<totfact> 0.10961902E+02</totfact>
</mgrwt>
</event>
<event>
 9    1  0.4369420E-036  0.1000223E+04  0.7818608E-02  0.8680826E-01
          1   -1    0    0  501    0  0.00000000000E+00  0.00000000000E+00  0.13019123043E+04  0.13019123043E+04  0.00000000000E+00 0.  1.
         -1   -1    0    0    0  501 -0.00000000000E+00 -0.00000000000E+00 -0.19211084306E+03  0.19211084306E+03  0.00000000000E+00 0.  1.
         36    2    1    2    0    0 -0.71054273576E-14  0.62172489379E-14  0.11098014612E+04  0.14940231473E+04  0.10002229159E+04 0.  0.
         25    2    3    3    0    0 -0.46736394441E+02 -0.51552174592E+01  0.40703977928E+03  0.42803020082E+03  0.12376430855E+03 0.  0.
         35    2    3    3    0    0  0.46736394441E+02  0.51552174592E+01  0.70276168192E+03  0.10659929465E+04  0.80016005496E+03 0.  0.
         22    1    5    5    0    0 -0.97762903729E+02  0.20729372810E+03  0.77423243621E+03  0.80744296414E+03  0.00000000000E+00 0. -1.
         22    1    5    5    0    0  0.14449929817E+03 -0.20213851064E+03 -0.71470754294E+02  0.25854998235E+03  0.00000000000E+00 0. -1.
          5    1    4    4  502    0 -0.40327440060E+02 -0.65031721499E+01  0.41480463704E+03  0.41683758298E+03  0.47000000000E+01 0. -1.
         -5    1    4    4    0  502 -0.64089543806E+01  0.13479546907E+01 -0.77648577662E+01  0.11192617845E+02  0.47000000000E+01 0. -1.
<mgrwt>
<rscale>  0 0.10002229E+04</rscale>
<asrwt>0</asrwt>
<pdfrwt beam="1">  1        1 0.20029419E+00 0.10002229E+04</pdfrwt>
<pdfrwt beam="2">  1       -1 0.29555515E-01 0.10002229E+04</pdfrwt>
<totfact> 0.10336637E+02</totfact>
</mgrwt>
</event>
<event>
 9    1  0.4369420E-036  0.9998375E+03  0.7818608E-02  0.8681193E-01
          2   -1    0    0  501    0  0.00000000000E+00  0.00000000000E+00  0.25671839816E+04  0.25671839816E+04  0.00000000000E+00 0.  1.
         -2   -1    0    0    0  501 -0.00000000000E+00 -0.00000000000E+00 -0.97351315948E+02  0.97351315948E+02  0.00000000000E+00 0.  1.
         36    2    1    2    0    0  0.35527136788E-14  0.14210854715E-13  0.24698326657E+04  0.26645352976E+04  0.99983746457E+03 0.  0.
         25    2    3    3    0    0  0.18449270982E+02 -0.96642590042E+02  0.19563502646E+03  0.25198650091E+03  0.12467544767E+03 0.  0.
         35    2    3    3    0    0 -0.18449270982E+02  0.96642590042E+02  0.22741976392E+04  0.24125487967E+04  0.79921000261E+03 0.  0.
         22    1    5    5    0    0  0.20879715363E+03  0.11018313102E+02  0.11284326731E+03  0.23759473387E+03  0.00000000000E+00 0.  1.
         22    1    5    5    0    0 -0.22724642461E+03  0.85624276941E+02  0.21613543719E+04  0.21749540628E+04  0.00000000000E+00 0.  1.
          5    1    4    4  502    0  0.29704134909E+02 -0.12460969233E+03  0.16183429756E+03  0.20645178837E+03  0.47000000000E+01 0. -1.
         -5    1    4    4    0  502 -0.11254863927E+02  0.27967102283E+02  0.33800728900E+02  0.45534712542E+02  0.47000000000E+01 0. -1.
<mgrwt>
<rscale>  0 0.99983746E+03</rscale>
<asrwt>0</asrwt>
<pdfrwt beam="1">  1        2 0.39495133E+00 0.99983746E+03</pdfrwt>
<pdfrwt beam="2">  1       -2 0.14977127E-01 0.99983746E+03</pdfrwt>
<totfact> 0.12700411E+02</totfact>
</mgrwt>
</event>
<event>
 9    1  0.4369420E-036  0.1001301E+04  0.7818608E-02  0.8679800E-01
         -2   -1    0    0    0  501 -0.00000000000E+00  0.00000000000E+00  0.12983524379E+03  0.12983524379E+03  0.00000000000E+00 0. -1.
          2   -1    0    0  501    0  0.00000000000E+00 -0.00000000000E+00 -0.19305305627E+04  0.19305305627E+04  0.00000000000E+00 0. -1.
         36    2    1    2    0    0  0.00000000000E+00 -0.28421709430E-13 -0.18006953190E+04  0.20603658065E+04  0.10013009663E+04 0.  0.
         25    2    3    3    0    0  0.57300101981E+02  0.12929466938E+03 -0.33696865020E+03  0.38628428005E+03  0.12516892817E+03 0.  0.
         35    2    3    3    0    0 -0.57300101981E+02 -0.12929466938E+03 -0.14637266688E+04  0.16740815265E+04  0.80003298887E+03 0.  0.
         22    1    5    5    0    0  0.25914989888E+03  0.20903425974E+02 -0.12198795243E+04  0.12472777065E+04  0.00000000000E+00 0.  1.
         22    1    5    5    0    0 -0.31645000086E+03 -0.15019809535E+03 -0.24384714444E+03  0.42680381997E+03  0.00000000000E+00 0.  1.
          5    1    4    4  502    0 -0.24525015258E+01  0.89149556480E+02 -0.28137787560E+03  0.29521053007E+03  0.47000000000E+01 0. -1.
         -5    1    4    4    0  502  0.59752603506E+02  0.40145112895E+02 -0.55590774594E+02  0.91073749978E+02  0.47000000000E+01 0. -1.
<mgrwt>
<rscale>  0 0.10013010E+04</rscale>
<asrwt>0</asrwt>
<pdfrwt beam="1">  1        2 0.29700468E+00 0.10013010E+04</pdfrwt>
<pdfrwt beam="2">  1       -2 0.19974655E-01 0.10013010E+04</pdfrwt>
<totfact> 0.18398756E+02</totfact>
</mgrwt>
</event>
<event>
 9    1  0.4369420E-036  0.1000439E+04  0.7818608E-02  0.8680620E-01
         -1   -1    0    0    0  501 -0.00000000000E+00  0.00000000000E+00  0.14302060687E+04  0.14302060687E+04  0.00000000000E+00 0.  1.
          1   -1    0    0  501    0  0.00000000000E+00 -0.00000000000E+00 -0.17495357456E+03  0.17495357456E+03  0.00000000000E+00 0.  1.
         36    2    1    2    0    0 -0.53290705182E-14  0.00000000000E+00  0.12552524941E+04  0.16051596432E+04  0.10004392317E+04 0.  0.
         25    2    3    3    0    0 -0.80513643889E+01 -0.54186540529E+02  0.44262528541E+03  0.46311176294E+03  0.12471710405E+03 0.  0.
         35    2    3    3    0    0  0.80513643889E+01  0.54186540529E+02  0.81262720868E+03  0.11420478803E+04  0.80056815757E+03 0.  0.
         22    1    5    5    0    0 -0.89120449281E+02 -0.94688729258E+01 -0.14875828207E+03  0.17366963039E+03  0.00000000000E+00 0.  1.
         22    1    5    5    0    0  0.97171813669E+02  0.63655413455E+02  0.96138549075E+03  0.96837824989E+03  0.00000000000E+00 0.  1.
          5    1    4    4  502    0  0.13320800903E+02 -0.62938483369E+02  0.43279536992E+03  0.43757584331E+03  0.47000000000E+01 0. -1.
         -5    1    4    4    0  502 -0.21372165291E+02  0.87519428393E+01  0.98299154937E+01  0.25535919629E+02  0.47000000000E+01 0. -1.
<mgrwt>
<rscale>  0 0.10004392E+04</rscale>
<asrwt>0</asrwt>
<pdfrwt beam="1">  1        1 0.26915935E-01 0.10004392E+04</pdfrwt>
<pdfrwt beam="2">  1       -1 0.22003170E+00 0.10004392E+04</pdfrwt>
<totfact> 0.18557700E+01</totfact>
</mgrwt>
</event>
<event>
 9    1  0.4369420E-036  0.9978713E+03  0.7818608E-02  0.8683068E-01
         -2   -1    0    0    0  501 -0.00000000000E+00  0.00000000000E+00  0.17117473788E+04  0.17117473788E+04  0.00000000000E+00 0.  1.
          2   -1    0    0  501    0  0.00000000000E+00 -0.00000000000E+00 -0.14542846933E+03  0.14542846933E+03  0.00000000000E+00 0.  1.
         36    2    1    2    0    0 -0.28421709430E-13 -0.14210854715E-13  0.15663189094E+04  0.18571758481E+04  0.99787133674E+03 0.  0.
         25    2    3    3    0    0  0.10669023676E+03 -0.63220402366E+02  0.39866208996E+03  0.43536437113E+03  0.12341413122E+03 0.  0.
         35    2    3    3    0    0 -0.10669023676E+03  0.63220402366E+02  0.11676568195E+04  0.14218114770E+04  0.80171428955E+03 0.  0.
         22    1    5    5    0    0 -0.29762257885E+03 -0.26997786437E+03  0.77267199238E+03  0.87091288571E+03  0.00000000000E+00 0.  1.
         22    1    5    5    0    0  0.19093234209E+03  0.33319826673E+03  0.39498482710E+03  0.55089859126E+03  0.00000000000E+00 0.  1.
          5    1    4    4  502    0  0.11217662461E+03 -0.91808256577E+02  0.34222657428E+03  0.37169001766E+03  0.47000000000E+01 0. -1.
         -5    1    4    4    0  502 -0.54863878521E+01  0.28587854211E+02  0.56435515676E+02  0.63674353469E+02  0.47000000000E+01 0. -1.
<mgrwt>
<rscale>  0 0.99787134E+03</rscale>
<asrwt>0</asrwt>
<pdfrwt beam="1">  1        2 0.22373612E-01 0.99787134E+03</pdfrwt>
<pdfrwt beam="2">  1       -2 0.26334574E+00 0.99787134E+03</pdfrwt>
<totfact> 0.14228786E+01</totfact>
</mgrwt>
</event>
<event>
 9    1  0.4369420E-036  0.9995503E+03  0.7818608E-02  0.8681466E-01
          1   -1    0    0  501    0  0.00000000000E+00  0.00000000000E+00  0.74132857369E+03  0.74132857369E+03  0.00000000000E+00 0. -1.
         -1   -1    0    0    0  501 -0.00000000000E+00 -0.00000000000E+00 -0.33692917577E+03  0.33692917577E+03  0.00000000000E+00 0. -1.
         36    2    1    2    0    0 -0.71054273576E-14  0.00000000000E+00  0.40439939792E+03  0.10782577495E+04  0.99955034952E+03 0.  0.
         25    2    3    3    0    0 -0.18636998861E+02  0.14210613969E+03  0.10922661825E+03  0.21917002700E+03  0.12475397362E+03 0.  0.
         35    2    3    3    0    0  0.18636998861E+02 -0.14210613969E+03  0.29517277967E+03  0.85908772246E+03  0.79395418782E+03 0.  0.
         22    1    5    5    0    0  0.28005101840E+02  0.33166228322E+03  0.11572209747E+03  0.35238581084E+03  0.00000000000E+00 0. -1.
         22    1    5    5    0    0 -0.93681029781E+01 -0.47376842291E+03  0.17945068220E+03  0.50670191162E+03  0.00000000000E+00 0. -1.
          5    1    4    4  502    0 -0.67594501073E+02  0.51170056424E+02  0.63994493033E+02  0.10632392199E+03  0.47000000000E+01 0. -1.
         -5    1    4    4    0  502  0.48957502212E+02  0.90936083265E+02  0.45232125219E+02  0.11284610500E+03  0.47000000000E+01 0. -1.
<mgrwt>
<rscale>  0 0.99955035E+03</rscale>
<asrwt>0</asrwt>
<pdfrwt beam="1">  1        1 0.11405055E+00 0.99955035E+03</pdfrwt>
<pdfrwt beam="2">  1       -1 0.51835258E-01 0.99955035E+03</pdfrwt>
<totfact> 0.10701919E+02</totfact>
</mgrwt>
</event>
<event>
 9    1  0.4369420E-036  0.9993417E+03  0.7818608E-02  0.8681665E-01
          2   -1    0    0  501    0  0.00000000000E+00  0.00000000000E+00  0.10401750535E+04  0.10401750535E+04  0.00000000000E+00 0.  1.
         -2   -1    0    0    0  501 -0.00000000000E+00 -0.00000000000E+00 -0.24002783861E+03  0.24002783861E+03  0.00000000000E+00 0.  1.
         36    2    1    2    0    0  0.00000000000E+00  0.00000000000E+00  0.80014721487E+03  0.12802028921E+04  0.99934172307E+03 0.  0.
         25    2    3    3    0    0 -0.84162508501E+02  0.96836570771E+02  0.77635447812E+02  0.19585603538E+03  0.12598283440E+03 0.  0.
         35    2    3    3    0    0  0.84162508501E+02 -0.96836570771E+02  0.72251176706E+03  0.10843468567E+04  0.79832587510E+03 0.  0.
         22    1    5    5    0    0  0.45705200760E+02 -0.43264679410E+03  0.24495089855E+03  0.49927262745E+03  0.00000000000E+00 0. -1.
         22    1    5    5    0    0  0.38457307741E+02  0.33581022333E+03  0.47756086851E+03  0.58507422926E+03  0.00000000000E+00 0. -1.
          5    1    4    4  502    0 -0.80893669369E+00  0.73077760617E+02 -0.83115528669E+01  0.73703360754E+02  0.47000000000E+01 0.  1.
         -5    1    4    4    0  502 -0.83353571808E+02  0.23758810153E+02  0.85947000679E+02  0.12215267463E+03  0.47000000000E+01 0.  1.
<mgrwt>
<rscale>  0 0.99934172E+03</rscale>
<asrwt>0</asrwt>
<pdfrwt beam="1">  1        2 0.16002693E+00 0.99934172E+03</pdfrwt>
<pdfrwt beam="2">  1       -2 0.36927360E-01 0.99934172E+03</pdfrwt>
<totfact> 0.19819425E+02</totfact>
</mgrwt>
</event>
<event>
 9    1  0.4369420E-036  0.1000080E+04  0.7818608E-02  0.8680961E-01
         -2   -1    0    0    0  501 -0.00000000000E+00  0.00000000000E+00  0.37885619619E+03  0.37885619619E+03  0.00000000000E+00 0.  1.
          2   -1    0    0  501    0  0.00000000000E+00 -0.00000000000E+00 -0.65998694905E+03  0.65998694905E+03  0.00000000000E+00 0.  1.
         36    2    1    2    0    0 -0.14210854715E-13 -0.14210854715E-13 -0.28113075286E+03  0.10388431452E+04  0.10000802869E+04 0.  0.
         25    2    3    3    0    0 -0.55139883135E+02 -0.12710229400E+03 -0.21111980409E+02  0.18728343734E+03  0.12423353144E+03 0.  0.
         35    2    3    3    0    0  0.55139883135E+02  0.12710229400E+03 -0.26001877246E+03  0.85155970790E+03  0.79896731738E+03 0.  0.
         22    1    5    5    0    0 -0.15438421291E+03  0.34997561287E+03  0.83563914018E+02  0.39153587642E+03  0.00000000000E+00 0. -1.
         22    1    5    5    0    0  0.20952409604E+03 -0.22287331887E+03 -0.34358268647E+03  0.46002383148E+03  0.00000000000E+00 0. -1.
          5    1    4    4  502    0 -0.52618259019E+02 -0.23018617927E+02 -0.53002083666E+02  0.78293351100E+02  0.47000000000E+01 0. -1.
         -5    1    4    4    0  502 -0.25216241160E+01 -0.10408367607E+03  0.31890103257E+02  0.10899008624E+03  0.47000000000E+01 0. -1.
<mgrwt>
<rscale>  0 0.10000803E+04</rscale>
<asrwt>0</asrwt>
<pdfrwt beam="1">  1        2 0.10153645E+00 0.10000803E+04</pdfrwt>
<pdfrwt beam="2">  1       -2 0.58285569E-01 0.10000803E+04</pdfrwt>
<totfact> 0.14698242E+02</totfact>
</mgrwt>
</event>
<event>
 9    1  0.4369420E-036  0.9997312E+03  0.7818608E-02  0.8681294E-01
          2   -1    0    0  501    0  0.00000000000E+00  0.00000000000E+00  0.24541604731E+04  0.24541604731E+04  0.00000000000E+00 0. -1.
         -2   -1    0    0    0  501 -0.00000000000E+00 -0.00000000000E+00 -0.10181307701E+03  0.10181307701E+03  0.00000000000E+00 0. -1.
         36    2    1    2    0    0 -0.21316282073E-13  0.00000000000E+00  0.23523473960E+04  0.25559735501E+04  0.99973122236E+03 0.  0.
         25    2    3    3    0    0  0.45247498574E+01 -0.12629297145E+03  0.28584002632E+03  0.33676300487E+03  0.12543688773E+03 0.  0.
         35    2    3    3    0    0 -0.45247498574E+01  0.12629297145E+03  0.20665073697E+04  0.22192105452E+04  0.79904464630E+03 0.  0.
         22    1    5    5    0    0 -0.32632515403E+03 -0.17210966866E+03  0.10038505644E+04  0.10694979195E+04  0.00000000000E+00 0.  1.
         22    1    5    5    0    0  0.32180040417E+03  0.29840264011E+03  0.10626568053E+04  0.11497126257E+04  0.00000000000E+00 0.  1.
          5    1    4    4  502    0  0.57974619138E+02 -0.10021870955E+03  0.16057865166E+03  0.19802131092E+03  0.47000000000E+01 0. -1.
         -5    1    4    4    0  502 -0.53449869281E+02 -0.26074261901E+02  0.12526137465E+03  0.13874169395E+03  0.47000000000E+01 0. -1.
<mgrwt>
<rscale>  0 0.99973122E+03</rscale>
<asrwt>0</asrwt>
<pdfrwt beam="1">  1        2 0.37756311E+00 0.99973122E+03</pdfrwt>
<pdfrwt beam="2">  1       -2 0.15663552E-01 0.99973122E+03</pdfrwt>
<totfact> 0.13804360E+02</totfact>
</mgrwt>
</event>
<event>
 9    1  0.4369420E-036  0.9990524E+03  0.7818608E-02  0.8681941E-01
          1   -1    0    0  501    0  0.00000000000E+00  0.00000000000E+00  0.21021881942E+04  0.21021881942E+04  0.00000000000E+00 0.  1.
         -1   -1    0    0    0  501 -0.00000000000E+00 -0.00000000000E+00 -0.11869843248E+03  0.11869843248E+03  0.00000000000E+00 0.  1.
         36    2    1    2    0    0 -0.28421709430E-13  0.71054273576E-14  0.19834897617E+04  0.22208866267E+04  0.99905243795E+03 0.  0.
         25    2    3    3    0    0  0.74954047299E+02  0.42255990137E+02  0.12841577371E+03  0.19869243744E+03  0.12483747774E+03 0.  0.
         35    2    3    3    0    0 -0.74954047299E+02 -0.42255990137E+02  0.18550739880E+04  0.20221941893E+04  0.80035377188E+03 0.  0.
         22    1    5    5    0    0  0.34482143854E+03 -0.98618556512E+02  0.10929175585E+04  0.11502592029E+04  0.00000000000E+00 0.  1.
         22    1    5    5    0    0 -0.41977548584E+03  0.56362566375E+02  0.76215642954E+03  0.87193498639E+03  0.00000000000E+00 0.  1.
          5    1    4    4  502    0  0.50083512574E+02  0.79857833547E+02  0.11987070753E+03  0.15256706176E+03  0.47000000000E+01 0. -1.
         -5    1    4    4    0  502  0.24870534724E+02 -0.37601843410E+02  0.85450661838E+01  0.46125375677E+02  0.47000000000E+01 0. -1.
<mgrwt>
<rscale>  0 0.99905244E+03</rscale>
<asrwt>0</asrwt>
<pdfrwt beam="1">  1        1 0.32341354E+00 0.99905244E+03</pdfrwt>
<pdfrwt beam="2">  1       -1 0.18261299E-01 0.99905244E+03</pdfrwt>
<totfact> 0.62737688E+01</totfact>
</mgrwt>
</event>
<event>
 9    1  0.4369420E-036  0.9998506E+03  0.7818608E-02  0.8681180E-01
         -2   -1    0    0    0  501 -0.00000000000E+00  0.00000000000E+00  0.29174245445E+03  0.29174245445E+03  0.00000000000E+00 0.  1.
          2   -1    0    0  501    0  0.00000000000E+00 -0.00000000000E+00 -0.85666414780E+03  0.85666414780E+03  0.00000000000E+00 0.  1.
         36    2    1    2    0    0  0.00000000000E+00  0.00000000000E+00 -0.56492169336E+03  0.11484066023E+04  0.99985059108E+03 0.  0.
         25    2    3    3    0    0  0.43603703466E+02  0.30539645416E+02 -0.24784439728E+03  0.28145472828E+03  0.12229458661E+03 0.  0.
         35    2    3    3    0    0 -0.43603703466E+02 -0.30539645416E+02 -0.31707729608E+03  0.86695187397E+03  0.80512954684E+03 0.  0.
         22    1    5    5    0    0 -0.23883026009E+03  0.23954382175E+03  0.80969968917E+02  0.34781787121E+03  0.00000000000E+00 0. -1.
         22    1    5    5    0    0  0.19522655662E+03 -0.27008346716E+03 -0.39804726500E+03  0.51913400275E+03  0.00000000000E+00 0. -1.
          5    1    4    4  502    0  0.50273751397E+02 -0.36499014361E+02 -0.15138334630E+03  0.16370288839E+03  0.47000000000E+01 0. -1.
         -5    1    4    4    0  502 -0.66700479316E+01  0.67038659778E+02 -0.96461050972E+02  0.11775183990E+03  0.47000000000E+01 0. -1.
<mgrwt>
<rscale>  0 0.99985059E+03</rscale>
<asrwt>0</asrwt>
<pdfrwt beam="1">  1        2 0.13179448E+00 0.99985059E+03</pdfrwt>
<pdfrwt beam="2">  1       -2 0.44883455E-01 0.99985059E+03</pdfrwt>
<totfact> 0.17887312E+02</totfact>
</mgrwt>
</event>
<event>
 9    1  0.4369420E-036  0.9972117E+03  0.7818608E-02  0.8683698E-01
          2   -1    0    0  501    0  0.00000000000E+00  0.00000000000E+00  0.18523736173E+04  0.18523736173E+04  0.00000000000E+00 0. -1.
         -2   -1    0    0    0  501 -0.00000000000E+00 -0.00000000000E+00 -0.13421038816E+03  0.13421038816E+03  0.00000000000E+00 0. -1.
         36    2    1    2    0    0  0.28421709430E-13  0.00000000000E+00  0.17181632291E+04  0.19865840054E+04  0.99721167700E+03 0.  0.
         25    2    3    3    0    0  0.44702771054E+02 -0.11303490092E+03  0.44308560553E+03  0.47649773438E+03  0.12629335088E+03 0.  0.
         35    2    3    3    0    0 -0.44702771054E+02  0.11303490092E+03  0.12750776236E+04  0.15100862710E+04  0.79985146952E+03 0.  0.
         22    1    5    5    0    0 -0.28220279063E+03  0.35721892936E+03  0.59211987717E+03  0.74689338427E+03  0.00000000000E+00 0. -1.
         22    1    5    5    0    0  0.23750001958E+03 -0.24418402844E+03  0.68295774640E+03  0.76319288677E+03  0.00000000000E+00 0. -1.
          5    1    4    4  502    0 -0.27486549668E+02 -0.37617352934E+02  0.27213918457E+03  0.27613837371E+03  0.47000000000E+01 0.  1.
         -5    1    4    4    0  502  0.72189320721E+02 -0.75417547987E+02  0.17094642095E+03  0.20035936067E+03  0.47000000000E+01 0.  1.
<mgrwt>
<rscale>  0 0.99721168E+03</rscale>
<asrwt>0</asrwt>
<pdfrwt beam="1">  1        2 0.28498054E+00 0.99721168E+03</pdfrwt>
<pdfrwt beam="2">  1       -2 0.20647753E-01 0.99721168E+03</pdfrwt>
<totfact> 0.19235917E+02</totfact>
</mgrwt>
</event>
<event>
 9    1  0.4369420E-036  0.9998847E+03  0.7818608E-02  0.8681148E-01
          2   -1    0    0  501    0  0.00000000000E+00  0.00000000000E+00  0.10195543716E+04  0.10195543716E+04  0.00000000000E+00 0. -1.
         -2   -1    0    0    0  501 -0.00000000000E+00 -0.00000000000E+00 -0.24514863818E+03  0.24514863818E+03  0.00000000000E+00 0. -1.
         36    2    1    2    0    0  0.14210854715E-13  0.00000000000E+00  0.77440573338E+03  0.12647030097E+04  0.99988472482E+03 0.  0.
         25    2    3    3    0    0  0.50774225987E+02 -0.83424242732E+02  0.26976541038E+03  0.31365038207E+03  0.12674998713E+03 0.  0.
         35    2    3    3    0    0 -0.50774225987E+02  0.83424242732E+02  0.50464032300E+03  0.95105262766E+03  0.80018848947E+03 0.  0.
         22    1    5    5    0    0 -0.25570911450E+03 -0.17933276162E+03  0.53178880183E+03  0.61672256354E+03  0.00000000000E+00 0. -1.
         22    1    5    5    0    0  0.20493488852E+03  0.26275700435E+03 -0.27148478832E+02  0.33433006411E+03  0.00000000000E+00 0. -1.
          5    1    4    4  502    0 -0.31626785501E+02 -0.43640141737E+02  0.16904523583E+03  0.17749111890E+03  0.47000000000E+01 0. -1.
         -5    1    4    4    0  502  0.82401011488E+02 -0.39784100994E+02  0.10072017455E+03  0.13615926318E+03  0.47000000000E+01 0. -1.
<mgrwt>
<rscale>  0 0.99988472E+03</rscale>
<asrwt>0</asrwt>
<pdfrwt beam="1">  1        2 0.15685452E+00 0.99988472E+03</pdfrwt>
<pdfrwt beam="2">  1       -2 0.37715176E-01 0.99988472E+03</pdfrwt>
<totfact> 0.19614886E+02</totfact>
</mgrwt>
</event>
<event>
 9    1  0.4369420E-036  0.9983457E+03  0.7818608E-02  0.8682615E-01
          1   -1    0    0  501    0  0.00000000000E+00  0.00000000000E+00  0.73968728792E+03  0.73968728792E+03  0.00000000000E+00 0. -1.
         -1   -1    0    0    0  501 -0.00000000000E+00 -0.00000000000E+00 -0.33686332875E+03  0.33686332875E+03  0.00000000000E+00 0. -1.
         36    2    1    2    0    0  0.28421709430E-13  0.00000000000E+00  0.40282395917E+03  0.10765506167E+04  0.99834567569E+03 0.  0.
         25    2    3    3    0    0 -0.12380910368E+03  0.46810773501E+02  0.41853899365E+02  0.18794617838E+03  0.12669678136E+03 0.  0.
         35    2    3    3    0    0  0.12380910368E+03 -0.46810773501E+02  0.36097005981E+03  0.88860443829E+03  0.80112328702E+03 0.  0.
         22    1    5    5    0    0 -0.20360159720E+03 -0.51355366797E+02  0.49276150292E+03  0.53563502764E+03  0.00000000000E+00 0.  1.
         22    1    5    5    0    0  0.32741070088E+03  0.45445932966E+01 -0.13179144311E+03  0.35296941065E+03  0.00000000000E+00 0.  1.
          5    1    4    4  502    0 -0.76376286376E+02  0.49731486813E+02  0.84162987389E+02  0.12414530336E+03  0.47000000000E+01 0. -1.
         -5    1    4    4    0  502 -0.47432817299E+02 -0.29207133123E+01 -0.42309088024E+02  0.63800875014E+02  0.47000000000E+01 0. -1.
<mgrwt>
<rscale>  0 0.99834568E+03</rscale>
<asrwt>0</asrwt>
<pdfrwt beam="1">  1        1 0.11379804E+00 0.99834568E+03</pdfrwt>
<pdfrwt beam="2">  1       -1 0.51825127E-01 0.99834568E+03</pdfrwt>
<totfact> 0.10744341E+02</totfact>
</mgrwt>
</event>
<event>
 9    1  0.4369420E-036  0.9976481E+03  0.7818608E-02  0.8683281E-01
          4   -1    0    0  501    0  0.00000000000E+00  0.00000000000E+00  0.67505474046E+03  0.67505474046E+03  0.00000000000E+00 0.  1.
         -4   -1    0    0    0  501 -0.00000000000E+00 -0.00000000000E+00 -0.36860036753E+03  0.36860036753E+03  0.00000000000E+00 0.  1.
         36    2    1    2    0    0  0.14210854715E-13  0.14210854715E-13  0.30645437293E+03  0.10436551080E+04  0.99764808513E+03 0.  0.
         25    2    3    3    0    0 -0.12314538179E+03  0.21235365788E+02  0.11215679704E+03  0.20987274153E+03  0.12590351345E+03 0.  0.
         35    2    3    3    0    0  0.12314538179E+03 -0.21235365788E+02  0.19429757589E+03  0.83378236646E+03  0.80114028785E+03 0.  0.
         22    1    5    5    0    0 -0.31784510840E+03 -0.69043811615E+02 -0.47302887064E+02  0.32867936348E+03  0.00000000000E+00 0.  1.
         22    1    5    5    0    0  0.44099049018E+03  0.47808445827E+02  0.24160046295E+03  0.50510300298E+03  0.00000000000E+00 0.  1.
          5    1    4    4  502    0 -0.30611641883E+02 -0.49490954924E+02  0.21535202276E+02  0.62227664066E+02  0.47000000000E+01 0.  1.
         -5    1    4    4    0  502 -0.92533739904E+02  0.70726320711E+02  0.90621594765E+02  0.14764507747E+03  0.47000000000E+01 0.  1.
<mgrwt>
<rscale>  0 0.99764809E+03</rscale>
<asrwt>0</asrwt>
<pdfrwt beam="1">  1        4 0.10385458E+00 0.99764809E+03</pdfrwt>
<pdfrwt beam="2">  1       -4 0.56707749E-01 0.99764809E+03</pdfrwt>
<totfact> 0.49666306E+00</totfact>
</mgrwt>
</event>
<event>
 9    1  0.4369420E-036  0.1001166E+04  0.7818608E-02  0.8679929E-01
          1   -1    0    0  501    0  0.00000000000E+00  0.00000000000E+00  0.70746437484E+03  0.70746437484E+03  0.00000000000E+00 0. -1.
         -1   -1    0    0    0  501 -0.00000000000E+00 -0.00000000000E+00 -0.35419905070E+03  0.35419905070E+03  0.00000000000E+00 0. -1.
         36    2    1    2    0    0 -0.28421709430E-13  0.10658141036E-13  0.35326532413E+03  0.10616634255E+04  0.10011657405E+04 0.  0.
         25    2    3    3    0    0  0.75653797627E+02  0.72222343150E+01  0.18985935218E+03  0.23982888827E+03  0.12528233823E+03 0.  0.
         35    2    3    3    0    0 -0.75653797627E+02 -0.72222343150E+01  0.16340597195E+03  0.82183453727E+03  0.80183217522E+03 0.  0.
         22    1    5    5    0    0  0.27881411950E+03 -0.14259520152E+03 -0.13311188827E+03  0.34027853227E+03  0.00000000000E+00 0. -1.
         22    1    5    5    0    0 -0.35446791713E+03  0.13537296720E+03  0.29651786022E+03  0.48155600500E+03  0.00000000000E+00 0. -1.
          5    1    4    4  502    0 -0.66732762450E+01  0.28014973237E+02  0.13615995795E+03  0.13925155471E+03  0.47000000000E+01 0.  1.
         -5    1    4    4    0  502  0.82327073872E+02 -0.20792738922E+02  0.53699394234E+02  0.10057733356E+03  0.47000000000E+01 0.  1.
<mgrwt>
<rscale>  0 0.10011657E+04</rscale>
<asrwt>0</asrwt>
<pdfrwt beam="1">  1        1 0.10884067E+00 0.10011657E+04</pdfrwt>
<pdfrwt beam="2">  1       -1 0.54492162E-01 0.10011657E+04</pdfrwt>
<totfact> 0.10481185E+02</totfact>
</mgrwt>
</event>
<event>
 9    1  0.4369420E-036  0.1003271E+04  0.7818608E-02  0.8677929E-01
          1   -1    0    0  501    0  0.00000000000E+00  0.00000000000E+00  0.54959111953E+03  0.54959111953E+03  0.00000000000E+00 0. -1.
         -1   -1    0    0    0  501 -0.00000000000E+00 -0.00000000000E+00 -0.45786475735E+03  0.45786475735E+03  0.00000000000E+00 0. -1.
         36    2    1    2    0    0  0.00000000000E+00  0.00000000000E+00  0.91726362189E+02  0.10074558769E+04  0.10032714580E+04 0.  0.
         25    2    3    3    0    0 -0.13313386446E+03  0.49325820875E+02  0.35910284958E+02  0.19248725639E+03  0.12491650345E+03 0.  0.
         35    2    3    3    0    0  0.13313386446E+03 -0.49325820875E+02  0.55816077231E+02  0.81496862049E+03  0.80056277420E+03 0.  0.
         22    1    5    5    0    0  0.82884192374E+02 -0.35165636989E+03  0.26138699088E+03  0.44593177822E+03  0.00000000000E+00 0.  1.
         22    1    5    5    0    0  0.50249672089E+02  0.30233054902E+03 -0.20557091364E+03  0.36903684227E+03  0.00000000000E+00 0.  1.
          5    1    4    4  502    0 -0.17972945914E+02 -0.33403785778E+02  0.33136048903E+02  0.50585842149E+02  0.47000000000E+01 0.  1.
         -5    1    4    4    0  502 -0.11516091855E+03  0.82729606653E+02  0.27742360555E+01  0.14190141424E+03  0.47000000000E+01 0.  1.
<mgrwt>
<rscale>  0 0.10032715E+04</rscale>
<asrwt>0</asrwt>
<pdfrwt beam="1">  1        1 0.84552479E-01 0.10032715E+04</pdfrwt>
<pdfrwt beam="2">  1       -1 0.70440732E-01 0.10032715E+04</pdfrwt>
<totfact> 0.92722032E+01</totfact>
</mgrwt>
</event>
<event>
 9    1  0.4369420E-036  0.9984905E+03  0.7818608E-02  0.8682477E-01
         -2   -1    0    0    0  501 -0.00000000000E+00  0.00000000000E+00  0.31655355446E+03  0.31655355446E+03  0.00000000000E+00 0. -1.
          2   -1    0    0  501    0  0.00000000000E+00 -0.00000000000E+00 -0.78737327701E+03  0.78737327701E+03  0.00000000000E+00 0. -1.
         36    2    1    2    0    0  0.17763568394E-14  0.28421709430E-13 -0.47081972256E+03  0.11039268315E+04  0.99849047972E+03 0.  0.
         25    2    3    3    0    0 -0.54437722290E+01  0.13487232863E+03 -0.11923950512E+03  0.21945655045E+03  0.12539114112E+03 0.  0.
         35    2    3    3    0    0  0.54437722290E+01 -0.13487232863E+03 -0.35158021743E+03  0.88447028102E+03  0.80028672926E+03 0.  0.
         22    1    5    5    0    0 -0.50263447114E+02  0.28817841262E+03  0.52033796568E+02  0.29712072900E+03  0.00000000000E+00 0. -1.
         22    1    5    5    0    0  0.55707219343E+02 -0.42305074125E+03 -0.40361401400E+03  0.58734955202E+03  0.00000000000E+00 0. -1.
          5    1    4    4  502    0 -0.17906663163E+02 -0.85075157586E+01  0.12820326830E+02  0.24072332460E+02  0.47000000000E+01 0.  1.
         -5    1    4    4    0  502  0.12462890934E+02  0.14337984438E+03 -0.13205983195E+03  0.19538421799E+03  0.47000000000E+01 0.  1.
<mgrwt>
<rscale>  0 0.99849048E+03</rscale>
<asrwt>0</asrwt>
<pdfrwt beam="1">  1        2 0.12113435E+00 0.99849048E+03</pdfrwt>
<pdfrwt beam="2">  1       -2 0.48700547E-01 0.99849048E+03</pdfrwt>
<totfact> 0.17001128E+02</totfact>
</mgrwt>
</event>
<event>
 9    1  0.4369420E-036  0.1001166E+04  0.7818608E-02  0.8679929E-01
         -2   -1    0    0    0  501 -0.00000000000E+00  0.00000000000E+00  0.30232896548E+03  0.30232896548E+03  0.00000000000E+00 0.  1.
          2   -1    0    0  501    0  0.00000000000E+00 -0.00000000000E+00 -0.82884268289E+03  0.82884268289E+03  0.00000000000E+00 0.  1.
         36    2    1    2    0    0  0.14210854715E-13  0.00000000000E+00 -0.52651371741E+03  0.11311716484E+04  0.10011656224E+04 0.  0.
         25    2    3    3    0    0  0.32536321221E+02  0.68658047596E+02  0.34122199583E+02  0.14988366259E+03  0.12461239147E+03 0.  0.
         35    2    3    3    0    0 -0.32536321221E+02 -0.68658047596E+02 -0.56063591699E+03  0.98128798579E+03  0.80177362137E+03 0.  0.
         22    1    5    5    0    0 -0.19142022434E+03 -0.23971143386E+03 -0.65981158990E+03  0.72763631573E+03  0.00000000000E+00 0. -1.
         22    1    5    5    0    0  0.15888390312E+03  0.17105338627E+03  0.99175672904E+02  0.25365167005E+03  0.00000000000E+00 0. -1.
          5    1    4    4  502    0  0.10058959989E+02  0.28837022078E+02  0.79498205716E+02  0.85292503952E+02  0.47000000000E+01 0. -1.
         -5    1    4    4    0  502  0.22477361231E+02  0.39821025518E+02 -0.45376006133E+02  0.64591158635E+02  0.47000000000E+01 0. -1.
<mgrwt>
<rscale>  0 0.10011656E+04</rscale>
<asrwt>0</asrwt>
<pdfrwt beam="1">  1        2 0.12751426E+00 0.10011656E+04</pdfrwt>
<pdfrwt beam="2">  1       -2 0.46512149E-01 0.10011656E+04</pdfrwt>
<totfact> 0.17421317E+02</totfact>
</mgrwt>
</event>
<event>
 9    1  0.4369420E-036  0.1001964E+04  0.7818608E-02  0.8679170E-01
         -2   -1    0    0    0  501 -0.00000000000E+00  0.00000000000E+00  0.75407232378E+02  0.75407232378E+02  0.00000000000E+00 0.  1.
          2   -1    0    0  501    0  0.00000000000E+00 -0.00000000000E+00 -0.33283681901E+04  0.33283681901E+04  0.00000000000E+00 0.  1.
         36    2    1    2    0    0  0.00000000000E+00  0.00000000000E+00 -0.32529609577E+04  0.34037754224E+04  0.10019641382E+04 0.  0.
         25    2    3    3    0    0 -0.13640873193E+03  0.40048322506E+02 -0.68150961194E+03  0.70728695441E+03  0.12485301133E+03 0.  0.
         35    2    3    3    0    0  0.13640873193E+03 -0.40048322506E+02 -0.25714513457E+04  0.26964884680E+04  0.79904744814E+03 0.  0.
         22    1    5    5    0    0 -0.83151346183E+02 -0.26530954215E+02 -0.24372404375E+04  0.24388027776E+04  0.00000000000E+00 0. -1.
         22    1    5    5    0    0  0.21956007811E+03 -0.13517368291E+02 -0.13421090822E+03  0.25768569039E+03  0.00000000000E+00 0. -1.
          5    1    4    4  502    0 -0.92652354091E+02  0.42791346698E+02 -0.63512213973E+03  0.64328670159E+03  0.47000000000E+01 0.  1.
         -5    1    4    4    0  502 -0.43756377838E+02 -0.27430241921E+01 -0.46387472207E+02  0.64000252819E+02  0.47000000000E+01 0.  1.
<mgrwt>
<rscale>  0 0.10019641E+04</rscale>
<asrwt>0</asrwt>
<pdfrwt beam="1">  1        2 0.51205653E+00 0.10019641E+04</pdfrwt>
<pdfrwt beam="2">  1       -2 0.11601115E-01 0.10019641E+04</pdfrwt>
<totfact> 0.60639301E+01</totfact>
</mgrwt>
</event>
<event>
 9    1  0.4369420E-036  0.1003586E+04  0.7818608E-02  0.8677630E-01
         -2   -1    0    0    0  501 -0.00000000000E+00  0.00000000000E+00  0.97356272418E+03  0.97356272418E+03  0.00000000000E+00 0. -1.
          2   -1    0    0  501    0  0.00000000000E+00 -0.00000000000E+00 -0.25863383897E+03  0.25863383897E+03  0.00000000000E+00 0. -1.
         36    2    1    2    0    0 -0.14210854715E-13  0.28421709430E-13  0.71492888521E+03  0.12321965631E+04  0.10035860996E+04 0.  0.
         25    2    3    3    0    0  0.52729614505E+02 -0.13548512113E+03  0.14642859880E+03  0.24007845996E+03  0.12271797788E+03 0.  0.
         35    2    3    3    0    0 -0.52729614505E+02  0.13548512113E+03  0.56850028641E+03  0.99211810318E+03  0.79998070272E+03 0.  0.
         22    1    5    5    0    0 -0.24641987890E+03  0.17931369975E+03  0.69347071220E+03  0.75748121318E+03  0.00000000000E+00 0. -1.
         22    1    5    5    0    0  0.19369026440E+03 -0.43828578622E+02 -0.12497042579E+03  0.23463689000E+03  0.00000000000E+00 0. -1.
          5    1    4    4  502    0  0.59472752745E+02 -0.48226150569E+02  0.92184700910E+01  0.77264740397E+02  0.47000000000E+01 0. -1.
         -5    1    4    4    0  502 -0.67431382396E+01 -0.87258970563E+02  0.13721012871E+03  0.16281371956E+03  0.47000000000E+01 0. -1.
<mgrwt>
<rscale>  0 0.10035861E+04</rscale>
<asrwt>0</asrwt>
<pdfrwt beam="1">  1        2 0.39789822E-01 0.10035861E+04</pdfrwt>
<pdfrwt beam="2">  1       -2 0.14977888E+00 0.10035861E+04</pdfrwt>
<totfact> 0.44127723E+01</totfact>
</mgrwt>
</event>
<event>
 9    1  0.4369420E-036  0.1000162E+04  0.7818608E-02  0.8680884E-01
         -2   -1    0    0    0  501 -0.00000000000E+00  0.00000000000E+00  0.58548631606E+03  0.58548631606E+03  0.00000000000E+00 0. -1.
          2   -1    0    0  501    0  0.00000000000E+00 -0.00000000000E+00 -0.42713381492E+03  0.42713381492E+03  0.00000000000E+00 0. -1.
         36    2    1    2    0    0  0.00000000000E+00  0.00000000000E+00  0.15835250114E+03  0.10126201310E+04  0.10001619944E+04 0.  0.
         25    2    3    3    0    0  0.69544134225E+02 -0.11733464536E+03 -0.21439893123E+01  0.18672300111E+03  0.12750324250E+03 0.  0.
         35    2    3    3    0    0 -0.69544134225E+02  0.11733464536E+03  0.16049649045E+03  0.82589712988E+03  0.79858821685E+03 0.  0.
         22    1    5    5    0    0 -0.37828741738E+03  0.15720057242E+03 -0.98056684566E+02  0.42122262939E+03  0.00000000000E+00 0.  1.
         22    1    5    5    0    0  0.30874328316E+03 -0.39865927063E+02  0.25855317502E+03  0.40467450049E+03  0.00000000000E+00 0.  1.
          5    1    4    4  502    0  0.56786080227E+02 -0.14446261948E+03  0.56392948844E+01  0.15539626437E+03  0.47000000000E+01 0.  1.
         -5    1    4    4    0  502  0.12758053998E+02  0.27127974121E+02 -0.77832841967E+01  0.31326736737E+02  0.47000000000E+01 0.  1.
<mgrwt>
<rscale>  0 0.10001620E+04</rscale>
<asrwt>0</asrwt>
<pdfrwt beam="1">  1        2 0.65712894E-01 0.10001620E+04</pdfrwt>
<pdfrwt beam="2">  1       -2 0.90074818E-01 0.10001620E+04</pdfrwt>
<totfact> 0.93051129E+01</totfact>
</mgrwt>
</event>
<event>
 9    1  0.4369420E-036  0.1008299E+04  0.7818608E-02  0.8673175E-01
          1   -1    0    0  501    0  0.00000000000E+00  0.00000000000E+00  0.96762335828E+03  0.96762335828E+03  0.00000000000E+00 0. -1.
         -1   -1    0    0    0  501 -0.00000000000E+00 -0.00000000000E+00 -0.26267101604E+03  0.26267101604E+03  0.00000000000E+00 0. -1.
         36    2    1    2    0    0  0.28421709430E-13  0.00000000000E+00  0.70495234223E+03  0.12302943743E+04  0.10082987864E+04 0.  0.
         25    2    3    3    0    0  0.76296316529E+02 -0.43221936358E+02 -0.12958656290E+02  0.15299107204E+03  0.12469594081E+03 0.  0.
         35    2    3    3    0    0 -0.76296316529E+02  0.43221936358E+02  0.71791099852E+03  0.10773033023E+04  0.79843405464E+03 0.  0.
         22    1    5    5    0    0  0.27742126600E+03  0.21160965959E+03  0.13317450511E+03  0.37346573561E+03  0.00000000000E+00 0.  1.
         22    1    5    5    0    0 -0.35371758253E+03 -0.16838772323E+03  0.58473649342E+03  0.70383756667E+03  0.00000000000E+00 0.  1.
          5    1    4    4  502    0  0.14190826611E+02 -0.36543944637E+02  0.50313837501E+02  0.63956326455E+02  0.47000000000E+01 0.  1.
         -5    1    4    4    0  502  0.62105489918E+02 -0.66779917208E+01 -0.63272493791E+02  0.89034745587E+02  0.47000000000E+01 0.  1.
<mgrwt>
<rscale>  0 0.10082988E+04</rscale>
<asrwt>0</asrwt>
<pdfrwt beam="1">  1        1 0.14886513E+00 0.10082988E+04</pdfrwt>
<pdfrwt beam="2">  1       -1 0.40410926E-01 0.10082988E+04</pdfrwt>
<totfact> 0.10765748E+02</totfact>
</mgrwt>
</event>
<event>
 9    1  0.4369420E-036  0.1000241E+04  0.7818608E-02  0.8680809E-01
          1   -1    0    0  501    0  0.00000000000E+00  0.00000000000E+00  0.20689430263E+04  0.20689430263E+04  0.00000000000E+00 0. -1.
         -1   -1    0    0    0  501 -0.00000000000E+00 -0.00000000000E+00 -0.12089287091E+03  0.12089287091E+03  0.00000000000E+00 0. -1.
         36    2    1    2    0    0  0.71054273576E-14  0.28421709430E-13  0.19480501554E+04  0.21898358972E+04  0.10002408954E+04 0.  0.
         25    2    3    3    0    0 -0.29993245289E+02 -0.13202542626E+03  0.42884552954E+03  0.46742535919E+03  0.12746634953E+03 0.  0.
         35    2    3    3    0    0  0.29993245289E+02  0.13202542626E+03  0.15192046258E+04  0.17224105380E+04  0.80024062526E+03 0.  0.
         22    1    5    5    0    0  0.16348848064E+03 -0.29654279161E+03  0.86590167546E+03  0.92975901293E+03  0.00000000000E+00 0. -1.
         22    1    5    5    0    0 -0.13349523535E+03  0.42856821787E+03  0.65330295037E+03  0.79265152507E+03  0.00000000000E+00 0. -1.
          5    1    4    4  502    0 -0.39923414218E+01 -0.56826822875E+02  0.35233260983E+03  0.35693918885E+03  0.47000000000E+01 0. -1.
         -5    1    4    4    0  502 -0.26000903868E+02 -0.75198603388E+02  0.76512919716E+02  0.11048617034E+03  0.47000000000E+01 0. -1.
<mgrwt>
<rscale>  0 0.10002409E+04</rscale>
<asrwt>0</asrwt>
<pdfrwt beam="1">  1        1 0.31829890E+00 0.10002409E+04</pdfrwt>
<pdfrwt beam="2">  1       -1 0.18598905E-01 0.10002409E+04</pdfrwt>
<totfact> 0.64230634E+01</totfact>
</mgrwt>
</event>
<event>
 9    1  0.4369420E-036  0.1005380E+04  0.7818608E-02  0.8675932E-01
         -2   -1    0    0    0  501 -0.00000000000E+00  0.00000000000E+00  0.11175950684E+03  0.11175950684E+03  0.00000000000E+00 0.  1.
          2   -1    0    0  501    0  0.00000000000E+00 -0.00000000000E+00 -0.22610788090E+04  0.22610788090E+04  0.00000000000E+00 0.  1.
         36    2    1    2    0    0 -0.14210854715E-13  0.00000000000E+00 -0.21493193022E+04  0.23728383159E+04  0.10053796350E+04 0.  0.
         25    2    3    3    0    0  0.74953329131E+02  0.11928735432E+03 -0.30322728270E+03  0.35657438551E+03  0.12389928565E+03 0.  0.
         35    2    3    3    0    0 -0.74953329131E+02 -0.11928735432E+03 -0.18460920195E+04  0.20162639303E+04  0.79838400409E+03 0.  0.
         22    1    5    5    0    0 -0.37345301224E+02 -0.21457955724E+03 -0.58210241360E+02  0.22544952896E+03  0.00000000000E+00 0.  1.
         22    1    5    5    0    0 -0.37608027906E+02  0.95292202919E+02 -0.17878817781E+04  0.17908144014E+04  0.00000000000E+00 0.  1.
          5    1    4    4  502    0 -0.88552357161E+01 -0.17010867936E+02 -0.76680181172E+02  0.79181595160E+02  0.47000000000E+01 0. -1.
         -5    1    4    4    0  502  0.83808564847E+02  0.13629822226E+03 -0.22654710152E+03  0.27739279035E+03  0.47000000000E+01 0. -1.
<mgrwt>
<rscale>  0 0.10053796E+04</rscale>
<asrwt>0</asrwt>
<pdfrwt beam="1">  1        2 0.34785830E+00 0.10053796E+04</pdfrwt>
<pdfrwt beam="2">  1       -2 0.17193769E-01 0.10053796E+04</pdfrwt>
<totfact> 0.15356553E+02</totfact>
</mgrwt>
</event>
<event>
 9    1  0.4369420E-036  0.9991524E+03  0.7818608E-02  0.8681846E-01
         -2   -1    0    0    0  501 -0.00000000000E+00  0.00000000000E+00  0.27423953892E+03  0.27423953892E+03  0.00000000000E+00 0.  1.
          2   -1    0    0  501    0  0.00000000000E+00 -0.00000000000E+00 -0.91006709344E+03  0.91006709344E+03  0.00000000000E+00 0.  1.
         36    2    1    2    0    0  0.00000000000E+00  0.14210854715E-13 -0.63582755452E+03  0.11843066324E+04  0.99915240098E+03 0.  0.
         25    2    3    3    0    0 -0.30790867701E+02 -0.60156181869E+02  0.24875163614E+02  0.14409143325E+03  0.12480674510E+03 0.  0.
         35    2    3    3    0    0  0.30790867701E+02  0.60156181869E+02 -0.66070271813E+03  0.10402151991E+04  0.80059523791E+03 0.  0.
         22    1    5    5    0    0  0.29576177733E+02 -0.33760009300E+03 -0.10109696520E+03  0.35365119744E+03  0.00000000000E+00 0. -1.
         22    1    5    5    0    0  0.12146899683E+01  0.39775627487E+03 -0.55960575293E+03  0.68656400167E+03  0.00000000000E+00 0. -1.
          5    1    4    4  502    0 -0.16842862876E+02 -0.96035919921E+02 -0.73379481262E+00  0.97617664384E+02  0.47000000000E+01 0.  1.
         -5    1    4    4    0  502 -0.13948004825E+02  0.35879738052E+02  0.25608958427E+02  0.46473768870E+02  0.47000000000E+01 0.  1.
<mgrwt>
<rscale>  0 0.99915240E+03</rscale>
<asrwt>0</asrwt>
<pdfrwt beam="1">  1        2 0.14001032E+00 0.99915240E+03</pdfrwt>
<pdfrwt beam="2">  1       -2 0.42190698E-01 0.99915240E+03</pdfrwt>
<totfact> 0.18591265E+02</totfact>
</mgrwt>
</event>
<event>
 9    1  0.4369420E-036  0.9999774E+03  0.7818608E-02  0.8681060E-01
         -1   -1    0    0    0  501 -0.00000000000E+00  0.00000000000E+00  0.59747544701E+03  0.59747544701E+03  0.00000000000E+00 0.  1.
          1   -1    0    0  501    0  0.00000000000E+00 -0.00000000000E+00 -0.41840828301E+03  0.41840828301E+03  0.00000000000E+00 0.  1.
         36    2    1    2    0    0  0.00000000000E+00  0.00000000000E+00  0.17906716400E+03  0.10158837300E+04  0.99997735160E+03 0.  0.
         25    2    3    3    0    0 -0.25061253098E+02 -0.38921353347E+02 -0.10004959170E+03  0.16657963606E+03  0.12488361061E+03 0.  0.
         35    2    3    3    0    0  0.25061253098E+02  0.38921353347E+02  0.27911675570E+03  0.84930409397E+03  0.80079232174E+03 0.  0.
         22    1    5    5    0    0  0.35770192754E+02 -0.43555922211E+02 -0.27919728735E+03  0.28482933542E+03  0.00000000000E+00 0.  1.
         22    1    5    5    0    0 -0.10708939656E+02  0.82477275559E+02  0.55831404305E+03  0.56447475855E+03  0.00000000000E+00 0.  1.
          5    1    4    4  502    0  0.25454254221E+02  0.34819320256E+02 -0.37922004832E+02  0.57623541817E+02  0.47000000000E+01 0.  1.
         -5    1    4    4    0  502 -0.50515507319E+02 -0.73740673603E+02 -0.62127586864E+02  0.10895609424E+03  0.47000000000E+01 0.  1.
<mgrwt>
<rscale>  0 0.99997735E+03</rscale>
<asrwt>0</asrwt>
<pdfrwt beam="1">  1        1 0.64370505E-01 0.99997735E+03</pdfrwt>
<pdfrwt beam="2">  1       -1 0.91919300E-01 0.99997735E+03</pdfrwt>
<totfact> 0.77610579E+01</totfact>
</mgrwt>
</event>
<event>
 9    1  0.4369420E-036  0.9994977E+03  0.7818608E-02  0.8681516E-01
         -2   -1    0    0    0  501 -0.00000000000E+00  0.00000000000E+00  0.14858550019E+03  0.14858550019E+03  0.00000000000E+00 0.  1.
          2   -1    0    0  501    0  0.00000000000E+00 -0.00000000000E+00 -0.16808431736E+04  0.16808431736E+04  0.00000000000E+00 0.  1.
         36    2    1    2    0    0  0.00000000000E+00 -0.35527136788E-13 -0.15322576734E+04  0.18294286738E+04  0.99949772125E+03 0.  0.
         25    2    3    3    0    0 -0.80853370766E+02  0.33070171893E+01 -0.79325353936E+02  0.16886855367E+03  0.12520332549E+03 0.  0.
         35    2    3    3    0    0  0.80853370766E+02 -0.33070171893E+01 -0.14529323195E+04  0.16605601201E+04  0.79993711231E+03 0.  0.
         22    1    5    5    0    0 -0.98435284494E+02  0.34872935256E+03 -0.42029597005E+03  0.55493276080E+03  0.00000000000E+00 0.  1.
         22    1    5    5    0    0  0.17928865526E+03 -0.35203636975E+03 -0.10326363494E+04  0.11056273593E+04  0.00000000000E+00 0.  1.
          5    1    4    4  502    0 -0.49396257780E+02  0.63501921741E+02 -0.36767062470E+02  0.88579857925E+02  0.47000000000E+01 0. -1.
         -5    1    4    4    0  502 -0.31457112986E+02 -0.60194904551E+02 -0.42558291466E+02  0.80288695741E+02  0.47000000000E+01 0. -1.
<mgrwt>
<rscale>  0 0.99949772E+03</rscale>
<asrwt>0</asrwt>
<pdfrwt beam="1">  1        2 0.25859126E+00 0.99949772E+03</pdfrwt>
<pdfrwt beam="2">  1       -2 0.22859308E-01 0.99949772E+03</pdfrwt>
<totfact> 0.20122643E+02</totfact>
</mgrwt>
</event>
