<event>
 9    1  0.2024718E-002  0.2746143E+03  0.7818608E-02  0.1098667E+00
          2   -1    0    0  501    0  0.00000000000E+00  0.00000000000E+00  0.11900136522E+04  0.11900136522E+04  0.00000000000E+00 0.  1.
         -2   -1    0    0    0  501 -0.00000000000E+00 -0.00000000000E+00 -0.15842883146E+02  0.15842883146E+02  0.00000000000E+00 0.  1.
         36    2    1    2    0    0 -0.35527136788E-14  0.00000000000E+00  0.11741707690E+04  0.12058565353E+04  0.27461425479E+03 0.  0.
         25    2    3    3    0    0  0.11288462569E+02 -0.41335786481E+02  0.41128530819E+03  0.43137056386E+03  0.12283681045E+03 0.  0.
         25    2    3    3    0    0 -0.11288462569E+02  0.41335786481E+02  0.76288546084E+03  0.77448597146E+03  0.12648405826E+03 0.  0.
          5    1    4    4  502    0  0.45877871484E+02 -0.31467266172E+02  0.76934957745E+02  0.95058117252E+02  0.47000000000E+01 0.  1.
         -5    1    4    4    0  502 -0.34589408916E+02 -0.98685203084E+01  0.33435035044E+03  0.33631244661E+03  0.47000000000E+01 0.  1.
          5    1    5    5  503    0  0.13775680909E+02  0.69358543219E+02  0.24039861840E+03  0.25062713865E+03  0.47000000000E+01 0.  1.
         -5    1    5    5    0  503 -0.25064143477E+02 -0.28022756738E+02  0.52248684245E+03  0.52385883281E+03  0.47000000000E+01 0.  1.
<mgrwt>
<rscale>  0 0.27461425E+03</rscale>
<asrwt>0</asrwt>
<pdfrwt beam="1">  1        2 0.18307895E+00 0.27461425E+03</pdfrwt>
<pdfrwt beam="2">  1       -2 0.24373676E-02 0.27461425E+03</pdfrwt>
<totfact> 0.11666580E+04</totfact>
</mgrwt>
</event>
<event>
 9    1  0.2024718E-002  0.2750027E+03  0.7818608E-02  0.1098450E+00
         -2   -1    0    0    0  501 -0.00000000000E+00  0.00000000000E+00  0.20676806955E+03  0.20676806955E+03  0.00000000000E+00 0.  1.
          2   -1    0    0  501    0  0.00000000000E+00 -0.00000000000E+00 -0.91438795977E+02  0.91438795977E+02  0.00000000000E+00 0.  1.
         36    2    1    2    0    0  0.00000000000E+00 -0.35527136788E-14  0.11532927357E+03  0.29820686553E+03  0.27500271509E+03 0.  0.
         25    2    3    3    0    0 -0.28715119352E+02  0.56715065008E+01  0.36295706540E+02  0.12804205667E+03  0.11925043353E+03 0.  0.
         25    2    3    3    0    0  0.28715119352E+02 -0.56715065008E+01  0.79033567033E+02  0.17016480886E+03  0.14782771523E+03 0.  0.
          5    1    4    4  502    0 -0.42527599609E+02 -0.30452120318E+02 -0.22806048083E+02  0.57254992704E+02  0.47000000000E+01 0. -1.
         -5    1    4    4    0  502  0.13812480257E+02  0.36123626819E+02  0.59101754623E+02  0.70787063966E+02  0.47000000000E+01 0. -1.
          5    1    5    5  503    0  0.80731627278E+02  0.28456556550E+02  0.61014589462E+02  0.10522471849E+03  0.47000000000E+01 0.  1.
         -5    1    5    5    0  503 -0.52016507926E+02 -0.34128063051E+02  0.18018977571E+02  0.64940090369E+02  0.47000000000E+01 0.  1.
<mgrwt>
<rscale>  0 0.27500272E+03</rscale>
<asrwt>0</asrwt>
<pdfrwt beam="1">  1        2 0.14067507E-01 0.27500272E+03</pdfrwt>
<pdfrwt beam="2">  1       -2 0.31810472E-01 0.27500272E+03</pdfrwt>
<totfact> 0.38441548E+03</totfact>
</mgrwt>
</event>
<event>
 9    1  0.2024718E-002  0.2660232E+03  0.7818608E-02  0.1103577E+00
         -2   -1    0    0    0  501 -0.00000000000E+00  0.00000000000E+00  0.16266340699E+02  0.16266340699E+02  0.00000000000E+00 0. -1.
          2   -1    0    0  501    0  0.00000000000E+00 -0.00000000000E+00 -0.10876501888E+04  0.10876501888E+04  0.00000000000E+00 0. -1.
         36    2    1    2    0    0  0.00000000000E+00 -0.71054273576E-14 -0.10713838481E+04  0.11039165295E+04  0.26602322104E+03 0.  0.
         25    2    3    3    0    0  0.12257350256E+02 -0.29974550176E+02 -0.68890032387E+03  0.70058161404E+03  0.12321617346E+03 0.  0.
         25    2    3    3    0    0 -0.12257350256E+02  0.29974550176E+02 -0.38248352427E+03  0.40333491551E+03  0.12384139628E+03 0.  0.
          5    1    4    4  502    0  0.58466759657E+02 -0.25940952396E+02 -0.55707173581E+03  0.56075155268E+03  0.47000000000E+01 0.  1.
         -5    1    4    4    0  502 -0.46209409401E+02 -0.40335977794E+01 -0.13182858806E+03  0.13983006136E+03  0.47000000000E+01 0.  1.
          5    1    5    5  503    0 -0.63252389979E+02 -0.81443225915E+01 -0.20314692974E+03  0.21297408268E+03  0.47000000000E+01 0.  1.
         -5    1    5    5    0  503  0.50995039723E+02  0.38118872767E+02 -0.17933659453E+03  0.19036083283E+03  0.47000000000E+01 0.  1.
<mgrwt>
<rscale>  0 0.26602322E+03</rscale>
<asrwt>0</asrwt>
<pdfrwt beam="1">  1        2 0.16733077E+00 0.26602322E+03</pdfrwt>
<pdfrwt beam="2">  1       -2 0.25025144E-02 0.26602322E+03</pdfrwt>
<totfact> 0.12849029E+04</totfact>
</mgrwt>
</event>
<event>
 9    1  0.2024718E-002  0.2758644E+03  0.7818608E-02  0.1097969E+00
         -2   -1    0    0    0  501 -0.00000000000E+00  0.00000000000E+00  0.18353068879E+02  0.18353068879E+02  0.00000000000E+00 0. -1.
          2   -1    0    0  501    0  0.00000000000E+00 -0.00000000000E+00 -0.10366269854E+04  0.10366269854E+04  0.00000000000E+00 0. -1.
         36    2    1    2    0    0  0.00000000000E+00 -0.22204460493E-14 -0.10182739166E+04  0.10549800543E+04  0.27586436135E+03 0.  0.
         25    2    3    3    0    0  0.27782460767E+02 -0.11244212319E+01 -0.28837832433E+03  0.31390895817E+03  0.12084554864E+03 0.  0.
         25    2    3    3    0    0 -0.27782460767E+02  0.11244212319E+01 -0.72989559224E+03  0.74107109616E+03  0.12516255248E+03 0.  0.
          5    1    4    4  502    0  0.27133640591E+02 -0.56389453484E+02 -0.19954706019E+03  0.20918203591E+03  0.47000000000E+01 0. -1.
         -5    1    4    4    0  502  0.64882017563E+00  0.55265032252E+02 -0.88831264135E+02  0.10472692226E+03  0.47000000000E+01 0. -1.
          5    1    5    5  503    0 -0.53093963019E+02  0.42156527482E+01 -0.12933901160E+03  0.13995503048E+03  0.47000000000E+01 0.  1.
         -5    1    5    5    0  503  0.25311502252E+02 -0.30912315163E+01 -0.60055658064E+03  0.60111606568E+03  0.47000000000E+01 0.  1.
<mgrwt>
<rscale>  0 0.27586436E+03</rscale>
<asrwt>0</asrwt>
<pdfrwt beam="1">  1        2 0.15948108E+00 0.27586436E+03</pdfrwt>
<pdfrwt beam="2">  1       -2 0.28235490E-02 0.27586436E+03</pdfrwt>
<totfact> 0.11536825E+04</totfact>
</mgrwt>
</event>
<event>
 9    1  0.2024718E-002  0.2849915E+03  0.7818608E-02  0.1092994E+00
         -1   -1    0    0    0  501 -0.00000000000E+00  0.00000000000E+00  0.26215944323E+02  0.26215944323E+02  0.00000000000E+00 0.  1.
          1   -1    0    0  501    0  0.00000000000E+00 -0.00000000000E+00 -0.77453008716E+03  0.77453008716E+03  0.00000000000E+00 0.  1.
         36    2    1    2    0    0  0.35527136788E-14  0.14210854715E-13 -0.74831414284E+03  0.80074603148E+03  0.28499149209E+03 0.  0.
         25    2    3    3    0    0  0.18292904274E+02  0.67999379864E+02 -0.40725978543E+03  0.43171813065E+03  0.12474560311E+03 0.  0.
         25    2    3    3    0    0 -0.18292904274E+02 -0.67999379864E+02 -0.34105435740E+03  0.36902790083E+03  0.12208591597E+03 0.  0.
          5    1    4    4  502    0  0.37671955215E+02 -0.23982553957E+02 -0.86864391026E+02  0.97784720341E+02  0.47000000000E+01 0. -1.
         -5    1    4    4    0  502 -0.19379050941E+02  0.91981933821E+02 -0.32039539441E+03  0.33393341031E+03  0.47000000000E+01 0. -1.
          5    1    5    5  503    0  0.19896914420E+02 -0.87955213072E+02 -0.27963886518E+03  0.29385709389E+03  0.47000000000E+01 0. -1.
         -5    1    5    5    0  503 -0.38189818694E+02  0.19955833208E+02 -0.61415492224E+02  0.75170806940E+02  0.47000000000E+01 0. -1.
<mgrwt>
<rscale>  0 0.28499149E+03</rscale>
<asrwt>0</asrwt>
<pdfrwt beam="1">  1        1 0.11915847E+00 0.28499149E+03</pdfrwt>
<pdfrwt beam="2">  1       -1 0.40332225E-02 0.28499149E+03</pdfrwt>
<totfact> 0.58780797E+03</totfact>
</mgrwt>
</event>
<event>
 9    1  0.2024718E-002  0.2747652E+03  0.7818608E-02  0.1098583E+00
          2   -1    0    0  501    0  0.00000000000E+00  0.00000000000E+00  0.43707121449E+02  0.43707121449E+02  0.00000000000E+00 0.  1.
         -2   -1    0    0    0  501 -0.00000000000E+00 -0.00000000000E+00 -0.43182832274E+03  0.43182832274E+03  0.00000000000E+00 0.  1.
         36    2    1    2    0    0 -0.88817841970E-15 -0.71054273576E-14 -0.38812120129E+03  0.47553544419E+03  0.27476515752E+03 0.  0.
         25    2    3    3    0    0 -0.46745128794E+01 -0.50162955759E+02 -0.21709773578E+03  0.25861371190E+03  0.13119242318E+03 0.  0.
         25    2    3    3    0    0  0.46745128794E+01  0.50162955759E+02 -0.17102346551E+03  0.21692173229E+03  0.12356309718E+03 0.  0.
          5    1    4    4  502    0 -0.47742797220E+01 -0.28835015961E+02  0.94044781801E+01  0.31061006136E+02  0.47000000000E+01 0.  1.
         -5    1    4    4    0  502  0.99766842551E-01 -0.21327939798E+02 -0.22650221396E+03  0.22755270576E+03  0.47000000000E+01 0.  1.
          5    1    5    5  503    0  0.34794214640E+02  0.80441394081E+02 -0.13410228037E+03  0.16027154100E+03  0.47000000000E+01 0.  1.
         -5    1    5    5    0  503 -0.30119701761E+02 -0.30278438322E+02 -0.36921185141E+02  0.56650191294E+02  0.47000000000E+01 0.  1.
<mgrwt>
<rscale>  0 0.27476516E+03</rscale>
<asrwt>0</asrwt>
<pdfrwt beam="1">  1        2 0.67241725E-02 0.27476516E+03</pdfrwt>
<pdfrwt beam="2">  1       -2 0.66435127E-01 0.27476516E+03</pdfrwt>
<totfact> 0.22649873E+03</totfact>
</mgrwt>
</event>
<event>
 9    1  0.2024718E-002  0.2752502E+03  0.7818608E-02  0.1098312E+00
         -2   -1    0    0    0  501 -0.00000000000E+00  0.00000000000E+00  0.44976411482E+03  0.44976411482E+03  0.00000000000E+00 0.  1.
          2   -1    0    0  501    0  0.00000000000E+00 -0.00000000000E+00 -0.42112446872E+02  0.42112446872E+02  0.00000000000E+00 0.  1.
         36    2    1    2    0    0  0.00000000000E+00 -0.71054273576E-14  0.40765166795E+03  0.49187656169E+03  0.27525019448E+03 0.  0.
         25    2    3    3    0    0  0.61382524451E+02  0.70664803180E+01  0.18927624409E+03  0.23379438202E+03  0.12254210310E+03 0.  0.
         25    2    3    3    0    0 -0.61382524451E+02 -0.70664803180E+01  0.21837542386E+03  0.25808217968E+03  0.12288545996E+03 0.  0.
          5    1    4    4  502    0  0.53105912664E+02  0.43086561565E+02  0.38783872602E+02  0.78758926614E+02  0.47000000000E+01 0.  1.
         -5    1    4    4    0  502  0.82766117870E+01 -0.36020081247E+02  0.15049237149E+03  0.15503545540E+03  0.47000000000E+01 0.  1.
          5    1    5    5  503    0 -0.11873330729E+02 -0.15658825987E+02 -0.11147135359E+02  0.23076469413E+02  0.47000000000E+01 0. -1.
         -5    1    5    5    0  503 -0.49509193722E+02  0.85923456687E+01  0.22952255922E+03  0.23500571026E+03  0.47000000000E+01 0. -1.
<mgrwt>
<rscale>  0 0.27525019E+03</rscale>
<asrwt>0</asrwt>
<pdfrwt beam="1">  1        2 0.64788383E-02 0.27525019E+03</pdfrwt>
<pdfrwt beam="2">  1       -2 0.69194476E-01 0.27525019E+03</pdfrwt>
<totfact> 0.21796554E+03</totfact>
</mgrwt>
</event>
<event>
 9    1  0.2024718E-002  0.2741691E+03  0.7818608E-02  0.1098917E+00
         -1   -1    0    0    0  501 -0.00000000000E+00  0.00000000000E+00  0.32372893230E+03  0.32372893230E+03  0.00000000000E+00 0.  1.
          1   -1    0    0  501    0  0.00000000000E+00 -0.00000000000E+00 -0.58049092812E+02  0.58049092812E+02  0.00000000000E+00 0.  1.
         36    2    1    2    0    0  0.14210854715E-13 -0.88817841970E-15  0.26567983949E+03  0.38177802511E+03  0.27416907803E+03 0.  0.
         25    2    3    3    0    0  0.45639696426E+02 -0.52243235110E+01  0.17063375898E+03  0.21968812436E+03  0.13052477479E+03 0.  0.
         25    2    3    3    0    0 -0.45639696426E+02  0.52243235110E+01  0.95046080505E+02  0.16208990075E+03  0.12300041894E+03 0.  0.
          5    1    4    4  502    0 -0.30782036983E+02 -0.30647199055E+02  0.18417961357E+02  0.47414089797E+02  0.47000000000E+01 0. -1.
         -5    1    4    4    0  502  0.76421733409E+02  0.25422875544E+02  0.15221579763E+03  0.17227403456E+03  0.47000000000E+01 0. -1.
          5    1    5    5  503    0 -0.47001290165E+02 -0.76212657449E+01  0.12243120838E+03  0.13144845284E+03  0.47000000000E+01 0. -1.
         -5    1    5    5    0  503  0.13615937391E+01  0.12845589256E+02 -0.27385127879E+02  0.30641447906E+02  0.47000000000E+01 0. -1.
<mgrwt>
<rscale>  0 0.27416908E+03</rscale>
<asrwt>0</asrwt>
<pdfrwt beam="1">  1        1 0.89306299E-02 0.27416908E+03</pdfrwt>
<pdfrwt beam="2">  1       -1 0.49804450E-01 0.27416908E+03</pdfrwt>
<totfact> 0.30841101E+03</totfact>
</mgrwt>
</event>
<event>
 9    1  0.2024718E-002  0.2749641E+03  0.7818608E-02  0.1098472E+00
         -3   -1    0    0    0  501 -0.00000000000E+00  0.00000000000E+00  0.10188938923E+02  0.10188938923E+02  0.00000000000E+00 0. -1.
          3   -1    0    0  501    0  0.00000000000E+00 -0.00000000000E+00 -0.18550814409E+04  0.18550814409E+04  0.00000000000E+00 0. -1.
         36    2    1    2    0    0 -0.14210854715E-13  0.00000000000E+00 -0.18448925019E+04  0.18652703798E+04  0.27496408128E+03 0.  0.
         25    2    3    3    0    0 -0.40509471574E+02  0.18791629211E+02 -0.11706228724E+04  0.11781813520E+04  0.12553583605E+03 0.  0.
         25    2    3    3    0    0  0.40509471574E+02 -0.18791629211E+02 -0.67426962954E+03  0.68708902781E+03  0.12432882291E+03 0.  0.
          5    1    4    4  502    0 -0.50342496684E+02  0.12219632657E+02 -0.11611539798E+04  0.11623185196E+04  0.47000000000E+01 0.  1.
         -5    1    4    4    0  502  0.98330251096E+01  0.65719965542E+01 -0.94688926312E+01  0.15862832319E+02  0.47000000000E+01 0.  1.
          5    1    5    5  503    0 -0.44636786446E+02 -0.26293325926E+01 -0.25438984704E+03  0.25833242223E+03  0.47000000000E+01 0. -1.
         -5    1    5    5    0  503  0.85146258020E+02 -0.16162296618E+02 -0.41987978249E+03  0.42875660558E+03  0.47000000000E+01 0. -1.
<mgrwt>
<rscale>  0 0.27496408E+03</rscale>
<asrwt>0</asrwt>
<pdfrwt beam="1">  1        3 0.28539716E+00 0.27496408E+03</pdfrwt>
<pdfrwt beam="2">  1       -3 0.15675290E-02 0.27496408E+03</pdfrwt>
<totfact> 0.18649796E+02</totfact>
</mgrwt>
</event>
<event>
 9    1  0.2024718E-002  0.2765877E+03  0.7818608E-02  0.1097567E+00
          1   -1    0    0  501    0  0.00000000000E+00  0.00000000000E+00  0.37316511535E+03  0.37316511535E+03  0.00000000000E+00 0. -1.
         -1   -1    0    0    0  501 -0.00000000000E+00 -0.00000000000E+00 -0.51251291838E+02  0.51251291838E+02  0.00000000000E+00 0. -1.
         36    2    1    2    0    0 -0.88817841970E-15  0.00000000000E+00  0.32191382351E+03  0.42441640719E+03  0.27658773820E+03 0.  0.
         25    2    3    3    0    0  0.48133103700E+01  0.50098036075E+02  0.12824342435E+03  0.18689269732E+03  0.12629142191E+03 0.  0.
         25    2    3    3    0    0 -0.48133103700E+01 -0.50098036075E+02  0.19367039916E+03  0.23752370987E+03  0.12796994985E+03 0.  0.
          5    1    4    4  502    0 -0.12889441789E+01 -0.38745822058E+02  0.12964176244E+02  0.41146809958E+02  0.47000000000E+01 0.  1.
         -5    1    4    4    0  502  0.61022545489E+01  0.88843858134E+02  0.11527924811E+03  0.14574588736E+03  0.47000000000E+01 0.  1.
          5    1    5    5  503    0  0.12347663760E+02 -0.91005737734E+02  0.11692531085E+03  0.14875526013E+03  0.47000000000E+01 0.  1.
         -5    1    5    5    0  503 -0.17160974130E+02  0.40907701658E+02  0.76745088315E+02  0.88768449736E+02  0.47000000000E+01 0.  1.
<mgrwt>
<rscale>  0 0.27658774E+03</rscale>
<asrwt>0</asrwt>
<pdfrwt beam="1">  1        1 0.57410016E-01 0.27658774E+03</pdfrwt>
<pdfrwt beam="2">  1       -1 0.78848144E-02 0.27658774E+03</pdfrwt>
<totfact> 0.58018405E+03</totfact>
</mgrwt>
</event>
<event>
 9    1  0.2024718E-002  0.2749062E+03  0.7818608E-02  0.1098504E+00
          4   -1    0    0  501    0  0.00000000000E+00  0.00000000000E+00  0.38889785049E+02  0.38889785049E+02  0.00000000000E+00 0.  1.
         -4   -1    0    0    0  501 -0.00000000000E+00 -0.00000000000E+00 -0.48581798348E+03  0.48581798348E+03  0.00000000000E+00 0.  1.
         36    2    1    2    0    0  0.35527136788E-14 -0.71054273576E-14 -0.44692819843E+03  0.52470776853E+03  0.27490621638E+03 0.  0.
         25    2    3    3    0    0 -0.54674738108E+01  0.17693998929E+02 -0.12315503731E+03  0.17580056937E+03  0.12407943467E+03 0.  0.
         25    2    3    3    0    0  0.54674738108E+01 -0.17693998929E+02 -0.32377316111E+03  0.34890719915E+03  0.12870199259E+03 0.  0.
          5    1    4    4  502    0 -0.11317501291E+02  0.70685536557E+02 -0.75337479435E+02  0.10403055667E+03  0.47000000000E+01 0. -1.
         -5    1    4    4    0  502  0.58500274806E+01 -0.52991537628E+02 -0.47817557880E+02  0.71770012702E+02  0.47000000000E+01 0. -1.
          5    1    5    5  503    0 -0.29189435254E+02 -0.44096793825E+02 -0.54474617732E+02  0.76066578292E+02  0.47000000000E+01 0. -1.
         -5    1    5    5    0  503  0.34656909064E+02  0.26402794896E+02 -0.26929854338E+03  0.27284062086E+03  0.47000000000E+01 0. -1.
<mgrwt>
<rscale>  0 0.27490622E+03</rscale>
<asrwt>0</asrwt>
<pdfrwt beam="1">  1        4 0.59830438E-02 0.27490622E+03</pdfrwt>
<pdfrwt beam="2">  1       -4 0.74741229E-01 0.27490622E+03</pdfrwt>
<totfact> 0.55177487E+02</totfact>
</mgrwt>
</event>
<event>
 9    1  0.2024718E-002  0.2751217E+03  0.7818608E-02  0.1098384E+00
         -3   -1    0    0    0  501 -0.00000000000E+00  0.00000000000E+00  0.77553940363E+02  0.77553940363E+02  0.00000000000E+00 0.  1.
          3   -1    0    0  501    0  0.00000000000E+00 -0.00000000000E+00 -0.24399773113E+03  0.24399773113E+03  0.00000000000E+00 0.  1.
         36    2    1    2    0    0  0.00000000000E+00  0.00000000000E+00 -0.16644379076E+03  0.32155167149E+03  0.27512168572E+03 0.  0.
         25    2    3    3    0    0 -0.12929967508E+02 -0.17760086344E+02 -0.96371075065E+02  0.15839378184E+03  0.12376833719E+03 0.  0.
         25    2    3    3    0    0  0.12929967508E+02  0.17760086344E+02 -0.70072715700E+02  0.16315788965E+03  0.14569731206E+03 0.  0.
          5    1    4    4  502    0 -0.40771597760E+02 -0.30327129994E+02  0.60714420834E+01  0.51390761879E+02  0.47000000000E+01 0.  1.
         -5    1    4    4    0  502  0.27841630252E+02  0.12567043649E+02 -0.10244251715E+03  0.10700301996E+03  0.47000000000E+01 0.  1.
          5    1    5    5  503    0  0.29554728366E+01  0.81608559203E+02 -0.47243108005E+02  0.94460007457E+02  0.47000000000E+01 0. -1.
         -5    1    5    5    0  503  0.99744946718E+01 -0.63848472858E+02 -0.22829607695E+02  0.68697882193E+02  0.47000000000E+01 0. -1.
<mgrwt>
<rscale>  0 0.27512169E+03</rscale>
<asrwt>0</asrwt>
<pdfrwt beam="1">  1        3 0.37538111E-01 0.27512169E+03</pdfrwt>
<pdfrwt beam="2">  1       -3 0.11931376E-01 0.27512169E+03</pdfrwt>
<totfact> 0.97987710E+02</totfact>
</mgrwt>
</event>
<event>
 9    1  0.2024718E-002  0.2741668E+03  0.7818608E-02  0.1098918E+00
         -1   -1    0    0    0  501 -0.00000000000E+00  0.00000000000E+00  0.24945211217E+02  0.24945211217E+02  0.00000000000E+00 0.  1.
          1   -1    0    0  501    0  0.00000000000E+00 -0.00000000000E+00 -0.75332513200E+03  0.75332513200E+03  0.00000000000E+00 0.  1.
         36    2    1    2    0    0  0.00000000000E+00  0.00000000000E+00 -0.72837992078E+03  0.77827034322E+03  0.27416677066E+03 0.  0.
         25    2    3    3    0    0 -0.47774335637E+02  0.22187813244E+02 -0.43321505224E+03  0.45409705040E+03  0.12551559062E+03 0.  0.
         25    2    3    3    0    0  0.47774335637E+02 -0.22187813244E+02 -0.29516486854E+03  0.32417329282E+03  0.12325314582E+03 0.  0.
          5    1    4    4  502    0  0.14742545239E+02 -0.41185867841E+02 -0.10176411459E+03  0.11086768406E+03  0.47000000000E+01 0.  1.
         -5    1    4    4    0  502 -0.62516880876E+02  0.63373681085E+02 -0.33145093765E+03  0.34322936634E+03  0.47000000000E+01 0.  1.
          5    1    5    5  503    0  0.44583193073E+01 -0.68181525855E+02 -0.18233036432E+03  0.19476921941E+03  0.47000000000E+01 0. -1.
         -5    1    5    5    0  503  0.43316016329E+02  0.45993712611E+02 -0.11283450422E+03  0.12940407341E+03  0.47000000000E+01 0. -1.
<mgrwt>
<rscale>  0 0.27416677E+03</rscale>
<asrwt>0</asrwt>
<pdfrwt beam="1">  1        1 0.11589619E+00 0.27416677E+03</pdfrwt>
<pdfrwt beam="2">  1       -1 0.38377243E-02 0.27416677E+03</pdfrwt>
<totfact> 0.65935677E+03</totfact>
</mgrwt>
</event>
<event>
 9    1  0.2024718E-002  0.2754253E+03  0.7818608E-02  0.1098214E+00
          2   -1    0    0  501    0  0.00000000000E+00  0.00000000000E+00  0.12661277030E+04  0.12661277030E+04  0.00000000000E+00 0.  1.
         -2   -1    0    0    0  501 -0.00000000000E+00 -0.00000000000E+00 -0.14978561674E+02  0.14978561674E+02  0.00000000000E+00 0.  1.
         36    2    1    2    0    0  0.00000000000E+00  0.00000000000E+00  0.12511491413E+04  0.12811062647E+04  0.27542528487E+03 0.  0.
         25    2    3    3    0    0 -0.22396489126E+02  0.28789422151E+02  0.41803015036E+03  0.43780583241E+03  0.12487716658E+03 0.  0.
         25    2    3    3    0    0  0.22396489126E+02 -0.28789422151E+02  0.83311899097E+03  0.84330043227E+03  0.12545091626E+03 0.  0.
          5    1    4    4  502    0  0.54481968623E+01  0.19285862652E+02  0.19680453779E+01  0.20678262738E+02  0.47000000000E+01 0.  1.
         -5    1    4    4    0  502 -0.27844685989E+02  0.95035594997E+01  0.41606210498E+03  0.41712756967E+03  0.47000000000E+01 0.  1.
          5    1    5    5  503    0 -0.29363017520E+02 -0.15157992457E+02  0.68370384909E+03  0.68451807484E+03  0.47000000000E+01 0. -1.
         -5    1    5    5    0  503  0.51759506646E+02 -0.13631429694E+02  0.14941514189E+03  0.15878235742E+03  0.47000000000E+01 0. -1.
<mgrwt>
<rscale>  0 0.27542528E+03</rscale>
<asrwt>0</asrwt>
<pdfrwt beam="1">  1        2 0.19478879E+00 0.27542528E+03</pdfrwt>
<pdfrwt beam="2">  1       -2 0.23043951E-02 0.27542528E+03</pdfrwt>
<totfact> 0.11483150E+04</totfact>
</mgrwt>
</event>
<event>
 9    1  0.2024718E-002  0.2757085E+03  0.7818608E-02  0.1098056E+00
         -4   -1    0    0    0  501 -0.00000000000E+00  0.00000000000E+00  0.32927819069E+03  0.32927819069E+03  0.00000000000E+00 0.  1.
          4   -1    0    0  501    0  0.00000000000E+00 -0.00000000000E+00 -0.57713497778E+02  0.57713497778E+02  0.00000000000E+00 0.  1.
         36    2    1    2    0    0  0.35527136788E-14  0.00000000000E+00  0.27156469291E+03  0.38699168847E+03  0.27570851366E+03 0.  0.
         25    2    3    3    0    0  0.46031735020E+01 -0.61568076921E+01  0.41099666832E+02  0.12574285119E+03  0.11858746361E+03 0.  0.
         25    2    3    3    0    0 -0.46031735020E+01  0.61568076921E+01  0.23046502608E+03  0.26124883727E+03  0.12279141356E+03 0.  0.
          5    1    4    4  502    0 -0.71607211199E+01 -0.36243899284E+02 -0.29794330657E+02  0.47693692471E+02  0.47000000000E+01 0.  1.
         -5    1    4    4    0  502  0.11763894622E+02  0.30087091592E+02  0.70893997488E+02  0.78049158721E+02  0.47000000000E+01 0.  1.
          5    1    5    5  503    0  0.28416925831E+02 -0.38422714662E+02  0.39026830367E+02  0.61878996147E+02  0.47000000000E+01 0.  1.
         -5    1    5    5    0  503 -0.33020099333E+02  0.44579522354E+02  0.19143819571E+03  0.19936984113E+03  0.47000000000E+01 0.  1.
<mgrwt>
<rscale>  0 0.27570851E+03</rscale>
<asrwt>0</asrwt>
<pdfrwt beam="1">  1        4 0.88789999E-02 0.27570851E+03</pdfrwt>
<pdfrwt beam="2">  1       -4 0.50658182E-01 0.27570851E+03</pdfrwt>
<totfact> 0.65664325E+02</totfact>
</mgrwt>
</event>
<event>
 9    1  0.2024718E-002  0.2786864E+03  0.7818608E-02  0.1096409E+00
          2   -1    0    0  501    0  0.00000000000E+00  0.00000000000E+00  0.90763272150E+03  0.90763272150E+03  0.00000000000E+00 0.  1.
         -2   -1    0    0    0  501 -0.00000000000E+00 -0.00000000000E+00 -0.21392493285E+02  0.21392493285E+02  0.00000000000E+00 0.  1.
         36    2    1    2    0    0 -0.35527136788E-14  0.00000000000E+00  0.88624022822E+03  0.92902521479E+03  0.27868639651E+03 0.  0.
         25    2    3    3    0    0 -0.27732654487E+01 -0.34806276198E+02  0.61552466035E+03  0.62931993939E+03  0.12630839543E+03 0.  0.
         25    2    3    3    0    0  0.27732654487E+01  0.34806276198E+02  0.27071556787E+03  0.29970527540E+03  0.12376253694E+03 0.  0.
          5    1    4    4  502    0 -0.16061164358E+02 -0.80352107228E+02  0.43029340218E+03  0.43805128022E+03  0.47000000000E+01 0.  1.
         -5    1    4    4    0  502  0.13287898909E+02  0.45545831029E+02  0.18523125816E+03  0.19126865917E+03  0.47000000000E+01 0.  1.
          5    1    5    5  503    0  0.32291888959E+02 -0.34556272749E+02  0.14960555153E+03  0.15697392500E+03  0.47000000000E+01 0.  1.
         -5    1    5    5    0  503 -0.29518623510E+02  0.69362548947E+02  0.12111001634E+03  0.14273135040E+03  0.47000000000E+01 0.  1.
<mgrwt>
<rscale>  0 0.27868640E+03</rscale>
<asrwt>0</asrwt>
<pdfrwt beam="1">  1        2 0.13963577E+00 0.27868640E+03</pdfrwt>
<pdfrwt beam="2">  1       -2 0.32911535E-02 0.27868640E+03</pdfrwt>
<totfact> 0.11048505E+04</totfact>
</mgrwt>
</event>
<event>
 9    1  0.2024718E-002  0.2729574E+03  0.7818608E-02  0.1099599E+00
          2   -1    0    0  501    0  0.00000000000E+00  0.00000000000E+00  0.75270588736E+03  0.75270588736E+03  0.00000000000E+00 0.  1.
         -2   -1    0    0    0  501 -0.00000000000E+00 -0.00000000000E+00 -0.24745971442E+02  0.24745971442E+02  0.00000000000E+00 0.  1.
         36    2    1    2    0    0  0.00000000000E+00  0.71054273576E-14  0.72795991592E+03  0.77745185881E+03  0.27295742081E+03 0.  0.
         25    2    3    3    0    0  0.90397651250E+01  0.43318429457E+02  0.28250758400E+03  0.31241304635E+03  0.12582993615E+03 0.  0.
         25    2    3    3    0    0 -0.90397651250E+01 -0.43318429457E+02  0.44545233193E+03  0.46503881246E+03  0.12599648165E+03 0.  0.
          5    1    4    4  502    0  0.54787083657E+02  0.54747709195E+02  0.22437500159E+03  0.23741349485E+03  0.47000000000E+01 0. -1.
         -5    1    4    4    0  502 -0.45747318532E+02 -0.11429279738E+02  0.58132582402E+02  0.74999551498E+02  0.47000000000E+01 0. -1.
          5    1    5    5  503    0 -0.65748096612E+02 -0.20847630053E+02  0.18494551048E+03  0.19744459409E+03  0.47000000000E+01 0. -1.
         -5    1    5    5    0  503  0.56708331487E+02 -0.22470799404E+02  0.26050682144E+03  0.26759421837E+03  0.47000000000E+01 0. -1.
<mgrwt>
<rscale>  0 0.27295742E+03</rscale>
<asrwt>0</asrwt>
<pdfrwt beam="1">  1        2 0.11580089E+00 0.27295742E+03</pdfrwt>
<pdfrwt beam="2">  1       -2 0.38070731E-02 0.27295742E+03</pdfrwt>
<totfact> 0.11305122E+04</totfact>
</mgrwt>
</event>
<event>
 9    1  0.2024718E-002  0.2745767E+03  0.7818608E-02  0.1098688E+00
          2   -1    0    0  501    0  0.00000000000E+00  0.00000000000E+00  0.67374446308E+03  0.67374446308E+03  0.00000000000E+00 0.  1.
         -2   -1    0    0    0  501 -0.00000000000E+00 -0.00000000000E+00 -0.27975139042E+02  0.27975139042E+02  0.00000000000E+00 0.  1.
         36    2    1    2    0    0  0.00000000000E+00 -0.71054273576E-14  0.64576932404E+03  0.70171960212E+03  0.27457672905E+03 0.  0.
         25    2    3    3    0    0  0.11241557198E+02 -0.55449672711E+02  0.28144364280E+03  0.31254400541E+03  0.12358071222E+03 0.  0.
         25    2    3    3    0    0 -0.11241557198E+02  0.55449672711E+02  0.36432568123E+03  0.38917559671E+03  0.12459295428E+03 0.  0.
          5    1    4    4  502    0  0.57432015695E+01  0.38812455034E+02  0.60964877841E+02  0.72651203433E+02  0.47000000000E+01 0. -1.
         -5    1    4    4    0  502  0.54983556281E+01 -0.94262127745E+02  0.22047876496E+03  0.23989280198E+03  0.47000000000E+01 0. -1.
          5    1    5    5  503    0  0.16525432866E+02  0.15545859465E+02  0.16529503017E+01  0.23228988842E+02  0.47000000000E+01 0.  1.
         -5    1    5    5    0  503 -0.27766990064E+02  0.39903813246E+02  0.36267273093E+03  0.36594660787E+03  0.47000000000E+01 0.  1.
<mgrwt>
<rscale>  0 0.27457673E+03</rscale>
<asrwt>0</asrwt>
<pdfrwt beam="1">  1        2 0.10365298E+00 0.27457673E+03</pdfrwt>
<pdfrwt beam="2">  1       -2 0.43038680E-02 0.27457673E+03</pdfrwt>
<totfact> 0.10763499E+04</totfact>
</mgrwt>
</event>
<event>
 9    1  0.2024718E-002  0.2744230E+03  0.7818608E-02  0.1098775E+00
          1   -1    0    0  501    0  0.00000000000E+00  0.00000000000E+00  0.31505613611E+04  0.31505613611E+04  0.00000000000E+00 0. -1.
         -1   -1    0    0    0  501 -0.00000000000E+00 -0.00000000000E+00 -0.59757596357E+01  0.59757596357E+01  0.00000000000E+00 0. -1.
         36    2    1    2    0    0  0.00000000000E+00  0.71054273576E-14  0.31445856015E+04  0.31565371208E+04  0.27442301224E+03 0.  0.
         25    2    3    3    0    0  0.85783776488E+01  0.61143828564E+02  0.12610077401E+04  0.12678083615E+04  0.11569513564E+03 0.  0.
         25    2    3    3    0    0 -0.85783776488E+01 -0.61143828564E+02  0.18835778614E+04  0.18887287593E+04  0.12497443752E+03 0.  0.
          5    1    4    4  502    0  0.54812709620E+02  0.49076791203E+02  0.97638097758E+03  0.97916028716E+03  0.47000000000E+01 0.  1.
         -5    1    4    4    0  502 -0.46234331971E+02  0.12067037361E+02  0.28462676256E+03  0.28864807432E+03  0.47000000000E+01 0.  1.
          5    1    5    5  503    0 -0.53068025655E+02 -0.59305690708E+02  0.15638836377E+04  0.15659142705E+04  0.47000000000E+01 0. -1.
         -5    1    5    5    0  503  0.44489648006E+02 -0.18381378561E+01  0.31969422366E+03  0.32281448879E+03  0.47000000000E+01 0. -1.
<mgrwt>
<rscale>  0 0.27442301E+03</rscale>
<asrwt>0</asrwt>
<pdfrwt beam="1">  1        1 0.48470042E+00 0.27442301E+03</pdfrwt>
<pdfrwt beam="2">  1       -1 0.91935015E-03 0.27442301E+03</pdfrwt>
<totfact> 0.12033702E+03</totfact>
</mgrwt>
</event>
<event>
 9    1  0.2024718E-002  0.2762681E+03  0.7818608E-02  0.1097745E+00
          2   -1    0    0  501    0  0.00000000000E+00  0.00000000000E+00  0.19376207725E+04  0.19376207725E+04  0.00000000000E+00 0.  1.
         -2   -1    0    0    0  501 -0.00000000000E+00 -0.00000000000E+00 -0.98476558559E+01  0.98476558559E+01  0.00000000000E+00 0.  1.
         36    2    1    2    0    0  0.00000000000E+00  0.00000000000E+00  0.19277731167E+04  0.19474684284E+04  0.27626814907E+03 0.  0.
         25    2    3    3    0    0 -0.10635840886E+02 -0.37168291130E+02  0.59516387544E+03  0.60837794879E+03  0.12003785641E+03 0.  0.
         25    2    3    3    0    0  0.10635840886E+02  0.37168291130E+02  0.13326092412E+04  0.13390904796E+04  0.12578282767E+03 0.  0.
          5    1    4    4  502    0  0.24197942417E+02 -0.43789173380E+02  0.54186494757E+03  0.54418998845E+03  0.47000000000E+01 0. -1.
         -5    1    4    4    0  502 -0.34833783304E+02  0.66208822509E+01  0.53298927867E+02  0.64187960341E+02  0.47000000000E+01 0. -1.
          5    1    5    5  503    0 -0.51853893935E+01  0.41878530342E+02  0.13100813935E+04  0.13107692578E+04  0.47000000000E+01 0. -1.
         -5    1    5    5    0  503  0.15821230280E+02 -0.47102392127E+01  0.22527847735E+02  0.28321221806E+02  0.47000000000E+01 0. -1.
<mgrwt>
<rscale>  0 0.27626815E+03</rscale>
<asrwt>0</asrwt>
<pdfrwt beam="1">  1        2 0.29809520E+00 0.27626815E+03</pdfrwt>
<pdfrwt beam="2">  1       -2 0.15150255E-02 0.27626815E+03</pdfrwt>
<totfact> 0.93167528E+03</totfact>
</mgrwt>
</event>
<event>
 9    1  0.2024718E-002  0.2762855E+03  0.7818608E-02  0.1097735E+00
          1   -1    0    0  501    0  0.00000000000E+00  0.00000000000E+00  0.11677730730E+04  0.11677730730E+04  0.00000000000E+00 0. -1.
         -1   -1    0    0    0  501 -0.00000000000E+00 -0.00000000000E+00 -0.16341723805E+02  0.16341723805E+02  0.00000000000E+00 0. -1.
         36    2    1    2    0    0  0.35527136788E-14  0.71054273576E-14  0.11514313492E+04  0.11841147968E+04  0.27628554089E+03 0.  0.
         25    2    3    3    0    0  0.60914554921E+01  0.55932854781E+02  0.61846182311E+03  0.63380200702E+03  0.12666636247E+03 0.  0.
         25    2    3    3    0    0 -0.60914554921E+01 -0.55932854781E+02  0.53296952609E+03  0.55031278979E+03  0.12498824262E+03 0.  0.
          5    1    4    4  502    0  0.26018285987E+02  0.27518732811E+02  0.43876687880E+02  0.58150542565E+02  0.47000000000E+01 0. -1.
         -5    1    4    4    0  502 -0.19926830495E+02  0.28414121969E+02  0.57458513523E+03  0.57565146445E+03  0.47000000000E+01 0. -1.
          5    1    5    5  503    0  0.56286938828E+02 -0.22443126782E+02  0.32327096803E+03  0.32893482971E+03  0.47000000000E+01 0. -1.
         -5    1    5    5    0  503 -0.62378394321E+02 -0.33489727998E+02  0.20969855806E+03  0.22137796008E+03  0.47000000000E+01 0. -1.
<mgrwt>
<rscale>  0 0.27628554E+03</rscale>
<asrwt>0</asrwt>
<pdfrwt beam="1">  1        1 0.17965733E+00 0.27628554E+03</pdfrwt>
<pdfrwt beam="2">  1       -1 0.25141123E-02 0.27628554E+03</pdfrwt>
<totfact> 0.59087917E+03</totfact>
</mgrwt>
</event>
<event>
 9    1  0.2024718E-002  0.2748051E+03  0.7818608E-02  0.1098561E+00
         -2   -1    0    0    0  501 -0.00000000000E+00  0.00000000000E+00  0.13088635549E+02  0.13088635549E+02  0.00000000000E+00 0.  1.
          2   -1    0    0  501    0  0.00000000000E+00 -0.00000000000E+00 -0.14424311385E+04  0.14424311385E+04  0.00000000000E+00 0.  1.
         36    2    1    2    0    0  0.00000000000E+00  0.00000000000E+00 -0.14293425029E+04  0.14555197740E+04  0.27480506164E+03 0.  0.
         25    2    3    3    0    0  0.34014955023E+02  0.16525927623E+02 -0.91570598879E+03  0.92476859319E+03  0.12348833793E+03 0.  0.
         25    2    3    3    0    0 -0.34014955023E+02 -0.16525927623E+02 -0.51363651414E+03  0.53075118083E+03  0.12823503362E+03 0.  0.
          5    1    4    4  502    0  0.61509135378E+02  0.48342850716E+02 -0.41924402340E+03  0.42650679492E+03  0.47000000000E+01 0.  1.
         -5    1    4    4    0  502 -0.27494180354E+02 -0.31816923092E+02 -0.49646196539E+03  0.49826179828E+03  0.47000000000E+01 0.  1.
          5    1    5    5  503    0  0.16463184666E+02 -0.53585349786E+02 -0.36623679177E+03  0.37053192009E+03  0.47000000000E+01 0.  1.
         -5    1    5    5    0  503 -0.50478139689E+02  0.37059422162E+02 -0.14739972237E+03  0.16021926074E+03  0.47000000000E+01 0.  1.
<mgrwt>
<rscale>  0 0.27480506E+03</rscale>
<asrwt>0</asrwt>
<pdfrwt beam="1">  1        2 0.22191261E+00 0.27480506E+03</pdfrwt>
<pdfrwt beam="2">  1       -2 0.20136351E-02 0.27480506E+03</pdfrwt>
<totfact> 0.11214202E+04</totfact>
</mgrwt>
</event>
<event>
 9    1  0.2024718E-002  0.2750262E+03  0.7818608E-02  0.1098437E+00
         -2   -1    0    0    0  501 -0.00000000000E+00  0.00000000000E+00  0.82048633771E+02  0.82048633771E+02  0.00000000000E+00 0. -1.
          2   -1    0    0  501    0  0.00000000000E+00 -0.00000000000E+00 -0.23047132448E+03  0.23047132448E+03  0.00000000000E+00 0. -1.
         36    2    1    2    0    0  0.00000000000E+00  0.00000000000E+00 -0.14842269071E+03  0.31251995825E+03  0.27502623363E+03 0.  0.
         25    2    3    3    0    0 -0.56700101372E+02  0.21065126396E+01 -0.99715616597E+02  0.16958625952E+03  0.12488777496E+03 0.  0.
         25    2    3    3    0    0  0.56700101372E+02 -0.21065126396E+01 -0.48707074110E+02  0.14293369873E+03  0.12181266056E+03 0.  0.
          5    1    4    4  502    0  0.32553506347E+02 -0.26875861438E+02 -0.23101263692E+02  0.48350812689E+02  0.47000000000E+01 0.  1.
         -5    1    4    4    0  502 -0.89253607718E+02  0.28982374078E+02 -0.76614352905E+02  0.12123544683E+03  0.47000000000E+01 0.  1.
          5    1    5    5  503    0 -0.12334133727E+02  0.29671536744E+02  0.21837919607E+02  0.39134584198E+02  0.47000000000E+01 0. -1.
         -5    1    5    5    0  503  0.69034235099E+02 -0.31778049384E+02 -0.70544993717E+02  0.10379911453E+03  0.47000000000E+01 0. -1.
<mgrwt>
<rscale>  0 0.27502623E+03</rscale>
<asrwt>0</asrwt>
<pdfrwt beam="1">  1        2 0.35457127E-01 0.27502623E+03</pdfrwt>
<pdfrwt beam="2">  1       -2 0.12622867E-01 0.27502623E+03</pdfrwt>
<totfact> 0.65867270E+03</totfact>
</mgrwt>
</event>
<event>
 9    1  0.2024718E-002  0.2748953E+03  0.7818608E-02  0.1098510E+00
          2   -1    0    0  501    0  0.00000000000E+00  0.00000000000E+00  0.19714232913E+03  0.19714232913E+03  0.00000000000E+00 0. -1.
         -2   -1    0    0    0  501 -0.00000000000E+00 -0.00000000000E+00 -0.95828507014E+02  0.95828507014E+02  0.00000000000E+00 0. -1.
         36    2    1    2    0    0  0.00000000000E+00 -0.17763568394E-14  0.10131382212E+03  0.29297083615E+03  0.27489528967E+03 0.  0.
         25    2    3    3    0    0 -0.49000644632E+02  0.14117994894E+02  0.82008808023E+02  0.15872069904E+03  0.12596203696E+03 0.  0.
         25    2    3    3    0    0  0.49000644632E+02 -0.14117994894E+02  0.19305014097E+02  0.13425013711E+03  0.12267858326E+03 0.  0.
          5    1    4    4  502    0 -0.72611162058E+02 -0.24905420182E+02  0.16332839905E+02  0.78622595157E+02  0.47000000000E+01 0.  1.
         -5    1    4    4    0  502  0.23610517426E+02  0.39023415076E+02  0.65675968118E+02  0.80098103883E+02  0.47000000000E+01 0.  1.
          5    1    5    5  503    0 -0.34756047559E+02 -0.15704582151E+02  0.31211336493E+02  0.49506103342E+02  0.47000000000E+01 0.  1.
         -5    1    5    5    0  503  0.83756692191E+02  0.15865872572E+01 -0.11906322395E+02  0.84744033766E+02  0.47000000000E+01 0.  1.
<mgrwt>
<rscale>  0 0.27489529E+03</rscale>
<asrwt>0</asrwt>
<pdfrwt beam="1">  1        2 0.30329589E-01 0.27489529E+03</pdfrwt>
<pdfrwt beam="2">  1       -2 0.14742847E-01 0.27489529E+03</pdfrwt>
<totfact> 0.60582493E+03</totfact>
</mgrwt>
</event>
<event>
 9    1  0.2024718E-002  0.2729091E+03  0.7818608E-02  0.1099626E+00
         -1   -1    0    0    0  501 -0.00000000000E+00  0.00000000000E+00  0.74395344459E+01  0.74395344459E+01  0.00000000000E+00 0.  1.
          1   -1    0    0  501    0  0.00000000000E+00 -0.00000000000E+00 -0.25028243679E+04  0.25028243679E+04  0.00000000000E+00 0.  1.
         36    2    1    2    0    0  0.00000000000E+00  0.71054273576E-14 -0.24953848335E+04  0.25102639024E+04  0.27290912844E+03 0.  0.
         25    2    3    3    0    0 -0.14890710446E+02  0.83801443600E-01 -0.17023289351E+04  0.17069172746E+04  0.12418147525E+03 0.  0.
         25    2    3    3    0    0  0.14890710446E+02 -0.83801443600E-01 -0.79305589837E+03  0.80334662775E+03  0.12730438368E+03 0.  0.
          5    1    4    4  502    0 -0.77644828750E+01 -0.57011081552E+02 -0.52304420933E+03  0.52622037734E+03  0.47000000000E+01 0. -1.
         -5    1    4    4    0  502 -0.71262275708E+01  0.57094882996E+02 -0.11792847258E+04  0.11806968973E+04  0.47000000000E+01 0. -1.
          5    1    5    5  503    0  0.41867225632E+02 -0.51911365261E+02 -0.50331523429E+03  0.50773612191E+03  0.47000000000E+01 0. -1.
         -5    1    5    5    0  503 -0.26976515186E+02  0.51827563818E+02 -0.28974066408E+03  0.29561050585E+03  0.47000000000E+01 0. -1.
<mgrwt>
<rscale>  0 0.27290913E+03</rscale>
<asrwt>0</asrwt>
<pdfrwt beam="1">  1        1 0.38505024E+00 0.27290913E+03</pdfrwt>
<pdfrwt beam="2">  1       -1 0.11445428E-02 0.27290913E+03</pdfrwt>
<totfact> 0.24422465E+03</totfact>
</mgrwt>
</event>
<event>
 9    1  0.2024718E-002  0.2742632E+03  0.7818608E-02  0.1098864E+00
         -2   -1    0    0    0  501 -0.00000000000E+00  0.00000000000E+00  0.12465937199E+03  0.12465937199E+03  0.00000000000E+00 0.  1.
          2   -1    0    0  501    0  0.00000000000E+00 -0.00000000000E+00 -0.15085167086E+03  0.15085167086E+03  0.00000000000E+00 0.  1.
         36    2    1    2    0    0  0.00000000000E+00  0.00000000000E+00 -0.26192298869E+02  0.27551104285E+03  0.27426319150E+03 0.  0.
         25    2    3    3    0    0  0.32824079699E+02  0.24307234582E+02 -0.49193854818E+02  0.13812177449E+03  0.12243090858E+03 0.  0.
         25    2    3    3    0    0 -0.32824079699E+02 -0.24307234582E+02  0.23001555949E+02  0.13738926836E+03  0.12914518041E+03 0.  0.
          5    1    4    4  502    0  0.38204263268E+02  0.11197162387E+02 -0.87914205684E+02  0.96622666794E+02  0.47000000000E+01 0.  1.
         -5    1    4    4    0  502 -0.53801835693E+01  0.13110072196E+02  0.38720350866E+02  0.41499107694E+02  0.47000000000E+01 0.  1.
          5    1    5    5  503    0  0.41843431219E+02 -0.19752400798E+02 -0.20388814498E+02  0.50782121166E+02  0.47000000000E+01 0.  1.
         -5    1    5    5    0  503 -0.74667510918E+02 -0.45548337840E+01  0.43390370447E+02  0.86607147193E+02  0.47000000000E+01 0.  1.
<mgrwt>
<rscale>  0 0.27426319E+03</rscale>
<asrwt>0</asrwt>
<pdfrwt beam="1">  1        2 0.23207949E-01 0.27426319E+03</pdfrwt>
<pdfrwt beam="2">  1       -2 0.19178365E-01 0.27426319E+03</pdfrwt>
<totfact> 0.52505094E+03</totfact>
</mgrwt>
</event>
<event>
 9    1  0.2024718E-002  0.2746646E+03  0.7818608E-02  0.1098639E+00
         -2   -1    0    0    0  501 -0.00000000000E+00  0.00000000000E+00  0.84805694801E+02  0.84805694801E+02  0.00000000000E+00 0. -1.
          2   -1    0    0  501    0  0.00000000000E+00 -0.00000000000E+00 -0.22239263638E+03  0.22239263638E+03  0.00000000000E+00 0. -1.
         36    2    1    2    0    0 -0.35527136788E-14 -0.71054273576E-14 -0.13758694158E+03  0.30719833118E+03  0.27466461037E+03 0.  0.
         25    2    3    3    0    0 -0.21905052602E+02 -0.57180730813E+02 -0.63392570157E+02  0.15105633678E+03  0.12267816279E+03 0.  0.
         25    2    3    3    0    0  0.21905052602E+02  0.57180730813E+02 -0.74194371426E+02  0.15614199440E+03  0.12298800900E+03 0.  0.
          5    1    4    4  502    0  0.32527518185E+01 -0.19444584789E+02 -0.93986719322E+02  0.96147104382E+02  0.47000000000E+01 0.  1.
         -5    1    4    4    0  502 -0.25157804421E+02 -0.37736146023E+02  0.30594149165E+02  0.54909232403E+02  0.47000000000E+01 0.  1.
          5    1    5    5  503    0  0.53110417194E+02  0.15428828465E+02  0.10588661109E+02  0.56506414737E+02  0.47000000000E+01 0.  1.
         -5    1    5    5    0  503 -0.31205364591E+02  0.41751902348E+02 -0.84783032536E+02  0.99635579664E+02  0.47000000000E+01 0.  1.
<mgrwt>
<rscale>  0 0.27466461E+03</rscale>
<asrwt>0</asrwt>
<pdfrwt beam="1">  1        2 0.34214252E-01 0.27466461E+03</pdfrwt>
<pdfrwt beam="2">  1       -2 0.13047030E-01 0.27466461E+03</pdfrwt>
<totfact> 0.64886059E+03</totfact>
</mgrwt>
</event>
<event>
 9    1  0.2024718E-002  0.2762294E+03  0.7818608E-02  0.1097766E+00
         -2   -1    0    0    0  501 -0.00000000000E+00  0.00000000000E+00  0.78883812800E+01  0.78883812800E+01  0.00000000000E+00 0. -1.
          2   -1    0    0  501    0  0.00000000000E+00 -0.00000000000E+00 -0.24181984165E+04  0.24181984165E+04  0.00000000000E+00 0. -1.
         36    2    1    2    0    0  0.35527136788E-14  0.00000000000E+00 -0.24103100352E+04  0.24260867978E+04  0.27622940553E+03 0.  0.
         25    2    3    3    0    0  0.13835757716E+02  0.54898802774E+02 -0.10755238962E+04  0.10843960434E+04  0.12632426911E+03 0.  0.
         25    2    3    3    0    0 -0.13835757716E+02 -0.54898802774E+02 -0.13347861390E+04  0.13416907544E+04  0.12359100557E+03 0.  0.
          5    1    4    4  502    0  0.37407124488E+02 -0.30986181310E+02 -0.42294949246E+03  0.42575556317E+03  0.47000000000E+01 0. -1.
         -5    1    4    4    0  502 -0.23571366773E+02  0.85884984084E+02 -0.65257440376E+03  0.65864048028E+03  0.47000000000E+01 0. -1.
          5    1    5    5  503    0  0.10317648273E+02 -0.56417388519E+02 -0.12834745229E+04  0.12847639147E+04  0.47000000000E+01 0. -1.
         -5    1    5    5    0  503 -0.24153405989E+02  0.15185857447E+01 -0.51311616122E+02  0.56926839651E+02  0.47000000000E+01 0. -1.
<mgrwt>
<rscale>  0 0.27622941E+03</rscale>
<asrwt>0</asrwt>
<pdfrwt beam="1">  1        2 0.37202997E+00 0.27622941E+03</pdfrwt>
<pdfrwt beam="2">  1       -2 0.12135989E-02 0.27622941E+03</pdfrwt>
<totfact> 0.71483818E+03</totfact>
</mgrwt>
</event>
<event>
 9    1  0.2024718E-002  0.2749870E+03  0.7818608E-02  0.1098459E+00
         -1   -1    0    0    0  501 -0.00000000000E+00  0.00000000000E+00  0.25060126744E+02  0.25060126744E+02  0.00000000000E+00 0.  1.
          1   -1    0    0  501    0  0.00000000000E+00 -0.00000000000E+00 -0.75436424345E+03  0.75436424345E+03  0.00000000000E+00 0.  1.
         36    2    1    2    0    0  0.71054273576E-14  0.00000000000E+00 -0.72930411671E+03  0.77942437019E+03  0.27498700734E+03 0.  0.
         25    2    3    3    0    0  0.34954948969E+02 -0.45287153938E+02 -0.42536976755E+03  0.44634815002E+03  0.12253349387E+03 0.  0.
         25    2    3    3    0    0 -0.34954948969E+02  0.45287153938E+02 -0.30393434916E+03  0.33307622017E+03  0.12365639924E+03 0.  0.
          5    1    4    4  502    0  0.34751027439E+02 -0.45429183836E+02 -0.43332290760E+03  0.43710671111E+03  0.47000000000E+01 0.  1.
         -5    1    4    4    0  502  0.20392152935E+00  0.14202989794E+00  0.79531400510E+01  0.92414389113E+01  0.47000000000E+01 0.  1.
          5    1    5    5  503    0 -0.72280718275E+02 -0.51921631216E+01 -0.17918653171E+03  0.19334260767E+03  0.47000000000E+01 0. -1.
         -5    1    5    5    0  503  0.37325769306E+02  0.50479317060E+02 -0.12474781745E+03  0.13973361250E+03  0.47000000000E+01 0. -1.
<mgrwt>
<rscale>  0 0.27498701E+03</rscale>
<asrwt>0</asrwt>
<pdfrwt beam="1">  1        1 0.11605603E+00 0.27498701E+03</pdfrwt>
<pdfrwt beam="2">  1       -1 0.38554045E-02 0.27498701E+03</pdfrwt>
<totfact> 0.65356879E+03</totfact>
</mgrwt>
</event>
<event>
 9    1  0.2024718E-002  0.2733176E+03  0.7818608E-02  0.1099396E+00
         -2   -1    0    0    0  501 -0.00000000000E+00  0.00000000000E+00  0.68871625471E+01  0.68871625471E+01  0.00000000000E+00 0.  1.
          2   -1    0    0  501    0  0.00000000000E+00 -0.00000000000E+00 -0.27116573605E+04  0.27116573605E+04  0.00000000000E+00 0.  1.
         36    2    1    2    0    0 -0.71054273576E-14  0.35527136788E-14 -0.27047701979E+04  0.27185445230E+04  0.27331758095E+03 0.  0.
         25    2    3    3    0    0  0.40346120244E+02  0.97160305381E+01 -0.10102988336E+04  0.10186347656E+04  0.12325113274E+03 0.  0.
         25    2    3    3    0    0 -0.40346120244E+02 -0.97160305381E+01 -0.16944713643E+04  0.16999097575E+04  0.12937452761E+03 0.  0.
          5    1    4    4  502    0  0.21474405760E+00  0.62047447606E+02 -0.57251583185E+03  0.57588748865E+03  0.47000000000E+01 0. -1.
         -5    1    4    4    0  502  0.40131376186E+02 -0.52331417068E+02 -0.43778300177E+03  0.44274727690E+03  0.47000000000E+01 0. -1.
          5    1    5    5  503    0  0.13588096588E+02 -0.15553251574E+02 -0.47153712547E+02  0.51692384453E+02  0.47000000000E+01 0. -1.
         -5    1    5    5    0  503 -0.53934216832E+02  0.58372210359E+01 -0.16473176517E+04  0.16482173730E+04  0.47000000000E+01 0. -1.
<mgrwt>
<rscale>  0 0.27331758E+03</rscale>
<asrwt>0</asrwt>
<pdfrwt beam="1">  1        2 0.41717828E+00 0.27331758E+03</pdfrwt>
<pdfrwt beam="2">  1       -2 0.10595629E-02 0.27331758E+03</pdfrwt>
<totfact> 0.59949358E+03</totfact>
</mgrwt>
</event>
<event>
 9    1  0.2024718E-002  0.2661673E+03  0.7818608E-02  0.1103493E+00
         -3   -1    0    0    0  501 -0.00000000000E+00  0.00000000000E+00  0.17446292497E+02  0.17446292497E+02  0.00000000000E+00 0. -1.
          3   -1    0    0  501    0  0.00000000000E+00 -0.00000000000E+00 -0.10151878112E+04  0.10151878112E+04  0.00000000000E+00 0. -1.
         36    2    1    2    0    0  0.35527136788E-14  0.71054273576E-14 -0.99774151866E+03  0.10326341037E+04  0.26616734204E+03 0.  0.
         25    2    3    3    0    0 -0.15593531286E+02  0.14975194411E+02 -0.63134358503E+03  0.64297369483E+03  0.11980415361E+03 0.  0.
         25    2    3    3    0    0  0.15593531286E+02 -0.14975194411E+02 -0.36639793363E+03  0.38966040882E+03  0.13084484617E+03 0.  0.
          5    1    4    4  502    0 -0.48675585763E+02  0.36084398665E+02 -0.54048293253E+03  0.54388903908E+03  0.47000000000E+01 0. -1.
         -5    1    4    4    0  502  0.33082054477E+02 -0.21109204254E+02 -0.90860652503E+02  0.99084655754E+02  0.47000000000E+01 0. -1.
          5    1    5    5  503    0  0.20299620396E+02  0.56183615017E+02 -0.14105585967E+03  0.15325638235E+03  0.47000000000E+01 0.  1.
         -5    1    5    5    0  503 -0.47060891103E+01 -0.71158809428E+02 -0.22534207397E+03  0.23640402647E+03  0.47000000000E+01 0.  1.
<mgrwt>
<rscale>  0 0.26616734E+03</rscale>
<asrwt>0</asrwt>
<pdfrwt beam="1">  1        3 0.15618271E+00 0.26616734E+03</pdfrwt>
<pdfrwt beam="2">  1       -3 0.26840456E-02 0.26616734E+03</pdfrwt>
<totfact> 0.47457595E+02</totfact>
</mgrwt>
</event>
<event>
 9    1  0.2024718E-002  0.2747762E+03  0.7818608E-02  0.1098577E+00
         -1   -1    0    0    0  501 -0.00000000000E+00  0.00000000000E+00  0.34458188325E+02  0.34458188325E+02  0.00000000000E+00 0. -1.
          1   -1    0    0  501    0  0.00000000000E+00 -0.00000000000E+00 -0.54777965101E+03  0.54777965101E+03  0.00000000000E+00 0. -1.
         36    2    1    2    0    0  0.00000000000E+00  0.17763568394E-14 -0.51332146269E+03  0.58223783934E+03  0.27477623169E+03 0.  0.
         25    2    3    3    0    0 -0.54566790591E+02  0.12256273116E+02 -0.19329635211E+03  0.23378164036E+03  0.11900682655E+03 0.  0.
         25    2    3    3    0    0  0.54566790591E+02 -0.12256273116E+02 -0.32002511058E+03  0.34845619897E+03  0.12600754079E+03 0.  0.
          5    1    4    4  502    0  0.30184907142E+02  0.14510284296E+01 -0.11072524067E+03  0.11487124542E+03  0.47000000000E+01 0. -1.
         -5    1    4    4    0  502 -0.84751697733E+02  0.10805244687E+02 -0.82571111436E+02  0.11891039494E+03  0.47000000000E+01 0. -1.
          5    1    5    5  503    0 -0.58113261803E+01 -0.59995398231E+02 -0.15188385509E+03  0.16347481383E+03  0.47000000000E+01 0.  1.
         -5    1    5    5    0  503  0.60378116771E+02  0.47739125115E+02 -0.16814125549E+03  0.18498138514E+03  0.47000000000E+01 0.  1.
<mgrwt>
<rscale>  0 0.27477623E+03</rscale>
<asrwt>0</asrwt>
<pdfrwt beam="1">  1        1 0.84273793E-01 0.27477623E+03</pdfrwt>
<pdfrwt beam="2">  1       -1 0.53012597E-02 0.27477623E+03</pdfrwt>
<totfact> 0.64021771E+03</totfact>
</mgrwt>
</event>
<event>
 9    1  0.2024718E-002  0.2745684E+03  0.7818608E-02  0.1098693E+00
          4   -1    0    0  501    0  0.00000000000E+00  0.00000000000E+00  0.60303083821E+02  0.60303083821E+02  0.00000000000E+00 0. -1.
         -4   -1    0    0    0  501 -0.00000000000E+00 -0.00000000000E+00 -0.31253714122E+03  0.31253714122E+03  0.00000000000E+00 0. -1.
         36    2    1    2    0    0  0.00000000000E+00  0.00000000000E+00 -0.25223405740E+03  0.37284022504E+03  0.27456841351E+03 0.  0.
         25    2    3    3    0    0 -0.34041459308E+02  0.16494703231E+02 -0.68659451271E+02  0.14717007675E+03  0.12455526908E+03 0.  0.
         25    2    3    3    0    0  0.34041459308E+02 -0.16494703231E+02 -0.18357460613E+03  0.22567014829E+03  0.12568406275E+03 0.  0.
          5    1    4    4  502    0 -0.59127634527E+02  0.34958607150E+02  0.29764447535E+01  0.68913936196E+02  0.47000000000E+01 0.  1.
         -5    1    4    4    0  502  0.25086175219E+02 -0.18463903919E+02 -0.71635896025E+02  0.78256140553E+02  0.47000000000E+01 0.  1.
          5    1    5    5  503    0 -0.59983365114E+01  0.19750672860E+02  0.10878547736E+02  0.23801300808E+02  0.47000000000E+01 0.  1.
         -5    1    5    5    0  503  0.40039795819E+02 -0.36245376091E+02 -0.19445315386E+03  0.20186884749E+03  0.47000000000E+01 0.  1.
<mgrwt>
<rscale>  0 0.27456841E+03</rscale>
<asrwt>0</asrwt>
<pdfrwt beam="1">  1        4 0.92773977E-02 0.27456841E+03</pdfrwt>
<pdfrwt beam="2">  1       -4 0.48082636E-01 0.27456841E+03</pdfrwt>
<totfact> 0.67832967E+02</totfact>
</mgrwt>
</event>
<event>
 9    1  0.2024718E-002  0.2745337E+03  0.7818608E-02  0.1098713E+00
          1   -1    0    0  501    0  0.00000000000E+00  0.00000000000E+00  0.52186510030E+03  0.52186510030E+03  0.00000000000E+00 0. -1.
         -1   -1    0    0    0  501 -0.00000000000E+00 -0.00000000000E+00 -0.36105479931E+02  0.36105479931E+02  0.00000000000E+00 0. -1.
         36    2    1    2    0    0  0.00000000000E+00  0.71054273576E-14  0.48575962037E+03  0.55797058023E+03  0.27453371309E+03 0.  0.
         25    2    3    3    0    0 -0.22454967890E+02  0.24205052610E+02  0.36022585217E+03  0.38241843458E+03  0.12406080922E+03 0.  0.
         25    2    3    3    0    0  0.22454967890E+02 -0.24205052610E+02  0.12553376820E+03  0.17555214565E+03  0.11819356467E+03 0.  0.
          5    1    4    4  502    0 -0.58649049985E+01  0.57513723789E+02  0.32763578296E+03  0.33273040410E+03  0.47000000000E+01 0.  1.
         -5    1    4    4    0  502 -0.16590062892E+02 -0.33308671179E+02  0.32590069204E+02  0.49688030482E+02  0.47000000000E+01 0.  1.
          5    1    5    5  503    0 -0.19791619895E+02  0.13950895642E+01  0.12425287516E+03  0.12591473893E+03  0.47000000000E+01 0. -1.
         -5    1    5    5    0  503  0.42246587786E+02 -0.25600142174E+02  0.12808930368E+01  0.49637406720E+02  0.47000000000E+01 0. -1.
<mgrwt>
<rscale>  0 0.27453371E+03</rscale>
<asrwt>0</asrwt>
<pdfrwt beam="1">  1        1 0.80286933E-01 0.27453371E+03</pdfrwt>
<pdfrwt beam="2">  1       -1 0.55546896E-02 0.27453371E+03</pdfrwt>
<totfact> 0.63711963E+03</totfact>
</mgrwt>
</event>
<event>
 9    1  0.2024718E-002  0.2664328E+03  0.7818608E-02  0.1103339E+00
          2   -1    0    0  501    0  0.00000000000E+00  0.00000000000E+00  0.10658713139E+04  0.10658713139E+04  0.00000000000E+00 0.  1.
         -2   -1    0    0    0  501 -0.00000000000E+00 -0.00000000000E+00 -0.16649860602E+02  0.16649860602E+02  0.00000000000E+00 0.  1.
         36    2    1    2    0    0  0.00000000000E+00  0.00000000000E+00  0.10492214533E+04  0.10825211745E+04  0.26643279675E+03 0.  0.
         25    2    3    3    0    0  0.54288115047E+01 -0.20107042777E+02  0.39757825240E+03  0.41750762889E+03  0.12573936629E+03 0.  0.
         25    2    3    3    0    0 -0.54288115047E+01  0.20107042777E+02  0.65164320092E+03  0.66501354564E+03  0.13103583254E+03 0.  0.
          5    1    4    4  502    0 -0.33446301092E+02 -0.10274938716E+02  0.36193167591E+03  0.36364936058E+03  0.47000000000E+01 0. -1.
         -5    1    4    4    0  502  0.38875112597E+02 -0.98321040603E+01  0.35646576487E+02  0.53858268306E+02  0.47000000000E+01 0. -1.
          5    1    5    5  503    0 -0.20389081091E+02 -0.47742431860E+02  0.41727874320E+03  0.42052193041E+03  0.47000000000E+01 0. -1.
         -5    1    5    5    0  503  0.14960269586E+02  0.67849474636E+02  0.23436445773E+03  0.24449161523E+03  0.47000000000E+01 0. -1.
<mgrwt>
<rscale>  0 0.26643280E+03</rscale>
<asrwt>0</asrwt>
<pdfrwt beam="1">  1        2 0.16398015E+00 0.26643280E+03</pdfrwt>
<pdfrwt beam="2">  1       -2 0.25615178E-02 0.26643280E+03</pdfrwt>
<totfact> 0.12788273E+04</totfact>
</mgrwt>
</event>
<event>
 9    1  0.2024718E-002  0.2753957E+03  0.7818608E-02  0.1098231E+00
          1   -1    0    0  501    0  0.00000000000E+00  0.00000000000E+00  0.11511414237E+04  0.11511414237E+04  0.00000000000E+00 0. -1.
         -1   -1    0    0    0  501 -0.00000000000E+00 -0.00000000000E+00 -0.16471216555E+02  0.16471216555E+02  0.00000000000E+00 0. -1.
         36    2    1    2    0    0  0.00000000000E+00  0.22204460493E-15  0.11346702072E+04  0.11676126403E+04  0.27539571293E+03 0.  0.
         25    2    3    3    0    0  0.27307656394E+02  0.31501580003E+00  0.29721690181E+03  0.32443719668E+03  0.12718412063E+03 0.  0.
         25    2    3    3    0    0 -0.27307656394E+02 -0.31501580003E+00  0.83745330536E+03  0.84317544359E+03  0.94185894305E+02 0.  0.
          5    1    4    4  502    0  0.58262755328E+02 -0.41884130799E+02  0.12309872813E+03  0.14256302444E+03  0.47000000000E+01 0. -1.
         -5    1    4    4    0  502 -0.30955098934E+02  0.42199146599E+02  0.17411817368E+03  0.18187417224E+03  0.47000000000E+01 0. -1.
          5    1    5    5  503    0  0.38229289975E+00 -0.10106107906E+01 -0.41115155715E+00  0.48400958290E+01  0.47000000000E+01 0.  1.
         -5    1    5    5    0  503 -0.27689949294E+02  0.69559499061E+00  0.83786445692E+03  0.83833534776E+03  0.47000000000E+01 0.  1.
<mgrwt>
<rscale>  0 0.27539571E+03</rscale>
<asrwt>0</asrwt>
<pdfrwt beam="1">  1        1 0.17709862E+00 0.27539571E+03</pdfrwt>
<pdfrwt beam="2">  1       -1 0.25340342E-02 0.27539571E+03</pdfrwt>
<totfact> 0.60007775E+03</totfact>
</mgrwt>
</event>
<event>
 9    1  0.2024718E-002  0.2750315E+03  0.7818608E-02  0.1098434E+00
         -1   -1    0    0    0  501 -0.00000000000E+00  0.00000000000E+00  0.40060147087E+03  0.40060147087E+03  0.00000000000E+00 0. -1.
          1   -1    0    0  501    0  0.00000000000E+00 -0.00000000000E+00 -0.47205470997E+02  0.47205470997E+02  0.00000000000E+00 0. -1.
         36    2    1    2    0    0  0.71054273576E-14  0.00000000000E+00  0.35339599987E+03  0.44780694186E+03  0.27503149721E+03 0.  0.
         25    2    3    3    0    0 -0.32351631594E+02  0.30619633887E+02  0.11538806710E+03  0.17449579529E+03  0.12308609385E+03 0.  0.
         25    2    3    3    0    0  0.32351631594E+02 -0.30619633887E+02  0.23800793277E+03  0.27331114657E+03  0.12675573648E+03 0.  0.
          5    1    4    4  502    0  0.44106631912E+02 -0.32359782902E+01  0.57471588054E+02  0.72670076150E+02  0.47000000000E+01 0. -1.
         -5    1    4    4    0  502 -0.76458263506E+02  0.33855612177E+02  0.57916479044E+02  0.10182571914E+03  0.47000000000E+01 0. -1.
          5    1    5    5  503    0 -0.16862766025E+02 -0.76847922419E+01 -0.84480149759E+01  0.20901384329E+02  0.47000000000E+01 0. -1.
         -5    1    5    5    0  503  0.49214397620E+02 -0.22934841645E+02  0.24645594775E+03  0.25240976224E+03  0.47000000000E+01 0. -1.
<mgrwt>
<rscale>  0 0.27503150E+03</rscale>
<asrwt>0</asrwt>
<pdfrwt beam="1">  1        1 0.72623804E-02 0.27503150E+03</pdfrwt>
<pdfrwt beam="2">  1       -1 0.61630993E-01 0.27503150E+03</pdfrwt>
<totfact> 0.27310440E+03</totfact>
</mgrwt>
</event>
<event>
 9    1  0.2024718E-002  0.2744755E+03  0.7818608E-02  0.1098745E+00
          3   -1    0    0  501    0  0.00000000000E+00  0.00000000000E+00  0.73936970786E+02  0.73936970786E+02  0.00000000000E+00 0. -1.
         -3   -1    0    0    0  501 -0.00000000000E+00 -0.00000000000E+00 -0.25473313731E+03  0.25473313731E+03  0.00000000000E+00 0. -1.
         36    2    1    2    0    0  0.00000000000E+00  0.00000000000E+00 -0.18079616652E+03  0.32867010810E+03  0.27447547454E+03 0.  0.
         25    2    3    3    0    0 -0.34407993269E+02  0.41859964843E+02 -0.10928684356E+03  0.17318093684E+03  0.12293028940E+03 0.  0.
         25    2    3    3    0    0  0.34407993269E+02 -0.41859964843E+02 -0.71509322968E+02  0.15548917126E+03  0.12699264723E+03 0.  0.
          5    1    4    4  502    0 -0.27779814335E+02  0.12728884109E+02 -0.13186417418E+03  0.13543999781E+03  0.47000000000E+01 0. -1.
         -5    1    4    4    0  502 -0.66281789337E+01  0.29131080734E+02  0.22577330621E+02  0.37740939028E+02  0.47000000000E+01 0. -1.
          5    1    5    5  503    0  0.29231488951E+02  0.41209816914E+02 -0.45520779398E+02  0.68168616778E+02  0.47000000000E+01 0. -1.
         -5    1    5    5    0  503  0.51765043181E+01 -0.83069781757E+02 -0.25988543570E+02  0.87320554482E+02  0.47000000000E+01 0. -1.
<mgrwt>
<rscale>  0 0.27447547E+03</rscale>
<asrwt>0</asrwt>
<pdfrwt beam="1">  1        3 0.11374919E-01 0.27447547E+03</pdfrwt>
<pdfrwt beam="2">  1       -3 0.39189713E-01 0.27447547E+03</pdfrwt>
<totfact> 0.97682131E+02</totfact>
</mgrwt>
</event>
<event>
 9    1  0.2024718E-002  0.2744183E+03  0.7818608E-02  0.1098777E+00
         -2   -1    0    0    0  501 -0.00000000000E+00  0.00000000000E+00  0.48548683300E+02  0.48548683300E+02  0.00000000000E+00 0. -1.
          2   -1    0    0  501    0  0.00000000000E+00 -0.00000000000E+00 -0.38778295867E+03  0.38778295867E+03  0.00000000000E+00 0. -1.
         36    2    1    2    0    0 -0.35527136788E-14 -0.71054273576E-14 -0.33923427537E+03  0.43633164197E+03  0.27441830879E+03 0.  0.
         25    2    3    3    0    0 -0.19521720534E+02 -0.20701711491E+00 -0.21325563710E+03  0.25547181694E+03  0.13930808328E+03 0.  0.
         25    2    3    3    0    0  0.19521720534E+02  0.20701711491E+00 -0.12597863826E+03  0.18085982502E+03  0.12829075797E+03 0.  0.
          5    1    4    4  502    0 -0.61182067189E+02  0.46593292464E+02 -0.13078757445E+03  0.15179479530E+03  0.47000000000E+01 0.  1.
         -5    1    4    4    0  502  0.41660346655E+02 -0.46800309579E+02 -0.82468062650E+02  0.10367702165E+03  0.47000000000E+01 0.  1.
          5    1    5    5  503    0  0.56308226589E+00  0.52273058085E+02 -0.11708612806E+02  0.53777051583E+02  0.47000000000E+01 0.  1.
         -5    1    5    5    0  503  0.18958638268E+02 -0.52066040970E+02 -0.11427002546E+03  0.12708277344E+03  0.47000000000E+01 0.  1.
<mgrwt>
<rscale>  0 0.27441831E+03</rscale>
<asrwt>0</asrwt>
<pdfrwt beam="1">  1        2 0.59658919E-01 0.27441831E+03</pdfrwt>
<pdfrwt beam="2">  1       -2 0.74690279E-02 0.27441831E+03</pdfrwt>
<totfact> 0.86385587E+03</totfact>
</mgrwt>
</event>
<event>
 9    1  0.2024718E-002  0.2744419E+03  0.7818608E-02  0.1098764E+00
         -2   -1    0    0    0  501 -0.00000000000E+00  0.00000000000E+00  0.46854787426E+03  0.46854787426E+03  0.00000000000E+00 0. -1.
          2   -1    0    0  501    0  0.00000000000E+00 -0.00000000000E+00 -0.40187120096E+02  0.40187120096E+02  0.00000000000E+00 0. -1.
         36    2    1    2    0    0 -0.35527136788E-14  0.00000000000E+00  0.42836075417E+03  0.50873499436E+03  0.27444190419E+03 0.  0.
         25    2    3    3    0    0  0.12250407508E+02  0.26350035501E+02  0.30933718964E+03  0.33558802969E+03  0.12682835614E+03 0.  0.
         25    2    3    3    0    0 -0.12250407508E+02 -0.26350035501E+02  0.11902356453E+03  0.17314696467E+03  0.12234731549E+03 0.  0.
          5    1    4    4  502    0  0.12358422473E+02  0.50290894071E+02  0.30666680296E+03  0.31104424552E+03  0.47000000000E+01 0.  1.
         -5    1    4    4    0  502 -0.10801496448E+00 -0.23940858570E+02  0.26703866786E+01  0.24543784169E+02  0.47000000000E+01 0.  1.
          5    1    5    5  503    0  0.17035245265E+02 -0.21244779303E+02  0.13587315387E+03  0.13865476613E+03  0.47000000000E+01 0. -1.
         -5    1    5    5    0  503 -0.29285652774E+02 -0.51052561985E+01 -0.16849589340E+02  0.34492198541E+02  0.47000000000E+01 0. -1.
<mgrwt>
<rscale>  0 0.27444190E+03</rscale>
<asrwt>0</asrwt>
<pdfrwt beam="1">  1        2 0.61826342E-02 0.27444190E+03</pdfrwt>
<pdfrwt beam="2">  1       -2 0.72084284E-01 0.27444190E+03</pdfrwt>
<totfact> 0.21213436E+03</totfact>
</mgrwt>
</event>
<event>
 9    1  0.2024718E-002  0.2707949E+03  0.7818608E-02  0.1100826E+00
          1   -1    0    0  501    0  0.00000000000E+00  0.00000000000E+00  0.23860936022E+03  0.23860936022E+03  0.00000000000E+00 0.  1.
         -1   -1    0    0    0  501 -0.00000000000E+00 -0.00000000000E+00 -0.76830490944E+02  0.76830490944E+02  0.00000000000E+00 0.  1.
         36    2    1    2    0    0  0.00000000000E+00  0.00000000000E+00  0.16177886928E+03  0.31543985117E+03  0.27079493562E+03 0.  0.
         25    2    3    3    0    0  0.36305325566E+02 -0.40038230744E+02  0.64807667942E+02  0.15101034542E+03  0.12523160150E+03 0.  0.
         25    2    3    3    0    0 -0.36305325566E+02  0.40038230744E+02  0.96971201337E+02  0.16442950575E+03  0.12129514370E+03 0.  0.
          5    1    4    4  502    0  0.56556330861E+02  0.12145101009E+02  0.74050059373E+02  0.94083066129E+02  0.47000000000E+01 0.  1.
         -5    1    4    4    0  502 -0.20251005296E+02 -0.52183331753E+02 -0.92423914309E+01  0.56927279293E+02  0.47000000000E+01 0.  1.
          5    1    5    5  503    0 -0.48845542843E+02  0.26482585453E+02 -0.92408557676E+01  0.56521657824E+02  0.47000000000E+01 0.  1.
         -5    1    5    5    0  503  0.12540217277E+02  0.13555645291E+02  0.10621205710E+03  0.10790784792E+03  0.47000000000E+01 0.  1.
<mgrwt>
<rscale>  0 0.27079494E+03</rscale>
<asrwt>0</asrwt>
<pdfrwt beam="1">  1        1 0.36709132E-01 0.27079494E+03</pdfrwt>
<pdfrwt beam="2">  1       -1 0.11820076E-01 0.27079494E+03</pdfrwt>
<totfact> 0.54541361E+03</totfact>
</mgrwt>
</event>
<event>
 9    1  0.2024718E-002  0.2748473E+03  0.7818608E-02  0.1098537E+00
         -2   -1    0    0    0  501 -0.00000000000E+00  0.00000000000E+00  0.12155690904E+02  0.12155690904E+02  0.00000000000E+00 0. -1.
          2   -1    0    0  501    0  0.00000000000E+00 -0.00000000000E+00 -0.15536150467E+04  0.15536150467E+04  0.00000000000E+00 0. -1.
         36    2    1    2    0    0  0.17763568394E-14  0.00000000000E+00 -0.15414593558E+04  0.15657707376E+04  0.27484733429E+03 0.  0.
         25    2    3    3    0    0 -0.48068684334E+01 -0.10403363376E+02 -0.42369504409E+03  0.44088559942E+03  0.12137250691E+03 0.  0.
         25    2    3    3    0    0  0.48068684334E+01  0.10403363376E+02 -0.11177643117E+04  0.11248851382E+04  0.12584983765E+03 0.  0.
          5    1    4    4  502    0 -0.18725989399E+02 -0.60092355424E+02 -0.15716299214E+03  0.16936366185E+03  0.47000000000E+01 0.  1.
         -5    1    4    4    0  502  0.13919120965E+02  0.49688992048E+02 -0.26653205195E+03  0.27152193756E+03  0.47000000000E+01 0.  1.
          5    1    5    5  503    0 -0.19619644285E+02 -0.31878329480E+02 -0.93167427609E+03  0.93243777543E+03  0.47000000000E+01 0. -1.
         -5    1    5    5    0  503  0.24426512719E+02  0.42281692856E+02 -0.18609003564E+03  0.19244736277E+03  0.47000000000E+01 0. -1.
<mgrwt>
<rscale>  0 0.27484733E+03</rscale>
<asrwt>0</asrwt>
<pdfrwt beam="1">  1        2 0.23901754E+00 0.27484733E+03</pdfrwt>
<pdfrwt beam="2">  1       -2 0.18701075E-02 0.27484733E+03</pdfrwt>
<totfact> 0.10900371E+04</totfact>
</mgrwt>
</event>
<event>
 9    1  0.2024718E-002  0.2747999E+03  0.7818608E-02  0.1098564E+00
         -2   -1    0    0    0  501 -0.00000000000E+00  0.00000000000E+00  0.83570585116E+01  0.83570585116E+01  0.00000000000E+00 0.  1.
          2   -1    0    0  501    0  0.00000000000E+00 -0.00000000000E+00 -0.22590175348E+04  0.22590175348E+04  0.00000000000E+00 0.  1.
         36    2    1    2    0    0  0.00000000000E+00  0.71054273576E-14 -0.22506604763E+04  0.22673745933E+04  0.27479986694E+03 0.  0.
         25    2    3    3    0    0 -0.37482932165E+02 -0.44245190277E+02 -0.99411504118E+03  0.10033697630E+04  0.12297788052E+03 0.  0.
         25    2    3    3    0    0  0.37482932165E+02  0.44245190277E+02 -0.12565454351E+04  0.12640048304E+04  0.12425447092E+03 0.  0.
          5    1    4    4  502    0 -0.23118985242E+02  0.26892076621E+02 -0.68022511216E+03  0.68116515213E+03  0.47000000000E+01 0.  1.
         -5    1    4    4    0  502 -0.14363946923E+02 -0.71137266898E+02 -0.31388992902E+03  0.32220461085E+03  0.47000000000E+01 0.  1.
          5    1    5    5  503    0  0.69905044651E+02  0.21917914910E+02 -0.40923230551E+03  0.41576469323E+03  0.47000000000E+01 0.  1.
         -5    1    5    5    0  503 -0.32422112487E+02  0.22327275367E+02 -0.84731312962E+03  0.84824013713E+03  0.47000000000E+01 0.  1.
<mgrwt>
<rscale>  0 0.27479987E+03</rscale>
<asrwt>0</asrwt>
<pdfrwt beam="1">  1        2 0.34754168E+00 0.27479987E+03</pdfrwt>
<pdfrwt beam="2">  1       -2 0.12856994E-02 0.27479987E+03</pdfrwt>
<totfact> 0.80053303E+03</totfact>
</mgrwt>
</event>
<event>
 9    1  0.2024718E-002  0.2745707E+03  0.7818608E-02  0.1098692E+00
          1   -1    0    0  501    0  0.00000000000E+00  0.00000000000E+00  0.10461097779E+04  0.10461097779E+04  0.00000000000E+00 0. -1.
         -1   -1    0    0    0  501 -0.00000000000E+00 -0.00000000000E+00 -0.18016524161E+02  0.18016524161E+02  0.00000000000E+00 0. -1.
         36    2    1    2    0    0  0.71054273576E-14  0.71054273576E-14  0.10280932538E+04  0.10641263021E+04  0.27457066186E+03 0.  0.
         25    2    3    3    0    0  0.37848375548E+02 -0.94724496352E+01  0.70896954580E+03  0.71876425482E+03  0.11163337452E+03 0.  0.
         25    2    3    3    0    0 -0.37848375548E+02  0.94724496352E+01  0.31912370796E+03  0.34536204726E+03  0.12614585158E+03 0.  0.
          5    1    4    4  502    0 -0.16736865508E+02  0.18465474679E+01  0.54929074211E+03  0.54956886900E+03  0.47000000000E+01 0. -1.
         -5    1    4    4    0  502  0.54585241056E+02 -0.11318997103E+02  0.15967880369E+03  0.16919538583E+03  0.47000000000E+01 0. -1.
          5    1    5    5  503    0 -0.40803475877E+02  0.41611113711E+02  0.58511452835E+02  0.82716918105E+02  0.47000000000E+01 0.  1.
         -5    1    5    5    0  503  0.29551003289E+01 -0.32138664076E+02  0.26061225513E+03  0.26264512915E+03  0.47000000000E+01 0.  1.
<mgrwt>
<rscale>  0 0.27457066E+03</rscale>
<asrwt>0</asrwt>
<pdfrwt beam="1">  1        1 0.16093992E+00 0.27457066E+03</pdfrwt>
<pdfrwt beam="2">  1       -1 0.27717738E-02 0.27457066E+03</pdfrwt>
<totfact> 0.62613583E+03</totfact>
</mgrwt>
</event>
<event>
 9    1  0.2024718E-002  0.2751184E+03  0.7818608E-02  0.1098385E+00
         -1   -1    0    0    0  501 -0.00000000000E+00  0.00000000000E+00  0.59192357675E+02  0.59192357675E+02  0.00000000000E+00 0.  1.
          1   -1    0    0  501    0  0.00000000000E+00 -0.00000000000E+00 -0.31967870854E+03  0.31967870854E+03  0.00000000000E+00 0.  1.
         36    2    1    2    0    0 -0.35527136788E-14  0.71054273576E-14 -0.26048635087E+03  0.37887106622E+03  0.27511842146E+03 0.  0.
         25    2    3    3    0    0 -0.16727996508E+02  0.21940901209E+02 -0.49389855970E+02  0.13115843895E+03  0.11832983234E+03 0.  0.
         25    2    3    3    0    0  0.16727996508E+02 -0.21940901209E+02 -0.21109649490E+03  0.24771262727E+03  0.12664354124E+03 0.  0.
          5    1    4    4  502    0  0.14226158730E+02  0.55209936366E+02 -0.61401564509E+02  0.83921170094E+02  0.47000000000E+01 0. -1.
         -5    1    4    4    0  502 -0.30954155238E+02 -0.33269035157E+02  0.12011708539E+02  0.47237268854E+02  0.47000000000E+01 0. -1.
          5    1    5    5  503    0 -0.51853529650E+02 -0.27299965761E+02 -0.76472283912E+02  0.96458161264E+02  0.47000000000E+01 0. -1.
         -5    1    5    5    0  503  0.68581526158E+02  0.53590645519E+01 -0.13462421099E+03  0.15125446601E+03  0.47000000000E+01 0. -1.
<mgrwt>
<rscale>  0 0.27511842E+03</rscale>
<asrwt>0</asrwt>
<pdfrwt beam="1">  1        1 0.49181339E-01 0.27511842E+03</pdfrwt>
<pdfrwt beam="2">  1       -1 0.91065167E-02 0.27511842E+03</pdfrwt>
<totfact> 0.56598551E+03</totfact>
</mgrwt>
</event>
<event>
 9    1  0.2024718E-002  0.2744406E+03  0.7818608E-02  0.1098765E+00
          2   -1    0    0  501    0  0.00000000000E+00  0.00000000000E+00  0.32089747421E+04  0.32089747421E+04  0.00000000000E+00 0.  1.
         -2   -1    0    0    0  501 -0.00000000000E+00 -0.00000000000E+00 -0.58677329127E+01  0.58677329127E+01  0.00000000000E+00 0.  1.
         36    2    1    2    0    0  0.35527136788E-14  0.00000000000E+00  0.32031070092E+04  0.32148424750E+04  0.27444057069E+03 0.  0.
         25    2    3    3    0    0  0.15321017787E+02  0.46783032277E+02  0.20820619574E+04  0.20856108348E+04  0.11120779747E+03 0.  0.
         25    2    3    3    0    0 -0.15321017787E+02 -0.46783032277E+02  0.11210450519E+04  0.11292316402E+04  0.12648598087E+03 0.  0.
          5    1    4    4  502    0 -0.34481027133E+02  0.56413635666E+02  0.14430717974E+04  0.14445932791E+04  0.47000000000E+01 0. -1.
         -5    1    4    4    0  502  0.49802044920E+02 -0.96306033883E+01  0.63899015991E+03  0.64101755565E+03  0.47000000000E+01 0. -1.
          5    1    5    5  503    0  0.26512990514E+02  0.13630104023E+02  0.76784160382E+03  0.76843447148E+03  0.47000000000E+01 0. -1.
         -5    1    5    5    0  503 -0.41834008301E+02 -0.60413136300E+02  0.35320344803E+03  0.36079716876E+03  0.47000000000E+01 0. -1.
<mgrwt>
<rscale>  0 0.27444057E+03</rscale>
<asrwt>0</asrwt>
<pdfrwt beam="1">  1        2 0.49368702E+00 0.27444057E+03</pdfrwt>
<pdfrwt beam="2">  1       -2 0.90273070E-03 0.27444057E+03</pdfrwt>
<totfact> 0.38518906E+03</totfact>
</mgrwt>
</event>
<event>
 9    1  0.2024718E-002  0.2745339E+03  0.7818608E-02  0.1098712E+00
         -2   -1    0    0    0  501 -0.00000000000E+00  0.00000000000E+00  0.19331639783E+03  0.19331639783E+03  0.00000000000E+00 0.  1.
          2   -1    0    0  501    0  0.00000000000E+00 -0.00000000000E+00 -0.97468241860E+02  0.97468241860E+02  0.00000000000E+00 0.  1.
         36    2    1    2    0    0  0.00000000000E+00  0.71054273576E-14  0.95848155973E+02  0.29078463969E+03  0.27453385525E+03 0.  0.
         25    2    3    3    0    0  0.90580970052E+01  0.32489806858E+02  0.96610431483E+02  0.16155226454E+03  0.12501168760E+03 0.  0.
         25    2    3    3    0    0 -0.90580970052E+01 -0.32489806858E+02 -0.76227551015E+00  0.12923237515E+03  0.12475090802E+03 0.  0.
          5    1    4    4  502    0  0.41082958394E+02  0.67945152016E+02  0.46398872449E+02  0.92083106580E+02  0.47000000000E+01 0.  1.
         -5    1    4    4    0  502 -0.32024861389E+02 -0.35455345158E+02  0.50211559034E+02  0.69469157962E+02  0.47000000000E+01 0.  1.
          5    1    5    5  503    0  0.55379190258E+02 -0.19618589326E+02  0.16355896237E+02  0.61166568504E+02  0.47000000000E+01 0. -1.
         -5    1    5    5    0  503 -0.64437287263E+02 -0.12871217532E+02 -0.17118171748E+02  0.68065806648E+02  0.47000000000E+01 0. -1.
<mgrwt>
<rscale>  0 0.27453386E+03</rscale>
<asrwt>0</asrwt>
<pdfrwt beam="1">  1        2 0.14995114E-01 0.27453386E+03</pdfrwt>
<pdfrwt beam="2">  1       -2 0.29740984E-01 0.27453386E+03</pdfrwt>
<totfact> 0.40276651E+03</totfact>
</mgrwt>
</event>
<event>
 9    1  0.2024718E-002  0.2745030E+03  0.7818608E-02  0.1098730E+00
          1   -1    0    0  501    0  0.00000000000E+00  0.00000000000E+00  0.68746835961E+03  0.68746835961E+03  0.00000000000E+00 0.  1.
         -1   -1    0    0    0  501 -0.00000000000E+00 -0.00000000000E+00 -0.27401950202E+02  0.27401950202E+02  0.00000000000E+00 0.  1.
         36    2    1    2    0    0  0.00000000000E+00  0.00000000000E+00  0.66006640940E+03  0.71487030981E+03  0.27450299638E+03 0.  0.
         25    2    3    3    0    0 -0.18979573843E+02 -0.49633449033E+02  0.42219603742E+03  0.44317936504E+03  0.12383356613E+03 0.  0.
         25    2    3    3    0    0  0.18979573843E+02  0.49633449033E+02  0.23787037198E+03  0.27169094476E+03  0.12004145997E+03 0.  0.
          5    1    4    4  502    0  0.95584469340E+01  0.38302911108E+02  0.91339540464E+02  0.99616658042E+02  0.47000000000E+01 0. -1.
         -5    1    4    4    0  502 -0.28538020777E+02 -0.87936360141E+02  0.33085649696E+03  0.34356270700E+03  0.47000000000E+01 0. -1.
          5    1    5    5  503    0  0.39795207732E+02 -0.27735778254E+02  0.11536696956E+03  0.12523801188E+03  0.47000000000E+01 0. -1.
         -5    1    5    5    0  503 -0.20815633890E+02  0.77369227287E+02  0.12250340242E+03  0.14645293289E+03  0.47000000000E+01 0. -1.
<mgrwt>
<rscale>  0 0.27450300E+03</rscale>
<asrwt>0</asrwt>
<pdfrwt beam="1">  1        1 0.10576435E+00 0.27450300E+03</pdfrwt>
<pdfrwt beam="2">  1       -1 0.42156852E-02 0.27450300E+03</pdfrwt>
<totfact> 0.65621178E+03</totfact>
</mgrwt>
</event>
<event>
 9    1  0.2024718E-002  0.2755843E+03  0.7818608E-02  0.1098125E+00
          2   -1    0    0  501    0  0.00000000000E+00  0.00000000000E+00  0.35954029928E+03  0.35954029928E+03  0.00000000000E+00 0.  1.
         -2   -1    0    0    0  501 -0.00000000000E+00 -0.00000000000E+00 -0.52808204934E+02  0.52808204934E+02  0.00000000000E+00 0.  1.
         36    2    1    2    0    0  0.71054273576E-14  0.71054273576E-14  0.30673209435E+03  0.41234850422E+03  0.27558430874E+03 0.  0.
         25    2    3    3    0    0  0.38299614952E+02  0.49926370956E+02  0.12674222599E+03  0.18392831017E+03  0.11750118471E+03 0.  0.
         25    2    3    3    0    0 -0.38299614952E+02 -0.49926370956E+02  0.17998986835E+03  0.22842019405E+03  0.12577730048E+03 0.  0.
          5    1    4    4  502    0  0.29506887921E+02  0.55434348919E+02  0.14742767483E+03  0.16031416899E+03  0.47000000000E+01 0. -1.
         -5    1    4    4    0  502  0.87927270305E+01 -0.55079779637E+01 -0.20685448835E+02  0.23614141174E+02  0.47000000000E+01 0. -1.
          5    1    5    5  503    0  0.24348929336E+02  0.11907661867E+02 -0.54463759548E+00  0.27514530726E+02  0.47000000000E+01 0.  1.
         -5    1    5    5    0  503 -0.62648544288E+02 -0.61834032823E+02  0.18053450595E+03  0.20090566332E+03  0.47000000000E+01 0.  1.
<mgrwt>
<rscale>  0 0.27558431E+03</rscale>
<asrwt>0</asrwt>
<pdfrwt beam="1">  1        2 0.55313891E-01 0.27558431E+03</pdfrwt>
<pdfrwt beam="2">  1       -2 0.81243395E-02 0.27558431E+03</pdfrwt>
<totfact> 0.82242725E+03</totfact>
</mgrwt>
</event>
<event>
 9    1  0.2024718E-002  0.2747669E+03  0.7818608E-02  0.1098582E+00
         -2   -1    0    0    0  501 -0.00000000000E+00  0.00000000000E+00  0.21250983899E+02  0.21250983899E+02  0.00000000000E+00 0. -1.
          2   -1    0    0  501    0  0.00000000000E+00 -0.00000000000E+00 -0.88815728885E+03  0.88815728885E+03  0.00000000000E+00 0. -1.
         36    2    1    2    0    0 -0.35527136788E-14 -0.17763568394E-14 -0.86690630495E+03  0.90940827275E+03  0.27476692847E+03 0.  0.
         25    2    3    3    0    0  0.86608242260E+01 -0.42627417446E+00 -0.61179826955E+03  0.62494371342E+03  0.12720979025E+03 0.  0.
         25    2    3    3    0    0 -0.86608242260E+01  0.42627417446E+00 -0.25510803540E+03  0.28446455933E+03  0.12555789183E+03 0.  0.
          5    1    4    4  502    0 -0.19330221410E+02  0.38655017651E+02 -0.51433090452E+03  0.51616493217E+03  0.47000000000E+01 0. -1.
         -5    1    4    4    0  502  0.27991045636E+02 -0.39081291826E+02 -0.97467365029E+02  0.10877878126E+03  0.47000000000E+01 0. -1.
          5    1    5    5  503    0  0.34966005769E+02  0.58895709597E+01 -0.12546120257E+02  0.37905194091E+02  0.47000000000E+01 0. -1.
         -5    1    5    5    0  503 -0.43626829995E+02 -0.54632967852E+01 -0.24256191514E+03  0.24655936524E+03  0.47000000000E+01 0. -1.
<mgrwt>
<rscale>  0 0.27476693E+03</rscale>
<asrwt>0</asrwt>
<pdfrwt beam="1">  1        2 0.13663960E+00 0.27476693E+03</pdfrwt>
<pdfrwt beam="2">  1       -2 0.32693818E-02 0.27476693E+03</pdfrwt>
<totfact> 0.11481681E+04</totfact>
</mgrwt>
</event>
<event>
 9    1  0.2024718E-002  0.2748395E+03  0.7818608E-02  0.1098541E+00
         -2   -1    0    0    0  501 -0.00000000000E+00  0.00000000000E+00  0.40154189994E+02  0.40154189994E+02  0.00000000000E+00 0.  1.
          2   -1    0    0  501    0  0.00000000000E+00 -0.00000000000E+00 -0.47029172676E+03  0.47029172676E+03  0.00000000000E+00 0.  1.
         36    2    1    2    0    0  0.35527136788E-14 -0.71054273576E-14 -0.43013753677E+03  0.51044591675E+03  0.27483946841E+03 0.  0.
         25    2    3    3    0    0 -0.52873892945E+01 -0.21006946618E+02 -0.32364660488E+03  0.34714438380E+03  0.12366426349E+03 0.  0.
         25    2    3    3    0    0  0.52873892945E+01  0.21006946618E+02 -0.10649093189E+03  0.16330153295E+03  0.12189267327E+03 0.  0.
          5    1    4    4  502    0  0.37712442344E+01 -0.72495088645E+02 -0.17579140350E+03  0.19024843680E+03  0.47000000000E+01 0.  1.
         -5    1    4    4    0  502 -0.90586335289E+01  0.51488142027E+02 -0.14785520138E+03  0.15689594700E+03  0.47000000000E+01 0.  1.
          5    1    5    5  503    0  0.60721790317E+02  0.29246532026E+02 -0.57842251138E+02  0.88939931817E+02  0.47000000000E+01 0.  1.
         -5    1    5    5    0  503 -0.55434401023E+02 -0.82395854087E+01 -0.48648680747E+02  0.74361601132E+02  0.47000000000E+01 0.  1.
<mgrwt>
<rscale>  0 0.27483947E+03</rscale>
<asrwt>0</asrwt>
<pdfrwt beam="1">  1        2 0.72352575E-01 0.27483947E+03</pdfrwt>
<pdfrwt beam="2">  1       -2 0.61775676E-02 0.27483947E+03</pdfrwt>
<totfact> 0.93798504E+03</totfact>
</mgrwt>
</event>
<event>
 9    1  0.2024718E-002  0.2757266E+03  0.7818608E-02  0.1098046E+00
          1   -1    0    0  501    0  0.00000000000E+00  0.00000000000E+00  0.60927232999E+02  0.60927232999E+02  0.00000000000E+00 0.  1.
         -1   -1    0    0    0  501 -0.00000000000E+00 -0.00000000000E+00 -0.31195055720E+03  0.31195055720E+03  0.00000000000E+00 0.  1.
         36    2    1    2    0    0  0.00000000000E+00  0.00000000000E+00 -0.25102332420E+03  0.37287779020E+03  0.27572656225E+03 0.  0.
         25    2    3    3    0    0 -0.10154462427E+02 -0.57577510755E+02 -0.11769643395E+03  0.18132585643E+03  0.12493331339E+03 0.  0.
         25    2    3    3    0    0  0.10154462427E+02  0.57577510755E+02 -0.13332689025E+03  0.19155193377E+03  0.12449016352E+03 0.  0.
          5    1    4    4  502    0 -0.61603538062E+02 -0.45982776389E+02 -0.38612881248E+02  0.86153677951E+02  0.47000000000E+01 0.  1.
         -5    1    4    4    0  502  0.51449075635E+02 -0.11594734365E+02 -0.79083552706E+02  0.95172178484E+02  0.47000000000E+01 0.  1.
          5    1    5    5  503    0 -0.30698672423E+02  0.44545123281E+02 -0.13786657851E+03  0.14817543645E+03  0.47000000000E+01 0. -1.
         -5    1    5    5    0  503  0.40853134850E+02  0.13032387473E+02  0.45396882586E+01  0.43376497321E+02  0.47000000000E+01 0. -1.
<mgrwt>
<rscale>  0 0.27572656E+03</rscale>
<asrwt>0</asrwt>
<pdfrwt beam="1">  1        1 0.93734204E-02 0.27572656E+03</pdfrwt>
<pdfrwt beam="2">  1       -1 0.47992394E-01 0.27572656E+03</pdfrwt>
<totfact> 0.30934509E+03</totfact>
</mgrwt>
</event>
<event>
 9    1  0.2024718E-002  0.2722166E+03  0.7818608E-02  0.1100018E+00
          2   -1    0    0  501    0  0.00000000000E+00  0.00000000000E+00  0.44198988070E+04  0.44198988070E+04  0.00000000000E+00 0. -1.
         -2   -1    0    0    0  501 -0.00000000000E+00 -0.00000000000E+00 -0.41913793040E+01  0.41913793040E+01  0.00000000000E+00 0. -1.
         36    2    1    2    0    0 -0.71054273576E-14  0.00000000000E+00  0.44157074277E+04  0.44240901863E+04  0.27221662246E+03 0.  0.
         25    2    3    3    0    0  0.45195613111E+02 -0.28545065464E+02  0.27009653724E+04  0.27041668139E+04  0.12019463518E+03 0.  0.
         25    2    3    3    0    0 -0.45195613111E+02  0.28545065464E+02  0.17147420553E+04  0.17199233724E+04  0.12222367409E+03 0.  0.
          5    1    4    4  502    0  0.25073826062E+02 -0.19434624372E+02  0.16428586682E+03  0.16738678985E+03  0.47000000000E+01 0. -1.
         -5    1    4    4    0  502  0.20121787049E+02 -0.91104410925E+01  0.25366795056E+04  0.25367800241E+04  0.47000000000E+01 0. -1.
          5    1    5    5  503    0  0.33085062791E+02  0.29742529904E+02  0.33780153818E+03  0.34075094815E+03  0.47000000000E+01 0.  1.
         -5    1    5    5    0  503 -0.78280675902E+02 -0.11974644400E+01  0.13769405171E+04  0.13791724243E+04  0.47000000000E+01 0.  1.
<mgrwt>
<rscale>  0 0.27221662E+03</rscale>
<asrwt>0</asrwt>
<pdfrwt beam="1">  1        2 0.67998070E+00 0.27221662E+03</pdfrwt>
<pdfrwt beam="2">  1       -2 0.64483112E-03 0.27221662E+03</pdfrwt>
<totfact> 0.80954930E+02</totfact>
</mgrwt>
</event>
<event>
 9    1  0.2024718E-002  0.2752307E+03  0.7818608E-02  0.1098323E+00
          2   -1    0    0  501    0  0.00000000000E+00  0.00000000000E+00  0.33414801663E+04  0.33414801663E+04  0.00000000000E+00 0.  1.
         -2   -1    0    0    0  501 -0.00000000000E+00 -0.00000000000E+00 -0.56675437631E+01  0.56675437631E+01  0.00000000000E+00 0.  1.
         36    2    1    2    0    0 -0.71054273576E-14  0.00000000000E+00  0.33358126226E+04  0.33471477101E+04  0.27523070378E+03 0.  0.
         25    2    3    3    0    0 -0.31495486559E+02 -0.50809330343E+02  0.19177691678E+04  0.19229184471E+04  0.12729186815E+03 0.  0.
         25    2    3    3    0    0  0.31495486559E+02  0.50809330343E+02  0.14180434548E+04  0.14242292630E+04  0.11835624232E+03 0.  0.
          5    1    4    4  502    0 -0.49724794682E+02 -0.81299551147E+02  0.10253128629E+04  0.10297430403E+04  0.47000000000E+01 0. -1.
         -5    1    4    4    0  502  0.18229308123E+02  0.30490220805E+02  0.89245630489E+03  0.89317540683E+03  0.47000000000E+01 0. -1.
          5    1    5    5  503    0  0.72174619179E+02  0.12117400874E+02  0.65043946226E+03  0.65456060921E+03  0.47000000000E+01 0. -1.
         -5    1    5    5    0  503 -0.40679132620E+02  0.38691929468E+02  0.76760399252E+03  0.76966865375E+03  0.47000000000E+01 0. -1.
<mgrwt>
<rscale>  0 0.27523070E+03</rscale>
<asrwt>0</asrwt>
<pdfrwt beam="1">  1        2 0.51407230E+00 0.27523070E+03</pdfrwt>
<pdfrwt beam="2">  1       -2 0.87193248E-03 0.27523070E+03</pdfrwt>
<totfact> 0.33443818E+03</totfact>
</mgrwt>
</event>
<event>
 9    1  0.2024718E-002  0.2755422E+03  0.7818608E-02  0.1098149E+00
          2   -1    0    0  501    0  0.00000000000E+00  0.00000000000E+00  0.85521138996E+03  0.85521138996E+03  0.00000000000E+00 0.  1.
         -2   -1    0    0    0  501 -0.00000000000E+00 -0.00000000000E+00 -0.22194365942E+02  0.22194365942E+02  0.00000000000E+00 0.  1.
         36    2    1    2    0    0 -0.71054273576E-14  0.00000000000E+00  0.83301702402E+03  0.87740575590E+03  0.27554218949E+03 0.  0.
         25    2    3    3    0    0 -0.50957649842E+02 -0.31039622022E+02  0.37794573199E+03  0.40283259685E+03  0.12598009580E+03 0.  0.
         25    2    3    3    0    0  0.50957649842E+02  0.31039622022E+02  0.45507129202E+03  0.47457315905E+03  0.12070485598E+03 0.  0.
          5    1    4    4  502    0 -0.28405325546E+02  0.46426538030E+02  0.10772989991E+03  0.12078951647E+03  0.47000000000E+01 0.  1.
         -5    1    4    4    0  502 -0.22552324296E+02 -0.77466160053E+02  0.27021583208E+03  0.28204308038E+03  0.47000000000E+01 0.  1.
          5    1    5    5  503    0 -0.22535001594E+01  0.66347602462E+02  0.17382822593E+03  0.18613281480E+03  0.47000000000E+01 0. -1.
         -5    1    5    5    0  503  0.53211150001E+02 -0.35307980440E+02  0.28124306609E+03  0.28844034425E+03  0.47000000000E+01 0. -1.
<mgrwt>
<rscale>  0 0.27554219E+03</rscale>
<asrwt>0</asrwt>
<pdfrwt beam="1">  1        2 0.13157096E+00 0.27554219E+03</pdfrwt>
<pdfrwt beam="2">  1       -2 0.34145185E-02 0.27554219E+03</pdfrwt>
<totfact> 0.11311686E+04</totfact>
</mgrwt>
</event>
<event>
 9    1  0.2024718E-002  0.2756033E+03  0.7818608E-02  0.1098115E+00
          2   -1    0    0  501    0  0.00000000000E+00  0.00000000000E+00  0.15630866586E+04  0.15630866586E+04  0.00000000000E+00 0.  1.
         -2   -1    0    0    0  501 -0.00000000000E+00 -0.00000000000E+00 -0.12148591392E+02  0.12148591392E+02  0.00000000000E+00 0.  1.
         36    2    1    2    0    0 -0.71054273576E-14  0.00000000000E+00  0.15509380672E+04  0.15752352500E+04  0.27560334632E+03 0.  0.
         25    2    3    3    0    0 -0.47283955765E+02  0.44721423329E+01  0.56958541715E+03  0.58467922715E+03  0.12315225821E+03 0.  0.
         25    2    3    3    0    0  0.47283955765E+02 -0.44721423329E+01  0.98135265005E+03  0.99055602284E+03  0.12606521360E+03 0.  0.
          5    1    4    4  502    0  0.37288394123E+02  0.20863957906E+02  0.24923276523E+03  0.25291261404E+03  0.47000000000E+01 0. -1.
         -5    1    4    4    0  502 -0.84572349888E+02 -0.16391815573E+02  0.32035265192E+03  0.33176661311E+03  0.47000000000E+01 0. -1.
          5    1    5    5  503    0 -0.17208012184E+02 -0.60773795268E+01  0.75255494666E+03  0.75279086602E+03  0.47000000000E+01 0.  1.
         -5    1    5    5    0  503  0.64491967949E+02  0.16052371940E+01  0.22879770339E+03  0.23776515681E+03  0.47000000000E+01 0.  1.
<mgrwt>
<rscale>  0 0.27560335E+03</rscale>
<asrwt>0</asrwt>
<pdfrwt beam="1">  1        2 0.24047471E+00 0.27560335E+03</pdfrwt>
<pdfrwt beam="2">  1       -2 0.18690153E-02 0.27560335E+03</pdfrwt>
<totfact> 0.10784477E+04</totfact>
</mgrwt>
</event>
<event>
 9    1  0.2024718E-002  0.2743044E+03  0.7818608E-02  0.1098841E+00
          2   -1    0    0  501    0  0.00000000000E+00  0.00000000000E+00  0.11748986463E+04  0.11748986463E+04  0.00000000000E+00 0.  1.
         -2   -1    0    0    0  501 -0.00000000000E+00 -0.00000000000E+00 -0.16010512156E+02  0.16010512156E+02  0.00000000000E+00 0.  1.
         36    2    1    2    0    0 -0.71054273576E-14  0.71054273576E-14  0.11588881341E+04  0.11909091584E+04  0.27430442256E+03 0.  0.
         25    2    3    3    0    0 -0.30981172075E+02  0.38576571944E+02  0.63746496028E+03  0.65208770316E+03  0.12809688560E+03 0.  0.
         25    2    3    3    0    0  0.30981172075E+02 -0.38576571944E+02  0.52142317385E+03  0.53882145528E+03  0.12648497745E+03 0.  0.
          5    1    4    4  502    0 -0.34028605395E+02  0.42233620889E+02  0.64180747779E+03  0.64411222102E+03  0.47000000000E+01 0.  1.
         -5    1    4    4    0  502  0.30474333201E+01 -0.36570489448E+01 -0.43425175192E+01  0.79754821315E+01  0.47000000000E+01 0.  1.
          5    1    5    5  503    0  0.39098645620E+01 -0.32333126231E+02  0.24313767585E+02  0.40914146539E+02  0.47000000000E+01 0. -1.
         -5    1    5    5    0  503  0.27071307513E+02 -0.62434457130E+01  0.49710940626E+03  0.49790730875E+03  0.47000000000E+01 0. -1.
<mgrwt>
<rscale>  0 0.27430442E+03</rscale>
<asrwt>0</asrwt>
<pdfrwt beam="1">  1        2 0.18075357E+00 0.27430442E+03</pdfrwt>
<pdfrwt beam="2">  1       -2 0.24631566E-02 0.27430442E+03</pdfrwt>
<totfact> 0.11716637E+04</totfact>
</mgrwt>
</event>
<event>
 9    1  0.2024718E-002  0.2811146E+03  0.7818608E-02  0.1095082E+00
          2   -1    0    0  501    0  0.00000000000E+00  0.00000000000E+00  0.90037355311E+03  0.90037355311E+03  0.00000000000E+00 0. -1.
         -2   -1    0    0    0  501 -0.00000000000E+00 -0.00000000000E+00 -0.21942401427E+02  0.21942401427E+02  0.00000000000E+00 0. -1.
         36    2    1    2    0    0 -0.71054273576E-14 -0.14210854715E-13  0.87843115169E+03  0.92231595454E+03  0.28111462386E+03 0.  0.
         25    2    3    3    0    0  0.39601062480E+02  0.55945659760E+02  0.42463601525E+03  0.44655074014E+03  0.11997356821E+03 0.  0.
         25    2    3    3    0    0 -0.39601062480E+02 -0.55945659760E+02  0.45379513643E+03  0.47576521440E+03  0.12539677983E+03 0.  0.
          5    1    4    4  502    0 -0.67637500329E+01  0.15401222497E+02  0.20087795300E-01  0.17465290505E+02  0.47000000000E+01 0. -1.
         -5    1    4    4    0  502  0.46364812513E+02  0.40544437263E+02  0.42461592746E+03  0.42908544963E+03  0.47000000000E+01 0. -1.
          5    1    5    5  503    0 -0.78106374077E+02 -0.11751783631E+02  0.31964943039E+03  0.32929706716E+03  0.47000000000E+01 0.  1.
         -5    1    5    5    0  503  0.38505311597E+02 -0.44193876130E+02  0.13414570604E+03  0.14646814725E+03  0.47000000000E+01 0.  1.
<mgrwt>
<rscale>  0 0.28111462E+03</rscale>
<asrwt>0</asrwt>
<pdfrwt beam="1">  1        2 0.13851898E+00 0.28111462E+03</pdfrwt>
<pdfrwt beam="2">  1       -2 0.33757548E-02 0.28111462E+03</pdfrwt>
<totfact> 0.10755570E+04</totfact>
</mgrwt>
</event>
<event>
 9    1  0.2024718E-002  0.2748206E+03  0.7818608E-02  0.1098552E+00
         -2   -1    0    0    0  501 -0.00000000000E+00  0.00000000000E+00  0.24128741829E+02  0.24128741829E+02  0.00000000000E+00 0. -1.
          2   -1    0    0  501    0  0.00000000000E+00 -0.00000000000E+00 -0.78253539749E+03  0.78253539749E+03  0.00000000000E+00 0. -1.
         36    2    1    2    0    0  0.00000000000E+00 -0.71054273576E-14 -0.75840665566E+03  0.80666413932E+03  0.27482062934E+03 0.  0.
         25    2    3    3    0    0 -0.23177345655E+02  0.38654067913E+02 -0.28923990492E+03  0.31880736249E+03  0.12628177012E+03 0.  0.
         25    2    3    3    0    0  0.23177345655E+02 -0.38654067913E+02 -0.46916675075E+03  0.48785677683E+03  0.12591849893E+03 0.  0.
          5    1    4    4  502    0 -0.50900564694E+02  0.73362187739E+02 -0.19284229776E+03  0.21256321385E+03  0.47000000000E+01 0. -1.
         -5    1    4    4    0  502  0.27723219038E+02 -0.34708119826E+02 -0.96397607154E+02  0.10624414864E+03  0.47000000000E+01 0. -1.
          5    1    5    5  503    0 -0.34711539791E+02 -0.19753695100E+02 -0.49536042976E+02  0.63804459237E+02  0.47000000000E+01 0. -1.
         -5    1    5    5    0  503  0.57888885446E+02 -0.18900372813E+02 -0.41963070777E+03  0.42405231759E+03  0.47000000000E+01 0. -1.
<mgrwt>
<rscale>  0 0.27482063E+03</rscale>
<asrwt>0</asrwt>
<pdfrwt beam="1">  1        2 0.12039007E+00 0.27482063E+03</pdfrwt>
<pdfrwt beam="2">  1       -2 0.37121139E-02 0.27482063E+03</pdfrwt>
<totfact> 0.11186560E+04</totfact>
</mgrwt>
</event>
<event>
 9    1  0.2024718E-002  0.2752280E+03  0.7818608E-02  0.1098324E+00
          1   -1    0    0  501    0  0.00000000000E+00  0.00000000000E+00  0.46819630332E+03  0.46819630332E+03  0.00000000000E+00 0. -1.
         -1   -1    0    0    0  501 -0.00000000000E+00 -0.00000000000E+00 -0.40448017842E+02  0.40448017842E+02  0.00000000000E+00 0. -1.
         36    2    1    2    0    0  0.00000000000E+00  0.53290705182E-14  0.42774828548E+03  0.50864432116E+03  0.27522799589E+03 0.  0.
         25    2    3    3    0    0 -0.51098621607E+02  0.71034061220E+01  0.28071401031E+03  0.31140736163E+03  0.12454983655E+03 0.  0.
         25    2    3    3    0    0  0.51098621607E+02 -0.71034061220E+01  0.14703427516E+03  0.19723695953E+03  0.12092068732E+03 0.  0.
          5    1    4    4  502    0 -0.86430932470E+02 -0.11858164303E+02  0.14007355703E+03  0.16508668489E+03  0.47000000000E+01 0. -1.
         -5    1    4    4    0  502  0.35332310863E+02  0.18961570425E+02  0.14064045328E+03  0.14632067675E+03  0.47000000000E+01 0. -1.
          5    1    5    5  503    0  0.52929385155E+02 -0.50538527494E+02  0.13199103839E+03  0.15099465815E+03  0.47000000000E+01 0.  1.
         -5    1    5    5    0  503 -0.18307635485E+01  0.43435121372E+02  0.15043236770E+02  0.46242301373E+02  0.47000000000E+01 0.  1.
<mgrwt>
<rscale>  0 0.27522800E+03</rscale>
<asrwt>0</asrwt>
<pdfrwt beam="1">  1        1 0.72030197E-01 0.27522800E+03</pdfrwt>
<pdfrwt beam="2">  1       -1 0.62227723E-02 0.27522800E+03</pdfrwt>
<totfact> 0.62002332E+03</totfact>
</mgrwt>
</event>
<event>
 9    1  0.2024718E-002  0.2747162E+03  0.7818608E-02  0.1098610E+00
         -2   -1    0    0    0  501 -0.00000000000E+00  0.00000000000E+00  0.22081095818E+02  0.22081095818E+02  0.00000000000E+00 0. -1.
          2   -1    0    0  501    0  0.00000000000E+00 -0.00000000000E+00 -0.85445243123E+03  0.85445243123E+03  0.00000000000E+00 0. -1.
         36    2    1    2    0    0 -0.17763568394E-14  0.00000000000E+00 -0.83237133542E+03  0.87653352705E+03  0.27471618814E+03 0.  0.
         25    2    3    3    0    0 -0.68226964790E+01 -0.60562364816E+02 -0.41117600942E+03  0.43318725529E+03  0.12194727633E+03 0.  0.
         25    2    3    3    0    0  0.68226964790E+01  0.60562364816E+02 -0.42119532600E+03  0.44334627176E+03  0.12424196081E+03 0.  0.
          5    1    4    4  502    0  0.11289592698E+02 -0.81612471950E+02 -0.38809897199E+03  0.39677569551E+03  0.47000000000E+01 0.  1.
         -5    1    4    4    0  502 -0.18112289177E+02  0.21050107135E+02 -0.23077037427E+02  0.36411559785E+02  0.47000000000E+01 0.  1.
          5    1    5    5  503    0 -0.63312432219E+01 -0.37126543330E+02 -0.87789541135E+02  0.95642869013E+02  0.47000000000E+01 0.  1.
         -5    1    5    5    0  503  0.13153939701E+02  0.97688908146E+02 -0.33340578486E+03  0.34770340275E+03  0.47000000000E+01 0.  1.
<mgrwt>
<rscale>  0 0.27471619E+03</rscale>
<asrwt>0</asrwt>
<pdfrwt beam="1">  1        2 0.13145420E+00 0.27471619E+03</pdfrwt>
<pdfrwt beam="2">  1       -2 0.33970922E-02 0.27471619E+03</pdfrwt>
<totfact> 0.11410618E+04</totfact>
</mgrwt>
</event>
<event>
 9    1  0.2024718E-002  0.2716129E+03  0.7818608E-02  0.1100360E+00
          2   -1    0    0  501    0  0.00000000000E+00  0.00000000000E+00  0.11515382935E+03  0.11515382935E+03  0.00000000000E+00 0. -1.
         -2   -1    0    0    0  501 -0.00000000000E+00 -0.00000000000E+00 -0.16016303953E+03  0.16016303953E+03  0.00000000000E+00 0. -1.
         36    2    1    2    0    0  0.71054273576E-14  0.00000000000E+00 -0.45009210178E+02  0.27531686887E+03  0.27161286657E+03 0.  0.
         25    2    3    3    0    0  0.51209810305E+02 -0.22093066648E+02  0.14585715587E+01  0.13021745743E+03  0.11766014840E+03 0.  0.
         25    2    3    3    0    0 -0.51209810305E+02  0.22093066648E+02 -0.46467781737E+02  0.14509941145E+03  0.12563453425E+03 0.  0.
          5    1    4    4  502    0 -0.28182631307E+01 -0.52351707971E+02  0.31381135743E+02  0.61282212877E+02  0.47000000000E+01 0. -1.
         -5    1    4    4    0  502  0.54028073435E+02  0.30258641323E+02 -0.29922564185E+02  0.68935244551E+02  0.47000000000E+01 0. -1.
          5    1    5    5  503    0 -0.17306103361E+02 -0.48157389964E+02 -0.42784663100E+02  0.66867427184E+02  0.47000000000E+01 0.  1.
         -5    1    5    5    0  503 -0.33903706944E+02  0.70250456612E+02 -0.36831186369E+01  0.78231984262E+02  0.47000000000E+01 0.  1.
<mgrwt>
<rscale>  0 0.27161287E+03</rscale>
<asrwt>0</asrwt>
<pdfrwt beam="1">  1        2 0.17715974E-01 0.27161287E+03</pdfrwt>
<pdfrwt beam="2">  1       -2 0.24640468E-01 0.27161287E+03</pdfrwt>
<totfact> 0.46329828E+03</totfact>
</mgrwt>
</event>
<event>
 9    1  0.2024718E-002  0.2738024E+03  0.7818608E-02  0.1099123E+00
          2   -1    0    0  501    0  0.00000000000E+00  0.00000000000E+00  0.63602600480E+03  0.63602600480E+03  0.00000000000E+00 0.  1.
         -2   -1    0    0    0  501 -0.00000000000E+00 -0.00000000000E+00 -0.29467252375E+02  0.29467252375E+02  0.00000000000E+00 0.  1.
         36    2    1    2    0    0  0.35527136788E-14  0.00000000000E+00  0.60655875243E+03  0.66549325718E+03  0.27380240175E+03 0.  0.
         25    2    3    3    0    0  0.25837542861E+02  0.19381358565E+02  0.20058502122E+03  0.23327199655E+03  0.11462224024E+03 0.  0.
         25    2    3    3    0    0 -0.25837542861E+02 -0.19381358565E+02  0.40597373121E+03  0.43222126062E+03  0.14476647410E+03 0.  0.
          5    1    4    4  502    0 -0.16780987152E+01 -0.33729028384E+02  0.13278821182E+02  0.36590715530E+02  0.47000000000E+01 0.  1.
         -5    1    4    4    0  502  0.27515641576E+02  0.53110386949E+02  0.18730620004E+03  0.19668128102E+03  0.47000000000E+01 0.  1.
          5    1    5    5  503    0  0.51928765900E+02 -0.42271049720E+02  0.18277532314E+03  0.19471093220E+03  0.47000000000E+01 0.  1.
         -5    1    5    5    0  503 -0.77766308761E+02  0.22889691155E+02  0.22319840807E+03  0.23751032842E+03  0.47000000000E+01 0.  1.
<mgrwt>
<rscale>  0 0.27380240E+03</rscale>
<asrwt>0</asrwt>
<pdfrwt beam="1">  1        2 0.97850144E-01 0.27380240E+03</pdfrwt>
<pdfrwt beam="2">  1       -2 0.45334239E-02 0.27380240E+03</pdfrwt>
<totfact> 0.10655224E+04</totfact>
</mgrwt>
</event>
<event>
 9    1  0.2024718E-002  0.2731982E+03  0.7818608E-02  0.1099463E+00
          2   -1    0    0  501    0  0.00000000000E+00  0.00000000000E+00  0.92938273744E+02  0.92938273744E+02  0.00000000000E+00 0.  1.
         -2   -1    0    0    0  501 -0.00000000000E+00 -0.00000000000E+00 -0.20077110186E+03  0.20077110186E+03  0.00000000000E+00 0.  1.
         36    2    1    2    0    0  0.26645352591E-14  0.00000000000E+00 -0.10783282812E+03  0.29370937560E+03  0.27319824029E+03 0.  0.
         25    2    3    3    0    0  0.47648975489E+01  0.53870049755E+02 -0.62605955760E+02  0.15051265429E+03  0.12573729317E+03 0.  0.
         25    2    3    3    0    0 -0.47648975489E+01 -0.53870049755E+02 -0.45226872356E+02  0.14319672132E+03  0.12464005979E+03 0.  0.
          5    1    4    4  502    0 -0.23751332884E+01  0.30350733068E+02 -0.10049241430E+03  0.10510767616E+03  0.47000000000E+01 0.  1.
         -5    1    4    4    0  502  0.71400308373E+01  0.23519316686E+02  0.37886458541E+02  0.45404978125E+02  0.47000000000E+01 0.  1.
          5    1    5    5  503    0  0.44393899825E+02 -0.58867685175E+02 -0.55630674894E+02  0.92482888626E+02  0.47000000000E+01 0. -1.
         -5    1    5    5    0  503 -0.49158797374E+02  0.49976354203E+01  0.10403802538E+02  0.50713832692E+02  0.47000000000E+01 0. -1.
<mgrwt>
<rscale>  0 0.27319824E+03</rscale>
<asrwt>0</asrwt>
<pdfrwt beam="1">  1        2 0.14298196E-01 0.27319824E+03</pdfrwt>
<pdfrwt beam="2">  1       -2 0.30887861E-01 0.27319824E+03</pdfrwt>
<totfact> 0.39779680E+03</totfact>
</mgrwt>
</event>
<event>
 9    1  0.2024718E-002  0.2744788E+03  0.7818608E-02  0.1098743E+00
         -2   -1    0    0    0  501 -0.00000000000E+00  0.00000000000E+00  0.77319744005E+02  0.77319744005E+02  0.00000000000E+00 0. -1.
          2   -1    0    0  501    0  0.00000000000E+00 -0.00000000000E+00 -0.24359431975E+03  0.24359431975E+03  0.00000000000E+00 0. -1.
         36    2    1    2    0    0  0.00000000000E+00  0.00000000000E+00 -0.16627457574E+03  0.32091406375E+03  0.27447878201E+03 0.  0.
         25    2    3    3    0    0 -0.14284664755E+02  0.48433289674E+02 -0.54798351820E+02  0.14543623340E+03  0.12489597042E+03 0.  0.
         25    2    3    3    0    0  0.14284664755E+02 -0.48433289674E+02 -0.11147622392E+03  0.17547783035E+03  0.12576042799E+03 0.  0.
          5    1    4    4  502    0  0.24467441948E+02 -0.24919090095E+02  0.13642095986E+02  0.37786420173E+02  0.47000000000E+01 0.  1.
         -5    1    4    4    0  502 -0.38752106703E+02  0.73352379770E+02 -0.68440447806E+02  0.10764981323E+03  0.47000000000E+01 0.  1.
          5    1    5    5  503    0  0.83520002936E+01 -0.67443779438E+01  0.27656319609E+02  0.30036720145E+02  0.47000000000E+01 0.  1.
         -5    1    5    5    0  503  0.59326644617E+01 -0.41688911731E+02 -0.13913254353E+03  0.14544111021E+03  0.47000000000E+01 0.  1.
<mgrwt>
<rscale>  0 0.27447878E+03</rscale>
<asrwt>0</asrwt>
<pdfrwt beam="1">  1        2 0.37476049E-01 0.27447878E+03</pdfrwt>
<pdfrwt beam="2">  1       -2 0.11895345E-01 0.27447878E+03</pdfrwt>
<totfact> 0.68279327E+03</totfact>
</mgrwt>
</event>
<event>
 9    1  0.2024718E-002  0.2757514E+03  0.7818608E-02  0.1098032E+00
         -3   -1    0    0    0  501 -0.00000000000E+00  0.00000000000E+00  0.18602286437E+03  0.18602286437E+03  0.00000000000E+00 0.  1.
          3   -1    0    0  501    0  0.00000000000E+00 -0.00000000000E+00 -0.10219017501E+03  0.10219017501E+03  0.00000000000E+00 0.  1.
         36    2    1    2    0    0 -0.17763568394E-14 -0.71054273576E-14  0.83832689364E+02  0.28821303938E+03  0.27575140301E+03 0.  0.
         25    2    3    3    0    0  0.14994226176E+02  0.52246290987E+02 -0.17449607493E+00  0.13693524654E+03  0.12568504110E+03 0.  0.
         25    2    3    3    0    0 -0.14994226176E+02 -0.52246290987E+02  0.84007185439E+02  0.15127779284E+03  0.11346039688E+03 0.  0.
          5    1    4    4  502    0  0.19502053018E+02  0.89376223603E+02 -0.20847196309E+02  0.93942189730E+02  0.47000000000E+01 0.  1.
         -5    1    4    4    0  502 -0.45078268423E+01 -0.37129932616E+02  0.20672700234E+02  0.42993056810E+02  0.47000000000E+01 0.  1.
          5    1    5    5  503    0 -0.27024643950E+02 -0.86549249921E+01  0.99243855978E+02  0.10332798293E+03  0.47000000000E+01 0. -1.
         -5    1    5    5    0  503  0.12030417774E+02 -0.43591365995E+02 -0.15236670539E+02  0.47949809908E+02  0.47000000000E+01 0. -1.
<mgrwt>
<rscale>  0 0.27575140E+03</rscale>
<asrwt>0</asrwt>
<pdfrwt beam="1">  1        3 0.15721565E-01 0.27575140E+03</pdfrwt>
<pdfrwt beam="2">  1       -3 0.28618902E-01 0.27575140E+03</pdfrwt>
<totfact> 0.10202992E+03</totfact>
</mgrwt>
</event>
<event>
 9    1  0.2024718E-002  0.2751392E+03  0.7818608E-02  0.1098374E+00
          2   -1    0    0  501    0  0.00000000000E+00  0.00000000000E+00  0.30322395608E+03  0.30322395608E+03  0.00000000000E+00 0. -1.
         -2   -1    0    0    0  501 -0.00000000000E+00 -0.00000000000E+00 -0.62413903316E+02  0.62413903316E+02  0.00000000000E+00 0. -1.
         36    2    1    2    0    0  0.00000000000E+00  0.71054273576E-14  0.24081005276E+03  0.36563785939E+03  0.27513916971E+03 0.  0.
         25    2    3    3    0    0 -0.40533083840E+02  0.42292413209E+02  0.15589767814E+03  0.20896400790E+03  0.12621525838E+03 0.  0.
         25    2    3    3    0    0  0.40533083840E+02 -0.42292413209E+02  0.84912374620E+02  0.15667385149E+03  0.11791948641E+03 0.  0.
          5    1    4    4  502    0 -0.52841726772E+02 -0.32609097638E+02  0.58974685912E+02  0.85765406287E+02  0.47000000000E+01 0. -1.
         -5    1    4    4    0  502  0.12308642932E+02  0.74901510847E+02  0.96922992228E+02  0.12319860162E+03  0.47000000000E+01 0. -1.
          5    1    5    5  503    0 -0.37219036334E+02 -0.21978249856E+02  0.56532359691E+02  0.71318285345E+02  0.47000000000E+01 0. -1.
         -5    1    5    5    0  503  0.77752120174E+02 -0.20314163353E+02  0.28380014929E+02  0.85355566143E+02  0.47000000000E+01 0. -1.
<mgrwt>
<rscale>  0 0.27513917E+03</rscale>
<asrwt>0</asrwt>
<pdfrwt beam="1">  1        2 0.46649838E-01 0.27513917E+03</pdfrwt>
<pdfrwt beam="2">  1       -2 0.96021392E-02 0.27513917E+03</pdfrwt>
<totfact> 0.75954575E+03</totfact>
</mgrwt>
</event>
<event>
 9    1  0.2024718E-002  0.2748446E+03  0.7818608E-02  0.1098538E+00
          1   -1    0    0  501    0  0.00000000000E+00  0.00000000000E+00  0.20003038663E+03  0.20003038663E+03  0.00000000000E+00 0. -1.
         -1   -1    0    0    0  501 -0.00000000000E+00 -0.00000000000E+00 -0.94410093517E+02  0.94410093517E+02  0.00000000000E+00 0. -1.
         36    2    1    2    0    0  0.71054273576E-14  0.00000000000E+00  0.10562029311E+03  0.29444048015E+03  0.27484459251E+03 0.  0.
         25    2    3    3    0    0  0.17024664694E+02 -0.43355062482E+02  0.23756415032E+02  0.13342659104E+03  0.12275498886E+03 0.  0.
         25    2    3    3    0    0 -0.17024664694E+02  0.43355062482E+02  0.81863878082E+02  0.16101388911E+03  0.13059202618E+03 0.  0.
          5    1    4    4  502    0 -0.51553174001E+02 -0.36139867390E+01  0.97185408302E+01  0.52795176727E+02  0.47000000000E+01 0.  1.
         -5    1    4    4    0  502  0.68577838695E+02 -0.39741075743E+02  0.14037874201E+02  0.80631414309E+02  0.47000000000E+01 0.  1.
          5    1    5    5  503    0  0.15795874626E+02 -0.35640253780E+02 -0.43083815741E+01  0.39501765739E+02  0.47000000000E+01 0. -1.
         -5    1    5    5    0  503 -0.32820539321E+02  0.78995316261E+02  0.86172259656E+02  0.12151212337E+03  0.47000000000E+01 0. -1.
<mgrwt>
<rscale>  0 0.27484459E+03</rscale>
<asrwt>0</asrwt>
<pdfrwt beam="1">  1        1 0.30773906E-01 0.27484459E+03</pdfrwt>
<pdfrwt beam="2">  1       -1 0.14524630E-01 0.27484459E+03</pdfrwt>
<totfact> 0.49278856E+03</totfact>
</mgrwt>
</event>
<event>
 9    1  0.2024718E-002  0.2756960E+03  0.7818608E-02  0.1098063E+00
          2   -1    0    0  501    0  0.00000000000E+00  0.00000000000E+00  0.18916310103E+04  0.18916310103E+04  0.00000000000E+00 0.  1.
         -2   -1    0    0    0  501 -0.00000000000E+00 -0.00000000000E+00 -0.10045335213E+02  0.10045335213E+02  0.00000000000E+00 0.  1.
         36    2    1    2    0    0  0.00000000000E+00  0.00000000000E+00  0.18815856751E+04  0.19016763455E+04  0.27569597457E+03 0.  0.
         25    2    3    3    0    0  0.20435260257E+02  0.49413942992E+02  0.80858018410E+03  0.81970812270E+03  0.12353199864E+03 0.  0.
         25    2    3    3    0    0 -0.20435260257E+02 -0.49413942992E+02  0.10730054910E+04  0.10819682228E+04  0.12827748771E+03 0.  0.
          5    1    4    4  502    0  0.36475718567E+02 -0.33382172914E+02  0.26694937552E+03  0.27153067342E+03  0.47000000000E+01 0.  1.
         -5    1    4    4    0  502 -0.16040458309E+02  0.82796115906E+02  0.54163080857E+03  0.54817744929E+03  0.47000000000E+01 0.  1.
          5    1    5    5  503    0  0.12201059256E+02  0.34776688864E+02  0.14951644914E+03  0.15406343661E+03  0.47000000000E+01 0. -1.
         -5    1    5    5    0  503 -0.32636319514E+02 -0.84190631856E+02  0.92348904188E+03  0.92790478624E+03  0.47000000000E+01 0. -1.
<mgrwt>
<rscale>  0 0.27569597E+03</rscale>
<asrwt>0</asrwt>
<pdfrwt beam="1">  1        2 0.29101987E+00 0.27569597E+03</pdfrwt>
<pdfrwt beam="2">  1       -2 0.15454377E-02 0.27569597E+03</pdfrwt>
<totfact> 0.95669305E+03</totfact>
</mgrwt>
</event>
<event>
 9    1  0.2024718E-002  0.2745145E+03  0.7818608E-02  0.1098723E+00
          1   -1    0    0  501    0  0.00000000000E+00  0.00000000000E+00  0.17307250786E+04  0.17307250786E+04  0.00000000000E+00 0. -1.
         -1   -1    0    0    0  501 -0.00000000000E+00 -0.00000000000E+00 -0.10885353350E+02  0.10885353350E+02  0.00000000000E+00 0. -1.
         36    2    1    2    0    0  0.35527136788E-14 -0.71054273576E-14  0.17198397252E+04  0.17416104319E+04  0.27451450987E+03 0.  0.
         25    2    3    3    0    0  0.80991793134E+01 -0.37443355750E+02  0.82869289912E+03  0.84088195522E+03  0.13741521014E+03 0.  0.
         25    2    3    3    0    0 -0.80991793134E+01  0.37443355750E+02  0.89114682609E+03  0.90072847669E+03  0.12530571202E+03 0.  0.
          5    1    4    4  502    0  0.18151781629E+02 -0.71777967326E+02  0.24284529656E+03  0.25392418521E+03  0.47000000000E+01 0.  1.
         -5    1    4    4    0  502 -0.10052602315E+02  0.34334611576E+02  0.58584760255E+03  0.58695777002E+03  0.47000000000E+01 0.  1.
          5    1    5    5  503    0  0.50093924051E+02 -0.11070430759E+02  0.26183206018E+03  0.26685215645E+03  0.47000000000E+01 0. -1.
         -5    1    5    5    0  503 -0.58193103365E+02  0.48513786510E+02  0.62931476591E+03  0.63387632023E+03  0.47000000000E+01 0. -1.
<mgrwt>
<rscale>  0 0.27451451E+03</rscale>
<asrwt>0</asrwt>
<pdfrwt beam="1">  1        1 0.26626518E+00 0.27451451E+03</pdfrwt>
<pdfrwt beam="2">  1       -1 0.16746711E-02 0.27451451E+03</pdfrwt>
<totfact> 0.44871662E+03</totfact>
</mgrwt>
</event>
<event>
 9    1  0.2024718E-002  0.2764045E+03  0.7818608E-02  0.1097669E+00
          2   -1    0    0  501    0  0.00000000000E+00  0.00000000000E+00  0.31435135403E+03  0.31435135403E+03  0.00000000000E+00 0.  1.
         -2   -1    0    0    0  501 -0.00000000000E+00 -0.00000000000E+00 -0.60759616008E+02  0.60759616008E+02  0.00000000000E+00 0.  1.
         36    2    1    2    0    0  0.00000000000E+00 -0.71054273576E-14  0.25359173802E+03  0.37511097003E+03  0.27640454093E+03 0.  0.
         25    2    3    3    0    0 -0.36899552278E+02 -0.99800295378E+01  0.14809530822E+03  0.19756941314E+03  0.12506108405E+03 0.  0.
         25    2    3    3    0    0  0.36899552278E+02  0.99800295378E+01  0.10549642980E+03  0.17754155690E+03  0.13758753496E+03 0.  0.
          5    1    4    4  502    0 -0.49322092607E+02  0.37709214411E+02  0.13126339640E+03  0.14528187397E+03  0.47000000000E+01 0.  1.
         -5    1    4    4    0  502  0.12422540329E+02 -0.47689243949E+02  0.16831911818E+02  0.52287539166E+02  0.47000000000E+01 0.  1.
          5    1    5    5  503    0  0.64755225068E+02 -0.19937691319E+02  0.11658572505E+03  0.13492617239E+03  0.47000000000E+01 0.  1.
         -5    1    5    5    0  503 -0.27855672790E+02  0.29917720857E+02 -0.11089295250E+02  0.42615384511E+02  0.47000000000E+01 0.  1.
<mgrwt>
<rscale>  0 0.27640454E+03</rscale>
<asrwt>0</asrwt>
<pdfrwt beam="1">  1        2 0.48361746E-01 0.27640454E+03</pdfrwt>
<pdfrwt beam="2">  1       -2 0.93476334E-02 0.27640454E+03</pdfrwt>
<totfact> 0.76252969E+03</totfact>
</mgrwt>
</event>
<event>
 9    1  0.2024718E-002  0.2716563E+03  0.7818608E-02  0.1100335E+00
          2   -1    0    0  501    0  0.00000000000E+00  0.00000000000E+00  0.11020274762E+04  0.11020274762E+04  0.00000000000E+00 0. -1.
         -2   -1    0    0    0  501 -0.00000000000E+00 -0.00000000000E+00 -0.16741221889E+02  0.16741221889E+02  0.00000000000E+00 0. -1.
         36    2    1    2    0    0 -0.10658141036E-13  0.35527136788E-14  0.10852862543E+04  0.11187686981E+04  0.27165630129E+03 0.  0.
         25    2    3    3    0    0 -0.28479375390E+02  0.25997139673E+02  0.38801745609E+03  0.40985384521E+03  0.12623669082E+03 0.  0.
         25    2    3    3    0    0  0.28479375390E+02 -0.25997139673E+02  0.69726879821E+03  0.70891485287E+03  0.12202280757E+03 0.  0.
          5    1    4    4  502    0 -0.42643774100E+02 -0.25422370694E+01  0.35153112157E+02  0.55522839743E+02  0.47000000000E+01 0.  1.
         -5    1    4    4    0  502  0.14164398710E+02  0.28539376742E+02  0.35286434394E+03  0.35433100547E+03  0.47000000000E+01 0.  1.
          5    1    5    5  503    0  0.57243764246E+02  0.27488511181E+02  0.27501093535E+03  0.28228632867E+03  0.47000000000E+01 0.  1.
         -5    1    5    5    0  503 -0.28764388856E+02 -0.53485650854E+02  0.42225786286E+03  0.42662852420E+03  0.47000000000E+01 0.  1.
<mgrwt>
<rscale>  0 0.27165630E+03</rscale>
<asrwt>0</asrwt>
<pdfrwt beam="1">  1        2 0.16954263E+00 0.27165630E+03</pdfrwt>
<pdfrwt beam="2">  1       -2 0.25755735E-02 0.27165630E+03</pdfrwt>
<totfact> 0.12084031E+04</totfact>
</mgrwt>
</event>
<event>
 9    1  0.2024718E-002  0.2742100E+03  0.7818608E-02  0.1098894E+00
         -1   -1    0    0    0  501 -0.00000000000E+00  0.00000000000E+00  0.81762918763E+01  0.81762918763E+01  0.00000000000E+00 0.  1.
          1   -1    0    0  501    0  0.00000000000E+00 -0.00000000000E+00 -0.22990592993E+04  0.22990592993E+04  0.00000000000E+00 0.  1.
         36    2    1    2    0    0  0.71054273576E-14  0.00000000000E+00 -0.22908830074E+04  0.23072355911E+04  0.27420999159E+03 0.  0.
         25    2    3    3    0    0  0.33923767666E+02 -0.43441039698E+02 -0.10732072950E+04  0.10817475503E+04  0.12395934230E+03 0.  0.
         25    2    3    3    0    0 -0.33923767666E+02  0.43441039698E+02 -0.12176757124E+04  0.12254880408E+04  0.12668406301E+03 0.  0.
          5    1    4    4  502    0  0.54285433775E+02 -0.78036744268E+02 -0.73763472309E+03  0.74374976738E+03  0.47000000000E+01 0. -1.
         -5    1    4    4    0  502 -0.20361666110E+02  0.34595704570E+02 -0.33557257196E+03  0.33799778294E+03  0.47000000000E+01 0. -1.
          5    1    5    5  503    0 -0.49927235857E+02  0.19402031856E+02 -0.19178503399E+03  0.19918021233E+03  0.47000000000E+01 0. -1.
         -5    1    5    5    0  503  0.16003468191E+02  0.24039007841E+02 -0.10258906784E+04  0.10263078285E+04  0.47000000000E+01 0. -1.
<mgrwt>
<rscale>  0 0.27420999E+03</rscale>
<asrwt>0</asrwt>
<pdfrwt beam="1">  1        1 0.35370147E+00 0.27420999E+03</pdfrwt>
<pdfrwt beam="2">  1       -1 0.12578909E-02 0.27420999E+03</pdfrwt>
<totfact> 0.29029489E+03</totfact>
</mgrwt>
</event>
<event>
 9    1  0.2024718E-002  0.2752108E+03  0.7818608E-02  0.1098334E+00
          2   -1    0    0  501    0  0.00000000000E+00  0.00000000000E+00  0.47834104629E+03  0.47834104629E+03  0.00000000000E+00 0. -1.
         -2   -1    0    0    0  501 -0.00000000000E+00 -0.00000000000E+00 -0.39585254213E+02  0.39585254213E+02  0.00000000000E+00 0. -1.
         36    2    1    2    0    0  0.71054273576E-14  0.00000000000E+00  0.43875579208E+03  0.51792630050E+03  0.27521084221E+03 0.  0.
         25    2    3    3    0    0 -0.32373641756E+02  0.45339875625E+02  0.29711270213E+03  0.32773426201E+03  0.12660976158E+03 0.  0.
         25    2    3    3    0    0  0.32373641756E+02 -0.45339875625E+02  0.14164308995E+03  0.19019203849E+03  0.11404599762E+03 0.  0.
          5    1    4    4  502    0  0.13535892692E+02 -0.16789213427E+02  0.21020615620E+03  0.21136181345E+03  0.47000000000E+01 0.  1.
         -5    1    4    4    0  502 -0.45909534448E+02  0.62129089052E+02  0.86906545927E+02  0.11637244856E+03  0.47000000000E+01 0.  1.
          5    1    5    5  503    0 -0.32251056818E+02 -0.46357721024E+02  0.93999296634E+02  0.10975940384E+03  0.47000000000E+01 0. -1.
         -5    1    5    5    0  503  0.64624698574E+02  0.10178453996E+01  0.47643793313E+02  0.80432634647E+02  0.47000000000E+01 0. -1.
<mgrwt>
<rscale>  0 0.27521084E+03</rscale>
<asrwt>0</asrwt>
<pdfrwt beam="1">  1        2 0.73590926E-01 0.27521084E+03</pdfrwt>
<pdfrwt beam="2">  1       -2 0.60900395E-02 0.27521084E+03</pdfrwt>
<totfact> 0.94094184E+03</totfact>
</mgrwt>
</event>
<event>
 9    1  0.2024718E-002  0.2742006E+03  0.7818608E-02  0.1098899E+00
         -2   -1    0    0    0  501 -0.00000000000E+00  0.00000000000E+00  0.51623586408E+01  0.51623586408E+01  0.00000000000E+00 0.  1.
          2   -1    0    0  501    0  0.00000000000E+00 -0.00000000000E+00 -0.36410656116E+04  0.36410656116E+04  0.00000000000E+00 0.  1.
         36    2    1    2    0    0  0.35527136788E-14 -0.35527136788E-14 -0.36359032529E+04  0.36462279702E+04  0.27420055814E+03 0.  0.
         25    2    3    3    0    0 -0.11993996621E+02 -0.28272425616E+02 -0.22792979099E+04  0.22834029370E+04  0.13336725562E+03 0.  0.
         25    2    3    3    0    0  0.11993996621E+02  0.28272425616E+02 -0.13566053431E+04  0.13628250332E+04  0.12637574235E+03 0.  0.
          5    1    4    4  502    0 -0.36562947177E+02 -0.72748235624E+02 -0.11099304440E+04  0.11129226547E+04  0.47000000000E+01 0.  1.
         -5    1    4    4    0  502  0.24568950556E+02  0.44475810008E+02 -0.11693674659E+04  0.11704802823E+04  0.47000000000E+01 0.  1.
          5    1    5    5  503    0  0.63305937022E+02 -0.86256063892E+01 -0.54586822282E+03  0.54961463720E+03  0.47000000000E+01 0.  1.
         -5    1    5    5    0  503 -0.51311940401E+02  0.36898032005E+02 -0.81073712025E+03  0.81321039599E+03  0.47000000000E+01 0.  1.
<mgrwt>
<rscale>  0 0.27420056E+03</rscale>
<asrwt>0</asrwt>
<pdfrwt beam="1">  1        2 0.56016637E+00 0.27420056E+03</pdfrwt>
<pdfrwt beam="2">  1       -2 0.79420557E-03 0.27420056E+03</pdfrwt>
<totfact> 0.24262393E+03</totfact>
</mgrwt>
</event>
<event>
 9    1  0.2024718E-002  0.2750509E+03  0.7818608E-02  0.1098423E+00
         -2   -1    0    0    0  501 -0.00000000000E+00  0.00000000000E+00  0.90684298956E+01  0.90684298956E+01  0.00000000000E+00 0. -1.
          2   -1    0    0  501    0  0.00000000000E+00 -0.00000000000E+00 -0.20856151517E+04  0.20856151517E+04  0.00000000000E+00 0. -1.
         36    2    1    2    0    0  0.35527136788E-14  0.00000000000E+00 -0.20765467218E+04  0.20946835816E+04  0.27505093923E+03 0.  0.
         25    2    3    3    0    0 -0.31024661227E+02  0.32846159408E+02 -0.83122232958E+03  0.84211951951E+03  0.12725299272E+03 0.  0.
         25    2    3    3    0    0  0.31024661227E+02 -0.32846159408E+02 -0.12453243922E+04  0.12525640621E+04  0.12665894349E+03 0.  0.
          5    1    4    4  502    0 -0.59112961046E+02  0.42538672481E+02 -0.77434620006E+03  0.77777760855E+03  0.47000000000E+01 0. -1.
         -5    1    4    4    0  502  0.28088299820E+02 -0.96925130728E+01 -0.56876129525E+02  0.64341910962E+02  0.47000000000E+01 0. -1.
          5    1    5    5  503    0  0.18528301906E+02  0.47955871254E+02 -0.41094504054E+03  0.41417505949E+03  0.47000000000E+01 0.  1.
         -5    1    5    5    0  503  0.12496359320E+02 -0.80802030662E+02 -0.83437935170E+03  0.83838900261E+03  0.47000000000E+01 0.  1.
<mgrwt>
<rscale>  0 0.27505094E+03</rscale>
<asrwt>0</asrwt>
<pdfrwt beam="1">  1        2 0.32086441E+00 0.27505094E+03</pdfrwt>
<pdfrwt beam="2">  1       -2 0.13951407E-02 0.27505094E+03</pdfrwt>
<totfact> 0.87835737E+03</totfact>
</mgrwt>
</event>
<event>
 9    1  0.2024718E-002  0.2749684E+03  0.7818608E-02  0.1098469E+00
         -3   -1    0    0    0  501 -0.00000000000E+00  0.00000000000E+00  0.29512524860E+02  0.29512524860E+02  0.00000000000E+00 0. -1.
          3   -1    0    0  501    0  0.00000000000E+00 -0.00000000000E+00 -0.64047043361E+03  0.64047043361E+03  0.00000000000E+00 0. -1.
         36    2    1    2    0    0  0.00000000000E+00  0.14210854715E-13 -0.61095790875E+03  0.66998295847E+03  0.27496835886E+03 0.  0.
         25    2    3    3    0    0 -0.40044175556E+02 -0.32498940194E+02 -0.39807885867E+03  0.41938300310E+03  0.12147266549E+03 0.  0.
         25    2    3    3    0    0  0.40044175556E+02  0.32498940194E+02 -0.21287905008E+03  0.25059995536E+03  0.12175027950E+03 0.  0.
          5    1    4    4  502    0  0.35705878715E+02  0.14598747117E+02 -0.79041218789E+02  0.88077451483E+02  0.47000000000E+01 0.  1.
         -5    1    4    4    0  502 -0.75750054271E+02 -0.47097687311E+02 -0.31903763988E+03  0.33130555162E+03  0.47000000000E+01 0.  1.
          5    1    5    5  503    0  0.34398153189E+02 -0.16186791325E+02 -0.70315305808E+01  0.38945828770E+02  0.47000000000E+01 0.  1.
         -5    1    5    5    0  503  0.56460223668E+01  0.48685731520E+02 -0.20584751949E+03  0.21165412659E+03  0.47000000000E+01 0.  1.
<mgrwt>
<rscale>  0 0.27496836E+03</rscale>
<asrwt>0</asrwt>
<pdfrwt beam="1">  1        3 0.98533910E-01 0.27496836E+03</pdfrwt>
<pdfrwt beam="2">  1       -3 0.45403886E-02 0.27496836E+03</pdfrwt>
<totfact> 0.63257224E+02</totfact>
</mgrwt>
</event>
<event>
 9    1  0.2024718E-002  0.2747507E+03  0.7818608E-02  0.1098591E+00
         -2   -1    0    0    0  501 -0.00000000000E+00  0.00000000000E+00  0.71262410307E+01  0.71262410307E+01  0.00000000000E+00 0.  1.
          2   -1    0    0  501    0  0.00000000000E+00 -0.00000000000E+00 -0.26482385238E+04  0.26482385238E+04  0.00000000000E+00 0.  1.
         36    2    1    2    0    0  0.00000000000E+00 -0.35527136788E-14 -0.26411122828E+04  0.26553647648E+04  0.27475069447E+03 0.  0.
         25    2    3    3    0    0  0.52108129831E+02 -0.13237982181E+02 -0.12875741438E+04  0.12959943126E+04  0.13734475251E+03 0.  0.
         25    2    3    3    0    0 -0.52108129831E+02  0.13237982181E+02 -0.13535381390E+04  0.13593704523E+04  0.11371909027E+03 0.  0.
          5    1    4    4  502    0  0.87862178511E+02 -0.21062763422E+02 -0.54133707314E+03  0.54884544197E+03  0.47000000000E+01 0.  1.
         -5    1    4    4    0  502 -0.35754048680E+02  0.78247812411E+01 -0.74623707067E+03  0.74714887060E+03  0.47000000000E+01 0.  1.
          5    1    5    5  503    0  0.10147284733E+02  0.32551851830E+02 -0.94598389139E+03  0.94660984741E+03  0.47000000000E+01 0. -1.
         -5    1    5    5    0  503 -0.62255414564E+02 -0.19313869649E+02 -0.40755424757E+03  0.41276060485E+03  0.47000000000E+01 0. -1.
<mgrwt>
<rscale>  0 0.27475069E+03</rscale>
<asrwt>0</asrwt>
<pdfrwt beam="1">  1        2 0.40742086E+00 0.27475069E+03</pdfrwt>
<pdfrwt beam="2">  1       -2 0.10963460E-02 0.27475069E+03</pdfrwt>
<totfact> 0.61918674E+03</totfact>
</mgrwt>
</event>
<event>
 9    1  0.2024718E-002  0.2752630E+03  0.7818608E-02  0.1098305E+00
         -1   -1    0    0    0  501 -0.00000000000E+00  0.00000000000E+00  0.11194344579E+03  0.11194344579E+03  0.00000000000E+00 0. -1.
          1   -1    0    0  501    0  0.00000000000E+00 -0.00000000000E+00 -0.16921422351E+03  0.16921422351E+03  0.00000000000E+00 0. -1.
         36    2    1    2    0    0  0.71054273576E-14  0.71054273576E-14 -0.57270777716E+02  0.28115766930E+03  0.27526295251E+03 0.  0.
         25    2    3    3    0    0 -0.45949849324E+02 -0.14311685273E+02 -0.44723439227E+02  0.14382721545E+03  0.12794478848E+03 0.  0.
         25    2    3    3    0    0  0.45949849324E+02  0.14311685273E+02 -0.12547338489E+02  0.13733045385E+03  0.12800783126E+03 0.  0.
          5    1    4    4  502    0 -0.76453491536E+02  0.21078462259E+02 -0.53870021881E+02  0.95987015772E+02  0.47000000000E+01 0. -1.
         -5    1    4    4    0  502  0.30503642213E+02 -0.35390147532E+02  0.91465826536E+01  0.47840199674E+02  0.47000000000E+01 0. -1.
          5    1    5    5  503    0  0.80204799020E+01 -0.49032908285E+02  0.23351257338E+02  0.55099232409E+02  0.47000000000E+01 0. -1.
         -5    1    5    5    0  503  0.37929369422E+02  0.63344593558E+02 -0.35898595827E+02  0.82231221443E+02  0.47000000000E+01 0. -1.
<mgrwt>
<rscale>  0 0.27526295E+03</rscale>
<asrwt>0</asrwt>
<pdfrwt beam="1">  1        1 0.26032958E-01 0.27526295E+03</pdfrwt>
<pdfrwt beam="2">  1       -1 0.17222069E-01 0.27526295E+03</pdfrwt>
<totfact> 0.46422413E+03</totfact>
</mgrwt>
</event>
<event>
 9    1  0.2024718E-002  0.2749562E+03  0.7818608E-02  0.1098476E+00
          2   -1    0    0  501    0  0.00000000000E+00  0.00000000000E+00  0.43993121369E+03  0.43993121369E+03  0.00000000000E+00 0.  1.
         -2   -1    0    0    0  501 -0.00000000000E+00 -0.00000000000E+00 -0.42961794225E+02  0.42961794225E+02  0.00000000000E+00 0.  1.
         36    2    1    2    0    0  0.00000000000E+00  0.71054273576E-14  0.39696941946E+03  0.48289300791E+03  0.27495624580E+03 0.  0.
         25    2    3    3    0    0  0.53837821558E+02  0.16929110422E+02  0.18618171426E+03  0.23164744559E+03  0.12574499002E+03 0.  0.
         25    2    3    3    0    0 -0.53837821558E+02 -0.16929110422E+02  0.21078770520E+03  0.25124556232E+03  0.12453019759E+03 0.  0.
          5    1    4    4  502    0 -0.66172614261E+01  0.39673819432E+02  0.69676573071E+01  0.41090611403E+02  0.47000000000E+01 0.  1.
         -5    1    4    4    0  502  0.60455082984E+02 -0.22744709010E+02  0.17921405695E+03  0.19055683419E+03  0.47000000000E+01 0.  1.
          5    1    5    5  503    0 -0.36269999639E+02 -0.65873172719E+02  0.77465962896E+02  0.10806411599E+03  0.47000000000E+01 0.  1.
         -5    1    5    5    0  503 -0.17567821918E+02  0.48944062297E+02  0.13332174230E+03  0.14318144632E+03  0.47000000000E+01 0.  1.
<mgrwt>
<rscale>  0 0.27495625E+03</rscale>
<asrwt>0</asrwt>
<pdfrwt beam="1">  1        2 0.67681722E-01 0.27495625E+03</pdfrwt>
<pdfrwt beam="2">  1       -2 0.66095071E-02 0.27495625E+03</pdfrwt>
<totfact> 0.90983254E+03</totfact>
</mgrwt>
</event>
<event>
 9    1  0.2024718E-002  0.2719167E+03  0.7818608E-02  0.1100188E+00
          1   -1    0    0  501    0  0.00000000000E+00  0.00000000000E+00  0.49375342150E+02  0.49375342150E+02  0.00000000000E+00 0. -1.
         -1   -1    0    0    0  501 -0.00000000000E+00 -0.00000000000E+00 -0.37437039615E+03  0.37437039615E+03  0.00000000000E+00 0. -1.
         36    2    1    2    0    0  0.71054273576E-14  0.53290705182E-14 -0.32499505400E+03  0.42374573830E+03  0.27191665194E+03 0.  0.
         25    2    3    3    0    0 -0.49662401782E+02 -0.61252666440E+01 -0.18538593181E+03  0.22881106453E+03  0.12442944384E+03 0.  0.
         25    2    3    3    0    0  0.49662401782E+02  0.61252666440E+01 -0.13960912219E+03  0.19493467377E+03  0.12651065962E+03 0.  0.
          5    1    4    4  502    0 -0.63114668069E+02  0.74283685899E+01 -0.26998358606E+02  0.69207249280E+02  0.47000000000E+01 0. -1.
         -5    1    4    4    0  502  0.13452266287E+02 -0.13553635234E+02 -0.15838757320E+03  0.15960381525E+03  0.47000000000E+01 0. -1.
          5    1    5    5  503    0  0.37353212098E+02 -0.57005541954E+02 -0.92858450626E+02  0.11528085756E+03  0.47000000000E+01 0. -1.
         -5    1    5    5    0  503  0.12309189685E+02  0.63130808598E+02 -0.46750671560E+02  0.79653816207E+02  0.47000000000E+01 0. -1.
<mgrwt>
<rscale>  0 0.27191665E+03</rscale>
<asrwt>0</asrwt>
<pdfrwt beam="1">  1        1 0.75962065E-02 0.27191665E+03</pdfrwt>
<pdfrwt beam="2">  1       -1 0.57595446E-01 0.27191665E+03</pdfrwt>
<totfact> 0.29246880E+03</totfact>
</mgrwt>
</event>
<event>
 9    1  0.2024718E-002  0.2760294E+03  0.7818608E-02  0.1097878E+00
         -2   -1    0    0    0  501 -0.00000000000E+00  0.00000000000E+00  0.37646236237E+02  0.37646236237E+02  0.00000000000E+00 0. -1.
          2   -1    0    0  501    0  0.00000000000E+00 -0.00000000000E+00 -0.50597505649E+03  0.50597505649E+03  0.00000000000E+00 0. -1.
         36    2    1    2    0    0  0.71054273576E-14 -0.62172489379E-14 -0.46832882025E+03  0.54362129272E+03  0.27602939341E+03 0.  0.
         25    2    3    3    0    0 -0.41396402759E+02  0.11076487718E+01 -0.13724048506E+03  0.18814532881E+03  0.12185575475E+03 0.  0.
         25    2    3    3    0    0  0.41396402759E+02 -0.11076487718E+01 -0.33108833519E+03  0.35547596392E+03  0.12259194988E+03 0.  0.
          5    1    4    4  502    0  0.80459215471E+01 -0.70776203476E+01 -0.13731241271E+03  0.13781008035E+03  0.47000000000E+01 0. -1.
         -5    1    4    4    0  502 -0.49442324306E+02  0.81852691194E+01  0.71927648845E-01  0.50335248454E+02  0.47000000000E+01 0. -1.
          5    1    5    5  503    0 -0.10232526275E+02 -0.37069655699E+02 -0.33329850967E+02  0.51106094873E+02  0.47000000000E+01 0.  1.
         -5    1    5    5    0  503  0.51628929033E+02  0.35962006927E+02 -0.29775848423E+03  0.30436986905E+03  0.47000000000E+01 0.  1.
<mgrwt>
<rscale>  0 0.27602939E+03</rscale>
<asrwt>0</asrwt>
<pdfrwt beam="1">  1        2 0.77842311E-01 0.27602939E+03</pdfrwt>
<pdfrwt beam="2">  1       -2 0.57917290E-02 0.27602939E+03</pdfrwt>
<totfact> 0.95463706E+03</totfact>
</mgrwt>
</event>
<event>
 9    1  0.2024718E-002  0.2757708E+03  0.7818608E-02  0.1098022E+00
         -2   -1    0    0    0  501 -0.00000000000E+00  0.00000000000E+00  0.32541020251E+03  0.32541020251E+03  0.00000000000E+00 0. -1.
          2   -1    0    0  501    0  0.00000000000E+00 -0.00000000000E+00 -0.58425883093E+02  0.58425883093E+02  0.00000000000E+00 0. -1.
         36    2    1    2    0    0 -0.71054273576E-14 -0.71054273576E-14  0.26698431942E+03  0.38383608561E+03  0.27577076313E+03 0.  0.
         25    2    3    3    0    0  0.49953312812E+02 -0.21730588804E+02  0.96175443035E+02  0.16780378947E+03  0.12625705512E+03 0.  0.
         25    2    3    3    0    0 -0.49953312812E+02  0.21730588804E+02  0.17080887639E+03  0.21603229614E+03  0.12052687987E+03 0.  0.
          5    1    4    4  502    0  0.80664599382E+01 -0.70465253065E+02  0.64596450610E+02  0.96047962482E+02  0.47000000000E+01 0. -1.
         -5    1    4    4    0  502  0.41886852874E+02  0.48734664261E+02  0.31578992425E+02  0.71755826989E+02  0.47000000000E+01 0. -1.
          5    1    5    5  503    0  0.20735177396E+02 -0.35374076117E+02  0.53472772306E+02  0.67547762516E+02  0.47000000000E+01 0. -1.
         -5    1    5    5    0  503 -0.70688490208E+02  0.57104664921E+02  0.11733610408E+03  0.14848453362E+03  0.47000000000E+01 0. -1.
<mgrwt>
<rscale>  0 0.27577076E+03</rscale>
<asrwt>0</asrwt>
<pdfrwt beam="1">  1        2 0.89885976E-02 0.27577076E+03</pdfrwt>
<pdfrwt beam="2">  1       -2 0.50063107E-01 0.27577076E+03</pdfrwt>
<totfact> 0.27987469E+03</totfact>
</mgrwt>
</event>
<event>
 9    1  0.2024718E-002  0.2745033E+03  0.7818608E-02  0.1098730E+00
          1   -1    0    0  501    0  0.00000000000E+00  0.00000000000E+00  0.16191790518E+04  0.16191790518E+04  0.00000000000E+00 0. -1.
         -1   -1    0    0    0  501 -0.00000000000E+00 -0.00000000000E+00 -0.11634298850E+02  0.11634298850E+02  0.00000000000E+00 0. -1.
         36    2    1    2    0    0 -0.35527136788E-14  0.00000000000E+00  0.16075447529E+04  0.16308133506E+04  0.27450328216E+03 0.  0.
         25    2    3    3    0    0 -0.25793027489E+02  0.42182890637E+02  0.10233419535E+04  0.10315311938E+04  0.11992986837E+03 0.  0.
         25    2    3    3    0    0  0.25793027489E+02 -0.42182890637E+02  0.58420279938E+03  0.59928215684E+03  0.12410284517E+03 0.  0.
          5    1    4    4  502    0 -0.10794580490E+02 -0.41945016342E+02  0.39246802113E+03  0.39487864588E+03  0.47000000000E+01 0. -1.
         -5    1    4    4    0  502 -0.14998446999E+02  0.84127906978E+02  0.63087393241E+03  0.63665254789E+03  0.47000000000E+01 0. -1.
          5    1    5    5  503    0 -0.17747452341E+02  0.21118434440E+02  0.38039976407E+03  0.38142762203E+03  0.47000000000E+01 0.  1.
         -5    1    5    5    0  503  0.43540479830E+02 -0.63301325077E+02  0.20380303531E+03  0.21785453482E+03  0.47000000000E+01 0.  1.
<mgrwt>
<rscale>  0 0.27450328E+03</rscale>
<asrwt>0</asrwt>
<pdfrwt beam="1">  1        1 0.24910429E+00 0.27450328E+03</pdfrwt>
<pdfrwt beam="2">  1       -1 0.17898934E-02 0.27450328E+03</pdfrwt>
<totfact> 0.48162976E+03</totfact>
</mgrwt>
</event>
<event>
 9    1  0.2024718E-002  0.2743188E+03  0.7818608E-02  0.1098833E+00
         -1   -1    0    0    0  501 -0.00000000000E+00  0.00000000000E+00  0.60519129345E+02  0.60519129345E+02  0.00000000000E+00 0. -1.
          1   -1    0    0  501    0  0.00000000000E+00 -0.00000000000E+00 -0.31085538525E+03  0.31085538525E+03  0.00000000000E+00 0. -1.
         36    2    1    2    0    0 -0.71054273576E-14  0.00000000000E+00 -0.25033625591E+03  0.37137451460E+03  0.27431877273E+03 0.  0.
         25    2    3    3    0    0  0.22687714034E+02 -0.44733081228E+00 -0.58324662936E+02  0.14261243148E+03  0.12814681749E+03 0.  0.
         25    2    3    3    0    0 -0.22687714034E+02  0.44733081228E+00 -0.19201159297E+03  0.22876208312E+03  0.12226490242E+03 0.  0.
          5    1    4    4  502    0 -0.46866453799E+02 -0.67782366032E+01 -0.54723685087E+02  0.72520208857E+02  0.47000000000E+01 0. -1.
         -5    1    4    4    0  502  0.69554167833E+02  0.63309057909E+01 -0.36009778483E+01  0.70092222625E+02  0.47000000000E+01 0. -1.
          5    1    5    5  503    0  0.48984783920E+02  0.14143795891E+02 -0.81569557514E+02  0.96308040842E+02  0.47000000000E+01 0. -1.
         -5    1    5    5    0  503 -0.71672497954E+02 -0.13696465079E+02 -0.11044203546E+03  0.13245404227E+03  0.47000000000E+01 0. -1.
<mgrwt>
<rscale>  0 0.27431877E+03</rscale>
<asrwt>0</asrwt>
<pdfrwt beam="1">  1        1 0.47823906E-01 0.27431877E+03</pdfrwt>
<pdfrwt beam="2">  1       -1 0.93106352E-02 0.27431877E+03</pdfrwt>
<totfact> 0.56659207E+03</totfact>
</mgrwt>
</event>
<event>
 9    1  0.2024718E-002  0.2755384E+03  0.7818608E-02  0.1098151E+00
         -2   -1    0    0    0  501 -0.00000000000E+00  0.00000000000E+00  0.11401743595E+04  0.11401743595E+04  0.00000000000E+00 0.  1.
          2   -1    0    0  501    0  0.00000000000E+00 -0.00000000000E+00 -0.16646884978E+02  0.16646884978E+02  0.00000000000E+00 0.  1.
         36    2    1    2    0    0  0.00000000000E+00 -0.71054273576E-14  0.11235274745E+04  0.11568212445E+04  0.27553839237E+03 0.  0.
         25    2    3    3    0    0 -0.46528787614E+02 -0.20166771953E+02  0.41153188687E+03  0.43306553531E+03  0.12496254316E+03 0.  0.
         25    2    3    3    0    0  0.46528787614E+02  0.20166771953E+02  0.71199558765E+03  0.72375570917E+03  0.11963687957E+03 0.  0.
          5    1    4    4  502    0 -0.66128882207E+02  0.24264150255E+02  0.33460713628E+03  0.34197339619E+03  0.47000000000E+01 0. -1.
         -5    1    4    4    0  502  0.19600094593E+02 -0.44430922208E+02  0.76924750590E+02  0.91092139122E+02  0.47000000000E+01 0. -1.
          5    1    5    5  503    0  0.39277626832E+01 -0.40187001527E+02  0.43978474726E+03  0.44165952536E+03  0.47000000000E+01 0.  1.
         -5    1    5    5    0  503  0.42601024931E+02  0.60353773481E+02  0.27221084038E+03  0.28209618381E+03  0.47000000000E+01 0.  1.
<mgrwt>
<rscale>  0 0.27553839E+03</rscale>
<asrwt>0</asrwt>
<pdfrwt beam="1">  1        2 0.25610601E-02 0.27553839E+03</pdfrwt>
<pdfrwt beam="2">  1       -2 0.17541138E+00 0.27553839E+03</pdfrwt>
<totfact> 0.81355086E+02</totfact>
</mgrwt>
</event>
<event>
 9    1  0.2024718E-002  0.2751928E+03  0.7818608E-02  0.1098344E+00
          2   -1    0    0  501    0  0.00000000000E+00  0.00000000000E+00  0.48199270409E+03  0.48199270409E+03  0.00000000000E+00 0. -1.
         -2   -1    0    0    0  501 -0.00000000000E+00 -0.00000000000E+00 -0.39280209870E+02  0.39280209870E+02  0.00000000000E+00 0. -1.
         36    2    1    2    0    0 -0.71054273576E-14 -0.71054273576E-14  0.44271249422E+03  0.52127291396E+03  0.27519283837E+03 0.  0.
         25    2    3    3    0    0  0.46829798642E+02  0.42404598745E+02  0.20869797145E+03  0.25144288584E+03  0.12520982996E+03 0.  0.
         25    2    3    3    0    0 -0.46829798642E+02 -0.42404598745E+02  0.23401452277E+03  0.26983002812E+03  0.11855069452E+03 0.  0.
          5    1    4    4  502    0  0.79870744907E+02  0.35397021975E+02  0.80854597924E+02  0.11912951382E+03  0.47000000000E+01 0. -1.
         -5    1    4    4    0  502 -0.33040946265E+02  0.70075767702E+01  0.12784337353E+03  0.13231337203E+03  0.47000000000E+01 0. -1.
          5    1    5    5  503    0  0.77246400831E+01  0.31903587879E+02  0.25606924826E+02  0.41896462655E+02  0.47000000000E+01 0. -1.
         -5    1    5    5    0  503 -0.54554438725E+02 -0.74308186624E+02  0.20840759794E+03  0.22793356546E+03  0.47000000000E+01 0. -1.
<mgrwt>
<rscale>  0 0.27519284E+03</rscale>
<asrwt>0</asrwt>
<pdfrwt beam="1">  1        2 0.74152719E-01 0.27519284E+03</pdfrwt>
<pdfrwt beam="2">  1       -2 0.60431096E-02 0.27519284E+03</pdfrwt>
<totfact> 0.94416530E+03</totfact>
</mgrwt>
</event>
<event>
 9    1  0.2024718E-002  0.2750143E+03  0.7818608E-02  0.1098444E+00
          2   -1    0    0  501    0  0.00000000000E+00  0.00000000000E+00  0.11973701120E+04  0.11973701120E+04  0.00000000000E+00 0.  1.
         -2   -1    0    0    0  501 -0.00000000000E+00 -0.00000000000E+00 -0.15791458065E+02  0.15791458065E+02  0.00000000000E+00 0.  1.
         36    2    1    2    0    0 -0.35527136788E-14 -0.71054273576E-14  0.11815786539E+04  0.12131615700E+04  0.27501432625E+03 0.  0.
         25    2    3    3    0    0  0.14324615235E+02  0.68513778607E+01  0.46331365096E+03  0.48036583491E+03  0.12585571186E+03 0.  0.
         25    2    3    3    0    0 -0.14324615235E+02 -0.68513778607E+01  0.71826500293E+03  0.73279573511E+03  0.14433585477E+03 0.  0.
          5    1    4    4  502    0  0.12215709640E+02 -0.47335134691E+02  0.36236414017E+03  0.36567704142E+03  0.47000000000E+01 0.  1.
         -5    1    4    4    0  502  0.21089055952E+01  0.54186512551E+02  0.10094951078E+03  0.11468879349E+03  0.47000000000E+01 0.  1.
          5    1    5    5  503    0  0.31430802757E+02 -0.49437010878E+02  0.15029402346E+03  0.16137625877E+03  0.47000000000E+01 0.  1.
         -5    1    5    5    0  503 -0.45755417992E+02  0.42585633017E+02  0.56797097947E+03  0.57141947634E+03  0.47000000000E+01 0.  1.
<mgrwt>
<rscale>  0 0.27501433E+03</rscale>
<asrwt>0</asrwt>
<pdfrwt beam="1">  1        2 0.18421072E+00 0.27501433E+03</pdfrwt>
<pdfrwt beam="2">  1       -2 0.24294560E-02 0.27501433E+03</pdfrwt>
<totfact> 0.11610770E+04</totfact>
</mgrwt>
</event>
<event>
 9    1  0.2024718E-002  0.2747044E+03  0.7818608E-02  0.1098617E+00
         -1   -1    0    0    0  501 -0.00000000000E+00  0.00000000000E+00  0.11862418795E+03  0.11862418795E+03  0.00000000000E+00 0. -1.
          1   -1    0    0  501    0  0.00000000000E+00 -0.00000000000E+00 -0.15903697568E+03  0.15903697568E+03  0.00000000000E+00 0. -1.
         36    2    1    2    0    0  0.00000000000E+00 -0.71054273576E-14 -0.40412787732E+02  0.27766116363E+03  0.27470443822E+03 0.  0.
         25    2    3    3    0    0  0.16922866988E+02 -0.48343873154E+02 -0.44572285741E+02  0.14050541188E+03  0.12301044108E+03 0.  0.
         25    2    3    3    0    0 -0.16922866988E+02  0.48343873154E+02  0.41594980090E+01  0.13715575175E+03  0.12716479590E+03 0.  0.
          5    1    4    4  502    0  0.67092941033E+02 -0.72056099431E+01 -0.16307474757E+02  0.69580221931E+02  0.47000000000E+01 0.  1.
         -5    1    4    4    0  502 -0.50170074045E+02 -0.41138263211E+02 -0.28264810984E+02  0.70925189952E+02  0.47000000000E+01 0.  1.
          5    1    5    5  503    0  0.30796420417E+02  0.12117875121E+02 -0.47380877704E+02  0.57985342802E+02  0.47000000000E+01 0. -1.
         -5    1    5    5    0  503 -0.47719287405E+02  0.36225998033E+02  0.51540375713E+02  0.79170408945E+02  0.47000000000E+01 0. -1.
<mgrwt>
<rscale>  0 0.27470444E+03</rscale>
<asrwt>0</asrwt>
<pdfrwt beam="1">  1        1 0.24467227E-01 0.27470444E+03</pdfrwt>
<pdfrwt beam="2">  1       -1 0.18249875E-01 0.27470444E+03</pdfrwt>
<totfact> 0.45760729E+03</totfact>
</mgrwt>
</event>
<event>
 9    1  0.2024718E-002  0.2758043E+03  0.7818608E-02  0.1098003E+00
          2   -1    0    0  501    0  0.00000000000E+00  0.00000000000E+00  0.18507629441E+04  0.18507629441E+04  0.00000000000E+00 0. -1.
         -2   -1    0    0    0  501 -0.00000000000E+00 -0.00000000000E+00 -0.10275221412E+02  0.10275221412E+02  0.00000000000E+00 0. -1.
         36    2    1    2    0    0  0.00000000000E+00  0.00000000000E+00  0.18404877227E+04  0.18610381655E+04  0.27580427141E+03 0.  0.
         25    2    3    3    0    0 -0.38595241859E+02 -0.14531204520E+02  0.81602826482E+03  0.82853378497E+03  0.13735121136E+03 0.  0.
         25    2    3    3    0    0  0.38595241859E+02  0.14531204520E+02  0.10244594579E+04  0.10325043806E+04  0.12184976986E+03 0.  0.
          5    1    4    4  502    0 -0.11909025327E+02 -0.14730718240E+02  0.97798469495E+01  0.21830124839E+02  0.47000000000E+01 0.  1.
         -5    1    4    4    0  502 -0.26686216532E+02  0.19951372011E+00  0.80624841787E+03  0.80670366013E+03  0.47000000000E+01 0.  1.
          5    1    5    5  503    0  0.20099313592E+02  0.66836589475E+02  0.45739606424E+03  0.46271412522E+03  0.47000000000E+01 0.  1.
         -5    1    5    5    0  503  0.18495928266E+02 -0.52305384955E+02  0.56706339366E+03  0.56979025535E+03  0.47000000000E+01 0.  1.
<mgrwt>
<rscale>  0 0.27580427E+03</rscale>
<asrwt>0</asrwt>
<pdfrwt beam="1">  1        2 0.28473250E+00 0.27580427E+03</pdfrwt>
<pdfrwt beam="2">  1       -2 0.15808048E-02 0.27580427E+03</pdfrwt>
<totfact> 0.97238633E+03</totfact>
</mgrwt>
</event>
<event>
 9    1  0.2024718E-002  0.2751693E+03  0.7818608E-02  0.1098357E+00
          2   -1    0    0  501    0  0.00000000000E+00  0.00000000000E+00  0.11785741684E+03  0.11785741684E+03  0.00000000000E+00 0. -1.
         -2   -1    0    0    0  501 -0.00000000000E+00 -0.00000000000E+00 -0.16061392637E+03  0.16061392637E+03  0.00000000000E+00 0. -1.
         36    2    1    2    0    0 -0.71054273576E-14  0.00000000000E+00 -0.42756509535E+02  0.27847134321E+03  0.27516934764E+03 0.  0.
         25    2    3    3    0    0  0.54526667935E+02 -0.27639928574E+02 -0.84085301538E+01  0.13923141390E+03  0.12481009603E+03 0.  0.
         25    2    3    3    0    0 -0.54526667935E+02  0.27639928574E+02 -0.34347979382E+02  0.13923992931E+03  0.12029485050E+03 0.  0.
          5    1    4    4  502    0 -0.20084758468E+00  0.12186886664E+02 -0.55257251555E+02  0.56780405033E+02  0.47000000000E+01 0. -1.
         -5    1    4    4    0  502  0.54727515520E+02 -0.39826815238E+02  0.46848721401E+02  0.82451008871E+02  0.47000000000E+01 0. -1.
          5    1    5    5  503    0  0.14898092351E+02 -0.36867971475E+02 -0.93876092615E+01  0.41126848700E+02  0.47000000000E+01 0. -1.
         -5    1    5    5    0  503 -0.69424760285E+02  0.64507900049E+02 -0.24960370120E+02  0.98113080605E+02  0.47000000000E+01 0. -1.
<mgrwt>
<rscale>  0 0.27516935E+03</rscale>
<asrwt>0</asrwt>
<pdfrwt beam="1">  1        2 0.18131910E-01 0.27516935E+03</pdfrwt>
<pdfrwt beam="2">  1       -2 0.24709835E-01 0.27516935E+03</pdfrwt>
<totfact> 0.44896010E+03</totfact>
</mgrwt>
</event>
<event>
 9    1  0.2024718E-002  0.2749212E+03  0.7818608E-02  0.1098496E+00
         -2   -1    0    0    0  501 -0.00000000000E+00  0.00000000000E+00  0.28857001758E+02  0.28857001758E+02  0.00000000000E+00 0.  1.
          2   -1    0    0  501    0  0.00000000000E+00 -0.00000000000E+00 -0.65479499064E+03  0.65479499064E+03  0.00000000000E+00 0.  1.
         36    2    1    2    0    0  0.00000000000E+00  0.17763568394E-14 -0.62593798888E+03  0.68365199240E+03  0.27492122651E+03 0.  0.
         25    2    3    3    0    0 -0.51425388383E+02 -0.97497950916E+01 -0.26705008331E+03  0.30011265191E+03  0.12653943166E+03 0.  0.
         25    2    3    3    0    0  0.51425388383E+02  0.97497950916E+01 -0.35888790557E+03  0.38353934049E+03  0.12474881908E+03 0.  0.
          5    1    4    4  502    0  0.30495850592E+02 -0.30037530118E+01 -0.17018031059E+03  0.17298106124E+03  0.47000000000E+01 0.  1.
         -5    1    4    4    0  502 -0.81921238975E+02 -0.67460420798E+01 -0.96869772716E+02  0.12713159066E+03  0.47000000000E+01 0.  1.
          5    1    5    5  503    0  0.16720889325E+01 -0.50369237742E+02 -0.20209656517E+03  0.20833858895E+03  0.47000000000E+01 0.  1.
         -5    1    5    5    0  503  0.49753299450E+02  0.60119032834E+02 -0.15679134041E+03  0.17520075154E+03  0.47000000000E+01 0.  1.
<mgrwt>
<rscale>  0 0.27492123E+03</rscale>
<asrwt>0</asrwt>
<pdfrwt beam="1">  1        2 0.10073768E+00 0.27492123E+03</pdfrwt>
<pdfrwt beam="2">  1       -2 0.44395393E-02 0.27492123E+03</pdfrwt>
<totfact> 0.10627057E+04</totfact>
</mgrwt>
</event>
<event>
 9    1  0.2024718E-002  0.2750831E+03  0.7818608E-02  0.1098405E+00
          1   -1    0    0  501    0  0.00000000000E+00  0.00000000000E+00  0.10003828141E+04  0.10003828141E+04  0.00000000000E+00 0. -1.
         -1   -1    0    0    0  501 -0.00000000000E+00 -0.00000000000E+00 -0.18910442907E+02  0.18910442907E+02  0.00000000000E+00 0. -1.
         36    2    1    2    0    0 -0.71054273576E-14  0.00000000000E+00  0.98147237124E+03  0.10192932571E+04  0.27508312992E+03 0.  0.
         25    2    3    3    0    0  0.33200174670E+02 -0.64359952791E+01  0.31701573531E+03  0.34134626514E+03  0.12196156222E+03 0.  0.
         25    2    3    3    0    0 -0.33200174670E+02  0.64359952791E+01  0.66445663593E+03  0.67794699191E+03  0.13025294305E+03 0.  0.
          5    1    4    4  502    0  0.25291913310E+02  0.52136997827E+02  0.22082784596E+03  0.22835274242E+03  0.47000000000E+01 0. -1.
         -5    1    4    4    0  502  0.79082613606E+01 -0.58572993106E+02  0.96187889354E+02  0.11299352272E+03  0.47000000000E+01 0. -1.
          5    1    5    5  503    0 -0.65949900800E+02 -0.39896525197E+02  0.40852155869E+03  0.41575602949E+03  0.47000000000E+01 0.  1.
         -5    1    5    5    0  503  0.32749726130E+02  0.46332520476E+02  0.25593507724E+03  0.26219096242E+03  0.47000000000E+01 0.  1.
<mgrwt>
<rscale>  0 0.27508313E+03</rscale>
<asrwt>0</asrwt>
<pdfrwt beam="1">  1        1 0.15390501E+00 0.27508313E+03</pdfrwt>
<pdfrwt beam="2">  1       -1 0.29092997E-02 0.27508313E+03</pdfrwt>
<totfact> 0.63038649E+03</totfact>
</mgrwt>
</event>
<event>
 9    1  0.2024718E-002  0.2738778E+03  0.7818608E-02  0.1099081E+00
          4   -1    0    0  501    0  0.00000000000E+00  0.00000000000E+00  0.15850342941E+04  0.15850342941E+04  0.00000000000E+00 0.  1.
         -4   -1    0    0    0  501 -0.00000000000E+00 -0.00000000000E+00 -0.11830828003E+02  0.11830828003E+02  0.00000000000E+00 0.  1.
         36    2    1    2    0    0  0.00000000000E+00  0.35527136788E-14  0.15732034661E+04  0.15968651221E+04  0.27387784220E+03 0.  0.
         25    2    3    3    0    0  0.50502322500E+02  0.21216567659E+02  0.88182918951E+03  0.89233748682E+03  0.12507135396E+03 0.  0.
         25    2    3    3    0    0 -0.50502322500E+02 -0.21216567659E+02  0.69137427657E+03  0.70452763527E+03  0.12393615790E+03 0.  0.
          5    1    4    4  502    0  0.12052177022E+02  0.13709019288E+02  0.13674920853E+02  0.23287027314E+02  0.47000000000E+01 0.  1.
         -5    1    4    4    0  502  0.38450145478E+02  0.75075483713E+01  0.86815426866E+03  0.86905045950E+03  0.47000000000E+01 0.  1.
          5    1    5    5  503    0 -0.23705619128E+02 -0.58073173039E+02  0.58927000238E+03  0.59261764698E+03  0.47000000000E+01 0. -1.
         -5    1    5    5    0  503 -0.26796703372E+02  0.36856605380E+02  0.10210427419E+03  0.11190998829E+03  0.47000000000E+01 0. -1.
<mgrwt>
<rscale>  0 0.27387784E+03</rscale>
<asrwt>0</asrwt>
<pdfrwt beam="1">  1        4 0.24385126E+00 0.27387784E+03</pdfrwt>
<pdfrwt beam="2">  1       -4 0.18201286E-02 0.27387784E+03</pdfrwt>
<totfact> 0.17087258E+02</totfact>
</mgrwt>
</event>
<event>
 9    1  0.2024718E-002  0.2754414E+03  0.7818608E-02  0.1098205E+00
          4   -1    0    0  501    0  0.00000000000E+00  0.00000000000E+00  0.69181289503E+03  0.69181289503E+03  0.00000000000E+00 0. -1.
         -4   -1    0    0    0  501 -0.00000000000E+00 -0.00000000000E+00 -0.27416366549E+02  0.27416366549E+02  0.00000000000E+00 0. -1.
         36    2    1    2    0    0 -0.35527136788E-14  0.71054273576E-14  0.66439652848E+03  0.71922926158E+03  0.27544143416E+03 0.  0.
         25    2    3    3    0    0  0.19598219465E+02 -0.36665088302E+02  0.25725539614E+03  0.29112339065E+03  0.12978470955E+03 0.  0.
         25    2    3    3    0    0 -0.19598219465E+02  0.36665088302E+02  0.40714113234E+03  0.42810587093E+03  0.12562768873E+03 0.  0.
          5    1    4    4  502    0 -0.14150783853E+02 -0.66414535672E+02  0.22629017035E+03  0.23630587472E+03  0.47000000000E+01 0. -1.
         -5    1    4    4    0  502  0.33749003318E+02  0.29749447370E+02  0.30965225789E+02  0.54817515923E+02  0.47000000000E+01 0. -1.
          5    1    5    5  503    0  0.32097490021E+02 -0.32421130858E+02  0.14682285784E+03  0.15381944018E+03  0.47000000000E+01 0. -1.
         -5    1    5    5    0  503 -0.51695709486E+02  0.69086219160E+02  0.26031827450E+03  0.27428643075E+03  0.47000000000E+01 0. -1.
<mgrwt>
<rscale>  0 0.27544143E+03</rscale>
<asrwt>0</asrwt>
<pdfrwt beam="1">  1        4 0.10643274E+00 0.27544143E+03</pdfrwt>
<pdfrwt beam="2">  1       -4 0.42179031E-02 0.27544143E+03</pdfrwt>
<totfact> 0.43365794E+02</totfact>
</mgrwt>
</event>
<event>
 9    1  0.2024718E-002  0.2748908E+03  0.7818608E-02  0.1098513E+00
          2   -1    0    0  501    0  0.00000000000E+00  0.00000000000E+00  0.60559007750E+03  0.60559007750E+03  0.00000000000E+00 0.  1.
         -2   -1    0    0    0  501 -0.00000000000E+00 -0.00000000000E+00 -0.31194757143E+02  0.31194757143E+02  0.00000000000E+00 0.  1.
         36    2    1    2    0    0  0.00000000000E+00  0.00000000000E+00  0.57439532035E+03  0.63678483464E+03  0.27489078119E+03 0.  0.
         25    2    3    3    0    0  0.38580244681E+02 -0.48487272325E+02  0.29202570878E+03  0.32324619275E+03  0.12397433477E+03 0.  0.
         25    2    3    3    0    0 -0.38580244681E+02  0.48487272325E+02  0.28236961157E+03  0.31353864189E+03  0.12138546685E+03 0.  0.
          5    1    4    4  502    0 -0.14008609564E+02 -0.37631536241E+02  0.18500746034E+02  0.44460558539E+02  0.47000000000E+01 0. -1.
         -5    1    4    4    0  502  0.52588854245E+02 -0.10855736084E+02  0.27352496275E+03  0.27878563421E+03  0.47000000000E+01 0. -1.
          5    1    5    5  503    0 -0.41667679933E+02  0.70578122616E+02  0.27858750231E+03  0.29043166733E+03  0.47000000000E+01 0.  1.
         -5    1    5    5    0  503  0.30874352520E+01 -0.22090850291E+02  0.37821092646E+01  0.23106974565E+02  0.47000000000E+01 0.  1.
<mgrwt>
<rscale>  0 0.27489078E+03</rscale>
<asrwt>0</asrwt>
<pdfrwt beam="1">  1        2 0.93167695E-01 0.27489078E+03</pdfrwt>
<pdfrwt beam="2">  1       -2 0.47991939E-02 0.27489078E+03</pdfrwt>
<totfact> 0.10353923E+04</totfact>
</mgrwt>
</event>
<event>
 9    1  0.2024718E-002  0.2732314E+03  0.7818608E-02  0.1099444E+00
         -2   -1    0    0    0  501 -0.00000000000E+00  0.00000000000E+00  0.89675480136E+02  0.89675480136E+02  0.00000000000E+00 0. -1.
          2   -1    0    0  501    0  0.00000000000E+00 -0.00000000000E+00 -0.20812657043E+03  0.20812657043E+03  0.00000000000E+00 0. -1.
         36    2    1    2    0    0  0.00000000000E+00  0.00000000000E+00 -0.11845109029E+03  0.29780205057E+03  0.27323140473E+03 0.  0.
         25    2    3    3    0    0 -0.33883179562E+02  0.36909960399E+02 -0.36318891931E+02  0.13966457407E+03  0.12520669433E+03 0.  0.
         25    2    3    3    0    0  0.33883179562E+02 -0.36909960399E+02 -0.82132198363E+02  0.15813747650E+03  0.12550437614E+03 0.  0.
          5    1    4    4  502    0 -0.19598544903E+02  0.76199774527E+02 -0.52375666081E+02  0.94635136168E+02  0.47000000000E+01 0. -1.
         -5    1    4    4    0  502 -0.14284634659E+02 -0.39289814128E+02  0.16056774150E+02  0.45029437900E+02  0.47000000000E+01 0. -1.
          5    1    5    5  503    0  0.58178518615E+02 -0.29497938228E+02 -0.10495812248E+03  0.12366554032E+03  0.47000000000E+01 0.  1.
         -5    1    5    5    0  503 -0.24295339054E+02 -0.74120221711E+01  0.22825924114E+02  0.34471936181E+02  0.47000000000E+01 0.  1.
<mgrwt>
<rscale>  0 0.27323140E+03</rscale>
<asrwt>0</asrwt>
<pdfrwt beam="1">  1        2 0.32019472E-01 0.27323140E+03</pdfrwt>
<pdfrwt beam="2">  1       -2 0.13796228E-01 0.27323140E+03</pdfrwt>
<totfact> 0.63656481E+03</totfact>
</mgrwt>
</event>
<event>
 9    1  0.2024718E-002  0.2745833E+03  0.7818608E-02  0.1098685E+00
          2   -1    0    0  501    0  0.00000000000E+00  0.00000000000E+00  0.27445859586E+04  0.27445859586E+04  0.00000000000E+00 0. -1.
         -2   -1    0    0    0  501 -0.00000000000E+00 -0.00000000000E+00 -0.68677031850E+01  0.68677031850E+01  0.00000000000E+00 0. -1.
         36    2    1    2    0    0  0.00000000000E+00  0.35527136788E-14  0.27377182554E+04  0.27514536618E+04  0.27458333328E+03 0.  0.
         25    2    3    3    0    0 -0.28631714008E+02 -0.11495637550E+02  0.91146349329E+03  0.92065950358E+03  0.12608051876E+03 0.  0.
         25    2    3    3    0    0  0.28631714008E+02  0.11495637550E+02  0.18262547621E+04  0.18307941582E+04  0.12509543871E+03 0.  0.
          5    1    4    4  502    0 -0.64420593162E+01 -0.61067101001E+02  0.27239639840E+03  0.27927151451E+03  0.47000000000E+01 0.  1.
         -5    1    4    4    0  502 -0.22189654692E+02  0.49571463451E+02  0.63906709488E+03  0.64138798907E+03  0.47000000000E+01 0.  1.
          5    1    5    5  503    0 -0.42434971920E+02  0.20884819577E+02  0.41512458027E+03  0.41783658250E+03  0.47000000000E+01 0. -1.
         -5    1    5    5    0  503  0.71066685928E+02 -0.93891820264E+01  0.14111301818E+04  0.14129575757E+04  0.47000000000E+01 0. -1.
<mgrwt>
<rscale>  0 0.27458333E+03</rscale>
<asrwt>0</asrwt>
<pdfrwt beam="1">  1        2 0.42224312E+00 0.27458333E+03</pdfrwt>
<pdfrwt beam="2">  1       -2 0.10565719E-02 0.27458333E+03</pdfrwt>
<totfact> 0.57666515E+03</totfact>
</mgrwt>
</event>
<event>
 9    1  0.2024718E-002  0.2841675E+03  0.7818608E-02  0.1093434E+00
         -2   -1    0    0    0  501 -0.00000000000E+00  0.00000000000E+00  0.13599404366E+04  0.13599404366E+04  0.00000000000E+00 0.  1.
          2   -1    0    0  501    0  0.00000000000E+00 -0.00000000000E+00 -0.14844619162E+02  0.14844619162E+02  0.00000000000E+00 0.  1.
         36    2    1    2    0    0  0.00000000000E+00  0.71054273576E-14  0.13450958174E+04  0.13747850557E+04  0.28416754117E+03 0.  0.
         25    2    3    3    0    0  0.37883435873E+02  0.56434086966E+02  0.65529943296E+03  0.67027833593E+03  0.12343313939E+03 0.  0.
         25    2    3    3    0    0 -0.37883435873E+02 -0.56434086966E+02  0.68979638444E+03  0.70450671979E+03  0.12605834109E+03 0.  0.
          5    1    4    4  502    0  0.76063959752E+02  0.52223679952E+01  0.38353953399E+03  0.39107245267E+03  0.47000000000E+01 0. -1.
         -5    1    4    4    0  502 -0.38180523878E+02  0.51211718970E+02  0.27175989896E+03  0.27920588326E+03  0.47000000000E+01 0. -1.
          5    1    5    5  503    0  0.72445900071E+01  0.36934969983E+02  0.14310824047E+03  0.14804977063E+03  0.47000000000E+01 0.  1.
         -5    1    5    5    0  503 -0.45128025881E+02 -0.93369056949E+02  0.54668814397E+03  0.55645694916E+03  0.47000000000E+01 0.  1.
<mgrwt>
<rscale>  0 0.28416754E+03</rscale>
<asrwt>0</asrwt>
<pdfrwt beam="1">  1        2 0.22837886E-02 0.28416754E+03</pdfrwt>
<pdfrwt beam="2">  1       -2 0.20922151E+00 0.28416754E+03</pdfrwt>
<totfact> 0.57574365E+02</totfact>
</mgrwt>
</event>
<event>
 9    1  0.2024718E-002  0.2769146E+03  0.7818608E-02  0.1097386E+00
         -2   -1    0    0    0  501 -0.00000000000E+00  0.00000000000E+00  0.51175720046E+02  0.51175720046E+02  0.00000000000E+00 0.  1.
          2   -1    0    0  501    0  0.00000000000E+00 -0.00000000000E+00 -0.37459995086E+03  0.37459995086E+03  0.00000000000E+00 0.  1.
         36    2    1    2    0    0  0.71054273576E-14  0.00000000000E+00 -0.32342423082E+03  0.42577567091E+03  0.27691458766E+03 0.  0.
         25    2    3    3    0    0 -0.51021019674E+01 -0.53913057630E+02 -0.14370994110E+03  0.20052451124E+03  0.12893751670E+03 0.  0.
         25    2    3    3    0    0  0.51021019674E+01  0.53913057630E+02 -0.17971428972E+03  0.22525115967E+03  0.12453196286E+03 0.  0.
          5    1    4    4  502    0  0.51985377419E+02  0.10143524584E+02 -0.65142750861E+02  0.84089467510E+02  0.47000000000E+01 0.  1.
         -5    1    4    4    0  502 -0.57087479386E+02 -0.64056582214E+02 -0.78567190235E+02  0.11643504373E+03  0.47000000000E+01 0.  1.
          5    1    5    5  503    0 -0.49064099054E+02  0.22539076000E+02 -0.14206882197E+03  0.15205570012E+03  0.47000000000E+01 0. -1.
         -5    1    5    5    0  503  0.54166201022E+02  0.31373981630E+02 -0.37645467756E+02  0.73195459552E+02  0.47000000000E+01 0. -1.
<mgrwt>
<rscale>  0 0.27691459E+03</rscale>
<asrwt>0</asrwt>
<pdfrwt beam="1">  1        2 0.57630760E-01 0.27691459E+03</pdfrwt>
<pdfrwt beam="2">  1       -2 0.78731880E-02 0.27691459E+03</pdfrwt>
<totfact> 0.82642783E+03</totfact>
</mgrwt>
</event>
<event>
 9    1  0.2024718E-002  0.2739532E+03  0.7818608E-02  0.1099038E+00
          1   -1    0    0  501    0  0.00000000000E+00  0.00000000000E+00  0.31752821715E+03  0.31752821715E+03  0.00000000000E+00 0.  1.
         -1   -1    0    0    0  501 -0.00000000000E+00 -0.00000000000E+00 -0.59089524952E+02  0.59089524952E+02  0.00000000000E+00 0.  1.
         36    2    1    2    0    0 -0.71054273576E-14  0.00000000000E+00  0.25843869220E+03  0.37661774211E+03  0.27395321871E+03 0.  0.
         25    2    3    3    0    0  0.34313173625E+02  0.55354269068E+02  0.12195801222E+03  0.18039718662E+03  0.11587881260E+03 0.  0.
         25    2    3    3    0    0 -0.34313173625E+02 -0.55354269068E+02  0.13648067998E+03  0.19622055548E+03  0.12503616036E+03 0.  0.
          5    1    4    4  502    0  0.41737212994E+02 -0.20329012140E+02  0.82040598594E+02  0.94382273234E+02  0.47000000000E+01 0. -1.
         -5    1    4    4    0  502 -0.74240393691E+01  0.75683281208E+02  0.39917413624E+02  0.86014913389E+02  0.47000000000E+01 0. -1.
          5    1    5    5  503    0 -0.44011010008E+02 -0.46052942630E+02  0.51073756873E+01  0.64078216371E+02  0.47000000000E+01 0.  1.
         -5    1    5    5    0  503  0.96978363835E+01 -0.93013264379E+01  0.13137330430E+03  0.13214233911E+03  0.47000000000E+01 0.  1.
<mgrwt>
<rscale>  0 0.27395322E+03</rscale>
<asrwt>0</asrwt>
<pdfrwt beam="1">  1        1 0.48850494E-01 0.27395322E+03</pdfrwt>
<pdfrwt beam="2">  1       -1 0.90906963E-02 0.27395322E+03</pdfrwt>
<totfact> 0.57227124E+03</totfact>
</mgrwt>
</event>
<event>
 9    1  0.2024718E-002  0.2747554E+03  0.7818608E-02  0.1098588E+00
         -4   -1    0    0    0  501 -0.00000000000E+00  0.00000000000E+00  0.58141701064E+02  0.58141701064E+02  0.00000000000E+00 0. -1.
          4   -1    0    0  501    0  0.00000000000E+00 -0.00000000000E+00 -0.32459719478E+03  0.32459719478E+03  0.00000000000E+00 0. -1.
         36    2    1    2    0    0  0.00000000000E+00  0.00000000000E+00 -0.26645549372E+03  0.38273889584E+03  0.27475540442E+03 0.  0.
         25    2    3    3    0    0 -0.54393820078E+02  0.43338862077E+02 -0.11094330761E+03  0.17962424539E+03  0.12296140614E+03 0.  0.
         25    2    3    3    0    0  0.54393820078E+02 -0.43338862077E+02 -0.15551218610E+03  0.20311465045E+03  0.11061002022E+03 0.  0.
          5    1    4    4  502    0  0.33573652217E+02  0.31374137501E+02 -0.64466550848E+02  0.79306700885E+02  0.47000000000E+01 0.  1.
         -5    1    4    4    0  502 -0.87967472295E+02  0.11964724576E+02 -0.46476756765E+02  0.10031754451E+03  0.47000000000E+01 0.  1.
          5    1    5    5  503    0  0.14394764772E+02  0.18100945382E+02  0.71280010574E+01  0.24652624113E+02  0.47000000000E+01 0. -1.
         -5    1    5    5    0  503  0.39999055306E+02 -0.61439807459E+02 -0.16264018716E+03  0.17846202634E+03  0.47000000000E+01 0. -1.
<mgrwt>
<rscale>  0 0.27475540E+03</rscale>
<asrwt>0</asrwt>
<pdfrwt beam="1">  1        4 0.49938029E-01 0.27475540E+03</pdfrwt>
<pdfrwt beam="2">  1       -4 0.89448773E-02 0.27475540E+03</pdfrwt>
<totfact> 0.66760297E+02</totfact>
</mgrwt>
</event>
<event>
 9    1  0.2024718E-002  0.2752473E+03  0.7818608E-02  0.1098313E+00
         -2   -1    0    0    0  501 -0.00000000000E+00  0.00000000000E+00  0.90486857033E+01  0.90486857033E+01  0.00000000000E+00 0.  1.
          2   -1    0    0  501    0  0.00000000000E+00 -0.00000000000E+00 -0.20931515552E+04  0.20931515552E+04  0.00000000000E+00 0.  1.
         36    2    1    2    0    0  0.00000000000E+00  0.00000000000E+00 -0.20841028695E+04  0.21022002409E+04  0.27524731100E+03 0.  0.
         25    2    3    3    0    0  0.30328874634E+02  0.36594214179E+02 -0.12814466761E+04  0.12883584811E+04  0.12451110393E+03 0.  0.
         25    2    3    3    0    0 -0.30328874634E+02 -0.36594214179E+02 -0.80265619340E+03  0.81384175980E+03  0.12578739223E+03 0.  0.
          5    1    4    4  502    0  0.38941252524E+02  0.30491263630E+02 -0.12731853818E+04  0.12741543253E+04  0.47000000000E+01 0. -1.
         -5    1    4    4    0  502 -0.86123778900E+01  0.61029505492E+01 -0.82612943246E+01  0.14204155809E+02  0.47000000000E+01 0. -1.
          5    1    5    5  503    0 -0.52579446493E+02 -0.42672465337E+02 -0.77301900445E+03  0.77599356230E+03  0.47000000000E+01 0.  1.
         -5    1    5    5    0  503  0.22250571859E+02  0.60782511578E+01 -0.29637188952E+02  0.37848197503E+02  0.47000000000E+01 0.  1.
<mgrwt>
<rscale>  0 0.27524731E+03</rscale>
<asrwt>0</asrwt>
<pdfrwt beam="1">  1        2 0.32202392E+00 0.27524731E+03</pdfrwt>
<pdfrwt beam="2">  1       -2 0.13921029E-02 0.27524731E+03</pdfrwt>
<totfact> 0.87312323E+03</totfact>
</mgrwt>
</event>
<event>
 9    1  0.2024718E-002  0.2755608E+03  0.7818608E-02  0.1098139E+00
          2   -1    0    0  501    0  0.00000000000E+00  0.00000000000E+00  0.13514663606E+04  0.13514663606E+04  0.00000000000E+00 0.  1.
         -2   -1    0    0    0  501 -0.00000000000E+00 -0.00000000000E+00 -0.14046551885E+02  0.14046551885E+02  0.00000000000E+00 0.  1.
         36    2    1    2    0    0  0.71054273576E-14  0.00000000000E+00  0.13374198087E+04  0.13655129125E+04  0.27556082707E+03 0.  0.
         25    2    3    3    0    0  0.42294388996E+02 -0.15137487997E+01  0.83196367511E+03  0.84285818189E+03  0.12827802347E+03 0.  0.
         25    2    3    3    0    0 -0.42294388996E+02  0.15137487997E+01  0.50545613359E+03  0.52265473057E+03  0.12605934172E+03 0.  0.
          5    1    4    4  502    0  0.76798342242E+02  0.17840381503E+02  0.33018208700E+03  0.33949751863E+03  0.47000000000E+01 0. -1.
         -5    1    4    4    0  502 -0.34503953246E+02 -0.19354130303E+02  0.50178158811E+03  0.50336066326E+03  0.47000000000E+01 0. -1.
          5    1    5    5  503    0  0.18928080408E+02 -0.27394963764E+02  0.39914049472E+02  0.52191738933E+02  0.47000000000E+01 0. -1.
         -5    1    5    5    0  503 -0.61222469404E+02  0.28908712564E+02  0.46554208411E+03  0.47046299164E+03  0.47000000000E+01 0. -1.
<mgrwt>
<rscale>  0 0.27556083E+03</rscale>
<asrwt>0</asrwt>
<pdfrwt beam="1">  1        2 0.20791780E+00 0.27556083E+03</pdfrwt>
<pdfrwt beam="2">  1       -2 0.21610090E-02 0.27556083E+03</pdfrwt>
<totfact> 0.11325291E+04</totfact>
</mgrwt>
</event>
<event>
 9    1  0.2024718E-002  0.2767879E+03  0.7818608E-02  0.1097456E+00
         -2   -1    0    0    0  501 -0.00000000000E+00  0.00000000000E+00  0.77237092393E+01  0.77237092393E+01  0.00000000000E+00 0.  1.
          2   -1    0    0  501    0  0.00000000000E+00 -0.00000000000E+00 -0.24797520614E+04  0.24797520614E+04  0.00000000000E+00 0.  1.
         36    2    1    2    0    0  0.00000000000E+00  0.00000000000E+00 -0.24720283521E+04  0.24874757706E+04  0.27678788924E+03 0.  0.
         25    2    3    3    0    0 -0.51520677999E+01  0.45993021588E+02 -0.16179076042E+04  0.16231563454E+04  0.12194098607E+03 0.  0.
         25    2    3    3    0    0  0.51520677999E+01 -0.45993021588E+02 -0.85412074789E+03  0.86431942516E+03  0.12403191078E+03 0.  0.
          5    1    4    4  502    0  0.25164055254E+01  0.86434734222E+02 -0.12293178455E+04  0.12323642931E+04  0.47000000000E+01 0. -1.
         -5    1    4    4    0  502 -0.76684733253E+01 -0.40441712635E+02 -0.38858975872E+03  0.39079205236E+03  0.47000000000E+01 0. -1.
          5    1    5    5  503    0  0.23039376523E+02 -0.60483932604E+01 -0.76028001506E+03  0.76066759313E+03  0.47000000000E+01 0.  1.
         -5    1    5    5    0  503 -0.17887308723E+02 -0.39944628327E+02 -0.93840732829E+02  0.10365183203E+03  0.47000000000E+01 0.  1.
<mgrwt>
<rscale>  0 0.27678789E+03</rscale>
<asrwt>0</asrwt>
<pdfrwt beam="1">  1        2 0.38150035E+00 0.27678789E+03</pdfrwt>
<pdfrwt beam="2">  1       -2 0.11882629E-02 0.27678789E+03</pdfrwt>
<totfact> 0.68236318E+03</totfact>
</mgrwt>
</event>
<event>
 9    1  0.2024718E-002  0.2748236E+03  0.7818608E-02  0.1098550E+00
         -2   -1    0    0    0  501 -0.00000000000E+00  0.00000000000E+00  0.21130268004E+03  0.21130268004E+03  0.00000000000E+00 0.  1.
          2   -1    0    0  501    0  0.00000000000E+00 -0.00000000000E+00 -0.89359986692E+02  0.89359986692E+02  0.00000000000E+00 0.  1.
         36    2    1    2    0    0  0.00000000000E+00  0.88817841970E-15  0.12194269335E+03  0.30066266673E+03  0.27482361381E+03 0.  0.
         25    2    3    3    0    0 -0.12692012243E+02  0.60580218630E+01  0.27369662910E+01  0.12729448451E+03  0.12648560392E+03 0.  0.
         25    2    3    3    0    0  0.12692012243E+02 -0.60580218630E+01  0.11920572706E+03  0.17336818222E+03  0.12509490174E+03 0.  0.
          5    1    4    4  502    0  0.43819150055E+02  0.88418356406E+01  0.39348828279E+02  0.59738733298E+02  0.47000000000E+01 0. -1.
         -5    1    4    4    0  502 -0.56511162298E+02 -0.27838137775E+01 -0.36611861988E+02  0.67555751211E+02  0.47000000000E+01 0. -1.
          5    1    5    5  503    0 -0.13507344989E+01 -0.38183958027E+02 -0.96980520357E+01  0.39698631558E+02  0.47000000000E+01 0.  1.
         -5    1    5    5    0  503  0.14042746742E+02  0.32125936164E+02  0.12890377909E+03  0.13366955067E+03  0.47000000000E+01 0.  1.
<mgrwt>
<rscale>  0 0.27482361E+03</rscale>
<asrwt>0</asrwt>
<pdfrwt beam="1">  1        2 0.13747690E-01 0.27482361E+03</pdfrwt>
<pdfrwt beam="2">  1       -2 0.32508105E-01 0.27482361E+03</pdfrwt>
<totfact> 0.37968945E+03</totfact>
</mgrwt>
</event>
<event>
 9    1  0.2024718E-002  0.2755182E+03  0.7818608E-02  0.1098162E+00
          1   -1    0    0  501    0  0.00000000000E+00  0.00000000000E+00  0.62293467131E+03  0.62293467131E+03  0.00000000000E+00 0. -1.
         -1   -1    0    0    0  501 -0.00000000000E+00 -0.00000000000E+00 -0.30464787859E+02  0.30464787859E+02  0.00000000000E+00 0. -1.
         36    2    1    2    0    0 -0.71054273576E-14  0.00000000000E+00  0.59246988345E+03  0.65339945917E+03  0.27551822162E+03 0.  0.
         25    2    3    3    0    0 -0.26427926832E+02  0.12933795007E+02  0.21140727234E+03  0.25141134939E+03  0.13284921315E+03 0.  0.
         25    2    3    3    0    0  0.26427926832E+02 -0.12933795007E+02  0.38106261111E+03  0.40198810978E+03  0.12457932592E+03 0.  0.
          5    1    4    4  502    0 -0.67130278851E+02  0.21224222879E+02  0.54861332529E+02  0.89380074862E+02  0.47000000000E+01 0. -1.
         -5    1    4    4    0  502  0.40702352019E+02 -0.82904278723E+01  0.15654593981E+03  0.16203127453E+03  0.47000000000E+01 0. -1.
          5    1    5    5  503    0  0.76706653484E+02 -0.79450378947E+01  0.23131950381E+03  0.24388078472E+03  0.47000000000E+01 0.  1.
         -5    1    5    5    0  503 -0.50278726651E+02 -0.49887571119E+01  0.14974310730E+03  0.15810732505E+03  0.47000000000E+01 0.  1.
<mgrwt>
<rscale>  0 0.27551822E+03</rscale>
<asrwt>0</asrwt>
<pdfrwt beam="1">  1        1 0.95836094E-01 0.27551822E+03</pdfrwt>
<pdfrwt beam="2">  1       -1 0.46868909E-02 0.27551822E+03</pdfrwt>
<totfact> 0.64489999E+03</totfact>
</mgrwt>
</event>
<event>
 9    1  0.2024718E-002  0.2749515E+03  0.7818608E-02  0.1098479E+00
         -2   -1    0    0    0  501 -0.00000000000E+00  0.00000000000E+00  0.11201023536E+02  0.11201023536E+02  0.00000000000E+00 0.  1.
          2   -1    0    0  501    0  0.00000000000E+00 -0.00000000000E+00 -0.16873084020E+04  0.16873084020E+04  0.00000000000E+00 0.  1.
         36    2    1    2    0    0  0.00000000000E+00 -0.71054273576E-14 -0.16761073784E+04  0.16985094255E+04  0.27495149480E+03 0.  0.
         25    2    3    3    0    0 -0.90642196836E+00 -0.51503157118E+02 -0.92041802338E+03  0.93032952256E+03  0.12526087172E+03 0.  0.
         25    2    3    3    0    0  0.90642196836E+00  0.51503157118E+02 -0.75568935503E+03  0.76817990293E+03  0.12798658196E+03 0.  0.
          5    1    4    4  502    0  0.42133438008E+02 -0.32392084272E+02 -0.78627161450E+03  0.78807970123E+03  0.47000000000E+01 0. -1.
         -5    1    4    4    0  502 -0.43039859976E+02 -0.19111072846E+02 -0.13414640888E+03  0.14224982133E+03  0.47000000000E+01 0. -1.
          5    1    5    5  503    0 -0.60618447439E+02  0.56117888611E+01 -0.33804392451E+03  0.34351400735E+03  0.47000000000E+01 0.  1.
         -5    1    5    5    0  503  0.61524869407E+02  0.45891368256E+02 -0.41764543052E+03  0.42466589558E+03  0.47000000000E+01 0.  1.
<mgrwt>
<rscale>  0 0.27495149E+03</rscale>
<asrwt>0</asrwt>
<pdfrwt beam="1">  1        2 0.25958597E+00 0.27495149E+03</pdfrwt>
<pdfrwt beam="2">  1       -2 0.17232340E-02 0.27495149E+03</pdfrwt>
<totfact> 0.10442926E+04</totfact>
</mgrwt>
</event>
<event>
 9    1  0.2024718E-002  0.2746047E+03  0.7818608E-02  0.1098673E+00
         -1   -1    0    0    0  501 -0.00000000000E+00  0.00000000000E+00  0.92597027599E+02  0.92597027599E+02  0.00000000000E+00 0. -1.
          1   -1    0    0  501    0  0.00000000000E+00 -0.00000000000E+00 -0.20359113361E+03  0.20359113361E+03  0.00000000000E+00 0. -1.
         36    2    1    2    0    0  0.00000000000E+00  0.71054273576E-14 -0.11099410601E+03  0.29618816121E+03  0.27460468909E+03 0.  0.
         25    2    3    3    0    0  0.38536243486E+02 -0.28327671972E+02 -0.83798752484E+02  0.16003572729E+03  0.12767812667E+03 0.  0.
         25    2    3    3    0    0 -0.38536243486E+02  0.28327671972E+02 -0.27195353524E+02  0.13615243391E+03  0.12454075215E+03 0.  0.
          5    1    4    4  502    0  0.60061823369E+02 -0.67271568565E+02 -0.45406438565E+02  0.10107779789E+03  0.47000000000E+01 0.  1.
         -5    1    4    4    0  502 -0.21525579883E+02  0.38943896593E+02 -0.38392313919E+02  0.58957929401E+02  0.47000000000E+01 0.  1.
          5    1    5    5  503    0 -0.37080886620E+02  0.72146496254E+02  0.52260037887E+01  0.81421804143E+02  0.47000000000E+01 0.  1.
         -5    1    5    5    0  503 -0.14553568654E+01 -0.43818824282E+02 -0.32421357313E+02  0.54730629770E+02  0.47000000000E+01 0.  1.
<mgrwt>
<rscale>  0 0.27460469E+03</rscale>
<asrwt>0</asrwt>
<pdfrwt beam="1">  1        1 0.31321713E-01 0.27460469E+03</pdfrwt>
<pdfrwt beam="2">  1       -1 0.14245697E-01 0.27460469E+03</pdfrwt>
<totfact> 0.49694873E+03</totfact>
</mgrwt>
</event>
<event>
 9    1  0.2024718E-002  0.2749358E+03  0.7818608E-02  0.1098487E+00
          2   -1    0    0  501    0  0.00000000000E+00  0.00000000000E+00  0.17361143481E+03  0.17361143481E+03  0.00000000000E+00 0.  1.
         -2   -1    0    0    0  501 -0.00000000000E+00 -0.00000000000E+00 -0.10884896398E+03  0.10884896398E+03  0.00000000000E+00 0.  1.
         36    2    1    2    0    0  0.00000000000E+00  0.00000000000E+00  0.64762470830E+02  0.28246039880E+03  0.27493580935E+03 0.  0.
         25    2    3    3    0    0 -0.39405441787E+02 -0.36285203796E+02  0.44612715795E+02  0.14517088605E+03  0.12733768840E+03 0.  0.
         25    2    3    3    0    0  0.39405441787E+02  0.36285203796E+02  0.20149755035E+02  0.13728951275E+03  0.12479179791E+03 0.  0.
          5    1    4    4  502    0 -0.16011957813E+02 -0.59439165341E+02 -0.26103145387E+02  0.67028809990E+02  0.47000000000E+01 0.  1.
         -5    1    4    4    0  502 -0.23393483973E+02  0.23153961546E+02  0.70715861182E+02  0.78142076057E+02  0.47000000000E+01 0.  1.
          5    1    5    5  503    0  0.51654075198E+02  0.76835732163E+02  0.84221158734E+01  0.93085419145E+02  0.47000000000E+01 0. -1.
         -5    1    5    5    0  503 -0.12248633411E+02 -0.40550528367E+02  0.11727639161E+02  0.44204093607E+02  0.47000000000E+01 0. -1.
<mgrwt>
<rscale>  0 0.27493581E+03</rscale>
<asrwt>0</asrwt>
<pdfrwt beam="1">  1        2 0.26709452E-01 0.27493581E+03</pdfrwt>
<pdfrwt beam="2">  1       -2 0.16745994E-01 0.27493581E+03</pdfrwt>
<totfact> 0.56407758E+03</totfact>
</mgrwt>
</event>
<event>
 9    1  0.2024718E-002  0.2741952E+03  0.7818608E-02  0.1098902E+00
         -1   -1    0    0    0  501 -0.00000000000E+00  0.00000000000E+00  0.13238959561E+02  0.13238959561E+02  0.00000000000E+00 0.  1.
          1   -1    0    0  501    0  0.00000000000E+00 -0.00000000000E+00 -0.14197303637E+04  0.14197303637E+04  0.00000000000E+00 0.  1.
         36    2    1    2    0    0  0.14210854715E-13  0.00000000000E+00 -0.14064914041E+04  0.14329693232E+04  0.27419520690E+03 0.  0.
         25    2    3    3    0    0  0.33194079034E+02 -0.30027585714E+02 -0.89840546242E+03  0.90786211120E+03  0.12279142990E+03 0.  0.
         25    2    3    3    0    0 -0.33194079034E+02  0.30027585714E+02 -0.50808594167E+03  0.52510721202E+03  0.12483091444E+03 0.  0.
          5    1    4    4  502    0  0.62884788460E+02 -0.50958802818E+02 -0.40125810379E+03  0.40936713603E+03  0.47000000000E+01 0. -1.
         -5    1    4    4    0  502 -0.29690709425E+02  0.20931217104E+02 -0.49714735864E+03  0.49849497518E+03  0.47000000000E+01 0. -1.
          5    1    5    5  503    0 -0.66623971642E+02  0.21800507631E+01 -0.14819009498E+03  0.16256045174E+03  0.47000000000E+01 0.  1.
         -5    1    5    5    0  503  0.33429892608E+02  0.27847534951E+02 -0.35989584669E+03  0.36254676027E+03  0.47000000000E+01 0.  1.
<mgrwt>
<rscale>  0 0.27419521E+03</rscale>
<asrwt>0</asrwt>
<pdfrwt beam="1">  1        1 0.21842005E+00 0.27419521E+03</pdfrwt>
<pdfrwt beam="2">  1       -1 0.20367631E-02 0.27419521E+03</pdfrwt>
<totfact> 0.54043964E+03</totfact>
</mgrwt>
</event>
<event>
 9    1  0.2024718E-002  0.2716371E+03  0.7818608E-02  0.1100346E+00
          4   -1    0    0  501    0  0.00000000000E+00  0.00000000000E+00  0.52333751225E+03  0.52333751225E+03  0.00000000000E+00 0.  1.
         -4   -1    0    0    0  501 -0.00000000000E+00 -0.00000000000E+00 -0.35248136242E+02  0.35248136242E+02  0.00000000000E+00 0.  1.
         36    2    1    2    0    0 -0.71054273576E-14 -0.71054273576E-14  0.48808937601E+03  0.55858564850E+03  0.27163705147E+03 0.  0.
         25    2    3    3    0    0 -0.27231395737E+02  0.31373586178E+02  0.24143541099E+03  0.27461182293E+03  0.12407556080E+03 0.  0.
         25    2    3    3    0    0  0.27231395737E+02 -0.31373586178E+02  0.24665396502E+03  0.28397382557E+03  0.13445112244E+03 0.  0.
          5    1    4    4  502    0 -0.52772619100E+01 -0.38491421710E+02  0.25907108860E+02  0.46933008938E+02  0.47000000000E+01 0.  1.
         -5    1    4    4    0  502 -0.21954133827E+02  0.69865007888E+02  0.21552830213E+03  0.22767881399E+03  0.47000000000E+01 0.  1.
          5    1    5    5  503    0  0.44997508577E+02 -0.42859896508E+02  0.35523295634E+02  0.71733820751E+02  0.47000000000E+01 0. -1.
         -5    1    5    5    0  503 -0.17766112840E+02  0.11486310330E+02  0.21113066938E+03  0.21224000482E+03  0.47000000000E+01 0. -1.
<mgrwt>
<rscale>  0 0.27163705E+03</rscale>
<asrwt>0</asrwt>
<pdfrwt beam="1">  1        4 0.80513458E-01 0.27163705E+03</pdfrwt>
<pdfrwt beam="2">  1       -4 0.54227905E-02 0.27163705E+03</pdfrwt>
<totfact> 0.54830169E+02</totfact>
</mgrwt>
</event>
<event>
 9    1  0.2024718E-002  0.2750069E+03  0.7818608E-02  0.1098448E+00
         -2   -1    0    0    0  501 -0.00000000000E+00  0.00000000000E+00  0.24100544523E+03  0.24100544523E+03  0.00000000000E+00 0.  1.
          2   -1    0    0  501    0  0.00000000000E+00 -0.00000000000E+00 -0.78451314986E+02  0.78451314986E+02  0.00000000000E+00 0.  1.
         36    2    1    2    0    0  0.71054273576E-14 -0.71054273576E-14  0.16255413025E+03  0.31945676022E+03  0.27500686607E+03 0.  0.
         25    2    3    3    0    0 -0.26749394798E+02  0.40732194481E+02  0.12386078121E+03  0.18676479611E+03  0.13101509132E+03 0.  0.
         25    2    3    3    0    0  0.26749394798E+02 -0.40732194481E+02  0.38693349031E+02  0.13269196411E+03  0.11719786811E+03 0.  0.
          5    1    4    4  502    0  0.91059317912E+01  0.58580196843E+02  0.13275700289E+03  0.14546844768E+03  0.47000000000E+01 0. -1.
         -5    1    4    4    0  502 -0.35855326589E+02 -0.17848002362E+02 -0.88962216734E+01  0.41296348425E+02  0.47000000000E+01 0. -1.
          5    1    5    5  503    0 -0.42435664178E+02 -0.37357481105E+02  0.24669878817E+02  0.61863235525E+02  0.47000000000E+01 0.  1.
         -5    1    5    5    0  503  0.69185058976E+02 -0.33747133754E+01  0.14023470214E+02  0.70828728583E+02  0.47000000000E+01 0.  1.
<mgrwt>
<rscale>  0 0.27500687E+03</rscale>
<asrwt>0</asrwt>
<pdfrwt beam="1">  1        2 0.12069433E-01 0.27500687E+03</pdfrwt>
<pdfrwt beam="2">  1       -2 0.37077760E-01 0.27500687E+03</pdfrwt>
<totfact> 0.34781574E+03</totfact>
</mgrwt>
</event>
<event>
 9    1  0.2024718E-002  0.2753637E+03  0.7818608E-02  0.1098248E+00
         -2   -1    0    0    0  501 -0.00000000000E+00  0.00000000000E+00  0.93018194788E+01  0.93018194788E+01  0.00000000000E+00 0. -1.
          2   -1    0    0  501    0  0.00000000000E+00 -0.00000000000E+00 -0.20379119833E+04  0.20379119833E+04  0.00000000000E+00 0. -1.
         36    2    1    2    0    0 -0.71054273576E-14  0.14210854715E-13 -0.20286101639E+04  0.20472138028E+04  0.27536368230E+03 0.  0.
         25    2    3    3    0    0 -0.24204392880E+02 -0.50285864232E+02 -0.82573050181E+03  0.83628564264E+03  0.12011783249E+03 0.  0.
         25    2    3    3    0    0  0.24204392880E+02  0.50285864232E+02 -0.12028796620E+04  0.12109281602E+04  0.12772238242E+03 0.  0.
          5    1    4    4  502    0 -0.35500910323E+02 -0.76069457230E+02 -0.36025205659E+03  0.36993311725E+03  0.47000000000E+01 0. -1.
         -5    1    4    4    0  502  0.11296517444E+02  0.25783592998E+02 -0.46547844522E+03  0.46635252539E+03  0.47000000000E+01 0. -1.
          5    1    5    5  503    0  0.73753920377E+02  0.49180225544E+02 -0.83189137933E+03  0.83661442276E+03  0.47000000000E+01 0.  1.
         -5    1    5    5    0  503 -0.49549527497E+02  0.11056386879E+01 -0.37098828271E+03  0.37431373742E+03  0.47000000000E+01 0.  1.
<mgrwt>
<rscale>  0 0.27536368E+03</rscale>
<asrwt>0</asrwt>
<pdfrwt beam="1">  1        2 0.31352513E+00 0.27536368E+03</pdfrwt>
<pdfrwt beam="2">  1       -2 0.14310482E-02 0.27536368E+03</pdfrwt>
<totfact> 0.89683491E+03</totfact>
</mgrwt>
</event>
<event>
 9    1  0.2024718E-002  0.2753893E+03  0.7818608E-02  0.1098234E+00
          2   -1    0    0  501    0  0.00000000000E+00  0.00000000000E+00  0.19294513969E+04  0.19294513969E+04  0.00000000000E+00 0. -1.
         -2   -1    0    0    0  501 -0.00000000000E+00 -0.00000000000E+00 -0.98265296229E+01  0.98265296229E+01  0.00000000000E+00 0. -1.
         36    2    1    2    0    0  0.71054273576E-14  0.00000000000E+00  0.19196248673E+04  0.19392779266E+04  0.27538926129E+03 0.  0.
         25    2    3    3    0    0 -0.48918703842E+02 -0.16446368584E+02  0.84095319673E+03  0.85210719777E+03  0.12736119808E+03 0.  0.
         25    2    3    3    0    0  0.48918703842E+02  0.16446368584E+02  0.10786716706E+04  0.10871707288E+04  0.12547548761E+03 0.  0.
          5    1    4    4  502    0  0.21783887864E+02  0.40487432845E+02  0.25713110372E+03  0.26125134351E+03  0.47000000000E+01 0.  1.
         -5    1    4    4    0  502 -0.70702591706E+02 -0.56933801429E+02  0.58382209301E+03  0.59085585425E+03  0.47000000000E+01 0.  1.
          5    1    5    5  503    0  0.18240061247E+02  0.66476983241E+02  0.39758282670E+03  0.40354192251E+03  0.47000000000E+01 0.  1.
         -5    1    5    5    0  503  0.30678642595E+02 -0.50030614657E+02  0.68108884389E+03  0.68362880628E+03  0.47000000000E+01 0.  1.
<mgrwt>
<rscale>  0 0.27538926E+03</rscale>
<asrwt>0</asrwt>
<pdfrwt beam="1">  1        2 0.29683837E+00 0.27538926E+03</pdfrwt>
<pdfrwt beam="2">  1       -2 0.15117753E-02 0.27538926E+03</pdfrwt>
<totfact> 0.94385597E+03</totfact>
</mgrwt>
</event>
<event>
 9    1  0.2024718E-002  0.2744665E+03  0.7818608E-02  0.1098750E+00
          1   -1    0    0  501    0  0.00000000000E+00  0.00000000000E+00  0.45447522262E+02  0.45447522262E+02  0.00000000000E+00 0.  1.
         -1   -1    0    0    0  501 -0.00000000000E+00 -0.00000000000E+00 -0.41438937840E+03  0.41438937840E+03  0.00000000000E+00 0.  1.
         36    2    1    2    0    0  0.00000000000E+00 -0.71054273576E-14 -0.36894185614E+03  0.45983690066E+03  0.27446654077E+03 0.  0.
         25    2    3    3    0    0 -0.22454841939E+01 -0.55279375819E+02 -0.20800275051E+03  0.24912164875E+03  0.12544162015E+03 0.  0.
         25    2    3    3    0    0  0.22454841939E+01  0.55279375819E+02 -0.16093910563E+03  0.21071525191E+03  0.12425244495E+03 0.  0.
          5    1    4    4  502    0 -0.51320726534E+02 -0.33727511059E+02 -0.17612232931E+03  0.18658115354E+03  0.47000000000E+01 0.  1.
         -5    1    4    4    0  502  0.49075242340E+02 -0.21551864760E+02 -0.31880421193E+02  0.62540495208E+02  0.47000000000E+01 0.  1.
          5    1    5    5  503    0 -0.11164570101E+02  0.92843326751E+02 -0.94151562274E+02  0.13278229410E+03  0.47000000000E+01 0.  1.
         -5    1    5    5    0  503  0.13410054295E+02 -0.37563950932E+02 -0.66787543355E+02  0.77932957811E+02  0.47000000000E+01 0.  1.
<mgrwt>
<rscale>  0 0.27446654E+03</rscale>
<asrwt>0</asrwt>
<pdfrwt beam="1">  1        1 0.69919265E-02 0.27446654E+03</pdfrwt>
<pdfrwt beam="2">  1       -1 0.63752212E-01 0.27446654E+03</pdfrwt>
<totfact> 0.26931606E+03</totfact>
</mgrwt>
</event>
<event>
 9    1  0.2024718E-002  0.2765117E+03  0.7818608E-02  0.1097610E+00
         -2   -1    0    0    0  501 -0.00000000000E+00  0.00000000000E+00  0.46369025735E+02  0.46369025735E+02  0.00000000000E+00 0.  1.
          2   -1    0    0  501    0  0.00000000000E+00 -0.00000000000E+00 -0.41222955282E+03  0.41222955282E+03  0.00000000000E+00 0.  1.
         36    2    1    2    0    0  0.71054273576E-14  0.00000000000E+00 -0.36586052708E+03  0.45859857855E+03  0.27651171941E+03 0.  0.
         25    2    3    3    0    0  0.42664521425E+02  0.15570267771E+02 -0.23303864737E+03  0.26769946572E+03  0.12366607519E+03 0.  0.
         25    2    3    3    0    0 -0.42664521425E+02 -0.15570267771E+02 -0.13282187971E+03  0.19089911283E+03  0.12937590549E+03 0.  0.
          5    1    4    4  502    0  0.44324142756E+02 -0.55062769057E+01 -0.24060287125E+03  0.24475861654E+03  0.47000000000E+01 0.  1.
         -5    1    4    4    0  502 -0.16596213318E+01  0.21076544677E+02  0.75642238764E+01  0.22940849185E+02  0.47000000000E+01 0.  1.
          5    1    5    5  503    0 -0.18834098420E+01  0.18055947586E+02 -0.13642875720E+03  0.13771151102E+03  0.47000000000E+01 0.  1.
         -5    1    5    5    0  503 -0.40781111583E+02 -0.33626215357E+02  0.36068774908E+01  0.53187601811E+02  0.47000000000E+01 0.  1.
<mgrwt>
<rscale>  0 0.27651172E+03</rscale>
<asrwt>0</asrwt>
<pdfrwt beam="1">  1        2 0.63419929E-01 0.27651172E+03</pdfrwt>
<pdfrwt beam="2">  1       -2 0.71336965E-02 0.27651172E+03</pdfrwt>
<totfact> 0.86832854E+03</totfact>
</mgrwt>
</event>
<event>
 9    1  0.2024718E-002  0.2752223E+03  0.7818608E-02  0.1098327E+00
          2   -1    0    0  501    0  0.00000000000E+00  0.00000000000E+00  0.22613618151E+03  0.22613618151E+03  0.00000000000E+00 0. -1.
         -2   -1    0    0    0  501 -0.00000000000E+00 -0.00000000000E+00 -0.83740800549E+02  0.83740800549E+02  0.00000000000E+00 0. -1.
         36    2    1    2    0    0 -0.71054273576E-14  0.00000000000E+00  0.14239538096E+03  0.30987698206E+03  0.27522227288E+03 0.  0.
         25    2    3    3    0    0 -0.33044252055E+02  0.13239698097E+02  0.66997323933E+01  0.12305986158E+03  0.11760795432E+03 0.  0.
         25    2    3    3    0    0  0.33044252055E+02 -0.13239698097E+02  0.13569564857E+03  0.18681712048E+03  0.12336983125E+03 0.  0.
          5    1    4    4  502    0 -0.10218493527E+02  0.64828820315E+02  0.89686745144E+01  0.66405727734E+02  0.47000000000E+01 0. -1.
         -5    1    4    4    0  502 -0.22825758528E+02 -0.51589122217E+02 -0.22689421212E+01  0.56654133846E+02  0.47000000000E+01 0. -1.
          5    1    5    5  503    0  0.72110192887E+02 -0.37197932544E+02  0.74778808256E+02  0.11044241155E+03  0.47000000000E+01 0. -1.
         -5    1    5    5    0  503 -0.39065940833E+02  0.23958234446E+02  0.60916840311E+02  0.76374708932E+02  0.47000000000E+01 0. -1.
<mgrwt>
<rscale>  0 0.27522227E+03</rscale>
<asrwt>0</asrwt>
<pdfrwt beam="1">  1        2 0.34790182E-01 0.27522227E+03</pdfrwt>
<pdfrwt beam="2">  1       -2 0.12883200E-01 0.27522227E+03</pdfrwt>
<totfact> 0.65048250E+03</totfact>
</mgrwt>
</event>
<event>
 9    1  0.2024718E-002  0.2626022E+03  0.7818608E-02  0.1105590E+00
          2   -1    0    0  501    0  0.00000000000E+00  0.00000000000E+00  0.12975030430E+04  0.12975030430E+04  0.00000000000E+00 0.  1.
         -2   -1    0    0    0  501 -0.00000000000E+00 -0.00000000000E+00 -0.13287040846E+02  0.13287040846E+02  0.00000000000E+00 0.  1.
         36    2    1    2    0    0 -0.35527136788E-14 -0.71054273576E-14  0.12842160022E+04  0.13107900839E+04  0.26260217768E+03 0.  0.
         25    2    3    3    0    0 -0.22664564183E+02 -0.92764574686E+01  0.79583176351E+03  0.80569091715E+03  0.12324740580E+03 0.  0.
         25    2    3    3    0    0  0.22664564183E+02  0.92764574686E+01  0.48838423865E+03  0.50509916670E+03  0.12651588243E+03 0.  0.
          5    1    4    4  502    0 -0.30816176102E+02 -0.49442033647E+02  0.68400410187E+03  0.68649679735E+03  0.47000000000E+01 0. -1.
         -5    1    4    4    0  502  0.81516119194E+01  0.40165576178E+02  0.11182766164E+03  0.11919411980E+03  0.47000000000E+01 0. -1.
          5    1    5    5  503    0  0.31918087231E+02 -0.52559180968E+02  0.17620755514E+03  0.18668804001E+03  0.47000000000E+01 0.  1.
         -5    1    5    5    0  503 -0.92535230479E+01  0.61835638437E+02  0.31217668351E+03  0.31841112668E+03  0.47000000000E+01 0.  1.
<mgrwt>
<rscale>  0 0.26260218E+03</rscale>
<asrwt>0</asrwt>
<pdfrwt beam="1">  1        2 0.19961575E+00 0.26260218E+03</pdfrwt>
<pdfrwt beam="2">  1       -2 0.20441611E-02 0.26260218E+03</pdfrwt>
<totfact> 0.13144335E+04</totfact>
</mgrwt>
</event>
<event>
 9    1  0.2024718E-002  0.2745960E+03  0.7818608E-02  0.1098678E+00
         -1   -1    0    0    0  501 -0.00000000000E+00  0.00000000000E+00  0.17105094315E+03  0.17105094315E+03  0.00000000000E+00 0.  1.
          1   -1    0    0  501    0  0.00000000000E+00 -0.00000000000E+00 -0.11020540314E+03  0.11020540314E+03  0.00000000000E+00 0.  1.
         36    2    1    2    0    0  0.00000000000E+00 -0.17763568394E-14  0.60845540010E+02  0.28125634629E+03  0.27459598065E+03 0.  0.
         25    2    3    3    0    0  0.56007345757E+02 -0.82333837933E+01  0.19386533302E+02  0.13549882629E+03  0.12157089645E+03 0.  0.
         25    2    3    3    0    0 -0.56007345757E+02  0.82333837933E+01  0.41459006708E+02  0.14575752000E+03  0.12775677678E+03 0.  0.
          5    1    4    4  502    0  0.72760991971E+02 -0.46921677960E+02  0.30036780736E+02  0.91761124733E+02  0.47000000000E+01 0. -1.
         -5    1    4    4    0  502 -0.16753646214E+02  0.38688294166E+02 -0.10650247434E+02  0.43737701556E+02  0.47000000000E+01 0. -1.
          5    1    5    5  503    0 -0.74905550326E+02  0.36241556499E+00  0.75050478109E+02  0.10613970548E+03  0.47000000000E+01 0. -1.
         -5    1    5    5    0  503  0.18898204569E+02  0.78709682283E+01 -0.33591471401E+02  0.39617814524E+02  0.47000000000E+01 0. -1.
<mgrwt>
<rscale>  0 0.27459598E+03</rscale>
<asrwt>0</asrwt>
<pdfrwt beam="1">  1        1 0.16954677E-01 0.27459598E+03</pdfrwt>
<pdfrwt beam="2">  1       -1 0.26315530E-01 0.27459598E+03</pdfrwt>
<totfact> 0.40247982E+03</totfact>
</mgrwt>
</event>
<event>
 9    1  0.2024718E-002  0.2771806E+03  0.7818608E-02  0.1097239E+00
         -1   -1    0    0    0  501 -0.00000000000E+00  0.00000000000E+00  0.70635524842E+01  0.70635524842E+01  0.00000000000E+00 0.  1.
          1   -1    0    0  501    0  0.00000000000E+00 -0.00000000000E+00 -0.27192080142E+04  0.27192080142E+04  0.00000000000E+00 0.  1.
         36    2    1    2    0    0 -0.14210854715E-13  0.17763568394E-14 -0.27121444617E+04  0.27262715667E+04  0.27718058030E+03 0.  0.
         25    2    3    3    0    0 -0.62574298220E+02  0.14887373319E+02 -0.13340483030E+04  0.13413882299E+04  0.12450032925E+03 0.  0.
         25    2    3    3    0    0  0.62574298220E+02 -0.14887373319E+02 -0.13780961587E+04  0.13848833368E+04  0.12089523176E+03 0.  0.
          5    1    4    4  502    0  0.18323280041E+02  0.31045757413E+02 -0.14557023284E+03  0.15004120878E+03  0.47000000000E+01 0. -1.
         -5    1    4    4    0  502 -0.80897578260E+02 -0.16158384093E+02 -0.11884780702E+04  0.11913470212E+04  0.47000000000E+01 0. -1.
          5    1    5    5  503    0  0.85877834433E+02 -0.34152993048E+01 -0.58012523886E+03  0.58647595814E+03  0.47000000000E+01 0. -1.
         -5    1    5    5    0  503 -0.23303536213E+02 -0.11472074015E+02 -0.79797091986E+03  0.79840737861E+03  0.47000000000E+01 0. -1.
<mgrwt>
<rscale>  0 0.27718058E+03</rscale>
<asrwt>0</asrwt>
<pdfrwt beam="1">  1        1 0.41834019E+00 0.27718058E+03</pdfrwt>
<pdfrwt beam="2">  1       -1 0.10866991E-02 0.27718058E+03</pdfrwt>
<totfact> 0.18836430E+03</totfact>
</mgrwt>
</event>
<event>
 9    1  0.2024718E-002  0.2789174E+03  0.7818608E-02  0.1096282E+00
          2   -1    0    0  501    0  0.00000000000E+00  0.00000000000E+00  0.17305790058E+03  0.17305790058E+03  0.00000000000E+00 0. -1.
         -2   -1    0    0    0  501 -0.00000000000E+00 -0.00000000000E+00 -0.11238277404E+03  0.11238277404E+03  0.00000000000E+00 0. -1.
         36    2    1    2    0    0  0.71054273576E-14  0.00000000000E+00  0.60675126532E+02  0.28544067462E+03  0.27891738517E+03 0.  0.
         25    2    3    3    0    0  0.30858742424E+02  0.81834392135E+02  0.44048105276E+02  0.14582032656E+03  0.10804722273E+03 0.  0.
         25    2    3    3    0    0 -0.30858742424E+02 -0.81834392135E+02  0.16627021256E+02  0.13962034806E+03  0.10755581823E+03 0.  0.
          5    1    4    4  502    0  0.62474375085E+02  0.28225831348E+02  0.47138318809E+02  0.83329803778E+02  0.47000000000E+01 0.  1.
         -5    1    4    4    0  502 -0.31615632661E+02  0.53608560787E+02 -0.30902135323E+01  0.62490522784E+02  0.47000000000E+01 0.  1.
          5    1    5    5  503    0 -0.14863077605E+01  0.25956110455E+02  0.73132046050E+01  0.27413532102E+02  0.47000000000E+01 0. -1.
         -5    1    5    5    0  503 -0.29372434663E+02 -0.10779050259E+03  0.93138166510E+01  0.11220681596E+03  0.47000000000E+01 0. -1.
<mgrwt>
<rscale>  0 0.27891739E+03</rscale>
<asrwt>0</asrwt>
<pdfrwt beam="1">  1        2 0.26624293E-01 0.27891739E+03</pdfrwt>
<pdfrwt beam="2">  1       -2 0.17289657E-01 0.27891739E+03</pdfrwt>
<totfact> 0.53683993E+03</totfact>
</mgrwt>
</event>
<event>
 9    1  0.2024718E-002  0.2748407E+03  0.7818608E-02  0.1098541E+00
          1   -1    0    0  501    0  0.00000000000E+00  0.00000000000E+00  0.76381600203E+02  0.76381600203E+02  0.00000000000E+00 0. -1.
         -1   -1    0    0    0  501 -0.00000000000E+00 -0.00000000000E+00 -0.24723686217E+03  0.24723686217E+03  0.00000000000E+00 0. -1.
         36    2    1    2    0    0  0.71054273576E-14  0.17763568394E-14 -0.17085526197E+03  0.32361846237E+03  0.27484066047E+03 0.  0.
         25    2    3    3    0    0  0.39135986553E+02  0.12473908222E+02 -0.13831540699E+03  0.21056235278E+03  0.15335621529E+03 0.  0.
         25    2    3    3    0    0 -0.39135986553E+02 -0.12473908222E+02 -0.32539854974E+02  0.11305610959E+03  0.10017793132E+03 0.  0.
          5    1    4    4  502    0 -0.58369660427E+02  0.12152863480E+02 -0.39586450557E+02  0.71720892472E+02  0.47000000000E+01 0.  1.
         -5    1    4    4    0  502  0.97505646981E+02  0.32104474177E+00 -0.98728956436E+02  0.13884146031E+03  0.47000000000E+01 0.  1.
          5    1    5    5  503    0  0.70531329332E+01 -0.72974602701E+01 -0.58535874433E+02  0.59594783381E+02  0.47000000000E+01 0.  1.
         -5    1    5    5    0  503 -0.46189119486E+02 -0.51764479517E+01  0.25996019459E+02  0.53461326209E+02  0.47000000000E+01 0.  1.
<mgrwt>
<rscale>  0 0.27484066E+03</rscale>
<asrwt>0</asrwt>
<pdfrwt beam="1">  1        1 0.11751015E-01 0.27484066E+03</pdfrwt>
<pdfrwt beam="2">  1       -1 0.38036440E-01 0.27484066E+03</pdfrwt>
<totfact> 0.34687425E+03</totfact>
</mgrwt>
</event>
<event>
 9    1  0.2024718E-002  0.2743475E+03  0.7818608E-02  0.1098817E+00
          1   -1    0    0  501    0  0.00000000000E+00  0.00000000000E+00  0.22913662535E+04  0.22913662535E+04  0.00000000000E+00 0. -1.
         -1   -1    0    0    0  501 -0.00000000000E+00 -0.00000000000E+00 -0.82119759243E+01  0.82119759243E+01  0.00000000000E+00 0. -1.
         36    2    1    2    0    0  0.71054273576E-14 -0.71054273576E-14  0.22831542775E+04  0.22995782294E+04  0.27434754970E+03 0.  0.
         25    2    3    3    0    0 -0.50942895141E+02  0.20271330458E+02  0.12129714421E+04  0.12204790779E+04  0.12354495066E+03 0.  0.
         25    2    3    3    0    0  0.50942895141E+02 -0.20271330458E+02  0.10701828355E+04  0.10790991515E+04  0.12711243870E+03 0.  0.
          5    1    4    4  502    0 -0.30688010524E+02 -0.45510984332E+02  0.78995228593E+03  0.79187101711E+03  0.47000000000E+01 0.  1.
         -5    1    4    4    0  502 -0.20254884618E+02  0.65782314790E+02  0.42301915613E+03  0.42860806075E+03  0.47000000000E+01 0.  1.
          5    1    5    5  503    0  0.70464792087E+02 -0.59276967207E+02  0.62574796052E+03  0.63250426548E+03  0.47000000000E+01 0. -1.
         -5    1    5    5    0  503 -0.19521896946E+02  0.39005636749E+02  0.44443487497E+03  0.44659488605E+03  0.47000000000E+01 0. -1.
<mgrwt>
<rscale>  0 0.27434755E+03</rscale>
<asrwt>0</asrwt>
<pdfrwt beam="1">  1        1 0.35251738E+00 0.27434755E+03</pdfrwt>
<pdfrwt beam="2">  1       -1 0.12633827E-02 0.27434755E+03</pdfrwt>
<totfact> 0.29183676E+03</totfact>
</mgrwt>
</event>
<event>
 9    1  0.2024718E-002  0.2735741E+03  0.7818608E-02  0.1099251E+00
         -2   -1    0    0    0  501 -0.00000000000E+00  0.00000000000E+00  0.13615582194E+03  0.13615582194E+03  0.00000000000E+00 0.  1.
          2   -1    0    0  501    0  0.00000000000E+00 -0.00000000000E+00 -0.13742124989E+03  0.13742124989E+03  0.00000000000E+00 0.  1.
         36    2    1    2    0    0  0.35527136788E-14  0.00000000000E+00 -0.12654279572E+01  0.27357707183E+03  0.27357414520E+03 0.  0.
         25    2    3    3    0    0  0.15103994071E+02 -0.18401838303E+02 -0.50181181255E+02  0.13825540310E+03  0.12660824319E+03 0.  0.
         25    2    3    3    0    0 -0.15103994071E+02  0.18401838303E+02  0.48915753298E+02  0.13532166873E+03  0.12390498302E+03 0.  0.
          5    1    4    4  502    0 -0.34401250065E+02  0.26883469200E+02  0.13185622078E+02  0.45848855513E+02  0.47000000000E+01 0.  1.
         -5    1    4    4    0  502  0.49505244136E+02 -0.45285307503E+02 -0.63366803333E+02  0.92406547589E+02  0.47000000000E+01 0.  1.
          5    1    5    5  503    0 -0.18793947253E+02  0.44771953620E+02  0.80262348269E+02  0.93924836087E+02  0.47000000000E+01 0. -1.
         -5    1    5    5    0  503  0.36899531813E+01 -0.26370115317E+02 -0.31346594971E+02  0.41396832639E+02  0.47000000000E+01 0. -1.
<mgrwt>
<rscale>  0 0.27357415E+03</rscale>
<asrwt>0</asrwt>
<pdfrwt beam="1">  1        2 0.21141731E-01 0.27357415E+03</pdfrwt>
<pdfrwt beam="2">  1       -2 0.20947049E-01 0.27357415E+03</pdfrwt>
<totfact> 0.50170376E+03</totfact>
</mgrwt>
</event>
<event>
 9    1  0.2024718E-002  0.2749644E+03  0.7818608E-02  0.1098471E+00
         -1   -1    0    0    0  501 -0.00000000000E+00  0.00000000000E+00  0.62097625536E+02  0.62097625536E+02  0.00000000000E+00 0. -1.
          1   -1    0    0  501    0  0.00000000000E+00 -0.00000000000E+00 -0.30438139903E+03  0.30438139903E+03  0.00000000000E+00 0. -1.
         36    2    1    2    0    0  0.00000000000E+00 -0.71054273576E-14 -0.24228377350E+03  0.36647902457E+03  0.27496444961E+03 0.  0.
         25    2    3    3    0    0  0.42197643743E+01 -0.58615411353E+02 -0.10811986950E+03  0.17317437708E+03  0.12184369428E+03 0.  0.
         25    2    3    3    0    0 -0.42197643743E+01  0.58615411353E+02 -0.13416390400E+03  0.19330464749E+03  0.12614737709E+03 0.  0.
          5    1    4    4  502    0 -0.20000860818E+02 -0.65178524290E+02 -0.67886252180E+01  0.68676414397E+02  0.47000000000E+01 0. -1.
         -5    1    4    4    0  502  0.24220625192E+02  0.65631129377E+01 -0.10133124428E+03  0.10449796268E+03  0.47000000000E+01 0. -1.
          5    1    5    5  503    0  0.34609925051E+02  0.84734526203E+02 -0.80908427638E+02  0.12225404086E+03  0.47000000000E+01 0.  1.
         -5    1    5    5    0  503 -0.38829689425E+02 -0.26119114850E+02 -0.53255476358E+02  0.71050606637E+02  0.47000000000E+01 0.  1.
<mgrwt>
<rscale>  0 0.27496445E+03</rscale>
<asrwt>0</asrwt>
<pdfrwt beam="1">  1        1 0.46827906E-01 0.27496445E+03</pdfrwt>
<pdfrwt beam="2">  1       -1 0.95534812E-02 0.27496445E+03</pdfrwt>
<totfact> 0.55922138E+03</totfact>
</mgrwt>
</event>
<event>
 9    1  0.2024718E-002  0.2748771E+03  0.7818608E-02  0.1098520E+00
          2   -1    0    0  501    0  0.00000000000E+00  0.00000000000E+00  0.65803742983E+02  0.65803742983E+02  0.00000000000E+00 0.  1.
         -2   -1    0    0    0  501 -0.00000000000E+00 -0.00000000000E+00 -0.28705586709E+03  0.28705586709E+03  0.00000000000E+00 0.  1.
         36    2    1    2    0    0  0.71054273576E-14  0.00000000000E+00 -0.22125212410E+03  0.35285961007E+03  0.27487706706E+03 0.  0.
         25    2    3    3    0    0 -0.37528317407E+02  0.40503086327E+02 -0.74105776814E+02  0.15214461455E+03  0.12086125504E+03 0.  0.
         25    2    3    3    0    0  0.37528317407E+02 -0.40503086327E+02 -0.14714634729E+03  0.20071499552E+03  0.12484224965E+03 0.  0.
          5    1    4    4  502    0 -0.73600932692E+02 -0.18269055705E+01 -0.58606037310E+02  0.94218854197E+02  0.47000000000E+01 0. -1.
         -5    1    4    4    0  502  0.36072615286E+02  0.42329991897E+02 -0.15499739504E+02  0.57925760351E+02  0.47000000000E+01 0. -1.
          5    1    5    5  503    0  0.18647485471E+02 -0.23989203606E+02 -0.16610292956E+03  0.16892449146E+03  0.47000000000E+01 0. -1.
         -5    1    5    5    0  503  0.18880831936E+02 -0.16513882721E+02  0.18956582274E+02  0.31790504064E+02  0.47000000000E+01 0. -1.
<mgrwt>
<rscale>  0 0.27487707E+03</rscale>
<asrwt>0</asrwt>
<pdfrwt beam="1">  1        2 0.10123653E-01 0.27487707E+03</pdfrwt>
<pdfrwt beam="2">  1       -2 0.44162441E-01 0.27487707E+03</pdfrwt>
<totfact> 0.30886740E+03</totfact>
</mgrwt>
</event>
<event>
 9    1  0.2024718E-002  0.2749668E+03  0.7818608E-02  0.1098470E+00
         -1   -1    0    0    0  501 -0.00000000000E+00  0.00000000000E+00  0.72670362089E+03  0.72670362089E+03  0.00000000000E+00 0. -1.
          1   -1    0    0  501    0  0.00000000000E+00 -0.00000000000E+00 -0.26010169912E+02  0.26010169912E+02  0.00000000000E+00 0. -1.
         36    2    1    2    0    0  0.71054273576E-14  0.17763568394E-14  0.70069345098E+03  0.75271379080E+03  0.27496679549E+03 0.  0.
         25    2    3    3    0    0 -0.48252437559E+02  0.80893742257E+01  0.24885380460E+03  0.28195602798E+03  0.12319598185E+03 0.  0.
         25    2    3    3    0    0  0.48252437559E+02 -0.80893742257E+01  0.45183964638E+03  0.47075776282E+03  0.12271947487E+03 0.  0.
          5    1    4    4  502    0 -0.75964801682E+01  0.13010508693E+02 -0.10752927919E+02  0.19096997310E+02  0.47000000000E+01 0.  1.
         -5    1    4    4    0  502 -0.40655957391E+02 -0.49211344678E+01  0.25960673252E+03  0.26285903068E+03  0.47000000000E+01 0.  1.
          5    1    5    5  503    0  0.44008695710E+02  0.27992574865E+02  0.71334458961E+02  0.88493189461E+02  0.47000000000E+01 0.  1.
         -5    1    5    5    0  503  0.42437418490E+01 -0.36081949091E+02  0.38050518741E+03  0.38226457336E+03  0.47000000000E+01 0.  1.
<mgrwt>
<rscale>  0 0.27496680E+03</rscale>
<asrwt>0</asrwt>
<pdfrwt beam="1">  1        1 0.40015651E-02 0.27496680E+03</pdfrwt>
<pdfrwt beam="2">  1       -1 0.11180054E+00 0.27496680E+03</pdfrwt>
<totfact> 0.17742861E+03</totfact>
</mgrwt>
</event>
<event>
 9    1  0.2024718E-002  0.2747848E+03  0.7818608E-02  0.1098572E+00
          2   -1    0    0  501    0  0.00000000000E+00  0.00000000000E+00  0.80305058650E+03  0.80305058650E+03  0.00000000000E+00 0. -1.
         -2   -1    0    0    0  501 -0.00000000000E+00 -0.00000000000E+00 -0.23506198001E+02  0.23506198001E+02  0.00000000000E+00 0. -1.
         36    2    1    2    0    0 -0.35527136788E-14  0.71054273576E-14  0.77954438850E+03  0.82655678450E+03  0.27478476006E+03 0.  0.
         25    2    3    3    0    0 -0.29784306151E+02  0.46030036580E+02  0.31809337822E+03  0.34535210026E+03  0.12279579278E+03 0.  0.
         25    2    3    3    0    0  0.29784306151E+02 -0.46030036580E+02  0.46145101028E+03  0.48120468424E+03  0.12496017001E+03 0.  0.
          5    1    4    4  502    0 -0.77786265885E+02  0.29508750653E+02  0.18886296467E+03  0.20642862919E+03  0.47000000000E+01 0. -1.
         -5    1    4    4    0  502  0.48001959734E+02  0.16521285927E+02  0.12923041355E+03  0.13892347107E+03  0.47000000000E+01 0. -1.
          5    1    5    5  503    0  0.11913816074E+01 -0.21122592720E+02  0.38501523765E+01  0.22011292254E+02  0.47000000000E+01 0.  1.
         -5    1    5    5    0  503  0.28592924544E+02 -0.24907443860E+02  0.45760085790E+03  0.45919339199E+03  0.47000000000E+01 0.  1.
<mgrwt>
<rscale>  0 0.27478476E+03</rscale>
<asrwt>0</asrwt>
<pdfrwt beam="1">  1        2 0.12354622E+00 0.27478476E+03</pdfrwt>
<pdfrwt beam="2">  1       -2 0.36163388E-02 0.27478476E+03</pdfrwt>
<totfact> 0.11257845E+04</totfact>
</mgrwt>
</event>
<event>
 9    1  0.2024718E-002  0.2753141E+03  0.7818608E-02  0.1098276E+00
         -2   -1    0    0    0  501 -0.00000000000E+00  0.00000000000E+00  0.11308855664E+02  0.11308855664E+02  0.00000000000E+00 0.  1.
          2   -1    0    0  501    0  0.00000000000E+00 -0.00000000000E+00 -0.16756305286E+04  0.16756305286E+04  0.00000000000E+00 0.  1.
         36    2    1    2    0    0  0.00000000000E+00 -0.17763568394E-14 -0.16643216729E+04  0.16869393842E+04  0.27531410275E+03 0.  0.
         25    2    3    3    0    0  0.34690268111E+02  0.95837230843E+01 -0.11356176831E+04  0.11430121568E+04  0.12471570031E+03 0.  0.
         25    2    3    3    0    0 -0.34690268111E+02 -0.95837230843E+01 -0.52870398976E+03  0.54392722742E+03  0.12261181627E+03 0.  0.
          5    1    4    4  502    0  0.71097432973E+02 -0.53366017857E+01 -0.40025960772E+03  0.40658722049E+03  0.47000000000E+01 0. -1.
         -5    1    4    4    0  502 -0.36407164862E+02  0.14920324870E+02 -0.73535807542E+03  0.73642493632E+03  0.47000000000E+01 0. -1.
          5    1    5    5  503    0 -0.69125960647E+02  0.28577967030E+02 -0.27528745095E+03  0.28530749953E+03  0.47000000000E+01 0. -1.
         -5    1    5    5    0  503  0.34435692536E+02 -0.38161690115E+02 -0.25341653881E+03  0.25861972789E+03  0.47000000000E+01 0. -1.
<mgrwt>
<rscale>  0 0.27531410E+03</rscale>
<asrwt>0</asrwt>
<pdfrwt beam="1">  1        2 0.25778936E+00 0.27531410E+03</pdfrwt>
<pdfrwt beam="2">  1       -2 0.17398236E-02 0.27531410E+03</pdfrwt>
<totfact> 0.10444431E+04</totfact>
</mgrwt>
</event>
<event>
 9    1  0.2024718E-002  0.2747791E+03  0.7818608E-02  0.1098575E+00
          3   -1    0    0  501    0  0.00000000000E+00  0.00000000000E+00  0.11842553960E+04  0.11842553960E+04  0.00000000000E+00 0.  1.
         -3   -1    0    0    0  501 -0.00000000000E+00 -0.00000000000E+00 -0.15939030446E+02  0.15939030446E+02  0.00000000000E+00 0.  1.
         36    2    1    2    0    0  0.71054273576E-14 -0.35527136788E-14  0.11683163656E+04  0.12001944264E+04  0.27477905898E+03 0.  0.
         25    2    3    3    0    0  0.48004298740E+01 -0.13980265698E+01  0.82261904238E+03  0.83128094438E+03  0.11958645828E+03 0.  0.
         25    2    3    3    0    0 -0.48004298740E+01  0.13980265698E+01  0.34569732318E+03  0.36891348206E+03  0.12870710700E+03 0.  0.
          5    1    4    4  502    0  0.27259002498E+02  0.52215154467E+02  0.49473434770E+03  0.49825057989E+03  0.47000000000E+01 0.  1.
         -5    1    4    4    0  502 -0.22458572624E+02 -0.53613181037E+02  0.32788469468E+03  0.33303036449E+03  0.47000000000E+01 0.  1.
          5    1    5    5  503    0 -0.56379638177E+02 -0.19305482671E+02  0.96223253264E+02  0.11328005001E+03  0.47000000000E+01 0.  1.
         -5    1    5    5    0  503  0.51579208303E+02  0.20703509241E+02  0.24947406991E+03  0.25563343205E+03  0.47000000000E+01 0.  1.
<mgrwt>
<rscale>  0 0.27477906E+03</rscale>
<asrwt>0</asrwt>
<pdfrwt beam="1">  1        3 0.18219307E+00 0.27477906E+03</pdfrwt>
<pdfrwt beam="2">  1       -3 0.24521595E-02 0.27477906E+03</pdfrwt>
<totfact> 0.36544838E+02</totfact>
</mgrwt>
</event>
<event>
 9    1  0.2024718E-002  0.2720350E+03  0.7818608E-02  0.1100121E+00
         -2   -1    0    0    0  501 -0.00000000000E+00  0.00000000000E+00  0.14985201342E+02  0.14985201342E+02  0.00000000000E+00 0. -1.
          2   -1    0    0  501    0  0.00000000000E+00 -0.00000000000E+00 -0.12346016258E+04  0.12346016258E+04  0.00000000000E+00 0. -1.
         36    2    1    2    0    0  0.00000000000E+00  0.35527136788E-14 -0.12196164244E+04  0.12495868271E+04  0.27203495319E+03 0.  0.
         25    2    3    3    0    0  0.20634527240E+02 -0.66298065693E+01 -0.83458702191E+03  0.84504785914E+03  0.13076944998E+03 0.  0.
         25    2    3    3    0    0 -0.20634527240E+02  0.66298065693E+01 -0.38502940253E+03  0.40453896799E+03  0.12220637363E+03 0.  0.
          5    1    4    4  502    0  0.69932891689E+02  0.20413048107E+02 -0.37774792857E+03  0.38473742918E+03  0.47000000000E+01 0. -1.
         -5    1    4    4    0  502 -0.49298364449E+02 -0.27042854676E+02 -0.45683909334E+03  0.46031042996E+03  0.47000000000E+01 0. -1.
          5    1    5    5  503    0 -0.38858284022E+02 -0.38129774099E+02 -0.88133628851E+02  0.10369895103E+03  0.47000000000E+01 0.  1.
         -5    1    5    5    0  503  0.18223756782E+02  0.44759580668E+02 -0.29689577368E+03  0.30084001696E+03  0.47000000000E+01 0.  1.
<mgrwt>
<rscale>  0 0.27203495E+03</rscale>
<asrwt>0</asrwt>
<pdfrwt beam="1">  1        2 0.18993871E+00 0.27203495E+03</pdfrwt>
<pdfrwt beam="2">  1       -2 0.23054156E-02 0.27203495E+03</pdfrwt>
<totfact> 0.11948102E+04</totfact>
</mgrwt>
</event>
<event>
 9    1  0.2024718E-002  0.2747270E+03  0.7818608E-02  0.1098604E+00
          1   -1    0    0  501    0  0.00000000000E+00  0.00000000000E+00  0.74000648588E+03  0.74000648588E+03  0.00000000000E+00 0.  1.
         -1   -1    0    0    0  501 -0.00000000000E+00 -0.00000000000E+00 -0.25498056286E+02  0.25498056286E+02  0.00000000000E+00 0.  1.
         36    2    1    2    0    0 -0.71054273576E-14 -0.71054273576E-14  0.71450842959E+03  0.76550454217E+03  0.27472697013E+03 0.  0.
         25    2    3    3    0    0 -0.29869336996E+02 -0.45867854651E+02  0.37990871226E+03  0.40388111320E+03  0.12567134345E+03 0.  0.
         25    2    3    3    0    0  0.29869336996E+02  0.45867854651E+02  0.33459971733E+03  0.36162342896E+03  0.12577160314E+03 0.  0.
          5    1    4    4  502    0  0.32838861094E+02 -0.33822197408E+02  0.54409507995E+02  0.72144413476E+02  0.47000000000E+01 0.  1.
         -5    1    4    4    0  502 -0.62708198090E+02 -0.12045657243E+02  0.32549920427E+03  0.33173669973E+03  0.47000000000E+01 0.  1.
          5    1    5    5  503    0  0.22994926602E+02  0.57081954713E+02  0.34079830495E+03  0.34634186992E+03  0.47000000000E+01 0.  1.
         -5    1    5    5    0  503  0.68744103937E+01 -0.11214100061E+02 -0.61985876167E+01  0.15281559046E+02  0.47000000000E+01 0.  1.
<mgrwt>
<rscale>  0 0.27472697E+03</rscale>
<asrwt>0</asrwt>
<pdfrwt beam="1">  1        1 0.11384714E+00 0.27472697E+03</pdfrwt>
<pdfrwt beam="2">  1       -1 0.39227785E-02 0.27472697E+03</pdfrwt>
<totfact> 0.65551394E+03</totfact>
</mgrwt>
</event>
<event>
 9    1  0.2024718E-002  0.2768374E+03  0.7818608E-02  0.1097429E+00
          1   -1    0    0  501    0  0.00000000000E+00  0.00000000000E+00  0.16484510484E+03  0.16484510484E+03  0.00000000000E+00 0. -1.
         -1   -1    0    0    0  501 -0.00000000000E+00 -0.00000000000E+00 -0.11622873014E+03  0.11622873014E+03  0.00000000000E+00 0. -1.
         36    2    1    2    0    0  0.00000000000E+00 -0.71054273576E-14  0.48616374707E+02  0.28107383498E+03  0.27683740502E+03 0.  0.
         25    2    3    3    0    0 -0.41859034697E+02 -0.39826395963E+02  0.28173091891E+02  0.14099493799E+03  0.12548915822E+03 0.  0.
         25    2    3    3    0    0  0.41859034697E+02  0.39826395963E+02  0.20443282816E+02  0.14007889699E+03  0.12595971169E+03 0.  0.
          5    1    4    4  502    0 -0.21372589296E+02 -0.82083286976E+02 -0.20083368313E+01  0.84973978316E+02  0.47000000000E+01 0. -1.
         -5    1    4    4    0  502 -0.20486445401E+02  0.42256891013E+02  0.30181428722E+02  0.56020959676E+02  0.47000000000E+01 0. -1.
          5    1    5    5  503    0 -0.19977621881E+02 -0.35264669572E+02  0.12743309088E+01  0.40821761541E+02  0.47000000000E+01 0.  1.
         -5    1    5    5    0  503  0.61836656578E+02  0.75091065535E+02  0.19168951907E+02  0.99257135447E+02  0.47000000000E+01 0.  1.
<mgrwt>
<rscale>  0 0.27683741E+03</rscale>
<asrwt>0</asrwt>
<pdfrwt beam="1">  1        1 0.25360785E-01 0.27683741E+03</pdfrwt>
<pdfrwt beam="2">  1       -1 0.17881343E-01 0.27683741E+03</pdfrwt>
<totfact> 0.45189188E+03</totfact>
</mgrwt>
</event>
<event>
 9    1  0.2024718E-002  0.2751571E+03  0.7818608E-02  0.1098364E+00
          1   -1    0    0  501    0  0.00000000000E+00  0.00000000000E+00  0.55040054261E+03  0.55040054261E+03  0.00000000000E+00 0. -1.
         -1   -1    0    0    0  501 -0.00000000000E+00 -0.00000000000E+00 -0.34389250297E+02  0.34389250297E+02  0.00000000000E+00 0. -1.
         36    2    1    2    0    0  0.71054273576E-14  0.00000000000E+00  0.51601129231E+03  0.58478979291E+03  0.27515713346E+03 0.  0.
         25    2    3    3    0    0  0.61160337873E+02  0.60622267913E+01  0.28864909437E+03  0.31874206452E+03  0.12041954365E+03 0.  0.
         25    2    3    3    0    0 -0.61160337873E+02 -0.60622267913E+01  0.22736219794E+03  0.26604772839E+03  0.12373555351E+03 0.  0.
          5    1    4    4  502    0  0.58740057903E+02  0.17185026818E+02  0.29737807545E+03  0.30364704725E+03  0.47000000000E+01 0. -1.
         -5    1    4    4    0  502  0.24202799698E+01 -0.11122800026E+02 -0.87289810793E+01  0.15095017265E+02  0.47000000000E+01 0. -1.
          5    1    5    5  503    0 -0.41072411266E+02 -0.21337908209E+02  0.10527370892E+02  0.47698687947E+02  0.47000000000E+01 0.  1.
         -5    1    5    5    0  503 -0.20087926607E+02  0.15275681418E+02  0.21683482705E+03  0.21834904044E+03  0.47000000000E+01 0.  1.
<mgrwt>
<rscale>  0 0.27515713E+03</rscale>
<asrwt>0</asrwt>
<pdfrwt beam="1">  1        1 0.84677000E-01 0.27515713E+03</pdfrwt>
<pdfrwt beam="2">  1       -1 0.52906543E-02 0.27515713E+03</pdfrwt>
<totfact> 0.63802593E+03</totfact>
</mgrwt>
</event>
<event>
 9    1  0.2024718E-002  0.2749575E+03  0.7818608E-02  0.1098475E+00
          2   -1    0    0  501    0  0.00000000000E+00  0.00000000000E+00  0.75749006424E+02  0.75749006424E+02  0.00000000000E+00 0. -1.
         -2   -1    0    0    0  501 -0.00000000000E+00 -0.00000000000E+00 -0.24951368208E+03  0.24951368208E+03  0.00000000000E+00 0. -1.
         36    2    1    2    0    0  0.14210854715E-13  0.35527136788E-14 -0.17376467566E+03  0.32526268851E+03  0.27495754950E+03 0.  0.
         25    2    3    3    0    0  0.55710059210E+02 -0.17551625297E+02 -0.88056067876E+02  0.16277507208E+03  0.12381511520E+03 0.  0.
         25    2    3    3    0    0 -0.55710059210E+02  0.17551625297E+02 -0.85708607784E+02  0.16248761643E+03  0.12507833464E+03 0.  0.
          5    1    4    4  502    0  0.13080137652E+02 -0.58975978812E+02 -0.83235085031E+02  0.10295351115E+03  0.47000000000E+01 0.  1.
         -5    1    4    4    0  502  0.42629921559E+02  0.41424353515E+02 -0.48209828451E+01  0.59821560928E+02  0.47000000000E+01 0.  1.
          5    1    5    5  503    0  0.11724824296E+02  0.12114245105E+02  0.26274689095E+02  0.31570171464E+02  0.47000000000E+01 0. -1.
         -5    1    5    5    0  503 -0.67434883506E+02  0.54373801918E+01 -0.11198329688E+03  0.13091744497E+03  0.47000000000E+01 0. -1.
<mgrwt>
<rscale>  0 0.27495755E+03</rscale>
<asrwt>0</asrwt>
<pdfrwt beam="1">  1        2 0.11653693E-01 0.27495755E+03</pdfrwt>
<pdfrwt beam="2">  1       -2 0.38386721E-01 0.27495755E+03</pdfrwt>
<totfact> 0.33996587E+03</totfact>
</mgrwt>
</event>
<event>
 9    1  0.2024718E-002  0.2744769E+03  0.7818608E-02  0.1098744E+00
         -1   -1    0    0    0  501 -0.00000000000E+00  0.00000000000E+00  0.19888420286E+02  0.19888420286E+02  0.00000000000E+00 0. -1.
          1   -1    0    0  501    0  0.00000000000E+00 -0.00000000000E+00 -0.94700303289E+03  0.94700303289E+03  0.00000000000E+00 0. -1.
         36    2    1    2    0    0  0.00000000000E+00  0.35527136788E-14 -0.92711461260E+03  0.96689145318E+03  0.27447691582E+03 0.  0.
         25    2    3    3    0    0  0.49395973837E+02 -0.24542475373E+02 -0.42737258338E+03  0.44881440400E+03  0.12547808127E+03 0.  0.
         25    2    3    3    0    0 -0.49395973837E+02  0.24542475373E+02 -0.49974202922E+03  0.51807704918E+03  0.12497774916E+03 0.  0.
          5    1    4    4  502    0  0.63355871301E+01 -0.51559790857E+02 -0.67328687912E+02  0.85169207542E+02  0.47000000000E+01 0. -1.
         -5    1    4    4    0  502  0.43060386707E+02  0.27017315483E+02 -0.36004389547E+03  0.36364519646E+03  0.47000000000E+01 0. -1.
          5    1    5    5  503    0 -0.63086176004E+02  0.45614663647E+02 -0.16655718656E+03  0.18391288573E+03  0.47000000000E+01 0. -1.
         -5    1    5    5    0  503  0.13690202167E+02 -0.21072188274E+02 -0.33318484266E+03  0.33416416345E+03  0.47000000000E+01 0. -1.
<mgrwt>
<rscale>  0 0.27447692E+03</rscale>
<asrwt>0</asrwt>
<pdfrwt beam="1">  1        1 0.14569275E+00 0.27447692E+03</pdfrwt>
<pdfrwt beam="2">  1       -1 0.30597574E-02 0.27447692E+03</pdfrwt>
<totfact> 0.64225496E+03</totfact>
</mgrwt>
</event>
<event>
 9    1  0.2024718E-002  0.2735433E+03  0.7818608E-02  0.1099269E+00
          2   -1    0    0  501    0  0.00000000000E+00  0.00000000000E+00  0.63844037214E+03  0.63844037214E+03  0.00000000000E+00 0. -1.
         -2   -1    0    0    0  501 -0.00000000000E+00 -0.00000000000E+00 -0.29300278351E+02  0.29300278351E+02  0.00000000000E+00 0. -1.
         36    2    1    2    0    0  0.00000000000E+00 -0.71054273576E-14  0.60914009379E+03  0.66774065049E+03  0.27354327346E+03 0.  0.
         25    2    3    3    0    0 -0.69588957751E+01  0.35134925605E+02  0.19892636616E+03  0.23576891495E+03  0.12137706900E+03 0.  0.
         25    2    3    3    0    0  0.69588957751E+01 -0.35134925605E+02  0.41021372763E+03  0.43197173553E+03  0.13054267018E+03 0.  0.
          5    1    4    4  502    0 -0.11044124135E+02  0.73646852395E+02  0.74794533205E+02  0.10565104705E+03  0.47000000000E+01 0.  1.
         -5    1    4    4    0  502  0.40852283600E+01 -0.38511926790E+02  0.12413183295E+03  0.13011786790E+03  0.47000000000E+01 0.  1.
          5    1    5    5  503    0  0.50327714753E+02  0.11079791103E+02  0.30260999939E+03  0.30700251200E+03  0.47000000000E+01 0. -1.
         -5    1    5    5    0  503 -0.43368818977E+02 -0.46214716708E+02  0.10760372824E+03  0.12496922354E+03  0.47000000000E+01 0. -1.
<mgrwt>
<rscale>  0 0.27354327E+03</rscale>
<asrwt>0</asrwt>
<pdfrwt beam="1">  1        2 0.98221585E-01 0.27354327E+03</pdfrwt>
<pdfrwt beam="2">  1       -2 0.45077356E-02 0.27354327E+03</pdfrwt>
<totfact> 0.10698869E+04</totfact>
</mgrwt>
</event>
<event>
 9    1  0.2024718E-002  0.2742440E+03  0.7818608E-02  0.1098875E+00
         -1   -1    0    0    0  501 -0.00000000000E+00  0.00000000000E+00  0.20040229787E+03  0.20040229787E+03  0.00000000000E+00 0.  1.
          1   -1    0    0  501    0  0.00000000000E+00 -0.00000000000E+00 -0.93823457444E+02  0.93823457444E+02  0.00000000000E+00 0.  1.
         36    2    1    2    0    0  0.00000000000E+00  0.00000000000E+00  0.10657884043E+03  0.29422575532E+03  0.27424395320E+03 0.  0.
         25    2    3    3    0    0 -0.33235921414E+00 -0.49632030594E+02  0.77089689157E+02  0.15640324288E+03  0.12671110956E+03 0.  0.
         25    2    3    3    0    0  0.33235921414E+00  0.49632030594E+02  0.29489151273E+02  0.13782251244E+03  0.12514785643E+03 0.  0.
          5    1    4    4  502    0 -0.59509881768E+02 -0.23100664690E+02  0.13423903525E+02  0.65401513155E+02  0.47000000000E+01 0. -1.
         -5    1    4    4    0  502  0.59177522554E+02 -0.26531365904E+02  0.63665785632E+02  0.91001729723E+02  0.47000000000E+01 0. -1.
          5    1    5    5  503    0 -0.44875066774E+02  0.71065961834E+02  0.14826167897E+02  0.85475422221E+02  0.47000000000E+01 0. -1.
         -5    1    5    5    0  503  0.45207425989E+02 -0.21433931240E+02  0.14662983377E+02  0.52347090219E+02  0.47000000000E+01 0. -1.
<mgrwt>
<rscale>  0 0.27424395E+03</rscale>
<asrwt>0</asrwt>
<pdfrwt beam="1">  1        1 0.14434378E-01 0.27424395E+03</pdfrwt>
<pdfrwt beam="2">  1       -1 0.30831123E-01 0.27424395E+03</pdfrwt>
<totfact> 0.38015696E+03</totfact>
</mgrwt>
</event>
<event>
 9    1  0.2024718E-002  0.2726707E+03  0.7818608E-02  0.1099761E+00
          2   -1    0    0  501    0  0.00000000000E+00  0.00000000000E+00  0.85887945252E+03  0.85887945252E+03  0.00000000000E+00 0. -1.
         -2   -1    0    0    0  501 -0.00000000000E+00 -0.00000000000E+00 -0.21641369548E+02  0.21641369548E+02  0.00000000000E+00 0. -1.
         36    2    1    2    0    0  0.35527136788E-14  0.00000000000E+00  0.83723808298E+03  0.88052082207E+03  0.27267069978E+03 0.  0.
         25    2    3    3    0    0 -0.28352280677E+02  0.32137402960E+02  0.32413789159E+03  0.35078263200E+03  0.12706855496E+03 0.  0.
         25    2    3    3    0    0  0.28352280677E+02 -0.32137402960E+02  0.51310019139E+03  0.52973819007E+03  0.12455552629E+03 0.  0.
          5    1    4    4  502    0 -0.10370284578E+02  0.14975618995E+02  0.32492854201E+03  0.32547267071E+03  0.47000000000E+01 0.  1.
         -5    1    4    4    0  502 -0.17981996099E+02  0.17161783965E+02 -0.79065041841E+00  0.25309961293E+02  0.47000000000E+01 0.  1.
          5    1    5    5  503    0  0.75647553840E+02 -0.21254879576E+02  0.24805376658E+03  0.26024427644E+03  0.47000000000E+01 0.  1.
         -5    1    5    5    0  503 -0.47295273163E+02 -0.10882523384E+02  0.26504642481E+03  0.26949391363E+03  0.47000000000E+01 0.  1.
<mgrwt>
<rscale>  0 0.27267070E+03</rscale>
<asrwt>0</asrwt>
<pdfrwt beam="1">  1        2 0.13213527E+00 0.27267070E+03</pdfrwt>
<pdfrwt beam="2">  1       -2 0.33294421E-02 0.27267070E+03</pdfrwt>
<totfact> 0.11676445E+04</totfact>
</mgrwt>
</event>
<event>
 9    1  0.2024718E-002  0.2752467E+03  0.7818608E-02  0.1098314E+00
         -1   -1    0    0    0  501 -0.00000000000E+00  0.00000000000E+00  0.15359289463E+03  0.15359289463E+03  0.00000000000E+00 0. -1.
          1   -1    0    0  501    0  0.00000000000E+00 -0.00000000000E+00 -0.12331420589E+03  0.12331420589E+03  0.00000000000E+00 0. -1.
         36    2    1    2    0    0 -0.71054273576E-14 -0.35527136788E-14  0.30278688746E+02  0.27690710052E+03  0.27524669540E+03 0.  0.
         25    2    3    3    0    0  0.17751154684E+02  0.21533006416E+02 -0.36562409162E+02  0.13321691198E+03  0.12502464563E+03 0.  0.
         25    2    3    3    0    0 -0.17751154684E+02 -0.21533006416E+02  0.66841097908E+02  0.14369018854E+03  0.12409820327E+03 0.  0.
          5    1    4    4  502    0 -0.44852651121E+02 -0.17617606905E+02  0.44530684682E+01  0.48621602240E+02  0.47000000000E+01 0.  1.
         -5    1    4    4    0  502  0.62603805805E+02  0.39150613320E+02 -0.41015477630E+02  0.84595309739E+02  0.47000000000E+01 0.  1.
          5    1    5    5  503    0  0.17887114615E+02 -0.65618710965E+02  0.23270104380E+02  0.72037156078E+02  0.47000000000E+01 0.  1.
         -5    1    5    5    0  503 -0.35638269299E+02  0.44085704549E+02  0.43570993528E+02  0.71653032464E+02  0.47000000000E+01 0.  1.
<mgrwt>
<rscale>  0 0.27524670E+03</rscale>
<asrwt>0</asrwt>
<pdfrwt beam="1">  1        1 0.18971416E-01 0.27524670E+03</pdfrwt>
<pdfrwt beam="2">  1       -1 0.23629676E-01 0.27524670E+03</pdfrwt>
<totfact> 0.41609022E+03</totfact>
</mgrwt>
</event>
<event>
 9    1  0.2024718E-002  0.2743817E+03  0.7818608E-02  0.1098798E+00
         -2   -1    0    0    0  501 -0.00000000000E+00  0.00000000000E+00  0.71016269886E+01  0.71016269886E+01  0.00000000000E+00 0. -1.
          2   -1    0    0  501    0  0.00000000000E+00 -0.00000000000E+00 -0.26502832616E+04  0.26502832616E+04  0.00000000000E+00 0. -1.
         36    2    1    2    0    0  0.00000000000E+00  0.00000000000E+00 -0.26431816346E+04  0.26573848886E+04  0.27438165491E+03 0.  0.
         25    2    3    3    0    0 -0.53622748351E+02 -0.88444464237E+01 -0.11210949927E+04  0.11291372969E+04  0.12305864079E+03 0.  0.
         25    2    3    3    0    0  0.53622748351E+02  0.88444464237E+01 -0.15220866419E+04  0.15282475917E+04  0.12585441130E+03 0.  0.
          5    1    4    4  502    0 -0.47456919130E+02  0.53246035935E+02 -0.64471339045E+03  0.64866381535E+03  0.47000000000E+01 0. -1.
         -5    1    4    4    0  502 -0.61658292219E+01 -0.62090482359E+02 -0.47638160228E+03  0.48047348151E+03  0.47000000000E+01 0. -1.
          5    1    5    5  503    0  0.25426056608E+02 -0.41724154913E+02 -0.11973924557E+04  0.11983981694E+04  0.47000000000E+01 0.  1.
         -5    1    5    5    0  503  0.28196691743E+02  0.50568601336E+02 -0.32469418615E+03  0.32984942229E+03  0.47000000000E+01 0.  1.
<mgrwt>
<rscale>  0 0.27438165E+03</rscale>
<asrwt>0</asrwt>
<pdfrwt beam="1">  1        2 0.40773570E+00 0.27438165E+03</pdfrwt>
<pdfrwt beam="2">  1       -2 0.10925585E-02 0.27438165E+03</pdfrwt>
<totfact> 0.62068261E+03</totfact>
</mgrwt>
</event>
<event>
 9    1  0.2024718E-002  0.2749730E+03  0.7818608E-02  0.1098467E+00
          4   -1    0    0  501    0  0.00000000000E+00  0.00000000000E+00  0.10348572266E+03  0.10348572266E+03  0.00000000000E+00 0.  1.
         -4   -1    0    0    0  501 -0.00000000000E+00 -0.00000000000E+00 -0.18265840589E+03  0.18265840589E+03  0.00000000000E+00 0.  1.
         36    2    1    2    0    0 -0.14210854715E-13  0.00000000000E+00 -0.79172683231E+02  0.28614412855E+03  0.27497299601E+03 0.  0.
         25    2    3    3    0    0 -0.28812247471E+02  0.19384730675E+02 -0.99452902816E+02  0.15643478899E+03  0.11565055097E+03 0.  0.
         25    2    3    3    0    0  0.28812247471E+02 -0.19384730675E+02  0.20280219584E+02  0.12970933957E+03  0.12331793088E+03 0.  0.
          5    1    4    4  502    0  0.40706941061E+02  0.10976794737E+02 -0.66551115414E+02  0.78922025038E+02  0.47000000000E+01 0. -1.
         -5    1    4    4    0  502 -0.69519188532E+02  0.84079359380E+01 -0.32901787402E+02  0.77512763949E+02  0.47000000000E+01 0. -1.
          5    1    5    5  503    0 -0.36379282740E+02 -0.17504254785E+02  0.44234532124E+02  0.60071915073E+02  0.47000000000E+01 0. -1.
         -5    1    5    5    0  503  0.65191530211E+02 -0.18804758898E+01 -0.23954312540E+02  0.69637424494E+02  0.47000000000E+01 0. -1.
<mgrwt>
<rscale>  0 0.27497300E+03</rscale>
<asrwt>0</asrwt>
<pdfrwt beam="1">  1        4 0.15920881E-01 0.27497300E+03</pdfrwt>
<pdfrwt beam="2">  1       -4 0.28101293E-01 0.27497300E+03</pdfrwt>
<totfact> 0.76587930E+02</totfact>
</mgrwt>
</event>
<event>
 9    1  0.2024718E-002  0.2749084E+03  0.7818608E-02  0.1098503E+00
         -2   -1    0    0    0  501 -0.00000000000E+00  0.00000000000E+00  0.10434954087E+03  0.10434954087E+03  0.00000000000E+00 0. -1.
          2   -1    0    0  501    0  0.00000000000E+00 -0.00000000000E+00 -0.18106127663E+03  0.18106127663E+03  0.00000000000E+00 0. -1.
         36    2    1    2    0    0 -0.71054273576E-14  0.00000000000E+00 -0.76711735766E+02  0.28541081750E+03  0.27490842901E+03 0.  0.
         25    2    3    3    0    0  0.52159419685E+02  0.26828793365E+02 -0.53589609593E+02  0.15039210958E+03  0.12769319149E+03 0.  0.
         25    2    3    3    0    0 -0.52159419685E+02 -0.26828793365E+02 -0.23122126173E+02  0.13501870792E+03  0.11939442849E+03 0.  0.
          5    1    4    4  502    0  0.60336340215E+02 -0.24863528727E+01 -0.86320760536E+02  0.10545150355E+03  0.47000000000E+01 0.  1.
         -5    1    4    4    0  502 -0.81769205298E+01  0.29315146238E+02  0.32731150943E+02  0.44940606030E+02  0.47000000000E+01 0.  1.
          5    1    5    5  503    0  0.28183202198E+02  0.13677930048E+02 -0.31321060596E+02  0.44547474601E+02  0.47000000000E+01 0.  1.
         -5    1    5    5    0  503 -0.80342621883E+02 -0.40506723413E+02  0.81989344233E+01  0.90471233320E+02  0.47000000000E+01 0.  1.
<mgrwt>
<rscale>  0 0.27490843E+03</rscale>
<asrwt>0</asrwt>
<pdfrwt beam="1">  1        2 0.27855581E-01 0.27490843E+03</pdfrwt>
<pdfrwt beam="2">  1       -2 0.16053775E-01 0.27490843E+03</pdfrwt>
<totfact> 0.57772813E+03</totfact>
</mgrwt>
</event>
<event>
 9    1  0.2024718E-002  0.2750146E+03  0.7818608E-02  0.1098443E+00
         -2   -1    0    0    0  501 -0.00000000000E+00  0.00000000000E+00  0.13331099386E+02  0.13331099386E+02  0.00000000000E+00 0. -1.
          2   -1    0    0  501    0  0.00000000000E+00 -0.00000000000E+00 -0.14183569073E+04  0.14183569073E+04  0.00000000000E+00 0. -1.
         36    2    1    2    0    0  0.00000000000E+00 -0.35527136788E-14 -0.14050258079E+04  0.14316880067E+04  0.27501459522E+03 0.  0.
         25    2    3    3    0    0 -0.19906658041E+02 -0.23191272156E+02 -0.42877777470E+03  0.44726616353E+03  0.12354161577E+03 0.  0.
         25    2    3    3    0    0  0.19906658041E+02  0.23191272156E+02 -0.97624803319E+03  0.98442184313E+03  0.12284963486E+03 0.  0.
          5    1    4    4  502    0 -0.57511746938E+02 -0.12813985961E+02 -0.38029021666E+03  0.38485651632E+03  0.47000000000E+01 0. -1.
         -5    1    4    4    0  502  0.37605088897E+02 -0.10377286195E+02 -0.48487558040E+02  0.62409647206E+02  0.47000000000E+01 0. -1.
          5    1    5    5  503    0 -0.38602404723E+02  0.41950421696E+02 -0.64180948734E+03  0.64435354548E+03  0.47000000000E+01 0.  1.
         -5    1    5    5    0  503  0.58509062764E+02 -0.18759149540E+02 -0.33443854585E+03  0.34006829765E+03  0.47000000000E+01 0.  1.
<mgrwt>
<rscale>  0 0.27501460E+03</rscale>
<asrwt>0</asrwt>
<pdfrwt beam="1">  1        2 0.21820872E+00 0.27501460E+03</pdfrwt>
<pdfrwt beam="2">  1       -2 0.20509387E-02 0.27501460E+03</pdfrwt>
<totfact> 0.11247402E+04</totfact>
</mgrwt>
</event>
<event>
 9    1  0.2024718E-002  0.2743217E+03  0.7818608E-02  0.1098831E+00
          1   -1    0    0  501    0  0.00000000000E+00  0.00000000000E+00  0.37963438957E+03  0.37963438957E+03  0.00000000000E+00 0. -1.
         -1   -1    0    0    0  501 -0.00000000000E+00 -0.00000000000E+00 -0.49555835595E+02  0.49555835595E+02  0.00000000000E+00 0. -1.
         36    2    1    2    0    0 -0.35527136788E-14  0.71054273576E-14  0.33007855398E+03  0.42919022517E+03  0.27432170454E+03 0.  0.
         25    2    3    3    0    0 -0.30835485665E+02 -0.17800411491E+02  0.23619330902E+03  0.26804374388E+03  0.12162437084E+03 0.  0.
         25    2    3    3    0    0  0.30835485665E+02  0.17800411491E+02  0.93885244952E+02  0.16114648128E+03  0.12603994361E+03 0.  0.
          5    1    4    4  502    0  0.32583964744E+02 -0.60093429439E+01  0.17775004471E+03  0.18087287070E+03  0.47000000000E+01 0. -1.
         -5    1    4    4    0  502 -0.63419450409E+02 -0.11791068548E+02  0.58443264311E+02  0.87170873180E+02  0.47000000000E+01 0. -1.
          5    1    5    5  503    0 -0.20307318062E+02 -0.43052596296E+02  0.17876881411E+02  0.51064528820E+02  0.47000000000E+01 0.  1.
         -5    1    5    5    0  503  0.51142803727E+02  0.60853007787E+02  0.76008363541E+02  0.11008195246E+03  0.47000000000E+01 0.  1.
<mgrwt>
<rscale>  0 0.27432170E+03</rscale>
<asrwt>0</asrwt>
<pdfrwt beam="1">  1        1 0.58405289E-01 0.27432170E+03</pdfrwt>
<pdfrwt beam="2">  1       -1 0.76239750E-02 0.27432170E+03</pdfrwt>
<totfact> 0.59733751E+03</totfact>
</mgrwt>
</event>
<event>
 9    1  0.2024718E-002  0.2750844E+03  0.7818608E-02  0.1098404E+00
         -2   -1    0    0    0  501 -0.00000000000E+00  0.00000000000E+00  0.15820538900E+02  0.15820538900E+02  0.00000000000E+00 0.  1.
          2   -1    0    0  501    0  0.00000000000E+00 -0.00000000000E+00 -0.11957785436E+04  0.11957785436E+04  0.00000000000E+00 0.  1.
         36    2    1    2    0    0  0.35527136788E-14 -0.10658141036E-13 -0.11799580047E+04  0.12115990825E+04  0.27508443042E+03 0.  0.
         25    2    3    3    0    0  0.26718401244E+02  0.29376172736E+02 -0.75863505901E+03  0.77009164649E+03  0.12624246015E+03 0.  0.
         25    2    3    3    0    0 -0.26718401244E+02 -0.29376172736E+02 -0.42132294572E+03  0.44150743604E+03  0.12585292606E+03 0.  0.
          5    1    4    4  502    0  0.17704331466E+02 -0.45383136576E+02 -0.43671054489E+03  0.43944426547E+03  0.47000000000E+01 0.  1.
         -5    1    4    4    0  502  0.90140697786E+01  0.74759309311E+02 -0.32192451413E+03  0.33064738102E+03  0.47000000000E+01 0.  1.
          5    1    5    5  503    0 -0.46855360226E+02 -0.48019917993E+02 -0.10992914714E+03  0.12887142700E+03  0.47000000000E+01 0.  1.
         -5    1    5    5    0  503  0.20136958981E+02  0.18643745257E+02 -0.31139379858E+03  0.31263600904E+03  0.47000000000E+01 0.  1.
<mgrwt>
<rscale>  0 0.27508443E+03</rscale>
<asrwt>0</asrwt>
<pdfrwt beam="1">  1        2 0.18396593E+00 0.27508443E+03</pdfrwt>
<pdfrwt beam="2">  1       -2 0.24339291E-02 0.27508443E+03</pdfrwt>
<totfact> 0.11603469E+04</totfact>
</mgrwt>
</event>
<event>
 9    1  0.2024718E-002  0.2757378E+03  0.7818608E-02  0.1098040E+00
          2   -1    0    0  501    0  0.00000000000E+00  0.00000000000E+00  0.13596303604E+03  0.13596303604E+03  0.00000000000E+00 0.  1.
         -2   -1    0    0    0  501 -0.00000000000E+00 -0.00000000000E+00 -0.13980146711E+03  0.13980146711E+03  0.00000000000E+00 0.  1.
         36    2    1    2    0    0 -0.71054273576E-14  0.88817841970E-15 -0.38384310651E+01  0.27576450315E+03  0.27573778784E+03 0.  0.
         25    2    3    3    0    0 -0.36426342404E+02  0.77597439759E+01  0.28126075453E+02  0.14000745291E+03  0.13199969205E+03 0.  0.
         25    2    3    3    0    0  0.36426342404E+02 -0.77597439759E+01 -0.31964506518E+02  0.13575705025E+03  0.12657470113E+03 0.  0.
          5    1    4    4  502    0 -0.29063268440E+01 -0.38868366520E+01  0.78179862092E+02  0.78471237224E+02  0.47000000000E+01 0.  1.
         -5    1    4    4    0  502 -0.33520015560E+02  0.11646580628E+02 -0.50053786638E+02  0.61536215681E+02  0.47000000000E+01 0.  1.
          5    1    5    5  503    0 -0.19622212964E+02 -0.50014523081E+02 -0.36723529006E+02  0.65247155825E+02  0.47000000000E+01 0. -1.
         -5    1    5    5    0  503  0.56048555368E+02  0.42254779105E+02  0.47590224878E+01  0.70509894420E+02  0.47000000000E+01 0. -1.
<mgrwt>
<rscale>  0 0.27573779E+03</rscale>
<asrwt>0</asrwt>
<pdfrwt beam="1">  1        2 0.20917390E-01 0.27573779E+03</pdfrwt>
<pdfrwt beam="2">  1       -2 0.21507918E-01 0.27573779E+03</pdfrwt>
<totfact> 0.48535054E+03</totfact>
</mgrwt>
</event>
<event>
 9    1  0.2024718E-002  0.2738708E+03  0.7818608E-02  0.1099084E+00
         -2   -1    0    0    0  501 -0.00000000000E+00  0.00000000000E+00  0.14385431740E+02  0.14385431740E+02  0.00000000000E+00 0.  1.
          2   -1    0    0  501    0  0.00000000000E+00 -0.00000000000E+00 -0.13034928946E+04  0.13034928946E+04  0.00000000000E+00 0.  1.
         36    2    1    2    0    0  0.14210854715E-13  0.00000000000E+00 -0.12891074629E+04  0.13178783264E+04  0.27387083130E+03 0.  0.
         25    2    3    3    0    0  0.56303205921E+02  0.99575113764E+01 -0.62439695855E+03  0.63878132431E+03  0.12206889617E+03 0.  0.
         25    2    3    3    0    0 -0.56303205921E+02 -0.99575113764E+01 -0.66471050436E+03  0.67909700207E+03  0.12674178709E+03 0.  0.
          5    1    4    4  502    0 -0.15682419750E+02 -0.61595843792E+01 -0.10398210889E+02  0.20349239756E+02  0.47000000000E+01 0.  1.
         -5    1    4    4    0  502  0.71985625671E+02  0.16117095756E+02 -0.61399874766E+03  0.61843208455E+03  0.47000000000E+01 0.  1.
          5    1    5    5  503    0 -0.81181414617E+02  0.32735453906E+02 -0.47371510195E+03  0.48175732463E+03  0.47000000000E+01 0.  1.
         -5    1    5    5    0  503  0.24878208696E+02 -0.42692965282E+02 -0.19099540241E+03  0.19733967745E+03  0.47000000000E+01 0.  1.
<mgrwt>
<rscale>  0 0.27387083E+03</rscale>
<asrwt>0</asrwt>
<pdfrwt beam="1">  1        2 0.20053743E+00 0.27387083E+03</pdfrwt>
<pdfrwt beam="2">  1       -2 0.22131427E-02 0.27387083E+03</pdfrwt>
<totfact> 0.11617914E+04</totfact>
</mgrwt>
</event>
<event>
 9    1  0.2024718E-002  0.2799669E+03  0.7818608E-02  0.1095707E+00
          1   -1    0    0  501    0  0.00000000000E+00  0.00000000000E+00  0.61961367108E+03  0.61961367108E+03  0.00000000000E+00 0.  1.
         -1   -1    0    0    0  501 -0.00000000000E+00 -0.00000000000E+00 -0.31625139319E+02  0.31625139319E+02  0.00000000000E+00 0.  1.
         36    2    1    2    0    0  0.00000000000E+00 -0.14210854715E-13  0.58798853176E+03  0.65123881040E+03  0.27996691713E+03 0.  0.
         25    2    3    3    0    0  0.84159899450E+01  0.59446434493E+02  0.27996617561E+03  0.31310900347E+03  0.12669443990E+03 0.  0.
         25    2    3    3    0    0 -0.84159899450E+01 -0.59446434493E+02  0.30802235615E+03  0.33812980693E+03  0.12589395136E+03 0.  0.
          5    1    4    4  502    0  0.53467471000E+02  0.16403296533E+02  0.21799587453E+03  0.22510470876E+03  0.47000000000E+01 0.  1.
         -5    1    4    4    0  502 -0.45051481055E+02  0.43043137960E+02  0.61970301080E+02  0.88004294705E+02  0.47000000000E+01 0.  1.
          5    1    5    5  503    0 -0.46939464669E+02 -0.62736042373E+02  0.10331698446E+03  0.12975212381E+03  0.47000000000E+01 0. -1.
         -5    1    5    5    0  503  0.38523474724E+02  0.32896078793E+01  0.20470537169E+03  0.20837768312E+03  0.47000000000E+01 0. -1.
<mgrwt>
<rscale>  0 0.27996692E+03</rscale>
<asrwt>0</asrwt>
<pdfrwt beam="1">  1        1 0.95325171E-01 0.27996692E+03</pdfrwt>
<pdfrwt beam="2">  1       -1 0.48654065E-02 0.27996692E+03</pdfrwt>
<totfact> 0.61468878E+03</totfact>
</mgrwt>
</event>
<event>
 9    1  0.2024718E-002  0.2748876E+03  0.7818608E-02  0.1098514E+00
         -2   -1    0    0    0  501 -0.00000000000E+00  0.00000000000E+00  0.19557039573E+03  0.19557039573E+03  0.00000000000E+00 0. -1.
          2   -1    0    0  501    0  0.00000000000E+00 -0.00000000000E+00 -0.96593321129E+02  0.96593321129E+02  0.00000000000E+00 0. -1.
         36    2    1    2    0    0  0.00000000000E+00  0.14210854715E-13  0.98977074596E+02  0.29216371685E+03  0.27488757002E+03 0.  0.
         25    2    3    3    0    0  0.23055871906E+02 -0.51462463537E+02  0.35891379146E+02  0.14230819120E+03  0.12563228806E+03 0.  0.
         25    2    3    3    0    0 -0.23055871906E+02  0.51462463537E+02  0.63085695450E+02  0.14985552566E+03  0.12368069864E+03 0.  0.
          5    1    4    4  502    0  0.24514893417E+02  0.66758654042E+01 -0.39362280523E+02  0.47085308814E+02  0.47000000000E+01 0.  1.
         -5    1    4    4    0  502 -0.14590215104E+01 -0.58138328942E+02  0.75253659669E+02  0.95222882384E+02  0.47000000000E+01 0.  1.
          5    1    5    5  503    0  0.37546626420E+02 -0.13996229051E+02 -0.26048285900E+00  0.40346021297E+02  0.47000000000E+01 0. -1.
         -5    1    5    5    0  503 -0.60602498326E+02  0.65458692589E+02  0.63346178309E+02  0.10950950436E+03  0.47000000000E+01 0. -1.
<mgrwt>
<rscale>  0 0.27488757E+03</rscale>
<asrwt>0</asrwt>
<pdfrwt beam="1">  1        2 0.14860511E-01 0.27488757E+03</pdfrwt>
<pdfrwt beam="2">  1       -2 0.30087753E-01 0.27488757E+03</pdfrwt>
<totfact> 0.39863677E+03</totfact>
</mgrwt>
</event>
<event>
 9    1  0.2024718E-002  0.2752779E+03  0.7818608E-02  0.1098296E+00
         -1   -1    0    0    0  501 -0.00000000000E+00  0.00000000000E+00  0.45478949329E+03  0.45478949329E+03  0.00000000000E+00 0. -1.
          1   -1    0    0  501    0  0.00000000000E+00 -0.00000000000E+00 -0.41655495572E+02  0.41655495572E+02  0.00000000000E+00 0. -1.
         36    2    1    2    0    0 -0.53290705182E-14  0.00000000000E+00  0.41313399771E+03  0.49644498886E+03  0.27527790847E+03 0.  0.
         25    2    3    3    0    0  0.87597560141E+01 -0.63659241226E+01  0.10869171596E+03  0.16691046573E+03  0.12620600673E+03 0.  0.
         25    2    3    3    0    0 -0.87597560141E+01  0.63659241226E+01  0.30444228175E+03  0.32953452313E+03  0.12566081609E+03 0.  0.
          5    1    4    4  502    0  0.15977010199E+02 -0.55777916653E+02  0.14178513167E+02  0.59912945819E+02  0.47000000000E+01 0. -1.
         -5    1    4    4    0  502 -0.72172541849E+01  0.49411992531E+02  0.94513202797E+02  0.10699751991E+03  0.47000000000E+01 0. -1.
          5    1    5    5  503    0 -0.41200230983E+02 -0.43922699290E+02  0.10371097156E+03  0.12001965742E+03  0.47000000000E+01 0.  1.
         -5    1    5    5    0  503  0.32440474969E+02  0.50288623412E+02  0.20073131019E+03  0.20951486571E+03  0.47000000000E+01 0.  1.
<mgrwt>
<rscale>  0 0.27527791E+03</rscale>
<asrwt>0</asrwt>
<pdfrwt beam="1">  1        1 0.64085381E-02 0.27527791E+03</pdfrwt>
<pdfrwt beam="2">  1       -1 0.69967611E-01 0.27527791E+03</pdfrwt>
<totfact> 0.25256009E+03</totfact>
</mgrwt>
</event>
<event>
 9    1  0.2024718E-002  0.2745377E+03  0.7818608E-02  0.1098710E+00
         -1   -1    0    0    0  501 -0.00000000000E+00  0.00000000000E+00  0.18810069686E+03  0.18810069686E+03  0.00000000000E+00 0.  1.
          1   -1    0    0  501    0  0.00000000000E+00 -0.00000000000E+00 -0.10017364668E+03  0.10017364668E+03  0.00000000000E+00 0.  1.
         36    2    1    2    0    0  0.00000000000E+00 -0.35527136788E-14  0.87927050180E+02  0.28827434354E+03  0.27453766770E+03 0.  0.
         25    2    3    3    0    0 -0.18236165941E+02  0.28939360603E+02 -0.48901658346E+01  0.12791590845E+03  0.12316055202E+03 0.  0.
         25    2    3    3    0    0  0.18236165941E+02 -0.28939360603E+02  0.92817216014E+02  0.16035843508E+03  0.12621310460E+03 0.  0.
          5    1    4    4  502    0 -0.12191469531E+02  0.28241299661E+02 -0.62487989031E+02  0.69807175197E+02  0.47000000000E+01 0. -1.
         -5    1    4    4    0  502 -0.60446964102E+01  0.69806094200E+00  0.57597823196E+02  0.58108733257E+02  0.47000000000E+01 0. -1.
          5    1    5    5  503    0 -0.27922724658E+02 -0.76449025840E+01  0.10403452181E+03  0.10808975352E+03  0.47000000000E+01 0. -1.
         -5    1    5    5    0  503  0.46158890599E+02 -0.21294458019E+02 -0.11217305791E+02  0.52268681568E+02  0.47000000000E+01 0. -1.
<mgrwt>
<rscale>  0 0.27453767E+03</rscale>
<asrwt>0</asrwt>
<pdfrwt beam="1">  1        1 0.15411330E-01 0.27453767E+03</pdfrwt>
<pdfrwt beam="2">  1       -1 0.28938569E-01 0.27453767E+03</pdfrwt>
<totfact> 0.38852672E+03</totfact>
</mgrwt>
</event>
<event>
 9    1  0.2024718E-002  0.2749992E+03  0.7818608E-02  0.1098452E+00
          2   -1    0    0  501    0  0.00000000000E+00  0.00000000000E+00  0.14489305113E+04  0.14489305113E+04  0.00000000000E+00 0. -1.
         -2   -1    0    0    0  501 -0.00000000000E+00 -0.00000000000E+00 -0.13048344262E+02  0.13048344262E+02  0.00000000000E+00 0. -1.
         36    2    1    2    0    0  0.71054273576E-14  0.00000000000E+00  0.14358821670E+04  0.14619788555E+04  0.27499922999E+03 0.  0.
         25    2    3    3    0    0  0.42461087765E+01 -0.22607116530E+02  0.42600145852E+03  0.44363224418E+03  0.12166846041E+03 0.  0.
         25    2    3    3    0    0 -0.42461087765E+01  0.22607116530E+02  0.10098807085E+04  0.10183466114E+04  0.12900257485E+03 0.  0.
          5    1    4    4  502    0  0.40070323292E+02  0.24600417678E+02  0.82925656756E+02  0.95444045949E+02  0.47000000000E+01 0. -1.
         -5    1    4    4    0  502 -0.35824214515E+02 -0.47207534208E+02  0.34307580176E+03  0.34818819823E+03  0.47000000000E+01 0. -1.
          5    1    5    5  503    0 -0.41926341712E+02 -0.23812390697E+02  0.18332347170E+03  0.18961654294E+03  0.47000000000E+01 0. -1.
         -5    1    5    5    0  503  0.37680232935E+02  0.46419507228E+02  0.82655723681E+03  0.82873006843E+03  0.47000000000E+01 0. -1.
<mgrwt>
<rscale>  0 0.27499923E+03</rscale>
<asrwt>0</asrwt>
<pdfrwt beam="1">  1        2 0.22291226E+00 0.27499923E+03</pdfrwt>
<pdfrwt beam="2">  1       -2 0.20074387E-02 0.27499923E+03</pdfrwt>
<totfact> 0.11174840E+04</totfact>
</mgrwt>
</event>
<event>
 9    1  0.2024718E-002  0.2735184E+03  0.7818608E-02  0.1099283E+00
         -1   -1    0    0    0  501 -0.00000000000E+00  0.00000000000E+00  0.61958901864E+02  0.61958901864E+02  0.00000000000E+00 0. -1.
          1   -1    0    0  501    0  0.00000000000E+00 -0.00000000000E+00 -0.30186255862E+03  0.30186255862E+03  0.00000000000E+00 0. -1.
         36    2    1    2    0    0  0.71054273576E-14  0.00000000000E+00 -0.23990365675E+03  0.36382146048E+03  0.27351835511E+03 0.  0.
         25    2    3    3    0    0 -0.44680420935E+02 -0.12903337768E+02 -0.18558227207E+03  0.22983358331E+03  0.12735721482E+03 0.  0.
         25    2    3    3    0    0  0.44680420935E+02  0.12903337768E+02 -0.54321384680E+02  0.13398787717E+03  0.11330976240E+03 0.  0.
          5    1    4    4  502    0 -0.82478818282E+02 -0.35925515377E+02 -0.13681424482E+03  0.16380972409E+03  0.47000000000E+01 0. -1.
         -5    1    4    4    0  502  0.37798397347E+02  0.23022177608E+02 -0.48768027252E+02  0.66023859217E+02  0.47000000000E+01 0. -1.
          5    1    5    5  503    0  0.21636778650E+02 -0.21365791884E+02  0.28106653756E+02  0.41673987553E+02  0.47000000000E+01 0.  1.
         -5    1    5    5    0  503  0.23043642285E+02  0.34269129652E+02 -0.82428038435E+02  0.92313889622E+02  0.47000000000E+01 0.  1.
<mgrwt>
<rscale>  0 0.27351836E+03</rscale>
<asrwt>0</asrwt>
<pdfrwt beam="1">  1        1 0.46440394E-01 0.27351836E+03</pdfrwt>
<pdfrwt beam="2">  1       -1 0.95321387E-02 0.27351836E+03</pdfrwt>
<totfact> 0.56695121E+03</totfact>
</mgrwt>
</event>
<event>
 9    1  0.2024718E-002  0.2720710E+03  0.7818608E-02  0.1100100E+00
         -4   -1    0    0    0  501 -0.00000000000E+00  0.00000000000E+00  0.88067492710E+02  0.88067492710E+02  0.00000000000E+00 0.  1.
          4   -1    0    0  501    0  0.00000000000E+00 -0.00000000000E+00 -0.21013034404E+03  0.21013034404E+03  0.00000000000E+00 0.  1.
         36    2    1    2    0    0 -0.71054273576E-14  0.00000000000E+00 -0.12206285133E+03  0.29819783675E+03  0.27207096531E+03 0.  0.
         25    2    3    3    0    0  0.54609006148E+02 -0.82652871570E+01 -0.43466339812E+02  0.14276210637E+03  0.12426277719E+03 0.  0.
         25    2    3    3    0    0 -0.54609006148E+02  0.82652871570E+01 -0.78596511514E+02  0.15543573037E+03  0.12219818383E+03 0.  0.
          5    1    4    4  502    0 -0.18644028312E+02 -0.63468433740E+01 -0.63499611231E+02  0.66649627448E+02  0.47000000000E+01 0.  1.
         -5    1    4    4    0  502  0.73253034460E+02 -0.19184437829E+01  0.20033271418E+02  0.76112478924E+02  0.47000000000E+01 0.  1.
          5    1    5    5  503    0 -0.29055967623E+02 -0.24823943091E+02 -0.10077263328E+03  0.10787813043E+03  0.47000000000E+01 0. -1.
         -5    1    5    5    0  503 -0.25553038525E+02  0.33089230248E+02  0.22176121769E+02  0.47557599950E+02  0.47000000000E+01 0. -1.
<mgrwt>
<rscale>  0 0.27207097E+03</rscale>
<asrwt>0</asrwt>
<pdfrwt beam="1">  1        4 0.32327745E-01 0.27207097E+03</pdfrwt>
<pdfrwt beam="2">  1       -4 0.13548845E-01 0.27207097E+03</pdfrwt>
<totfact> 0.77723730E+02</totfact>
</mgrwt>
</event>
<event>
 9    1  0.2024718E-002  0.2754108E+03  0.7818608E-02  0.1098222E+00
         -3   -1    0    0    0  501 -0.00000000000E+00  0.00000000000E+00  0.53210587211E+02  0.53210587211E+02  0.00000000000E+00 0. -1.
          3   -1    0    0  501    0  0.00000000000E+00 -0.00000000000E+00 -0.35637214337E+03  0.35637214337E+03  0.00000000000E+00 0. -1.
         36    2    1    2    0    0  0.00000000000E+00  0.71054273576E-14 -0.30316155616E+03  0.40958273058E+03  0.27541075516E+03 0.  0.
         25    2    3    3    0    0 -0.37411355307E+02 -0.45198429735E+02 -0.98285267775E+02  0.16219580538E+03  0.11491291427E+03 0.  0.
         25    2    3    3    0    0  0.37411355307E+02  0.45198429735E+02 -0.20487628839E+03  0.24738692520E+03  0.12563235913E+03 0.  0.
          5    1    4    4  502    0 -0.64074879762E+01  0.10749210446E+02  0.22078936480E+02  0.25810286001E+02  0.47000000000E+01 0.  1.
         -5    1    4    4    0  502 -0.31003867331E+02 -0.55947640181E+02 -0.12036420426E+03  0.13638551938E+03  0.47000000000E+01 0.  1.
          5    1    5    5  503    0  0.27864032653E+01 -0.61800972239E+01  0.15965493134E+02  0.17970659862E+02  0.47000000000E+01 0.  1.
         -5    1    5    5    0  503  0.34624952042E+02  0.51378526959E+02 -0.22084178152E+03  0.22941626534E+03  0.47000000000E+01 0.  1.
<mgrwt>
<rscale>  0 0.27541076E+03</rscale>
<asrwt>0</asrwt>
<pdfrwt beam="1">  1        3 0.54826485E-01 0.27541076E+03</pdfrwt>
<pdfrwt beam="2">  1       -3 0.81862440E-02 0.27541076E+03</pdfrwt>
<totfact> 0.86606681E+02</totfact>
</mgrwt>
</event>
<event>
 9    1  0.2024718E-002  0.2749080E+03  0.7818608E-02  0.1098503E+00
          2   -1    0    0  501    0  0.00000000000E+00  0.00000000000E+00  0.42751134252E+03  0.42751134252E+03  0.00000000000E+00 0. -1.
         -2   -1    0    0    0  501 -0.00000000000E+00 -0.00000000000E+00 -0.44194384270E+02  0.44194384270E+02  0.00000000000E+00 0. -1.
         36    2    1    2    0    0 -0.14210854715E-13 -0.17763568394E-14  0.38331695825E+03  0.47170572679E+03  0.27490798862E+03 0.  0.
         25    2    3    3    0    0 -0.48796590412E+02  0.29698773627E+01  0.14224657372E+03  0.19583491856E+03  0.12540853315E+03 0.  0.
         25    2    3    3    0    0  0.48796590412E+02 -0.29698773627E+01  0.24107038453E+03  0.27587080823E+03  0.12489933998E+03 0.  0.
          5    1    4    4  502    0 -0.40375341523E+02 -0.27028377472E+02 -0.13392638062E+01  0.48832212928E+02  0.47000000000E+01 0.  1.
         -5    1    4    4    0  502 -0.84212488897E+01  0.29998254835E+02  0.14358583753E+03  0.14700270564E+03  0.47000000000E+01 0.  1.
          5    1    5    5  503    0  0.51640009651E+02 -0.14602437467E+02  0.25279136058E+03  0.25846756810E+03  0.47000000000E+01 0.  1.
         -5    1    5    5    0  503 -0.28434192382E+01  0.11632560104E+02 -0.11720976046E+02  0.17403240129E+02  0.47000000000E+01 0.  1.
<mgrwt>
<rscale>  0 0.27490799E+03</rscale>
<asrwt>0</asrwt>
<pdfrwt beam="1">  1        2 0.65770973E-01 0.27490799E+03</pdfrwt>
<pdfrwt beam="2">  1       -2 0.67991363E-02 0.27490799E+03</pdfrwt>
<totfact> 0.89870550E+03</totfact>
</mgrwt>
</event>
<event>
 9    1  0.2024718E-002  0.2719563E+03  0.7818608E-02  0.1100165E+00
         -2   -1    0    0    0  501 -0.00000000000E+00  0.00000000000E+00  0.11884247943E+02  0.11884247943E+02  0.00000000000E+00 0. -1.
          2   -1    0    0  501    0  0.00000000000E+00 -0.00000000000E+00 -0.15558457719E+04  0.15558457719E+04  0.00000000000E+00 0. -1.
         36    2    1    2    0    0  0.00000000000E+00 -0.28865798640E-14 -0.15439615240E+04  0.15677300199E+04  0.27195629734E+03 0.  0.
         25    2    3    3    0    0  0.52360019857E+02  0.38112957497E+00 -0.67160680529E+03  0.68515870563E+03  0.12508011048E+03 0.  0.
         25    2    3    3    0    0 -0.52360019857E+02 -0.38112957497E+00 -0.87235471870E+03  0.88257131425E+03  0.12323819444E+03 0.  0.
          5    1    4    4  502    0  0.19228864497E+02 -0.85050849994E+00 -0.63589460221E+03  0.63620319688E+03  0.47000000000E+01 0. -1.
         -5    1    4    4    0  502  0.33131155361E+02  0.12316380749E+01 -0.35712203084E+02  0.48955508750E+02  0.47000000000E+01 0. -1.
          5    1    5    5  503    0 -0.74997091827E+01 -0.39667601525E+02 -0.67807062993E+03  0.67928759257E+03  0.47000000000E+01 0. -1.
         -5    1    5    5    0  503 -0.44860310675E+02  0.39286471950E+02 -0.19428408877E+03  0.20328372168E+03  0.47000000000E+01 0. -1.
<mgrwt>
<rscale>  0 0.27195630E+03</rscale>
<asrwt>0</asrwt>
<pdfrwt beam="1">  1        2 0.23936085E+00 0.27195630E+03</pdfrwt>
<pdfrwt beam="2">  1       -2 0.18283461E-02 0.27195630E+03</pdfrwt>
<totfact> 0.11234755E+04</totfact>
</mgrwt>
</event>
<event>
 9    1  0.2024718E-002  0.2751037E+03  0.7818608E-02  0.1098394E+00
         -2   -1    0    0    0  501 -0.00000000000E+00  0.00000000000E+00  0.51948887219E+02  0.51948887219E+02  0.00000000000E+00 0. -1.
          2   -1    0    0  501    0  0.00000000000E+00 -0.00000000000E+00 -0.36421398689E+03  0.36421398689E+03  0.00000000000E+00 0. -1.
         36    2    1    2    0    0 -0.71054273576E-14  0.00000000000E+00 -0.31226509967E+03  0.41616287411E+03  0.27510369920E+03 0.  0.
         25    2    3    3    0    0  0.31625935721E+02 -0.11998156966E+02 -0.22425368580E+03  0.25703525345E+03  0.12096797237E+03 0.  0.
         25    2    3    3    0    0 -0.31625935721E+02  0.11998156966E+02 -0.88011413868E+02  0.15912762066E+03  0.12818515946E+03 0.  0.
          5    1    4    4  502    0  0.57546304981E+02 -0.50779589287E+02 -0.15977560042E+03  0.17731462544E+03  0.47000000000E+01 0.  1.
         -5    1    4    4    0  502 -0.25920369260E+02  0.38781432321E+02 -0.64478085380E+02  0.79720628006E+02  0.47000000000E+01 0.  1.
          5    1    5    5  503    0 -0.39487335898E+01 -0.44207192199E+02 -0.85266791825E+02  0.96241280786E+02  0.47000000000E+01 0.  1.
         -5    1    5    5    0  503 -0.27677202132E+02  0.56205349165E+02 -0.27446220425E+01  0.62886339874E+02  0.47000000000E+01 0.  1.
<mgrwt>
<rscale>  0 0.27510370E+03</rscale>
<asrwt>0</asrwt>
<pdfrwt beam="1">  1        2 0.56032923E-01 0.27510370E+03</pdfrwt>
<pdfrwt beam="2">  1       -2 0.79921362E-02 0.27510370E+03</pdfrwt>
<totfact> 0.83203357E+03</totfact>
</mgrwt>
</event>
<event>
 9    1  0.2024718E-002  0.2760902E+03  0.7818608E-02  0.1097844E+00
          1   -1    0    0  501    0  0.00000000000E+00  0.00000000000E+00  0.10951607571E+04  0.10951607571E+04  0.00000000000E+00 0.  1.
         -1   -1    0    0    0  501 -0.00000000000E+00 -0.00000000000E+00 -0.17400593738E+02  0.17400593738E+02  0.00000000000E+00 0.  1.
         36    2    1    2    0    0  0.00000000000E+00  0.71054273576E-14  0.10777601634E+04  0.11125613509E+04  0.27609018390E+03 0.  0.
         25    2    3    3    0    0  0.78041848029E+01 -0.27945984801E+02  0.27052021999E+03  0.29508163365E+03  0.11423702433E+03 0.  0.
         25    2    3    3    0    0 -0.78041848029E+01  0.27945984801E+02  0.80723994339E+03  0.81747971721E+03  0.12567767690E+03 0.  0.
          5    1    4    4  502    0  0.41317485414E+02  0.21422459788E+02  0.18415675892E+03  0.19000489004E+03  0.47000000000E+01 0.  1.
         -5    1    4    4    0  502 -0.33513300611E+02 -0.49368444589E+02  0.86363461067E+02  0.10507674360E+03  0.47000000000E+01 0.  1.
          5    1    5    5  503    0  0.43671760163E+02 -0.64853207004E+01  0.58622647614E+03  0.58790547995E+03  0.47000000000E+01 0.  1.
         -5    1    5    5    0  503 -0.51475944966E+02  0.34431305501E+02  0.22101346725E+03  0.22957423726E+03  0.47000000000E+01 0.  1.
<mgrwt>
<rscale>  0 0.27609018E+03</rscale>
<asrwt>0</asrwt>
<pdfrwt beam="1">  1        1 0.16848622E+00 0.27609018E+03</pdfrwt>
<pdfrwt beam="2">  1       -1 0.26770153E-02 0.27609018E+03</pdfrwt>
<totfact> 0.60705494E+03</totfact>
</mgrwt>
</event>
<event>
 9    1  0.2024718E-002  0.2748195E+03  0.7818608E-02  0.1098553E+00
          1   -1    0    0  501    0  0.00000000000E+00  0.00000000000E+00  0.15047699297E+04  0.15047699297E+04  0.00000000000E+00 0. -1.
         -1   -1    0    0    0  501 -0.00000000000E+00 -0.00000000000E+00 -0.12547729094E+02  0.12547729094E+02  0.00000000000E+00 0. -1.
         36    2    1    2    0    0  0.00000000000E+00 -0.71054273576E-14  0.14922222006E+04  0.15173176588E+04  0.27481954389E+03 0.  0.
         25    2    3    3    0    0 -0.13908975356E+02  0.31544517000E+02  0.92551177310E+03  0.93533765692E+03  0.13075157420E+03 0.  0.
         25    2    3    3    0    0  0.13908975356E+02 -0.31544517000E+02  0.56671042746E+03  0.58198000183E+03  0.12787297521E+03 0.  0.
          5    1    4    4  502    0 -0.68144157098E+02 -0.18953742177E+01  0.37972848893E+03  0.38582772567E+03  0.47000000000E+01 0. -1.
         -5    1    4    4    0  502  0.54235181741E+02  0.33439891218E+02  0.54578328417E+03  0.54950993125E+03  0.47000000000E+01 0. -1.
          5    1    5    5  503    0  0.30851691080E+02 -0.21726010113E+02  0.41131874363E+02  0.56015778550E+02  0.47000000000E+01 0.  1.
         -5    1    5    5    0  503 -0.16942715724E+02 -0.98185068874E+01  0.52557855310E+03  0.52596422328E+03  0.47000000000E+01 0.  1.
<mgrwt>
<rscale>  0 0.27481954E+03</rscale>
<asrwt>0</asrwt>
<pdfrwt beam="1">  1        1 0.23150292E+00 0.27481954E+03</pdfrwt>
<pdfrwt beam="2">  1       -1 0.19304211E-02 0.27481954E+03</pdfrwt>
<totfact> 0.51306028E+03</totfact>
</mgrwt>
</event>
<event>
 9    1  0.2024718E-002  0.2762169E+03  0.7818608E-02  0.1097773E+00
          1   -1    0    0  501    0  0.00000000000E+00  0.00000000000E+00  0.22475903701E+03  0.22475903701E+03  0.00000000000E+00 0. -1.
         -1   -1    0    0    0  501 -0.00000000000E+00 -0.00000000000E+00 -0.84863979499E+02  0.84863979499E+02  0.00000000000E+00 0. -1.
         36    2    1    2    0    0 -0.14210854715E-13  0.71054273576E-14  0.13989505751E+03  0.30962301651E+03  0.27621691700E+03 0.  0.
         25    2    3    3    0    0 -0.40576137494E+02  0.47387339472E+02  0.92925400966E+02  0.16199115735E+03  0.11710688296E+03 0.  0.
         25    2    3    3    0    0  0.40576137494E+02 -0.47387339472E+02  0.46969656546E+02  0.14763185916E+03  0.12528780598E+03 0.  0.
          5    1    4    4  502    0 -0.55549774424E+02  0.48790015724E+02  0.67533999486E+01  0.74390466350E+02  0.47000000000E+01 0. -1.
         -5    1    4    4    0  502  0.14973636930E+02 -0.14026762524E+01  0.86172001018E+02  0.87600690996E+02  0.47000000000E+01 0. -1.
          5    1    5    5  503    0  0.67038192315E+02  0.11851193227E+02  0.46505808242E+02  0.82579962521E+02  0.47000000000E+01 0. -1.
         -5    1    5    5    0  503 -0.26462054821E+02 -0.59238532699E+02  0.46384830394E+00  0.65051896643E+02  0.47000000000E+01 0. -1.
<mgrwt>
<rscale>  0 0.27621692E+03</rscale>
<asrwt>0</asrwt>
<pdfrwt beam="1">  1        1 0.34578313E-01 0.27621692E+03</pdfrwt>
<pdfrwt beam="2">  1       -1 0.13055997E-01 0.27621692E+03</pdfrwt>
<totfact> 0.50352387E+03</totfact>
</mgrwt>
</event>
<event>
 9    1  0.2024718E-002  0.2755625E+03  0.7818608E-02  0.1098138E+00
         -1   -1    0    0    0  501 -0.00000000000E+00  0.00000000000E+00  0.75667024775E+02  0.75667024775E+02  0.00000000000E+00 0.  1.
          1   -1    0    0  501    0  0.00000000000E+00 -0.00000000000E+00 -0.25088441061E+03  0.25088441061E+03  0.00000000000E+00 0.  1.
         36    2    1    2    0    0  0.00000000000E+00 -0.71054273576E-14 -0.17521738583E+03  0.32655143538E+03  0.27556252948E+03 0.  0.
         25    2    3    3    0    0  0.17457622081E+02 -0.44148849705E+02 -0.97445635457E+02  0.16710146533E+03  0.12717451925E+03 0.  0.
         25    2    3    3    0    0 -0.17457622081E+02  0.44148849705E+02 -0.77771750373E+02  0.15944997005E+03  0.13085090101E+03 0.  0.
          5    1    4    4  502    0 -0.34069222666E+02 -0.32181969771E+01 -0.94998159139E+02  0.10108317845E+03  0.47000000000E+01 0.  1.
         -5    1    4    4    0  502  0.51526844747E+02 -0.40930652728E+02 -0.24474763188E+01  0.66018286881E+02  0.47000000000E+01 0.  1.
          5    1    5    5  503    0 -0.53250309392E+02  0.69743530823E+02 -0.26630416589E+02  0.91820611137E+02  0.47000000000E+01 0. -1.
         -5    1    5    5    0  503  0.35792687310E+02 -0.25594681118E+02 -0.51141333784E+02  0.67629358918E+02  0.47000000000E+01 0. -1.
<mgrwt>
<rscale>  0 0.27556253E+03</rscale>
<asrwt>0</asrwt>
<pdfrwt beam="1">  1        1 0.38597601E-01 0.27556253E+03</pdfrwt>
<pdfrwt beam="2">  1       -1 0.11641081E-01 0.27556253E+03</pdfrwt>
<totfact> 0.52475873E+03</totfact>
</mgrwt>
</event>
<event>
 9    1  0.2024718E-002  0.2753114E+03  0.7818608E-02  0.1098278E+00
         -1   -1    0    0    0  501 -0.00000000000E+00  0.00000000000E+00  0.74124029957E+02  0.74124029957E+02  0.00000000000E+00 0.  1.
          1   -1    0    0  501    0  0.00000000000E+00 -0.00000000000E+00 -0.25564025801E+03  0.25564025801E+03  0.00000000000E+00 0.  1.
         36    2    1    2    0    0  0.00000000000E+00 -0.71054273576E-14 -0.18151622805E+03  0.32976428797E+03  0.27531135932E+03 0.  0.
         25    2    3    3    0    0 -0.14027181631E+02 -0.91139178197E+01 -0.22094103259E+02  0.13054966596E+03  0.12757445105E+03 0.  0.
         25    2    3    3    0    0  0.14027181631E+02  0.91139178197E+01 -0.15942212479E+03  0.19921462201E+03  0.11828451473E+03 0.  0.
          5    1    4    4  502    0  0.21498446233E+02 -0.55760534924E+02 -0.36241864390E+02  0.70049862098E+02  0.47000000000E+01 0.  1.
         -5    1    4    4    0  502 -0.35525627864E+02  0.46646617104E+02  0.14147761131E+02  0.60499803862E+02  0.47000000000E+01 0.  1.
          5    1    5    5  503    0 -0.18352744524E+02  0.46508204899E+02 -0.25397208874E+02  0.56275612596E+02  0.47000000000E+01 0. -1.
         -5    1    5    5    0  503  0.32379926154E+02 -0.37394287080E+02 -0.13402491592E+03  0.14293900941E+03  0.47000000000E+01 0. -1.
<mgrwt>
<rscale>  0 0.27531136E+03</rscale>
<asrwt>0</asrwt>
<pdfrwt beam="1">  1        1 0.39329271E-01 0.27531136E+03</pdfrwt>
<pdfrwt beam="2">  1       -1 0.11403697E-01 0.27531136E+03</pdfrwt>
<totfact> 0.52923589E+03</totfact>
</mgrwt>
</event>
<event>
 9    1  0.2024718E-002  0.2744577E+03  0.7818608E-02  0.1098755E+00
          2   -1    0    0  501    0  0.00000000000E+00  0.00000000000E+00  0.10329905538E+04  0.10329905538E+04  0.00000000000E+00 0. -1.
         -2   -1    0    0    0  501 -0.00000000000E+00 -0.00000000000E+00 -0.18230326978E+02  0.18230326978E+02  0.00000000000E+00 0. -1.
         36    2    1    2    0    0  0.00000000000E+00 -0.14210854715E-13  0.10147602268E+04  0.10512208808E+04  0.27445768753E+03 0.  0.
         25    2    3    3    0    0 -0.85873039670E+01  0.50718392628E+02  0.42773493090E+03  0.44878941227E+03  0.12573252689E+03 0.  0.
         25    2    3    3    0    0  0.85873039670E+01 -0.50718392628E+02  0.58702529591E+03  0.60243146849E+03  0.12521533073E+03 0.  0.
          5    1    4    4  502    0  0.23754282091E+02  0.58902472075E+02  0.40031997294E+03  0.40535408949E+03  0.47000000000E+01 0. -1.
         -5    1    4    4    0  502 -0.32341586058E+02 -0.81840794475E+01  0.27414957958E+02  0.43435322779E+02  0.47000000000E+01 0. -1.
          5    1    5    5  503    0  0.26004621035E+02 -0.52828300215E+02  0.57993162592E+03  0.58293211471E+03  0.47000000000E+01 0. -1.
         -5    1    5    5    0  503 -0.17417317068E+02  0.21099075870E+01  0.70936699882E+01  0.19499353778E+02  0.47000000000E+01 0. -1.
<mgrwt>
<rscale>  0 0.27445769E+03</rscale>
<asrwt>0</asrwt>
<pdfrwt beam="1">  1        2 0.15892158E+00 0.27445769E+03</pdfrwt>
<pdfrwt beam="2">  1       -2 0.28046665E-02 0.27445769E+03</pdfrwt>
<totfact> 0.11709501E+04</totfact>
</mgrwt>
</event>
<event>
 9    1  0.2024718E-002  0.2747011E+03  0.7818608E-02  0.1098619E+00
         -2   -1    0    0    0  501 -0.00000000000E+00  0.00000000000E+00  0.13283061950E+02  0.13283061950E+02  0.00000000000E+00 0.  1.
          2   -1    0    0  501    0  0.00000000000E+00 -0.00000000000E+00 -0.14202428905E+04  0.14202428905E+04  0.00000000000E+00 0.  1.
         36    2    1    2    0    0  0.14210854715E-13  0.00000000000E+00 -0.14069598285E+04  0.14335259524E+04  0.27470110519E+03 0.  0.
         25    2    3    3    0    0  0.39352405447E+02 -0.18630648692E+02 -0.53393467426E+03  0.55011030908E+03  0.12505759832E+03 0.  0.
         25    2    3    3    0    0 -0.39352405447E+02  0.18630648692E+02 -0.87302515426E+03  0.88341564333E+03  0.12788497189E+03 0.  0.
          5    1    4    4  502    0  0.42697339798E+02  0.21277410925E+02 -0.48191156582E+03  0.48428982884E+03  0.47000000000E+01 0.  1.
         -5    1    4    4    0  502 -0.33449343510E+01 -0.39908059617E+02 -0.52023108436E+02  0.65820480244E+02  0.47000000000E+01 0.  1.
          5    1    5    5  503    0  0.68296506962E+01 -0.44643899251E+02 -0.16771504405E+03  0.17375312334E+03  0.47000000000E+01 0.  1.
         -5    1    5    5    0  503 -0.46182056143E+02  0.63274547943E+02 -0.70531011021E+03  0.70966252000E+03  0.47000000000E+01 0.  1.
<mgrwt>
<rscale>  0 0.27470111E+03</rscale>
<asrwt>0</asrwt>
<pdfrwt beam="1">  1        2 0.21849880E+00 0.27470111E+03</pdfrwt>
<pdfrwt beam="2">  1       -2 0.20435490E-02 0.27470111E+03</pdfrwt>
<totfact> 0.11280493E+04</totfact>
</mgrwt>
</event>
<event>
 9    1  0.2024718E-002  0.2751335E+03  0.7818608E-02  0.1098377E+00
          2   -1    0    0  501    0  0.00000000000E+00  0.00000000000E+00  0.81047062033E+03  0.81047062033E+03  0.00000000000E+00 0. -1.
         -2   -1    0    0    0  501 -0.00000000000E+00 -0.00000000000E+00 -0.23350154501E+02  0.23350154501E+02  0.00000000000E+00 0. -1.
         36    2    1    2    0    0 -0.35527136788E-14  0.35527136788E-14  0.78712046583E+03  0.83382077483E+03  0.27513352543E+03 0.  0.
         25    2    3    3    0    0  0.18703080904E+02 -0.13749940485E+02  0.52690270883E+03  0.54304320132E+03  0.12934677354E+03 0.  0.
         25    2    3    3    0    0 -0.18703080904E+02  0.13749940485E+02  0.26021775700E+03  0.29077757351E+03  0.12766929976E+03 0.  0.
          5    1    4    4  502    0 -0.20070480090E+02  0.50713559827E+02  0.26009695879E+03  0.26579542376E+03  0.47000000000E+01 0.  1.
         -5    1    4    4    0  502  0.38773560994E+02 -0.64463500312E+02  0.26680575005E+03  0.27724777756E+03  0.47000000000E+01 0.  1.
          5    1    5    5  503    0 -0.71585408220E+00  0.25031724556E+02  0.26683337043E+03  0.26804708030E+03  0.47000000000E+01 0.  1.
         -5    1    5    5    0  503 -0.17987226822E+02 -0.11281784071E+02 -0.66156134348E+01  0.22730493212E+02  0.47000000000E+01 0.  1.
<mgrwt>
<rscale>  0 0.27513353E+03</rscale>
<asrwt>0</asrwt>
<pdfrwt beam="1">  1        2 0.12468777E+00 0.27513353E+03</pdfrwt>
<pdfrwt beam="2">  1       -2 0.35923321E-02 0.27513353E+03</pdfrwt>
<totfact> 0.11238442E+04</totfact>
</mgrwt>
</event>
<event>
 8    1  0.2024718E-002  0.2916396E+03  0.7818608E-02  0.1089496E+00
          1   -1    0    0  501    0  0.00000000000E+00  0.00000000000E+00  0.10845999370E+03  0.10845999370E+03  0.00000000000E+00 0. -1.
         -1   -1    0    0    0  501 -0.00000000000E+00 -0.00000000000E+00 -0.19604849632E+03  0.19604849632E+03  0.00000000000E+00 0. -1.
         25    2    1    2    0    0  0.63873859567E+02 -0.42201929172E+02 -0.58653388772E+02  0.15747398676E+03  0.12448680143E+03 0.  0.
         25    2    1    2    0    0 -0.63873859567E+02  0.42201929172E+02 -0.28935113850E+02  0.14703450326E+03  0.12215167446E+03 0.  0.
          5    1    3    3  502    0  0.32369506305E+02 -0.72114372467E+02 -0.76659067775E+02  0.11021329469E+03  0.47000000000E+01 0. -1.
         -5    1    3    3    0  502  0.31504353262E+02  0.29912443295E+02  0.18005679002E+02  0.47260692067E+02  0.47000000000E+01 0. -1.
          5    1    4    4  503    0  0.20430308095E+02  0.32261905340E+02  0.25430896451E+02  0.46119936246E+02  0.47000000000E+01 0.  1.
         -5    1    4    4    0  503 -0.84304167662E+02  0.99400238318E+01 -0.54366010301E+02  0.10091456701E+03  0.47000000000E+01 0.  1.
<mgrwt>
<rscale>  0 0.29163963E+03</rscale>
<asrwt>0</asrwt>
<pdfrwt beam="1">  1        1 0.16686153E-01 0.29163963E+03</pdfrwt>
<pdfrwt beam="2">  1       -1 0.30161307E-01 0.29163963E+03</pdfrwt>
<totfact> 0.32690628E+03</totfact>
</mgrwt>
</event>
<event>
 9    1  0.2024718E-002  0.2751486E+03  0.7818608E-02  0.1098369E+00
          2   -1    0    0  501    0  0.00000000000E+00  0.00000000000E+00  0.26876264317E+04  0.26876264317E+04  0.00000000000E+00 0. -1.
         -2   -1    0    0    0  501 -0.00000000000E+00 -0.00000000000E+00 -0.70421595008E+01  0.70421595008E+01  0.00000000000E+00 0. -1.
         36    2    1    2    0    0  0.00000000000E+00  0.00000000000E+00  0.26805842722E+04  0.26946685912E+04  0.27514864354E+03 0.  0.
         25    2    3    3    0    0 -0.46619608720E+01 -0.56465171709E+02  0.13042562326E+04  0.13115376667E+04  0.12584387680E+03 0.  0.
         25    2    3    3    0    0  0.46619608720E+01  0.56465171709E+02  0.13763280396E+04  0.13831309245E+04  0.12474867657E+03 0.  0.
          5    1    4    4  502    0 -0.31332405238E+02 -0.45818714226E+02  0.12370329986E+04  0.12382866404E+04  0.47000000000E+01 0. -1.
         -5    1    4    4    0  502  0.26670444366E+02 -0.10646457483E+02  0.67223234046E+02  0.73251026308E+02  0.47000000000E+01 0. -1.
          5    1    5    5  503    0 -0.56998340450E+02  0.70568733257E+01  0.62003855964E+03  0.62271061956E+03  0.47000000000E+01 0.  1.
         -5    1    5    5    0  503  0.61660301322E+02  0.49408298384E+02  0.75628947993E+03  0.76042030493E+03  0.47000000000E+01 0.  1.
<mgrwt>
<rscale>  0 0.27514864E+03</rscale>
<asrwt>0</asrwt>
<pdfrwt beam="1">  1        2 0.41348017E+00 0.27514864E+03</pdfrwt>
<pdfrwt beam="2">  1       -2 0.10834113E-02 0.27514864E+03</pdfrwt>
<totfact> 0.59873197E+03</totfact>
</mgrwt>
</event>
<event>
 9    1  0.2024718E-002  0.2750505E+03  0.7818608E-02  0.1098423E+00
         -1   -1    0    0    0  501 -0.00000000000E+00  0.00000000000E+00  0.19121351758E+02  0.19121351758E+02  0.00000000000E+00 0. -1.
          1   -1    0    0  501    0  0.00000000000E+00 -0.00000000000E+00 -0.98911372586E+03  0.98911372586E+03  0.00000000000E+00 0. -1.
         36    2    1    2    0    0 -0.14210854715E-13 -0.35527136788E-14 -0.96999237411E+03  0.10082350776E+04  0.27505047886E+03 0.  0.
         25    2    3    3    0    0 -0.62953112307E+02 -0.25067257232E+02 -0.52743871927E+03  0.54347692647E+03  0.11217889854E+03 0.  0.
         25    2    3    3    0    0  0.62953112307E+02  0.25067257232E+02 -0.44255365483E+03  0.46475815115E+03  0.12471944485E+03 0.  0.
          5    1    4    4  502    0 -0.66555002147E+01  0.14394394627E+02 -0.38387284639E+03  0.38422902867E+03  0.47000000000E+01 0.  1.
         -5    1    4    4    0  502 -0.56297612093E+02 -0.39461651859E+02 -0.14356587288E+03  0.15924789779E+03  0.47000000000E+01 0.  1.
          5    1    5    5  503    0  0.10015535717E+03  0.18524518744E+02 -0.28561484780E+03  0.30326916204E+03  0.47000000000E+01 0.  1.
         -5    1    5    5    0  503 -0.37202244866E+02  0.65427384883E+01 -0.15693880704E+03  0.16148898911E+03  0.47000000000E+01 0.  1.
<mgrwt>
<rscale>  0 0.27505048E+03</rscale>
<asrwt>0</asrwt>
<pdfrwt beam="1">  1        1 0.15217143E+00 0.27505048E+03</pdfrwt>
<pdfrwt beam="2">  1       -1 0.29417447E-02 0.27505048E+03</pdfrwt>
<totfact> 0.63234925E+03</totfact>
</mgrwt>
</event>
<event>
 9    1  0.2024718E-002  0.2775441E+03  0.7818608E-02  0.1097038E+00
          1   -1    0    0  501    0  0.00000000000E+00  0.00000000000E+00  0.52672159752E+02  0.52672159752E+02  0.00000000000E+00 0. -1.
         -1   -1    0    0    0  501 -0.00000000000E+00 -0.00000000000E+00 -0.36561397759E+03  0.36561397759E+03  0.00000000000E+00 0. -1.
         36    2    1    2    0    0  0.00000000000E+00  0.00000000000E+00 -0.31294181784E+03  0.41828613734E+03  0.27754407099E+03 0.  0.
         25    2    3    3    0    0 -0.62412740525E+02  0.45739650079E+01 -0.14492787497E+03  0.20257841103E+03  0.12695531630E+03 0.  0.
         25    2    3    3    0    0  0.62412740525E+02 -0.45739650079E+01 -0.16801394287E+03  0.21570772631E+03  0.11993692865E+03 0.  0.
          5    1    4    4  502    0 -0.10234510016E+02  0.45813540228E+01 -0.14949651084E+03  0.14999010219E+03  0.47000000000E+01 0. -1.
         -5    1    4    4    0  502 -0.52178230509E+02 -0.73890149348E-02  0.45686358726E+01  0.52588308847E+02  0.47000000000E+01 0. -1.
          5    1    5    5  503    0 -0.23637050885E+02 -0.16362378259E+02 -0.31418836432E+01  0.29298447564E+02  0.47000000000E+01 0. -1.
         -5    1    5    5    0  503  0.86049791410E+02  0.11788413251E+02 -0.16487205922E+03  0.18640927874E+03  0.47000000000E+01 0. -1.
<mgrwt>
<rscale>  0 0.27754407E+03</rscale>
<asrwt>0</asrwt>
<pdfrwt beam="1">  1        1 0.81034094E-02 0.27754407E+03</pdfrwt>
<pdfrwt beam="2">  1       -1 0.56248303E-01 0.27754407E+03</pdfrwt>
<totfact> 0.28030990E+03</totfact>
</mgrwt>
</event>
<event>
 9    1  0.2024718E-002  0.2748461E+03  0.7818608E-02  0.1098538E+00
         -4   -1    0    0    0  501 -0.00000000000E+00  0.00000000000E+00  0.20989155451E+02  0.20989155451E+02  0.00000000000E+00 0. -1.
          4   -1    0    0  501    0  0.00000000000E+00 -0.00000000000E+00 -0.89975491649E+03  0.89975491649E+03  0.00000000000E+00 0. -1.
         36    2    1    2    0    0  0.00000000000E+00  0.00000000000E+00 -0.87876576104E+03  0.92074407194E+03  0.27484610829E+03 0.  0.
         25    2    3    3    0    0  0.17207705298E+02 -0.49435470145E+02 -0.42746590982E+03  0.44923554514E+03  0.12784952141E+03 0.  0.
         25    2    3    3    0    0 -0.17207705298E+02  0.49435470145E+02 -0.45129985121E+03  0.47150852680E+03  0.12612995010E+03 0.  0.
          5    1    4    4  502    0  0.17199263779E+02 -0.91809087047E+02 -0.32666750135E+03  0.33979180328E+03  0.47000000000E+01 0. -1.
         -5    1    4    4    0  502  0.84415194465E-02  0.42373616902E+02 -0.10079840847E+03  0.10944374185E+03  0.47000000000E+01 0. -1.
          5    1    5    5  503    0 -0.53972073936E+02  0.71679189778E+02 -0.25098673604E+03  0.26658455071E+03  0.47000000000E+01 0. -1.
         -5    1    5    5    0  503  0.36764368638E+02 -0.22243719634E+02 -0.20031311518E+03  0.20492397609E+03  0.47000000000E+01 0. -1.
<mgrwt>
<rscale>  0 0.27484611E+03</rscale>
<asrwt>0</asrwt>
<pdfrwt beam="1">  1        4 0.13842380E+00 0.27484611E+03</pdfrwt>
<pdfrwt beam="2">  1       -4 0.32291017E-02 0.27484611E+03</pdfrwt>
<totfact> 0.34914035E+02</totfact>
</mgrwt>
</event>
<event>
 9    1  0.2024718E-002  0.2749133E+03  0.7818608E-02  0.1098500E+00
         -1   -1    0    0    0  501 -0.00000000000E+00  0.00000000000E+00  0.15194045814E+03  0.15194045814E+03  0.00000000000E+00 0.  1.
          1   -1    0    0  501    0  0.00000000000E+00 -0.00000000000E+00 -0.12435352697E+03  0.12435352697E+03  0.00000000000E+00 0.  1.
         36    2    1    2    0    0  0.00000000000E+00  0.71054273576E-14  0.27586931174E+02  0.27629398511E+03  0.27491330895E+03 0.  0.
         25    2    3    3    0    0  0.29985334997E+02  0.50468811300E+02 -0.13009375328E+02  0.13865025024E+03  0.12493368967E+03 0.  0.
         25    2    3    3    0    0 -0.29985334997E+02 -0.50468811300E+02  0.40596306501E+02  0.13764373488E+03  0.11769246544E+03 0.  0.
          5    1    4    4  502    0  0.20116958933E+02  0.90552325215E+02  0.57658778111E+01  0.93057783047E+02  0.47000000000E+01 0. -1.
         -5    1    4    4    0  502  0.98683760643E+01 -0.40083513915E+02 -0.18775253139E+02  0.45592467189E+02  0.47000000000E+01 0. -1.
          5    1    5    5  503    0 -0.59595402591E+02 -0.33532418483E+02 -0.16926797540E+02  0.70601994124E+02  0.47000000000E+01 0. -1.
         -5    1    5    5    0  503  0.29610067594E+02 -0.16936392817E+02  0.57523104041E+02  0.67041740752E+02  0.47000000000E+01 0. -1.
<mgrwt>
<rscale>  0 0.27491331E+03</rscale>
<asrwt>0</asrwt>
<pdfrwt beam="1">  1        1 0.19131312E-01 0.27491331E+03</pdfrwt>
<pdfrwt beam="2">  1       -1 0.23375455E-01 0.27491331E+03</pdfrwt>
<totfact> 0.41900792E+03</totfact>
</mgrwt>
</event>
<event>
 9    1  0.2024718E-002  0.2749243E+03  0.7818608E-02  0.1098494E+00
         -2   -1    0    0    0  501 -0.00000000000E+00  0.00000000000E+00  0.14926418997E+02  0.14926418997E+02  0.00000000000E+00 0.  1.
          2   -1    0    0  501    0  0.00000000000E+00 -0.00000000000E+00 -0.12659330911E+04  0.12659330911E+04  0.00000000000E+00 0.  1.
         36    2    1    2    0    0  0.00000000000E+00  0.35527136788E-14 -0.12510066721E+04  0.12808595101E+04  0.27492433679E+03 0.  0.
         25    2    3    3    0    0 -0.26718977970E+02 -0.48936992637E+01 -0.40859259664E+03  0.42884992309E+03  0.12738325806E+03 0.  0.
         25    2    3    3    0    0  0.26718977970E+02  0.48936992637E+01 -0.84241407548E+03  0.85200958701E+03  0.12458334450E+03 0.  0.
          5    1    4    4  502    0 -0.43116692521E+01 -0.65303599583E+02 -0.21048635940E+03  0.22047618489E+03  0.47000000000E+01 0.  1.
         -5    1    4    4    0  502 -0.22407308718E+02  0.60409900319E+02 -0.19810623723E+03  0.20837373820E+03  0.47000000000E+01 0.  1.
          5    1    5    5  503    0  0.64510642201E+02  0.28708282127E+02 -0.32321480529E+03  0.33087110599E+03  0.47000000000E+01 0. -1.
         -5    1    5    5    0  503 -0.37791664231E+02 -0.23814582864E+02 -0.51919927018E+03  0.52113848102E+03  0.47000000000E+01 0. -1.
<mgrwt>
<rscale>  0 0.27492434E+03</rscale>
<asrwt>0</asrwt>
<pdfrwt beam="1">  1        2 0.19475894E+00 0.27492434E+03</pdfrwt>
<pdfrwt beam="2">  1       -2 0.22963721E-02 0.27492434E+03</pdfrwt>
<totfact> 0.11544770E+04</totfact>
</mgrwt>
</event>
<event>
 9    1  0.2024718E-002  0.2758416E+03  0.7818608E-02  0.1097982E+00
          4   -1    0    0  501    0  0.00000000000E+00  0.00000000000E+00  0.10057750725E+04  0.10057750725E+04  0.00000000000E+00 0. -1.
         -4   -1    0    0    0  501 -0.00000000000E+00 -0.00000000000E+00 -0.18912920666E+02  0.18912920666E+02  0.00000000000E+00 0. -1.
         36    2    1    2    0    0  0.00000000000E+00  0.00000000000E+00  0.98686215188E+03  0.10246879932E+04  0.27584157884E+03 0.  0.
         25    2    3    3    0    0  0.59377464380E+02  0.43134686223E+02  0.58123224875E+03  0.59466568722E+03  0.10202974146E+03 0.  0.
         25    2    3    3    0    0 -0.59377464380E+02 -0.43134686223E+02  0.40562990313E+03  0.43002230599E+03  0.12246338597E+03 0.  0.
          5    1    4    4  502    0  0.13410896247E+02 -0.11614734282E+02  0.39036276326E+03  0.39079397530E+03  0.47000000000E+01 0. -1.
         -5    1    4    4    0  502  0.45966568133E+02  0.54749420505E+02  0.19086948548E+03  0.20387171192E+03  0.47000000000E+01 0. -1.
          5    1    5    5  503    0 -0.49731425184E+02  0.29771379900E+02  0.10042109426E+03  0.11604325006E+03  0.47000000000E+01 0.  1.
         -5    1    5    5    0  503 -0.96460391953E+01 -0.72906066122E+02  0.30520880887E+03  0.31397905593E+03  0.47000000000E+01 0.  1.
<mgrwt>
<rscale>  0 0.27584158E+03</rscale>
<asrwt>0</asrwt>
<pdfrwt beam="1">  1        4 0.15473458E+00 0.27584158E+03</pdfrwt>
<pdfrwt beam="2">  1       -4 0.29096809E-02 0.27584158E+03</pdfrwt>
<totfact> 0.30916380E+02</totfact>
</mgrwt>
</event>
<event>
 9    1  0.2024718E-002  0.2748503E+03  0.7818608E-02  0.1098535E+00
         -4   -1    0    0    0  501 -0.00000000000E+00  0.00000000000E+00  0.14606710353E+03  0.14606710353E+03  0.00000000000E+00 0.  1.
          4   -1    0    0  501    0  0.00000000000E+00 -0.00000000000E+00 -0.12929445207E+03  0.12929445207E+03  0.00000000000E+00 0.  1.
         36    2    1    2    0    0  0.00000000000E+00  0.71054273576E-14  0.16772651461E+02  0.27536155560E+03  0.27485025826E+03 0.  0.
         25    2    3    3    0    0 -0.11726997944E+01  0.41968971634E+02  0.88181850092E+01  0.14275499324E+03  0.13615600576E+03 0.  0.
         25    2    3    3    0    0  0.11726997944E+01 -0.41968971634E+02  0.79544664521E+01  0.13260656236E+03  0.12553269311E+03 0.  0.
          5    1    4    4  502    0 -0.41502392684E+02 -0.32425781820E+02 -0.14543839708E+02  0.54840616322E+02  0.47000000000E+01 0. -1.
         -5    1    4    4    0  502  0.40329692890E+02  0.74394753455E+02  0.23362024717E+02  0.87914376919E+02  0.47000000000E+01 0. -1.
          5    1    5    5  503    0  0.61844929866E+02 -0.23814316305E+02 -0.85675554250E+01  0.66988133406E+02  0.47000000000E+01 0.  1.
         -5    1    5    5    0  503 -0.60672230072E+02 -0.18154655329E+02  0.16522021877E+02  0.65618428958E+02  0.47000000000E+01 0.  1.
<mgrwt>
<rscale>  0 0.27485026E+03</rscale>
<asrwt>0</asrwt>
<pdfrwt beam="1">  1        4 0.19891454E-01 0.27485026E+03</pdfrwt>
<pdfrwt beam="2">  1       -4 0.22471862E-01 0.27485026E+03</pdfrwt>
<totfact> 0.77952391E+02</totfact>
</mgrwt>
</event>
<event>
 9    1  0.2024718E-002  0.2761145E+03  0.7818608E-02  0.1097830E+00
          2   -1    0    0  501    0  0.00000000000E+00  0.00000000000E+00  0.17290476087E+02  0.17290476087E+02  0.00000000000E+00 0. -1.
         -2   -1    0    0    0  501 -0.00000000000E+00 -0.00000000000E+00 -0.11023295522E+04  0.11023295522E+04  0.00000000000E+00 0. -1.
         36    2    1    2    0    0  0.71054273576E-14  0.00000000000E+00 -0.10850390761E+04  0.11196200282E+04  0.27611448902E+03 0.  0.
         25    2    3    3    0    0 -0.11578712888E+02 -0.47253614757E+02 -0.91967847036E+03  0.92936312730E+03  0.12466099164E+03 0.  0.
         25    2    3    3    0    0  0.11578712888E+02  0.47253614757E+02 -0.16536060571E+03  0.19025690095E+03  0.80539355209E+02 0.  0.
          5    1    4    4  502    0  0.44688184467E+02 -0.60448321750E+02 -0.55953071677E+03  0.56457749374E+03  0.47000000000E+01 0.  1.
         -5    1    4    4    0  502 -0.56266897355E+02  0.13194706992E+02 -0.36014775359E+03  0.36478563355E+03  0.47000000000E+01 0.  1.
          5    1    5    5  503    0  0.49547023954E+01  0.69245856976E+02 -0.13521453806E+03  0.15206774506E+03  0.47000000000E+01 0.  1.
         -5    1    5    5    0  503  0.66240104924E+01 -0.21992242218E+02 -0.30146067651E+02  0.38189155891E+02  0.47000000000E+01 0.  1.
<mgrwt>
<rscale>  0 0.27611449E+03</rscale>
<asrwt>0</asrwt>
<pdfrwt beam="1">  1        2 0.26600737E-02 0.27611449E+03</pdfrwt>
<pdfrwt beam="2">  1       -2 0.16958913E+00 0.27611449E+03</pdfrwt>
<totfact> 0.84667932E+02</totfact>
</mgrwt>
</event>
<event>
 9    1  0.2024718E-002  0.2758900E+03  0.7818608E-02  0.1097955E+00
          1   -1    0    0  501    0  0.00000000000E+00  0.00000000000E+00  0.46269081119E+03  0.46269081119E+03  0.00000000000E+00 0. -1.
         -1   -1    0    0    0  501 -0.00000000000E+00 -0.00000000000E+00 -0.41126435767E+02  0.41126435767E+02  0.00000000000E+00 0. -1.
         36    2    1    2    0    0  0.00000000000E+00  0.00000000000E+00  0.42156437543E+03  0.50381724696E+03  0.27589000653E+03 0.  0.
         25    2    3    3    0    0 -0.54789567155E+02  0.13659183189E+02  0.15562366781E+03  0.20647962386E+03  0.12339626872E+03 0.  0.
         25    2    3    3    0    0  0.54789567155E+02 -0.13659183189E+02  0.26594070761E+03  0.29733762310E+03  0.12040237617E+03 0.  0.
          5    1    4    4  502    0 -0.10565909696E+02  0.43202121386E+02  0.14539456256E+03  0.15211748933E+03  0.47000000000E+01 0. -1.
         -5    1    4    4    0  502 -0.44223657459E+02 -0.29542938198E+02  0.10229105257E+02  0.54362134531E+02  0.47000000000E+01 0. -1.
          5    1    5    5  503    0  0.50731198047E+02 -0.55216159207E+02  0.23028178041E+03  0.24222771741E+03  0.47000000000E+01 0. -1.
         -5    1    5    5    0  503  0.40583691078E+01  0.41556976018E+02  0.35658927209E+02  0.55109905691E+02  0.47000000000E+01 0. -1.
<mgrwt>
<rscale>  0 0.27589001E+03</rscale>
<asrwt>0</asrwt>
<pdfrwt beam="1">  1        1 0.71183198E-01 0.27589001E+03</pdfrwt>
<pdfrwt beam="2">  1       -1 0.63271443E-02 0.27589001E+03</pdfrwt>
<totfact> 0.61412677E+03</totfact>
</mgrwt>
</event>
<event>
 9    1  0.2024718E-002  0.2743563E+03  0.7818608E-02  0.1098812E+00
         -1   -1    0    0    0  501 -0.00000000000E+00  0.00000000000E+00  0.46496735174E+03  0.46496735174E+03  0.00000000000E+00 0.  1.
          1   -1    0    0  501    0  0.00000000000E+00 -0.00000000000E+00 -0.40471314601E+02  0.40471314601E+02  0.00000000000E+00 0.  1.
         36    2    1    2    0    0  0.00000000000E+00  0.00000000000E+00  0.42449603714E+03  0.50543866634E+03  0.27435626453E+03 0.  0.
         25    2    3    3    0    0 -0.42558770679E+01  0.50663540201E+02  0.25883423180E+03  0.29126685635E+03  0.12351645746E+03 0.  0.
         25    2    3    3    0    0  0.42558770679E+01 -0.50663540201E+02  0.16566180534E+03  0.21417180999E+03  0.12586033390E+03 0.  0.
          5    1    4    4  502    0 -0.52948983338E+02  0.52849950160E+02  0.20607597158E+03  0.21928544898E+03  0.47000000000E+01 0.  1.
         -5    1    4    4    0  502  0.48693106270E+02 -0.21864099591E+01  0.52758260216E+02  0.71981407376E+02  0.47000000000E+01 0.  1.
          5    1    5    5  503    0 -0.55647451076E+02 -0.43336976262E+02  0.61492183578E+02  0.93691573602E+02  0.47000000000E+01 0. -1.
         -5    1    5    5    0  503  0.59903328144E+02 -0.73265639389E+01  0.10416962176E+03  0.12048023638E+03  0.47000000000E+01 0. -1.
<mgrwt>
<rscale>  0 0.27435626E+03</rscale>
<asrwt>0</asrwt>
<pdfrwt beam="1">  1        1 0.62263564E-02 0.27435626E+03</pdfrwt>
<pdfrwt beam="2">  1       -1 0.71533435E-01 0.27435626E+03</pdfrwt>
<totfact> 0.25134790E+03</totfact>
</mgrwt>
</event>
<event>
 9    1  0.2024718E-002  0.2755467E+03  0.7818608E-02  0.1098146E+00
          2   -1    0    0  501    0  0.00000000000E+00  0.00000000000E+00  0.73529215474E+02  0.73529215474E+02  0.00000000000E+00 0.  1.
         -2   -1    0    0    0  501 -0.00000000000E+00 -0.00000000000E+00 -0.25814905544E+03  0.25814905544E+03  0.00000000000E+00 0.  1.
         36    2    1    2    0    0  0.35527136788E-14 -0.71054273576E-14 -0.18461983997E+03  0.33167827091E+03  0.27554671126E+03 0.  0.
         25    2    3    3    0    0  0.16696369703E+02 -0.39971392166E+02 -0.13483320039E+03  0.18941661888E+03  0.12578625770E+03 0.  0.
         25    2    3    3    0    0 -0.16696369703E+02  0.39971392166E+02 -0.49786639581E+02  0.14226165204E+03  0.12602851744E+03 0.  0.
          5    1    4    4  502    0  0.28979174829E+02  0.37976261031E+02 -0.25076349781E+02  0.54156276589E+02  0.47000000000E+01 0.  1.
         -5    1    4    4    0  502 -0.12282805125E+02 -0.77947653197E+02 -0.10975685061E+03  0.13526034229E+03  0.47000000000E+01 0.  1.
          5    1    5    5  503    0 -0.25254354607E+02  0.60897739740E+02 -0.80295544171E+02  0.10399894973E+03  0.47000000000E+01 0.  1.
         -5    1    5    5    0  503  0.85579849034E+01 -0.20926347574E+02  0.30508904590E+02  0.38262702305E+02  0.47000000000E+01 0.  1.
<mgrwt>
<rscale>  0 0.27554671E+03</rscale>
<asrwt>0</asrwt>
<pdfrwt beam="1">  1        2 0.11312187E-01 0.27554671E+03</pdfrwt>
<pdfrwt beam="2">  1       -2 0.39715240E-01 0.27554671E+03</pdfrwt>
<totfact> 0.33050104E+03</totfact>
</mgrwt>
</event>
<event>
 9    1  0.2024718E-002  0.2751561E+03  0.7818608E-02  0.1098364E+00
         -2   -1    0    0    0  501 -0.00000000000E+00  0.00000000000E+00  0.29820270372E+02  0.29820270372E+02  0.00000000000E+00 0.  1.
          2   -1    0    0  501    0  0.00000000000E+00 -0.00000000000E+00 -0.63472662876E+03  0.63472662876E+03  0.00000000000E+00 0.  1.
         36    2    1    2    0    0 -0.71054273576E-14 -0.35527136788E-14 -0.60490635838E+03  0.66454689913E+03  0.27515609884E+03 0.  0.
         25    2    3    3    0    0 -0.56528081518E+02 -0.10548975164E+02 -0.26077374174E+03  0.29449727452E+03  0.12417324768E+03 0.  0.
         25    2    3    3    0    0  0.56528081518E+02  0.10548975164E+02 -0.34413261664E+03  0.37004962461E+03  0.12329948078E+03 0.  0.
          5    1    4    4  502    0 -0.17040291793E+02  0.36145983004E+02 -0.21296239291E+03  0.21673018808E+03  0.47000000000E+01 0. -1.
         -5    1    4    4    0  502 -0.39487789724E+02 -0.46694958168E+02 -0.47811348831E+02  0.77767086436E+02  0.47000000000E+01 0. -1.
          5    1    5    5  503    0  0.94067190502E+02  0.65320806752E+01 -0.27992123108E+03  0.29541376071E+03  0.47000000000E+01 0. -1.
         -5    1    5    5    0  503 -0.37539108984E+02  0.40168944885E+01 -0.64211385565E+02  0.74635863905E+02  0.47000000000E+01 0. -1.
<mgrwt>
<rscale>  0 0.27515610E+03</rscale>
<asrwt>0</asrwt>
<pdfrwt beam="1">  1        2 0.97650238E-01 0.27515610E+03</pdfrwt>
<pdfrwt beam="2">  1       -2 0.45877345E-02 0.27515610E+03</pdfrwt>
<totfact> 0.10492159E+04</totfact>
</mgrwt>
</event>
<event>
 9    1  0.2024718E-002  0.2752305E+03  0.7818608E-02  0.1098323E+00
         -1   -1    0    0    0  501 -0.00000000000E+00  0.00000000000E+00  0.11274405061E+04  0.11274405061E+04  0.00000000000E+00 0. -1.
          1   -1    0    0  501    0  0.00000000000E+00 -0.00000000000E+00 -0.16797303383E+02  0.16797303383E+02  0.00000000000E+00 0. -1.
         36    2    1    2    0    0  0.00000000000E+00 -0.35527136788E-14  0.11106432027E+04  0.11442378095E+04  0.27523052321E+03 0.  0.
         25    2    3    3    0    0  0.32216302776E+02 -0.23919543238E+02  0.42277543713E+03  0.44208655452E+03  0.12284712751E+03 0.  0.
         25    2    3    3    0    0 -0.32216302776E+02  0.23919543238E+02  0.68786776556E+03  0.70215125493E+03  0.13507141516E+03 0.  0.
          5    1    4    4  502    0  0.42339677304E+02  0.15039442628E+02  0.38177100078E+03  0.38443467605E+03  0.47000000000E+01 0. -1.
         -5    1    4    4    0  502 -0.10123374528E+02 -0.38958985866E+02  0.41004436342E+02  0.57651878471E+02  0.47000000000E+01 0. -1.
          5    1    5    5  503    0  0.45258792403E+02  0.30357975610E+02  0.40792828302E+03  0.41157932293E+03  0.47000000000E+01 0.  1.
         -5    1    5    5    0  503 -0.77475095179E+02 -0.64384323720E+01  0.27993948254E+03  0.29057193200E+03  0.47000000000E+01 0.  1.
<mgrwt>
<rscale>  0 0.27523052E+03</rscale>
<asrwt>0</asrwt>
<pdfrwt beam="1">  1        1 0.25842014E-02 0.27523052E+03</pdfrwt>
<pdfrwt beam="2">  1       -1 0.17345233E+00 0.27523052E+03</pdfrwt>
<totfact> 0.10700276E+03</totfact>
</mgrwt>
</event>
<event>
 8    1  0.2024718E-002  0.2930934E+03  0.7818608E-02  0.1088745E+00
          2   -1    0    0  501    0  0.00000000000E+00  0.00000000000E+00  0.25605152623E+04  0.25605152623E+04  0.00000000000E+00 0.  1.
         -2   -1    0    0    0  501 -0.00000000000E+00 -0.00000000000E+00 -0.83873462319E+01  0.83873462319E+01  0.00000000000E+00 0.  1.
         25    2    1    2    0    0 -0.12802462953E+01 -0.71716843209E+02  0.12487643867E+04  0.12571030957E+04  0.12550201186E+03 0.  0.
         25    2    1    2    0    0  0.12802462953E+01  0.71716843209E+02  0.13033635294E+04  0.13117995129E+04  0.13006355243E+03 0.  0.
          5    1    3    3  502    0  0.45398394492E+02 -0.83693891536E+02  0.76325020455E+03  0.76918050317E+03  0.47000000000E+01 0.  1.
         -5    1    3    3    0  502 -0.46678640787E+02  0.11977048327E+02  0.48551418217E+03  0.48792259251E+03  0.47000000000E+01 0.  1.
          5    1    4    4  503    0  0.37391886952E+02  0.80571547030E+01  0.11725280542E+03  0.12342358499E+03  0.47000000000E+01 0.  1.
         -5    1    4    4    0  503 -0.36111640657E+02  0.63659688506E+02  0.11861107239E+04  0.11883759279E+04  0.47000000000E+01 0.  1.
<mgrwt>
<rscale>  0 0.29309335E+03</rscale>
<asrwt>0</asrwt>
<pdfrwt beam="1">  1        2 0.39392480E+00 0.29309335E+03</pdfrwt>
<pdfrwt beam="2">  1       -2 0.12903630E-02 0.29309335E+03</pdfrwt>
<totfact> 0.54597958E+03</totfact>
</mgrwt>
</event>
<event>
 9    1  0.2024718E-002  0.2756222E+03  0.7818608E-02  0.1098104E+00
          1   -1    0    0  501    0  0.00000000000E+00  0.00000000000E+00  0.18949720152E+03  0.18949720152E+03  0.00000000000E+00 0.  1.
         -1   -1    0    0    0  501 -0.00000000000E+00 -0.00000000000E+00 -0.10022257330E+03  0.10022257330E+03  0.00000000000E+00 0.  1.
         36    2    1    2    0    0 -0.71054273576E-14  0.00000000000E+00  0.89274628222E+02  0.28971977481E+03  0.27562218465E+03 0.  0.
         25    2    3    3    0    0  0.30539479301E+02  0.12644401337E+02 -0.23697872014E+02  0.12062381723E+03  0.11356044850E+03 0.  0.
         25    2    3    3    0    0 -0.30539479301E+02 -0.12644401337E+02  0.11297250024E+03  0.16909595758E+03  0.12140064407E+03 0.  0.
          5    1    4    4  502    0 -0.16395210252E+02  0.52490870082E+02 -0.20217879132E+02  0.58778797179E+02  0.47000000000E+01 0. -1.
         -5    1    4    4    0  502  0.46934689553E+02 -0.39846468745E+02 -0.34799928824E+01  0.61845020053E+02  0.47000000000E+01 0. -1.
          5    1    5    5  503    0 -0.66494499803E+02 -0.23637179036E+02  0.28017748430E+02  0.76074430421E+02  0.47000000000E+01 0.  1.
         -5    1    5    5    0  503  0.35955020502E+02  0.10992777698E+02  0.84954751806E+02  0.93021527160E+02  0.47000000000E+01 0.  1.
<mgrwt>
<rscale>  0 0.27562218E+03</rscale>
<asrwt>0</asrwt>
<pdfrwt beam="1">  1        1 0.29153416E-01 0.27562218E+03</pdfrwt>
<pdfrwt beam="2">  1       -1 0.15418857E-01 0.27562218E+03</pdfrwt>
<totfact> 0.47993421E+03</totfact>
</mgrwt>
</event>
<event>
 9    1  0.2024718E-002  0.2705671E+03  0.7818608E-02  0.1100955E+00
          1   -1    0    0  501    0  0.00000000000E+00  0.00000000000E+00  0.12069138005E+03  0.12069138005E+03  0.00000000000E+00 0. -1.
         -1   -1    0    0    0  501 -0.00000000000E+00 -0.00000000000E+00 -0.15164000386E+03  0.15164000386E+03  0.00000000000E+00 0. -1.
         36    2    1    2    0    0 -0.71054273576E-14  0.35527136788E-14 -0.30948623816E+02  0.27233138391E+03  0.27056711800E+03 0.  0.
         25    2    3    3    0    0 -0.46145998224E+02  0.30854864706E+02 -0.19501013430E+02  0.13694419868E+03  0.12366061701E+03 0.  0.
         25    2    3    3    0    0  0.46145998224E+02 -0.30854864706E+02 -0.11447610385E+02  0.13538718523E+03  0.12295188617E+03 0.  0.
          5    1    4    4  502    0 -0.27816160605E+01 -0.14169782886E+02 -0.60277631343E+02  0.62161105003E+02  0.47000000000E+01 0. -1.
         -5    1    4    4    0  502 -0.43364382164E+02  0.45024647592E+02  0.40776617912E+02  0.74783093675E+02  0.47000000000E+01 0. -1.
          5    1    5    5  503    0 -0.57744387858E+01  0.35225280229E+02  0.24827628574E+02  0.43734033099E+02  0.47000000000E+01 0.  1.
         -5    1    5    5    0  503  0.51920437010E+02 -0.66080144935E+02 -0.36275238959E+02  0.91653152131E+02  0.47000000000E+01 0.  1.
<mgrwt>
<rscale>  0 0.27056712E+03</rscale>
<asrwt>0</asrwt>
<pdfrwt beam="1">  1        1 0.18567905E-01 0.27056712E+03</pdfrwt>
<pdfrwt beam="2">  1       -1 0.23329231E-01 0.27056712E+03</pdfrwt>
<totfact> 0.43673134E+03</totfact>
</mgrwt>
</event>
<event>
 9    1  0.2024718E-002  0.2748902E+03  0.7818608E-02  0.1098513E+00
         -2   -1    0    0    0  501 -0.00000000000E+00  0.00000000000E+00  0.10929670275E+04  0.10929670275E+04  0.00000000000E+00 0. -1.
          2   -1    0    0  501    0  0.00000000000E+00 -0.00000000000E+00 -0.17284288676E+02  0.17284288676E+02  0.00000000000E+00 0. -1.
         36    2    1    2    0    0  0.00000000000E+00  0.00000000000E+00  0.10756827388E+04  0.11102513161E+04  0.27489021529E+03 0.  0.
         25    2    3    3    0    0  0.19340596803E+02 -0.51262994370E+02  0.63794139588E+03  0.65214835291E+03  0.12379941982E+03 0.  0.
         25    2    3    3    0    0 -0.19340596803E+02  0.51262994370E+02  0.43774134289E+03  0.45810296321E+03  0.12344589241E+03 0.  0.
          5    1    4    4  502    0  0.47572018220E+02  0.15201470996E+02  0.40843293303E+03  0.41150180124E+03  0.47000000000E+01 0. -1.
         -5    1    4    4    0  502 -0.28231421417E+02 -0.66464465366E+02  0.22950846285E+03  0.24064655167E+03  0.47000000000E+01 0. -1.
          5    1    5    5  503    0 -0.79312811457E+01  0.22593202353E+02  0.42279116515E+03  0.42349476661E+03  0.47000000000E+01 0.  1.
         -5    1    5    5    0  503 -0.11409315657E+02  0.28669792017E+02  0.14950177740E+02  0.34608196609E+02  0.47000000000E+01 0.  1.
<mgrwt>
<rscale>  0 0.27489022E+03</rscale>
<asrwt>0</asrwt>
<pdfrwt beam="1">  1        2 0.26591222E-02 0.27489022E+03</pdfrwt>
<pdfrwt beam="2">  1       -2 0.16814872E+00 0.27489022E+03</pdfrwt>
<totfact> 0.86672733E+02</totfact>
</mgrwt>
</event>
<event>
 9    1  0.2024718E-002  0.2752458E+03  0.7818608E-02  0.1098314E+00
         -2   -1    0    0    0  501 -0.00000000000E+00  0.00000000000E+00  0.49427643822E+03  0.49427643822E+03  0.00000000000E+00 0.  1.
          2   -1    0    0  501    0  0.00000000000E+00 -0.00000000000E+00 -0.38318778375E+02  0.38318778375E+02  0.00000000000E+00 0.  1.
         36    2    1    2    0    0 -0.35527136788E-14  0.35527136788E-14  0.45595765984E+03  0.53259521659E+03  0.27524584860E+03 0.  0.
         25    2    3    3    0    0  0.16239958306E+02 -0.65771745648E+01  0.33094837329E+03  0.35576671514E+03  0.12936821229E+03 0.  0.
         25    2    3    3    0    0 -0.16239958306E+02  0.65771745648E+01  0.12500928656E+03  0.17682850145E+03  0.12383053633E+03 0.  0.
          5    1    4    4  502    0  0.34668820469E+02  0.28417213899E+02  0.30481591747E+03  0.30813032746E+03  0.47000000000E+01 0.  1.
         -5    1    4    4    0  502 -0.18428862163E+02 -0.34994388464E+02  0.26132455819E+02  0.47636387685E+02  0.47000000000E+01 0.  1.
          5    1    5    5  503    0 -0.20704799489E+02  0.52744489715E+02  0.17249561526E+02  0.59416389069E+02  0.47000000000E+01 0.  1.
         -5    1    5    5    0  503  0.44648411838E+01 -0.46167315150E+02  0.10775972503E+03  0.11741211238E+03  0.47000000000E+01 0.  1.
<mgrwt>
<rscale>  0 0.27524585E+03</rscale>
<asrwt>0</asrwt>
<pdfrwt beam="1">  1        2 0.58951970E-02 0.27524585E+03</pdfrwt>
<pdfrwt beam="2">  1       -2 0.76042525E-01 0.27524585E+03</pdfrwt>
<totfact> 0.20102683E+03</totfact>
</mgrwt>
</event>
<event>
 9    1  0.2024718E-002  0.2740067E+03  0.7818608E-02  0.1099008E+00
          4   -1    0    0  501    0  0.00000000000E+00  0.00000000000E+00  0.94920326941E+02  0.94920326941E+02  0.00000000000E+00 0.  1.
         -4   -1    0    0    0  501 -0.00000000000E+00 -0.00000000000E+00 -0.19774399303E+03  0.19774399303E+03  0.00000000000E+00 0.  1.
         36    2    1    2    0    0  0.00000000000E+00 -0.35527136788E-14 -0.10282366609E+03  0.29266431997E+03  0.27400674787E+03 0.  0.
         25    2    3    3    0    0 -0.12803156301E+02  0.86468303999E+01  0.73175145595E+01  0.12662075601E+03  0.12546147355E+03 0.  0.
         25    2    3    3    0    0  0.12803156301E+02 -0.86468303999E+01 -0.11014118065E+03  0.16604356397E+03  0.12329110662E+03 0.  0.
          5    1    4    4  502    0 -0.55555970227E+02  0.35144459973E+02  0.28547313472E+02  0.71823659063E+02  0.47000000000E+01 0. -1.
         -5    1    4    4    0  502  0.42752813926E+02 -0.26497629573E+02 -0.21229798912E+02  0.54797096944E+02  0.47000000000E+01 0. -1.
          5    1    5    5  503    0 -0.28789107530E+02  0.26818514102E+02  0.35743467861E+01  0.39785818654E+02  0.47000000000E+01 0.  1.
         -5    1    5    5    0  503  0.41592263831E+02 -0.35465344502E+02 -0.11371552744E+03  0.12625774531E+03  0.47000000000E+01 0.  1.
<mgrwt>
<rscale>  0 0.27400675E+03</rscale>
<asrwt>0</asrwt>
<pdfrwt beam="1">  1        4 0.14603127E-01 0.27400675E+03</pdfrwt>
<pdfrwt beam="2">  1       -4 0.30422152E-01 0.27400675E+03</pdfrwt>
<totfact> 0.76671435E+02</totfact>
</mgrwt>
</event>
<event>
 9    1  0.2024718E-002  0.2742425E+03  0.7818608E-02  0.1098876E+00
          1   -1    0    0  501    0  0.00000000000E+00  0.00000000000E+00  0.26409149323E+03  0.26409149323E+03  0.00000000000E+00 0.  1.
         -1   -1    0    0    0  501 -0.00000000000E+00 -0.00000000000E+00 -0.71195928731E+02  0.71195928731E+02  0.00000000000E+00 0.  1.
         36    2    1    2    0    0  0.00000000000E+00  0.00000000000E+00  0.19289556450E+03  0.33528742196E+03  0.27424251407E+03 0.  0.
         25    2    3    3    0    0  0.50914189794E+02 -0.29301240955E+02  0.11085776584E+03  0.17608862948E+03  0.12355947451E+03 0.  0.
         25    2    3    3    0    0 -0.50914189794E+02  0.29301240955E+02  0.82037798659E+02  0.15919879248E+03  0.12313909888E+03 0.  0.
          5    1    4    4  502    0 -0.19771004613E+02 -0.10115986434E+02  0.99213604274E+02  0.10177747825E+03  0.47000000000E+01 0. -1.
         -5    1    4    4    0  502  0.70685194407E+02 -0.19185254521E+02  0.11644161564E+02  0.74311151235E+02  0.47000000000E+01 0. -1.
          5    1    5    5  503    0  0.59957159789E-01  0.58237642253E+02  0.81641726063E+02  0.10039466124E+03  0.47000000000E+01 0.  1.
         -5    1    5    5    0  503 -0.50974146954E+02 -0.28936401298E+02  0.39607259533E+00  0.58804131243E+02  0.47000000000E+01 0.  1.
<mgrwt>
<rscale>  0 0.27424251E+03</rscale>
<asrwt>0</asrwt>
<pdfrwt beam="1">  1        1 0.40629460E-01 0.27424251E+03</pdfrwt>
<pdfrwt beam="2">  1       -1 0.10953220E-01 0.27424251E+03</pdfrwt>
<totfact> 0.54087936E+03</totfact>
</mgrwt>
</event>
<event>
 9    1  0.2024718E-002  0.2750969E+03  0.7818608E-02  0.1098397E+00
         -2   -1    0    0    0  501 -0.00000000000E+00  0.00000000000E+00  0.74341890912E+01  0.74341890912E+01  0.00000000000E+00 0.  1.
          2   -1    0    0  501    0  0.00000000000E+00 -0.00000000000E+00 -0.25449412992E+04  0.25449412992E+04  0.00000000000E+00 0.  1.
         36    2    1    2    0    0  0.00000000000E+00 -0.71054273576E-14 -0.25375071101E+04  0.25523754883E+04  0.27509689089E+03 0.  0.
         25    2    3    3    0    0  0.43822577992E+02  0.18185620574E+02 -0.15526405523E+04  0.15583412105E+04  0.12443274652E+03 0.  0.
         25    2    3    3    0    0 -0.43822577992E+02 -0.18185620574E+02 -0.98486655781E+03  0.99403427784E+03  0.12605900877E+03 0.  0.
          5    1    4    4  502    0 -0.65877530738E+01 -0.10720813426E+02 -0.12535310837E+04  0.12536030481E+04  0.47000000000E+01 0.  1.
         -5    1    4    4    0  502  0.50410331066E+02  0.28906434000E+02 -0.29910946860E+03  0.30473816238E+03  0.47000000000E+01 0.  1.
          5    1    5    5  503    0 -0.78780068009E+01 -0.70472027762E+02 -0.51692313607E+03  0.52178538528E+03  0.47000000000E+01 0. -1.
         -5    1    5    5    0  503 -0.35944571191E+02  0.52286407187E+02 -0.46794342173E+03  0.47224889255E+03  0.47000000000E+01 0. -1.
<mgrwt>
<rscale>  0 0.27509689E+03</rscale>
<asrwt>0</asrwt>
<pdfrwt beam="1">  1        2 0.39152875E+00 0.27509689E+03</pdfrwt>
<pdfrwt beam="2">  1       -2 0.11437234E-02 0.27509689E+03</pdfrwt>
<totfact> 0.66436939E+03</totfact>
</mgrwt>
</event>
<event>
 9    1  0.2024718E-002  0.2752712E+03  0.7818608E-02  0.1098300E+00
          3   -1    0    0  501    0  0.00000000000E+00  0.00000000000E+00  0.55374152883E+02  0.55374152883E+02  0.00000000000E+00 0.  1.
         -3   -1    0    0    0  501 -0.00000000000E+00 -0.00000000000E+00 -0.34210104814E+03  0.34210104814E+03  0.00000000000E+00 0.  1.
         36    2    1    2    0    0  0.71054273576E-14  0.00000000000E+00 -0.28672689526E+03  0.39747520103E+03  0.27527118077E+03 0.  0.
         25    2    3    3    0    0  0.35158541731E+02 -0.26934059641E+02 -0.18583082263E+03  0.22834505146E+03  0.12508717465E+03 0.  0.
         25    2    3    3    0    0 -0.35158541731E+02  0.26934059641E+02 -0.10089607263E+03  0.16913014956E+03  0.12830987255E+03 0.  0.
          5    1    4    4  502    0 -0.50388382352E+01 -0.58115121800E+02 -0.16146285574E+03  0.17174137840E+03  0.47000000000E+01 0. -1.
         -5    1    4    4    0  502  0.40197379966E+02  0.31181062158E+02 -0.24367966896E+02  0.56603673062E+02  0.47000000000E+01 0. -1.
          5    1    5    5  503    0  0.37231889862E+02  0.41070501835E+02 -0.68997932916E+02  0.88632976314E+02  0.47000000000E+01 0.  1.
         -5    1    5    5    0  503 -0.72390431592E+02 -0.14136442193E+02 -0.31898139713E+02  0.80497173249E+02  0.47000000000E+01 0.  1.
<mgrwt>
<rscale>  0 0.27527118E+03</rscale>
<asrwt>0</asrwt>
<pdfrwt beam="1">  1        3 0.85191005E-02 0.27527118E+03</pdfrwt>
<pdfrwt beam="2">  1       -3 0.52630930E-01 0.27527118E+03</pdfrwt>
<totfact> 0.88095829E+02</totfact>
</mgrwt>
</event>
<event>
 9    1  0.2024718E-002  0.2742124E+03  0.7818608E-02  0.1098893E+00
          2   -1    0    0  501    0  0.00000000000E+00  0.00000000000E+00  0.54780841710E+03  0.54780841710E+03  0.00000000000E+00 0.  1.
         -2   -1    0    0    0  501 -0.00000000000E+00 -0.00000000000E+00 -0.34315124080E+02  0.34315124080E+02  0.00000000000E+00 0.  1.
         36    2    1    2    0    0  0.00000000000E+00  0.17763568394E-14  0.51349329302E+03  0.58212354118E+03  0.27421242718E+03 0.  0.
         25    2    3    3    0    0 -0.27413560408E+02  0.74961023727E+01  0.37284908115E+03  0.39457607328E+03  0.12596088856E+03 0.  0.
         25    2    3    3    0    0  0.27413560408E+02 -0.74961023727E+01  0.14064421187E+03  0.18754746790E+03  0.12077070645E+03 0.  0.
          5    1    4    4  502    0  0.22224627945E+02  0.18390958703E+02  0.31917688560E+03  0.32051230202E+03  0.47000000000E+01 0.  1.
         -5    1    4    4    0  502 -0.49638188354E+02 -0.10894856330E+02  0.53672195553E+02  0.74063771258E+02  0.47000000000E+01 0.  1.
          5    1    5    5  503    0 -0.42331097919E+02 -0.23045018697E+02  0.80902710589E+02  0.94288564092E+02  0.47000000000E+01 0. -1.
         -5    1    5    5    0  503  0.69744658327E+02  0.15548916325E+02  0.59741501284E+02  0.93258903809E+02  0.47000000000E+01 0. -1.
<mgrwt>
<rscale>  0 0.27421243E+03</rscale>
<asrwt>0</asrwt>
<pdfrwt beam="1">  1        2 0.84278212E-01 0.27421243E+03</pdfrwt>
<pdfrwt beam="2">  1       -2 0.52792503E-02 0.27421243E+03</pdfrwt>
<totfact> 0.10051355E+04</totfact>
</mgrwt>
</event>
<event>
 9    1  0.2024718E-002  0.2628421E+03  0.7818608E-02  0.1105448E+00
         -3   -1    0    0    0  501 -0.00000000000E+00  0.00000000000E+00  0.71065878391E+02  0.71065878391E+02  0.00000000000E+00 0. -1.
          3   -1    0    0  501    0  0.00000000000E+00 -0.00000000000E+00 -0.24303493025E+03  0.24303493025E+03  0.00000000000E+00 0. -1.
         36    2    1    2    0    0 -0.35527136788E-14  0.17763568394E-14 -0.17196905186E+03  0.31410080864E+03  0.26284208794E+03 0.  0.
         25    2    3    3    0    0  0.27883315371E+02  0.65106446028E+01 -0.28512282203E+02  0.10494141814E+03  0.96849797293E+02 0.  0.
         25    2    3    3    0    0 -0.27883315371E+02 -0.65106446028E+01 -0.14345676966E+03  0.20915939050E+03  0.14949226771E+03 0.  0.
          5    1    4    4  502    0  0.60713383529E+02 -0.12550637782E+02 -0.23006422801E+02  0.66294939010E+02  0.47000000000E+01 0.  1.
         -5    1    4    4    0  502 -0.32830068158E+02  0.19061282385E+02 -0.55058594018E+01  0.38646479130E+02  0.47000000000E+01 0.  1.
          5    1    5    5  503    0 -0.86746363006E+00 -0.69165650828E+02 -0.27601226822E+02  0.74622767770E+02  0.47000000000E+01 0. -1.
         -5    1    5    5    0  503 -0.27015851741E+02  0.62655006225E+02 -0.11585554284E+03  0.13453662273E+03  0.47000000000E+01 0. -1.
<mgrwt>
<rscale>  0 0.26284209E+03</rscale>
<asrwt>0</asrwt>
<pdfrwt beam="1">  1        3 0.37389989E-01 0.26284209E+03</pdfrwt>
<pdfrwt beam="2">  1       -3 0.10933212E-01 0.26284209E+03</pdfrwt>
<totfact> 0.11383889E+03</totfact>
</mgrwt>
</event>
<event>
 9    1  0.2024718E-002  0.2731004E+03  0.7818608E-02  0.1099518E+00
          3   -1    0    0  501    0  0.00000000000E+00  0.00000000000E+00  0.19150479343E+03  0.19150479343E+03  0.00000000000E+00 0.  1.
         -3   -1    0    0    0  501 -0.00000000000E+00 -0.00000000000E+00 -0.97365455600E+02  0.97365455600E+02  0.00000000000E+00 0.  1.
         36    2    1    2    0    0 -0.44408920985E-15 -0.14210854715E-13  0.94139337834E+02  0.28887024903E+03  0.27310035857E+03 0.  0.
         25    2    3    3    0    0 -0.24034261612E+01 -0.43459265760E+02  0.83481278291E+02  0.15585629001E+03  0.12420778990E+03 0.  0.
         25    2    3    3    0    0  0.24034261612E+01  0.43459265760E+02  0.10658059543E+02  0.13301395903E+03  0.12523831213E+03 0.  0.
          5    1    4    4  502    0 -0.93044905261E+01 -0.84761645826E+02  0.73208807103E+02  0.11248435262E+03  0.47000000000E+01 0.  1.
         -5    1    4    4    0  502  0.69010643649E+01  0.41302380066E+02  0.10272471188E+02  0.43371937388E+02  0.47000000000E+01 0.  1.
          5    1    5    5  503    0  0.49389993635E+01 -0.42073572552E+02  0.19477509031E+02  0.46861952372E+02  0.47000000000E+01 0. -1.
         -5    1    5    5    0  503 -0.25355732023E+01  0.85532838312E+02 -0.88194494882E+01  0.86152006654E+02  0.47000000000E+01 0. -1.
<mgrwt>
<rscale>  0 0.27310036E+03</rscale>
<asrwt>0</asrwt>
<pdfrwt beam="1">  1        3 0.29462276E-01 0.27310036E+03</pdfrwt>
<pdfrwt beam="2">  1       -3 0.14979301E-01 0.27310036E+03</pdfrwt>
<totfact> 0.10501027E+03</totfact>
</mgrwt>
</event>
<event>
 9    1  0.2024718E-002  0.2747460E+03  0.7818608E-02  0.1098594E+00
         -1   -1    0    0    0  501 -0.00000000000E+00  0.00000000000E+00  0.84007553030E+01  0.84007553030E+01  0.00000000000E+00 0. -1.
          1   -1    0    0  501    0  0.00000000000E+00 -0.00000000000E+00 -0.22463865365E+04  0.22463865365E+04  0.00000000000E+00 0. -1.
         36    2    1    2    0    0 -0.71054273576E-14 -0.71054273576E-14 -0.22379857812E+04  0.22547872918E+04  0.27474601806E+03 0.  0.
         25    2    3    3    0    0 -0.33802125839E+02  0.77842806297E+01 -0.15076496965E+04  0.15129046293E+04  0.12111825264E+03 0.  0.
         25    2    3    3    0    0  0.33802125839E+02 -0.77842806297E+01 -0.73033608471E+03  0.74188266256E+03  0.12568177929E+03 0.  0.
          5    1    4    4  502    0 -0.47885425829E+02 -0.45655049987E+02 -0.10095323447E+04  0.10117089713E+04  0.47000000000E+01 0.  1.
         -5    1    4    4    0  502  0.14083299990E+02  0.53439330617E+02 -0.49811735184E+03  0.50119565800E+03  0.47000000000E+01 0.  1.
          5    1    5    5  503    0  0.26260144329E+01  0.43619292666E+02 -0.54954990892E+03  0.55130457194E+03  0.47000000000E+01 0.  1.
         -5    1    5    5    0  503  0.31176111406E+02 -0.51403573296E+02 -0.18078617579E+03  0.19057809063E+03  0.47000000000E+01 0.  1.
<mgrwt>
<rscale>  0 0.27474602E+03</rscale>
<asrwt>0</asrwt>
<pdfrwt beam="1">  1        1 0.34559868E+00 0.27474602E+03</pdfrwt>
<pdfrwt beam="2">  1       -1 0.12924211E-02 0.27474602E+03</pdfrwt>
<totfact> 0.30218143E+03</totfact>
</mgrwt>
</event>
<event>
 9    1  0.2024718E-002  0.2872651E+03  0.7818608E-02  0.1091786E+00
          1   -1    0    0  501    0  0.00000000000E+00  0.00000000000E+00  0.28825149595E+03  0.28825149595E+03  0.00000000000E+00 0. -1.
         -1   -1    0    0    0  501 -0.00000000000E+00 -0.00000000000E+00 -0.71570525359E+02  0.71570525359E+02  0.00000000000E+00 0. -1.
         36    2    1    2    0    0 -0.35527136788E-14  0.00000000000E+00  0.21668097059E+03  0.35982202131E+03  0.28726511101E+03 0.  0.
         25    2    3    3    0    0  0.97669970462E+00  0.73138605158E+02  0.10638581282E+03  0.18010267744E+03  0.12557397718E+03 0.  0.
         25    2    3    3    0    0 -0.97669970462E+00 -0.73138605158E+02  0.11029515777E+03  0.17971934387E+03  0.12158869695E+03 0.  0.
          5    1    4    4  502    0 -0.50281762260E+02  0.26474442477E+02  0.93389558530E+02  0.10942052533E+03  0.47000000000E+01 0. -1.
         -5    1    4    4    0  502  0.51258461965E+02  0.46664162680E+02  0.12996254290E+02  0.70682152112E+02  0.47000000000E+01 0. -1.
          5    1    5    5  503    0 -0.25697773419E+02 -0.19157927014E+02  0.11547834442E+03  0.11993639879E+03  0.47000000000E+01 0.  1.
         -5    1    5    5    0  503  0.24721073714E+02 -0.53980678143E+02 -0.51831866438E+01  0.59782945078E+02  0.47000000000E+01 0.  1.
<mgrwt>
<rscale>  0 0.28726511E+03</rscale>
<asrwt>0</asrwt>
<pdfrwt beam="1">  1        1 0.44346383E-01 0.28726511E+03</pdfrwt>
<pdfrwt beam="2">  1       -1 0.11010850E-01 0.28726511E+03</pdfrwt>
<totfact> 0.48130303E+03</totfact>
</mgrwt>
</event>
<event>
 9    1  0.2024718E-002  0.2740989E+03  0.7818608E-02  0.1098956E+00
         -2   -1    0    0    0  501 -0.00000000000E+00  0.00000000000E+00  0.35210015274E+03  0.35210015274E+03  0.00000000000E+00 0. -1.
          2   -1    0    0  501    0  0.00000000000E+00 -0.00000000000E+00 -0.53344329557E+02  0.53344329557E+02  0.00000000000E+00 0. -1.
         36    2    1    2    0    0  0.00000000000E+00  0.00000000000E+00  0.29875582318E+03  0.40544448230E+03  0.27409886235E+03 0.  0.
         25    2    3    3    0    0  0.95150919012E+01  0.17322507299E+02  0.75030250738E+02  0.14662149382E+03  0.12440947589E+03 0.  0.
         25    2    3    3    0    0 -0.95150919012E+01 -0.17322507299E+02  0.22372557244E+03  0.25882298848E+03  0.12862970639E+03 0.  0.
          5    1    4    4  502    0  0.12672074435E+02 -0.41643345415E+02  0.75621984146E+02  0.87381486448E+02  0.47000000000E+01 0. -1.
         -5    1    4    4    0  502 -0.31569825343E+01  0.58965852714E+02 -0.59173340718E+00  0.59240007372E+02  0.47000000000E+01 0. -1.
          5    1    5    5  503    0  0.43318467463E+01  0.20780502692E+02  0.21623925269E+03  0.21732947014E+03  0.47000000000E+01 0. -1.
         -5    1    5    5    0  503 -0.13846938647E+02 -0.38103009991E+02  0.74863197544E+01  0.41493518334E+02  0.47000000000E+01 0. -1.
<mgrwt>
<rscale>  0 0.27409886E+03</rscale>
<asrwt>0</asrwt>
<pdfrwt beam="1">  1        2 0.82068201E-02 0.27409886E+03</pdfrwt>
<pdfrwt beam="2">  1       -2 0.54169253E-01 0.27409886E+03</pdfrwt>
<totfact> 0.26785318E+03</totfact>
</mgrwt>
</event>
<event>
 9    1  0.2024718E-002  0.2809448E+03  0.7818608E-02  0.1095174E+00
          3   -1    0    0  501    0  0.00000000000E+00  0.00000000000E+00  0.10541582959E+03  0.10541582959E+03  0.00000000000E+00 0. -1.
         -3   -1    0    0    0  501 -0.00000000000E+00 -0.00000000000E+00 -0.18718725004E+03  0.18718725004E+03  0.00000000000E+00 0. -1.
         36    2    1    2    0    0 -0.71054273576E-14  0.71054273576E-14 -0.81771420451E+02  0.29260307963E+03  0.28094482911E+03 0.  0.
         25    2    3    3    0    0  0.47319197151E+02  0.22361019843E+02 -0.25875051602E+00  0.13659076610E+03  0.12616595740E+03 0.  0.
         25    2    3    3    0    0 -0.47319197151E+02 -0.22361019843E+02 -0.81512669935E+02  0.15601231353E+03  0.12229638173E+03 0.  0.
          5    1    4    4  502    0  0.65170821751E+02 -0.32018865572E+02  0.20385363132E+02  0.75565182394E+02  0.47000000000E+01 0. -1.
         -5    1    4    4    0  502 -0.17851624601E+02  0.54379885416E+02 -0.20644113648E+02  0.61025583709E+02  0.47000000000E+01 0. -1.
          5    1    5    5  503    0 -0.14107782249E+02  0.44383968327E+02 -0.19076540540E+01  0.46847575268E+02  0.47000000000E+01 0.  1.
         -5    1    5    5    0  503 -0.33211414902E+02 -0.66744988171E+02 -0.79605015881E+02  0.10916473826E+03  0.47000000000E+01 0.  1.
<mgrwt>
<rscale>  0 0.28094483E+03</rscale>
<asrwt>0</asrwt>
<pdfrwt beam="1">  1        3 0.16217820E-01 0.28094483E+03</pdfrwt>
<pdfrwt beam="2">  1       -3 0.28798038E-01 0.28094483E+03</pdfrwt>
<totfact> 0.95740930E+02</totfact>
</mgrwt>
</event>
<event>
 9    1  0.2024718E-002  0.2746877E+03  0.7818608E-02  0.1098626E+00
         -2   -1    0    0    0  501 -0.00000000000E+00  0.00000000000E+00  0.15591019555E+02  0.15591019555E+02  0.00000000000E+00 0. -1.
          2   -1    0    0  501    0  0.00000000000E+00 -0.00000000000E+00 -0.12098843499E+04  0.12098843499E+04  0.00000000000E+00 0. -1.
         36    2    1    2    0    0  0.71054273576E-14 -0.17763568394E-14 -0.11942933303E+04  0.12254753694E+04  0.27468768125E+03 0.  0.
         25    2    3    3    0    0  0.44150758118E+02  0.14813638453E+02 -0.44480205829E+03  0.46448450427E+03  0.12541232125E+03 0.  0.
         25    2    3    3    0    0 -0.44150758118E+02 -0.14813638453E+02 -0.74949127202E+03  0.76099086515E+03  0.12329313315E+03 0.  0.
          5    1    4    4  502    0  0.36349242419E+02 -0.44430869705E+02 -0.10808367213E+03  0.12247260832E+03  0.47000000000E+01 0. -1.
         -5    1    4    4    0  502  0.78015156986E+01  0.59244508159E+02 -0.33671838616E+03  0.34201189595E+03  0.47000000000E+01 0. -1.
          5    1    5    5  503    0 -0.81569116002E+02  0.13542074759E+02 -0.41448118734E+03  0.42267440558E+03  0.47000000000E+01 0. -1.
         -5    1    5    5    0  503  0.37418357884E+02 -0.28355713212E+02 -0.33501008468E+03  0.33831645957E+03  0.47000000000E+01 0. -1.
<mgrwt>
<rscale>  0 0.27468768E+03</rscale>
<asrwt>0</asrwt>
<pdfrwt beam="1">  1        2 0.18613613E+00 0.27468768E+03</pdfrwt>
<pdfrwt beam="2">  1       -2 0.23986174E-02 0.27468768E+03</pdfrwt>
<totfact> 0.11639782E+04</totfact>
</mgrwt>
</event>
<event>
 9    1  0.2024718E-002  0.2752303E+03  0.7818608E-02  0.1098323E+00
          2   -1    0    0  501    0  0.00000000000E+00  0.00000000000E+00  0.39713306940E+03  0.39713306940E+03  0.00000000000E+00 0.  1.
         -2   -1    0    0    0  501 -0.00000000000E+00 -0.00000000000E+00 -0.47686602482E+02  0.47686602482E+02  0.00000000000E+00 0.  1.
         36    2    1    2    0    0  0.10658141036E-13 -0.14210854715E-13  0.34944646692E+03  0.44481967188E+03  0.27523028040E+03 0.  0.
         25    2    3    3    0    0  0.28761456025E+02 -0.51023068396E+02  0.17958465327E+03  0.22744896891E+03  0.12669574147E+03 0.  0.
         25    2    3    3    0    0 -0.28761456025E+02  0.51023068396E+02  0.16986181365E+03  0.21737070297E+03  0.12233728751E+03 0.  0.
          5    1    4    4  502    0  0.50687875249E+02  0.27192136734E+02  0.84110920761E+02  0.10200691147E+03  0.47000000000E+01 0.  1.
         -5    1    4    4    0  502 -0.21926419224E+02 -0.78215205131E+02  0.95473732507E+02  0.12544205743E+03  0.47000000000E+01 0.  1.
          5    1    5    5  503    0  0.32504967555E+02 -0.16922957944E+02  0.20774028571E+02  0.42386432787E+02  0.47000000000E+01 0.  1.
         -5    1    5    5    0  503 -0.61266423580E+02  0.67946026340E+02  0.14908778508E+03  0.17498427019E+03  0.47000000000E+01 0.  1.
<mgrwt>
<rscale>  0 0.27523028E+03</rscale>
<asrwt>0</asrwt>
<pdfrwt beam="1">  1        2 0.61097393E-01 0.27523028E+03</pdfrwt>
<pdfrwt beam="2">  1       -2 0.73364006E-02 0.27523028E+03</pdfrwt>
<totfact> 0.86567458E+03</totfact>
</mgrwt>
</event>
<event>
 9    1  0.2024718E-002  0.2727426E+03  0.7818608E-02  0.1099720E+00
          1   -1    0    0  501    0  0.00000000000E+00  0.00000000000E+00  0.64971085176E+03  0.64971085176E+03  0.00000000000E+00 0.  1.
         -1   -1    0    0    0  501 -0.00000000000E+00 -0.00000000000E+00 -0.28623698390E+02  0.28623698390E+02  0.00000000000E+00 0.  1.
         36    2    1    2    0    0  0.00000000000E+00  0.71054273576E-14  0.62108715336E+03  0.67833455015E+03  0.27274257065E+03 0.  0.
         25    2    3    3    0    0  0.31934547300E+02  0.64522824126E+01  0.19602440713E+03  0.23399631540E+03  0.12356075498E+03 0.  0.
         25    2    3    3    0    0 -0.31934547300E+02 -0.64522824126E+01  0.42506274623E+03  0.44433823474E+03  0.12528639734E+03 0.  0.
          5    1    4    4  502    0  0.46705558613E+02 -0.34838981512E+02  0.37501550102E+02  0.69452286486E+02  0.47000000000E+01 0. -1.
         -5    1    4    4    0  502 -0.14771011313E+02  0.41291263924E+02  0.15852285703E+03  0.16454402892E+03  0.47000000000E+01 0. -1.
          5    1    5    5  503    0 -0.48070667171E+02 -0.27277077011E+02  0.75155402324E+02  0.93409059898E+02  0.47000000000E+01 0. -1.
         -5    1    5    5    0  503  0.16136119871E+02  0.20824794598E+02  0.34990734391E+03  0.35092917484E+03  0.47000000000E+01 0. -1.
<mgrwt>
<rscale>  0 0.27274257E+03</rscale>
<asrwt>0</asrwt>
<pdfrwt beam="1">  1        1 0.99955505E-01 0.27274257E+03</pdfrwt>
<pdfrwt beam="2">  1       -1 0.44036464E-02 0.27274257E+03</pdfrwt>
<totfact> 0.66675331E+03</totfact>
</mgrwt>
</event>
<event>
 9    1  0.2024718E-002  0.2760463E+03  0.7818608E-02  0.1097868E+00
          1   -1    0    0  501    0  0.00000000000E+00  0.00000000000E+00  0.10785543685E+03  0.10785543685E+03  0.00000000000E+00 0.  1.
         -1   -1    0    0    0  501 -0.00000000000E+00 -0.00000000000E+00 -0.17662893040E+03  0.17662893040E+03  0.00000000000E+00 0.  1.
         36    2    1    2    0    0 -0.17763568394E-14  0.14210854715E-13 -0.68773493543E+02  0.28448436725E+03  0.27604630372E+03 0.  0.
         25    2    3    3    0    0 -0.92043085208E+01  0.47129567918E+02 -0.26567788778E+02  0.14179422183E+03  0.13074340701E+03 0.  0.
         25    2    3    3    0    0  0.92043085208E+01 -0.47129567918E+02 -0.42205704765E+02  0.14269014542E+03  0.12756661247E+03 0.  0.
          5    1    4    4  502    0  0.69504236926E+01  0.64726576005E+02  0.36083785322E+02  0.74578600108E+02  0.47000000000E+01 0.  1.
         -5    1    4    4    0  502 -0.16154732213E+02 -0.17597008087E+02 -0.62651574100E+02  0.67215621724E+02  0.47000000000E+01 0.  1.
          5    1    5    5  503    0 -0.16743936508E+02 -0.57343957930E+02  0.28634992516E+02  0.66413415190E+02  0.47000000000E+01 0. -1.
         -5    1    5    5    0  503  0.25948245029E+02  0.10214390012E+02 -0.70840697281E+02  0.76276730231E+02  0.47000000000E+01 0. -1.
<mgrwt>
<rscale>  0 0.27604630E+03</rscale>
<asrwt>0</asrwt>
<pdfrwt beam="1">  1        1 0.16593144E-01 0.27604630E+03</pdfrwt>
<pdfrwt beam="2">  1       -1 0.27173682E-01 0.27604630E+03</pdfrwt>
<totfact> 0.39232712E+03</totfact>
</mgrwt>
</event>
<event>
 9    1  0.2024718E-002  0.2747449E+03  0.7818608E-02  0.1098594E+00
         -1   -1    0    0    0  501 -0.00000000000E+00  0.00000000000E+00  0.21124309922E+03  0.21124309922E+03  0.00000000000E+00 0.  1.
          1   -1    0    0  501    0  0.00000000000E+00 -0.00000000000E+00 -0.89334005673E+02  0.89334005673E+02  0.00000000000E+00 0.  1.
         36    2    1    2    0    0  0.00000000000E+00  0.00000000000E+00  0.12190909355E+03  0.30057710489E+03  0.27474491605E+03 0.  0.
         25    2    3    3    0    0 -0.55826711261E+02 -0.19431601193E+02  0.87535474031E+02  0.15875023248E+03  0.11851146900E+03 0.  0.
         25    2    3    3    0    0  0.55826711261E+02  0.19431601193E+02  0.34373619518E+02  0.14182687241E+03  0.12425420397E+03 0.  0.
          5    1    4    4  502    0 -0.76491303398E+02  0.26932920090E+02  0.49227856868E+02  0.94983017281E+02  0.47000000000E+01 0.  1.
         -5    1    4    4    0  502  0.20664592136E+02 -0.46364521283E+02  0.38307617163E+02  0.63767215203E+02  0.47000000000E+01 0.  1.
          5    1    5    5  503    0  0.45587768902E+02  0.39148275718E+02  0.74434205428E+02  0.95777727593E+02  0.47000000000E+01 0. -1.
         -5    1    5    5    0  503  0.10238942360E+02 -0.19716674525E+02 -0.40060585910E+02  0.46049144817E+02  0.47000000000E+01 0. -1.
<mgrwt>
<rscale>  0 0.27474492E+03</rscale>
<asrwt>0</asrwt>
<pdfrwt beam="1">  1        1 0.13743693E-01 0.27474492E+03</pdfrwt>
<pdfrwt beam="2">  1       -1 0.32498938E-01 0.27474492E+03</pdfrwt>
<totfact> 0.37054003E+03</totfact>
</mgrwt>
</event>
<event>
 9    1  0.2024718E-002  0.2753897E+03  0.7818608E-02  0.1098234E+00
          2   -1    0    0  501    0  0.00000000000E+00  0.00000000000E+00  0.71759616216E+03  0.71759616216E+03  0.00000000000E+00 0.  1.
         -2   -1    0    0    0  501 -0.00000000000E+00 -0.00000000000E+00 -0.26421360922E+02  0.26421360922E+02  0.00000000000E+00 0.  1.
         36    2    1    2    0    0  0.35527136788E-14  0.71054273576E-14  0.69117480123E+03  0.74401752308E+03  0.27538966718E+03 0.  0.
         25    2    3    3    0    0 -0.19552596851E+02  0.26329169991E+02  0.22982295369E+03  0.25976506784E+03  0.11654943670E+03 0.  0.
         25    2    3    3    0    0  0.19552596851E+02 -0.26329169991E+02  0.46135184755E+03  0.48425245524E+03  0.14345516348E+03 0.  0.
          5    1    4    4  502    0 -0.35350485484E+01 -0.45058453974E+02  0.64332001597E+02  0.78762029381E+02  0.47000000000E+01 0.  1.
         -5    1    4    4    0  502 -0.16017548303E+02  0.71387623965E+02  0.16549095209E+03  0.18100303846E+03  0.47000000000E+01 0.  1.
          5    1    5    5  503    0  0.55935902222E+02  0.86815155645E+01  0.72464595337E+02  0.92072805145E+02  0.47000000000E+01 0.  1.
         -5    1    5    5    0  503 -0.36383305371E+02 -0.35010685556E+02  0.38888725221E+03  0.39217965009E+03  0.47000000000E+01 0.  1.
<mgrwt>
<rscale>  0 0.27538967E+03</rscale>
<asrwt>0</asrwt>
<pdfrwt beam="1">  1        2 0.11039939E+00 0.27538967E+03</pdfrwt>
<pdfrwt beam="2">  1       -2 0.40648253E-02 0.27538967E+03</pdfrwt>
<totfact> 0.10870193E+04</totfact>
</mgrwt>
</event>
<event>
 9    1  0.2024718E-002  0.2739704E+03  0.7818608E-02  0.1099029E+00
         -2   -1    0    0    0  501 -0.00000000000E+00  0.00000000000E+00  0.22311364746E+02  0.22311364746E+02  0.00000000000E+00 0.  1.
          2   -1    0    0  501    0  0.00000000000E+00 -0.00000000000E+00 -0.84104864789E+03  0.84104864789E+03  0.00000000000E+00 0.  1.
         36    2    1    2    0    0  0.00000000000E+00 -0.17763568394E-14 -0.81873728314E+03  0.86336001263E+03  0.27397038637E+03 0.  0.
         25    2    3    3    0    0 -0.36306628078E+02 -0.10766791525E+02 -0.26088720855E+03  0.28986933243E+03  0.12053215029E+03 0.  0.
         25    2    3    3    0    0  0.36306628078E+02  0.10766791525E+02 -0.55785007459E+03  0.57349068021E+03  0.12751768317E+03 0.  0.
          5    1    4    4  502    0  0.41092191439E+02  0.64719766900E+01 -0.13190773193E+03  0.13839145357E+03  0.47000000000E+01 0.  1.
         -5    1    4    4    0  502 -0.77398819517E+02 -0.17238768215E+02 -0.12897947663E+03  0.15147787886E+03  0.47000000000E+01 0.  1.
          5    1    5    5  503    0  0.41974040469E+02 -0.20728318417E+02 -0.52599020377E+03  0.52809020794E+03  0.47000000000E+01 0.  1.
         -5    1    5    5    0  503 -0.56674123915E+01  0.31495109942E+02 -0.31859870817E+02  0.45400472266E+02  0.47000000000E+01 0.  1.
<mgrwt>
<rscale>  0 0.27397039E+03</rscale>
<asrwt>0</asrwt>
<pdfrwt beam="1">  1        2 0.12939210E+00 0.27397039E+03</pdfrwt>
<pdfrwt beam="2">  1       -2 0.34325176E-02 0.27397039E+03</pdfrwt>
<totfact> 0.11467890E+04</totfact>
</mgrwt>
</event>
<event>
 9    1  0.2024718E-002  0.2749916E+03  0.7818608E-02  0.1098456E+00
          1   -1    0    0  501    0  0.00000000000E+00  0.00000000000E+00  0.28596406620E+03  0.28596406620E+03  0.00000000000E+00 0. -1.
         -1   -1    0    0    0  501 -0.00000000000E+00 -0.00000000000E+00 -0.66110026544E+02  0.66110026544E+02  0.00000000000E+00 0. -1.
         36    2    1    2    0    0  0.00000000000E+00 -0.71054273576E-14  0.21985403965E+03  0.35207409274E+03  0.27499157810E+03 0.  0.
         25    2    3    3    0    0 -0.12464227340E+01  0.43565677893E+02  0.12679417545E+03  0.19254230010E+03  0.13818919111E+03 0.  0.
         25    2    3    3    0    0  0.12464227340E+01 -0.43565677893E+02  0.93059864201E+02  0.15953179264E+03  0.12202758982E+03 0.  0.
          5    1    4    4  502    0  0.59989797578E+02  0.25109736212E+02  0.20406851257E+02  0.68321330814E+02  0.47000000000E+01 0.  1.
         -5    1    4    4    0  502 -0.61236220312E+02  0.18455941681E+02  0.10638732420E+03  0.12422096929E+03  0.47000000000E+01 0.  1.
          5    1    5    5  503    0  0.47200665774E+02 -0.44635858418E+02  0.12003273658E+02  0.66230138794E+02  0.47000000000E+01 0. -1.
         -5    1    5    5    0  503 -0.45954243040E+02  0.10701805253E+01  0.81056590542E+02  0.93301653844E+02  0.47000000000E+01 0. -1.
<mgrwt>
<rscale>  0 0.27499158E+03</rscale>
<asrwt>0</asrwt>
<pdfrwt beam="1">  1        1 0.43994471E-01 0.27499158E+03</pdfrwt>
<pdfrwt beam="2">  1       -1 0.10170773E-01 0.27499158E+03</pdfrwt>
<totfact> 0.54912039E+03</totfact>
</mgrwt>
</event>
<event>
 9    1  0.2024718E-002  0.2745781E+03  0.7818608E-02  0.1098688E+00
          2   -1    0    0  501    0  0.00000000000E+00  0.00000000000E+00  0.19384171830E+03  0.19384171830E+03  0.00000000000E+00 0.  1.
         -2   -1    0    0    0  501 -0.00000000000E+00 -0.00000000000E+00 -0.97235410467E+02  0.97235410467E+02  0.00000000000E+00 0.  1.
         36    2    1    2    0    0  0.00000000000E+00  0.00000000000E+00  0.96606307836E+02  0.29107712877E+03  0.27457806937E+03 0.  0.
         25    2    3    3    0    0  0.56616834263E+02 -0.27323667423E+02  0.56803051822E+02  0.14853320431E+03  0.12199785802E+03 0.  0.
         25    2    3    3    0    0 -0.56616834263E+02  0.27323667423E+02  0.39803256014E+02  0.14254392446E+03  0.12158298601E+03 0.  0.
          5    1    4    4  502    0  0.57217143529E+02 -0.54971201173E+02 -0.60407136097E+01  0.79713328202E+02  0.47000000000E+01 0.  1.
         -5    1    4    4    0  502 -0.60030926591E+00  0.27647533751E+02  0.62843765432E+02  0.68819876107E+02  0.47000000000E+01 0.  1.
          5    1    5    5  503    0  0.18338417989E+02  0.32320266477E+02  0.54227224882E+02  0.65905835234E+02  0.47000000000E+01 0.  1.
         -5    1    5    5    0  503 -0.74955252252E+02 -0.49965990546E+01 -0.14423968869E+02  0.76638089226E+02  0.47000000000E+01 0.  1.
<mgrwt>
<rscale>  0 0.27457807E+03</rscale>
<asrwt>0</asrwt>
<pdfrwt beam="1">  1        2 0.29821803E-01 0.27457807E+03</pdfrwt>
<pdfrwt beam="2">  1       -2 0.14959294E-01 0.27457807E+03</pdfrwt>
<totfact> 0.60246076E+03</totfact>
</mgrwt>
</event>
<event>
 9    1  0.2024718E-002  0.2685277E+03  0.7818608E-02  0.1102125E+00
          1   -1    0    0  501    0  0.00000000000E+00  0.00000000000E+00  0.14111873039E+04  0.14111873039E+04  0.00000000000E+00 0.  1.
         -1   -1    0    0    0  501 -0.00000000000E+00 -0.00000000000E+00 -0.12774191228E+02  0.12774191228E+02  0.00000000000E+00 0.  1.
         36    2    1    2    0    0  0.00000000000E+00  0.00000000000E+00  0.13984131127E+04  0.14239614952E+04  0.26852766323E+03 0.  0.
         25    2    3    3    0    0  0.50462628251E+01 -0.15274235831E+02  0.44239882602E+03  0.45903331732E+03  0.12139233131E+03 0.  0.
         25    2    3    3    0    0 -0.50462628251E+01  0.15274235831E+02  0.95601428668E+03  0.96492817784E+03  0.12986263894E+03 0.  0.
          5    1    4    4  502    0  0.29559340894E+02  0.37992434413E+02  0.31522289187E+03  0.31891180797E+03  0.47000000000E+01 0. -1.
         -5    1    4    4    0  502 -0.24513078069E+02 -0.53266670244E+02  0.12717593415E+03  0.14012150935E+03  0.47000000000E+01 0. -1.
          5    1    5    5  503    0 -0.55417444162E+02  0.23649382224E+02  0.75717994104E+03  0.75958800643E+03  0.47000000000E+01 0. -1.
         -5    1    5    5    0  503  0.50371181337E+02 -0.83751463936E+01  0.19883434564E+03  0.20534017141E+03  0.47000000000E+01 0. -1.
<mgrwt>
<rscale>  0 0.26852766E+03</rscale>
<asrwt>0</asrwt>
<pdfrwt beam="1">  1        1 0.21710562E+00 0.26852766E+03</pdfrwt>
<pdfrwt beam="2">  1       -1 0.19652613E-02 0.26852766E+03</pdfrwt>
<totfact> 0.57683690E+03</totfact>
</mgrwt>
</event>
<event>
 9    1  0.2024718E-002  0.2751927E+03  0.7818608E-02  0.1098344E+00
         -2   -1    0    0    0  501 -0.00000000000E+00  0.00000000000E+00  0.58504698882E+01  0.58504698882E+01  0.00000000000E+00 0. -1.
          2   -1    0    0  501    0  0.00000000000E+00 -0.00000000000E+00 -0.32361074599E+04  0.32361074599E+04  0.00000000000E+00 0. -1.
         36    2    1    2    0    0  0.00000000000E+00  0.00000000000E+00 -0.32302569900E+04  0.32419579298E+04  0.27519265433E+03 0.  0.
         25    2    3    3    0    0 -0.14311140063E+02  0.47528695590E+02 -0.16886755699E+04  0.16939226608E+04  0.12363257966E+03 0.  0.
         25    2    3    3    0    0  0.14311140063E+02 -0.47528695590E+02 -0.15415814201E+04  0.15480352690E+04  0.13219732815E+03 0.  0.
          5    1    4    4  502    0  0.37333926659E+02  0.33120854303E+02 -0.29655226024E+03  0.30075928269E+03  0.47000000000E+01 0.  1.
         -5    1    4    4    0  502 -0.51645066722E+02  0.14407841287E+02 -0.13921233097E+04  0.13931633781E+04  0.47000000000E+01 0.  1.
          5    1    5    5  503    0  0.60820230064E+02 -0.55518480825E+02 -0.12407614755E+04  0.12435001130E+04  0.47000000000E+01 0. -1.
         -5    1    5    5    0  503 -0.46509090001E+02  0.79897852350E+01 -0.30081994463E+03  0.30453515594E+03  0.47000000000E+01 0. -1.
<mgrwt>
<rscale>  0 0.27519265E+03</rscale>
<asrwt>0</asrwt>
<pdfrwt beam="1">  1        2 0.49786398E+00 0.27519265E+03</pdfrwt>
<pdfrwt beam="2">  1       -2 0.90006995E-03 0.27519265E+03</pdfrwt>
<totfact> 0.37209614E+03</totfact>
</mgrwt>
</event>
<event>
 9    1  0.2024718E-002  0.2718069E+03  0.7818608E-02  0.1100250E+00
         -2   -1    0    0    0  501 -0.00000000000E+00  0.00000000000E+00  0.23006632148E+02  0.23006632148E+02  0.00000000000E+00 0.  1.
          2   -1    0    0  501    0  0.00000000000E+00 -0.00000000000E+00 -0.80280076890E+03  0.80280076890E+03  0.00000000000E+00 0.  1.
         36    2    1    2    0    0  0.00000000000E+00  0.00000000000E+00 -0.77979413675E+03  0.82580740105E+03  0.27180685773E+03 0.  0.
         25    2    3    3    0    0 -0.79321891654E+01  0.39244620200E+02 -0.35862236477E+03  0.38484385469E+03  0.13375997958E+03 0.  0.
         25    2    3    3    0    0  0.79321891654E+01 -0.39244620200E+02 -0.42117177198E+03  0.44096354636E+03  0.12433876252E+03 0.  0.
          5    1    4    4  502    0  0.12274322593E+02 -0.42357056436E+02 -0.60208373930E+02  0.74779124870E+02  0.47000000000E+01 0. -1.
         -5    1    4    4    0  502 -0.20206511759E+02  0.81601676637E+02 -0.29841399084E+03  0.31006472982E+03  0.47000000000E+01 0. -1.
          5    1    5    5  503    0 -0.38943074763E+02  0.26931786514E+01 -0.31519486308E+03  0.31763769927E+03  0.47000000000E+01 0.  1.
         -5    1    5    5    0  503  0.46875263928E+02 -0.41937798852E+02 -0.10597690890E+03  0.12332584709E+03  0.47000000000E+01 0.  1.
<mgrwt>
<rscale>  0 0.27180686E+03</rscale>
<asrwt>0</asrwt>
<pdfrwt beam="1">  1        2 0.12350780E+00 0.27180686E+03</pdfrwt>
<pdfrwt beam="2">  1       -2 0.35394821E-02 0.27180686E+03</pdfrwt>
<totfact> 0.11625967E+04</totfact>
</mgrwt>
</event>
<event>
 9    1  0.2024718E-002  0.2740872E+03  0.7818608E-02  0.1098963E+00
          2   -1    0    0  501    0  0.00000000000E+00  0.00000000000E+00  0.61144301122E+02  0.61144301122E+02  0.00000000000E+00 0.  1.
         -2   -1    0    0    0  501 -0.00000000000E+00 -0.00000000000E+00 -0.30715779897E+03  0.30715779897E+03  0.00000000000E+00 0.  1.
         36    2    1    2    0    0  0.14210854715E-13  0.00000000000E+00 -0.24601349785E+03  0.36830210009E+03  0.27408720475E+03 0.  0.
         25    2    3    3    0    0  0.46874544320E+02  0.15267133544E+02 -0.85012448577E+02  0.15721238726E+03  0.12271230592E+03 0.  0.
         25    2    3    3    0    0 -0.46874544320E+02 -0.15267133544E+02 -0.16100104927E+03  0.21108971283E+03  0.12730758314E+03 0.  0.
          5    1    4    4  502    0 -0.38622198557E+02  0.80027186436E+01 -0.54340356153E+01  0.40091600993E+02  0.47000000000E+01 0.  1.
         -5    1    4    4    0  502  0.85496742877E+02  0.72644149002E+01 -0.79578412961E+02  0.11712078627E+03  0.47000000000E+01 0.  1.
          5    1    5    5  503    0  0.38573070587E+02  0.12729344721E+02 -0.24818673781E+02  0.47832777044E+02  0.47000000000E+01 0.  1.
         -5    1    5    5    0  503 -0.85447614906E+02 -0.27996478265E+02 -0.13618237549E+03  0.16325693578E+03  0.47000000000E+01 0.  1.
<mgrwt>
<rscale>  0 0.27408720E+03</rscale>
<asrwt>0</asrwt>
<pdfrwt beam="1">  1        2 0.94068155E-02 0.27408720E+03</pdfrwt>
<pdfrwt beam="2">  1       -2 0.47255046E-01 0.27408720E+03</pdfrwt>
<totfact> 0.29639112E+03</totfact>
</mgrwt>
</event>
<event>
 9    1  0.2024718E-002  0.2750640E+03  0.7818608E-02  0.1098416E+00
          1   -1    0    0  501    0  0.00000000000E+00  0.00000000000E+00  0.82117733598E+03  0.82117733598E+03  0.00000000000E+00 0.  1.
         -1   -1    0    0    0  501 -0.00000000000E+00 -0.00000000000E+00 -0.23034068676E+02  0.23034068676E+02  0.00000000000E+00 0.  1.
         36    2    1    2    0    0  0.35527136788E-14 -0.35527136788E-14  0.79814326730E+03  0.84421140466E+03  0.27506403002E+03 0.  0.
         25    2    3    3    0    0 -0.30416869413E+02  0.24581084452E+02  0.41791611021E+03  0.43791092816E+03  0.12483064596E+03 0.  0.
         25    2    3    3    0    0  0.30416869413E+02 -0.24581084452E+02  0.38022715709E+03  0.40630047649E+03  0.13776055514E+03 0.  0.
          5    1    4    4  502    0 -0.22672253102E+02  0.50475793681E+02  0.40275722473E+03  0.40656771746E+03  0.47000000000E+01 0.  1.
         -5    1    4    4    0  502 -0.77446163107E+01 -0.25894709229E+02  0.15158885479E+02  0.31343210697E+02  0.47000000000E+01 0.  1.
          5    1    5    5  503    0  0.70198914766E+02 -0.15108218947E+02  0.10075786176E+03  0.12381592232E+03  0.47000000000E+01 0. -1.
         -5    1    5    5    0  503 -0.39782045353E+02 -0.94728655049E+01  0.27946929533E+03  0.28248455417E+03  0.47000000000E+01 0. -1.
<mgrwt>
<rscale>  0 0.27506403E+03</rscale>
<asrwt>0</asrwt>
<pdfrwt beam="1">  1        1 0.12633495E+00 0.27506403E+03</pdfrwt>
<pdfrwt beam="2">  1       -1 0.35437035E-02 0.27506403E+03</pdfrwt>
<totfact> 0.65051142E+03</totfact>
</mgrwt>
</event>
<event>
 9    1  0.2024718E-002  0.2752795E+03  0.7818608E-02  0.1098295E+00
         -1   -1    0    0    0  501 -0.00000000000E+00  0.00000000000E+00  0.28679619833E+02  0.28679619833E+02  0.00000000000E+00 0. -1.
          1   -1    0    0  501    0  0.00000000000E+00 -0.00000000000E+00 -0.66056340175E+03  0.66056340175E+03  0.00000000000E+00 0. -1.
         36    2    1    2    0    0  0.71054273576E-14  0.00000000000E+00 -0.63188378191E+03  0.68924302158E+03  0.27527954691E+03 0.  0.
         25    2    3    3    0    0 -0.22429860925E+02  0.43257918050E+02 -0.36358558716E+03  0.38848499905E+03  0.12787403632E+03 0.  0.
         25    2    3    3    0    0  0.22429860925E+02 -0.43257918050E+02 -0.26829819476E+03  0.30075802253E+03  0.12687442875E+03 0.  0.
          5    1    4    4  502    0  0.40090535955E+01  0.81367755577E+02 -0.29093675278E+03  0.30216397581E+03  0.47000000000E+01 0.  1.
         -5    1    4    4    0  502 -0.26438914520E+02 -0.38109837527E+02 -0.72648834377E+02  0.86321023243E+02  0.47000000000E+01 0.  1.
          5    1    5    5  503    0  0.43046644993E+02 -0.77690141286E+02 -0.22285554465E+03  0.23994886014E+03  0.47000000000E+01 0. -1.
         -5    1    5    5    0  503 -0.20616784068E+02  0.34432223235E+02 -0.45442650102E+02  0.60809162390E+02  0.47000000000E+01 0. -1.
<mgrwt>
<rscale>  0 0.27527955E+03</rscale>
<asrwt>0</asrwt>
<pdfrwt beam="1">  1        1 0.10162513E+00 0.27527955E+03</pdfrwt>
<pdfrwt beam="2">  1       -1 0.44122495E-02 0.27527955E+03</pdfrwt>
<totfact> 0.64945392E+03</totfact>
</mgrwt>
</event>
<event>
 9    1  0.2024718E-002  0.2744242E+03  0.7818608E-02  0.1098774E+00
          2   -1    0    0  501    0  0.00000000000E+00  0.00000000000E+00  0.10287312188E+04  0.10287312188E+04  0.00000000000E+00 0. -1.
         -2   -1    0    0    0  501 -0.00000000000E+00 -0.00000000000E+00 -0.18301340935E+02  0.18301340935E+02  0.00000000000E+00 0. -1.
         36    2    1    2    0    0  0.00000000000E+00  0.00000000000E+00  0.10104298778E+04  0.10470325597E+04  0.27442420276E+03 0.  0.
         25    2    3    3    0    0  0.24594638147E+02 -0.51084699952E+02  0.49846766432E+03  0.51718098686E+03  0.12566470467E+03 0.  0.
         25    2    3    3    0    0 -0.24594638147E+02  0.51084699952E+02  0.51196221352E+03  0.52985157285E+03  0.12418872085E+03 0.  0.
          5    1    4    4  502    0  0.50098219114E+02 -0.33384948718E+02  0.95486465682E+02  0.11297850011E+03  0.47000000000E+01 0. -1.
         -5    1    4    4    0  502 -0.25503580967E+02 -0.17699751234E+02  0.40298119864E+03  0.40420248674E+03  0.47000000000E+01 0. -1.
          5    1    5    5  503    0  0.33393408768E+02  0.37260894742E+01  0.42248285289E+02  0.54184971179E+02  0.47000000000E+01 0.  1.
         -5    1    5    5    0  503 -0.57988046915E+02  0.47358610478E+02  0.46971392823E+03  0.47566660167E+03  0.47000000000E+01 0.  1.
<mgrwt>
<rscale>  0 0.27442420E+03</rscale>
<asrwt>0</asrwt>
<pdfrwt beam="1">  1        2 0.15826630E+00 0.27442420E+03</pdfrwt>
<pdfrwt beam="2">  1       -2 0.28155917E-02 0.27442420E+03</pdfrwt>
<totfact> 0.11711217E+04</totfact>
</mgrwt>
</event>
<event>
 9    1  0.2024718E-002  0.2737289E+03  0.7818608E-02  0.1099164E+00
         -1   -1    0    0    0  501 -0.00000000000E+00  0.00000000000E+00  0.11812927878E+03  0.11812927878E+03  0.00000000000E+00 0.  1.
          1   -1    0    0  501    0  0.00000000000E+00 -0.00000000000E+00 -0.15857098983E+03  0.15857098983E+03  0.00000000000E+00 0.  1.
         36    2    1    2    0    0  0.00000000000E+00 -0.71054273576E-14 -0.40441711047E+02  0.27670026861E+03  0.27372889262E+03 0.  0.
         25    2    3    3    0    0  0.47122272978E+02 -0.24667843362E+02  0.16243316976E+02  0.12762424769E+03  0.11486989224E+03 0.  0.
         25    2    3    3    0    0 -0.47122272978E+02  0.24667843362E+02 -0.56685028023E+02  0.14907602092E+03  0.12720635403E+03 0.  0.
          5    1    4    4  502    0  0.38982417072E+02 -0.11594838364E+01 -0.45963633295E+02  0.60462540711E+02  0.47000000000E+01 0. -1.
         -5    1    4    4    0  502  0.81398559057E+01 -0.23508359526E+02  0.62206950271E+02  0.67161706975E+02  0.47000000000E+01 0. -1.
          5    1    5    5  503    0 -0.68198761352E+02  0.39603445663E+01  0.16134189226E+02  0.70350248336E+02  0.47000000000E+01 0. -1.
         -5    1    5    5    0  503  0.21076488374E+02  0.20707498796E+02 -0.72819217248E+02  0.78725772586E+02  0.47000000000E+01 0. -1.
<mgrwt>
<rscale>  0 0.27372889E+03</rscale>
<asrwt>0</asrwt>
<pdfrwt beam="1">  1        1 0.24395537E-01 0.27372889E+03</pdfrwt>
<pdfrwt beam="2">  1       -1 0.18173735E-01 0.27372889E+03</pdfrwt>
<totfact> 0.46237468E+03</totfact>
</mgrwt>
</event>
<event>
 9    1  0.2024718E-002  0.2899689E+03  0.7818608E-02  0.1090365E+00
          3   -1    0    0  501    0  0.00000000000E+00  0.00000000000E+00  0.62229428835E+03  0.62229428835E+03  0.00000000000E+00 0. -1.
         -3   -1    0    0    0  501 -0.00000000000E+00 -0.00000000000E+00 -0.33779026339E+02  0.33779026339E+02  0.00000000000E+00 0. -1.
         36    2    1    2    0    0  0.14210854715E-13  0.35527136788E-14  0.58851526201E+03  0.65607331469E+03  0.28996893045E+03 0.  0.
         25    2    3    3    0    0 -0.71245942294E+02 -0.95872313569E+01  0.25484018464E+03  0.29280051199E+03  0.12498288209E+03 0.  0.
         25    2    3    3    0    0  0.71245942294E+02  0.95872313569E+01  0.33367507738E+03  0.36327280271E+03  0.12433894251E+03 0.  0.
          5    1    4    4  502    0  0.16521434625E+02 -0.27500811310E+02  0.13128343081E+02  0.34981363850E+02  0.47000000000E+01 0.  1.
         -5    1    4    4    0  502 -0.87767376919E+02  0.17913579953E+02  0.24171184155E+03  0.25781914814E+03  0.47000000000E+01 0.  1.
          5    1    5    5  503    0  0.10419773667E+03  0.24495652404E+02  0.25094664814E+03  0.27286171503E+03  0.47000000000E+01 0.  1.
         -5    1    5    5    0  503 -0.32951794380E+02 -0.14908421047E+02  0.82728429237E+02  0.90411087677E+02  0.47000000000E+01 0.  1.
<mgrwt>
<rscale>  0 0.28996893E+03</rscale>
<asrwt>0</asrwt>
<pdfrwt beam="1">  1        3 0.95737574E-01 0.28996893E+03</pdfrwt>
<pdfrwt beam="2">  1       -3 0.51967738E-02 0.28996893E+03</pdfrwt>
<totfact> 0.54725211E+02</totfact>
</mgrwt>
</event>
<event>
 9    1  0.2024718E-002  0.2747676E+03  0.7818608E-02  0.1098582E+00
         -2   -1    0    0    0  501 -0.00000000000E+00  0.00000000000E+00  0.34411878541E+02  0.34411878541E+02  0.00000000000E+00 0. -1.
          2   -1    0    0  501    0  0.00000000000E+00 -0.00000000000E+00 -0.54848230854E+03  0.54848230854E+03  0.00000000000E+00 0. -1.
         36    2    1    2    0    0  0.00000000000E+00 -0.71054273576E-14 -0.51407043000E+03  0.58289418708E+03  0.27476758603E+03 0.  0.
         25    2    3    3    0    0  0.23621226310E+00  0.43749356649E+02 -0.29687274376E+03  0.32655579310E+03  0.12880682440E+03 0.  0.
         25    2    3    3    0    0 -0.23621226310E+00 -0.43749356649E+02 -0.21719768624E+03  0.25633839399E+03  0.12892042243E+03 0.  0.
          5    1    4    4  502    0 -0.62730433532E+02  0.12164621985E+02 -0.11836660902E+03  0.13459505730E+03  0.47000000000E+01 0.  1.
         -5    1    4    4    0  502  0.62966645795E+02  0.31584734664E+02 -0.17850613474E+03  0.19196073579E+03  0.47000000000E+01 0.  1.
          5    1    5    5  503    0 -0.45694921946E+02  0.23271816635E+02 -0.57288003558E+02  0.77029920763E+02  0.47000000000E+01 0.  1.
         -5    1    5    5    0  503  0.45458709683E+02 -0.67021173284E+02 -0.15990968268E+03  0.17930847322E+03  0.47000000000E+01 0.  1.
<mgrwt>
<rscale>  0 0.27476759E+03</rscale>
<asrwt>0</asrwt>
<pdfrwt beam="1">  1        2 0.84381890E-01 0.27476759E+03</pdfrwt>
<pdfrwt beam="2">  1       -2 0.52941354E-02 0.27476759E+03</pdfrwt>
<totfact> 0.99951118E+03</totfact>
</mgrwt>
</event>
<event>
 9    1  0.2024718E-002  0.2760283E+03  0.7818608E-02  0.1097878E+00
          2   -1    0    0  501    0  0.00000000000E+00  0.00000000000E+00  0.10405723833E+04  0.10405723833E+04  0.00000000000E+00 0. -1.
         -2   -1    0    0    0  501 -0.00000000000E+00 -0.00000000000E+00 -0.18305219890E+02  0.18305219890E+02  0.00000000000E+00 0. -1.
         36    2    1    2    0    0  0.00000000000E+00  0.00000000000E+00  0.10222671634E+04  0.10588776032E+04  0.27602830499E+03 0.  0.
         25    2    3    3    0    0  0.61680590325E+02  0.58813010637E+01  0.46038898119E+03  0.48096623843E+03  0.12462513221E+03 0.  0.
         25    2    3    3    0    0 -0.61680590325E+02 -0.58813010637E+01  0.56187818223E+03  0.57791136478E+03  0.12014728023E+03 0.  0.
          5    1    4    4  502    0  0.42121168262E+02  0.37231324684E+02  0.75341143584E+02  0.94120891783E+02  0.47000000000E+01 0. -1.
         -5    1    4    4    0  502  0.19559422063E+02 -0.31350023621E+02  0.38504783761E+03  0.38684534664E+03  0.47000000000E+01 0. -1.
          5    1    5    5  503    0 -0.74448862671E+02 -0.49413163039E+02  0.38234740477E+03  0.39267788551E+03  0.47000000000E+01 0. -1.
         -5    1    5    5    0  503  0.12768272345E+02  0.43531861976E+02  0.17953077746E+03  0.18523347927E+03  0.47000000000E+01 0. -1.
<mgrwt>
<rscale>  0 0.27602830E+03</rscale>
<asrwt>0</asrwt>
<pdfrwt beam="1">  1        2 0.16008801E+00 0.27602830E+03</pdfrwt>
<pdfrwt beam="2">  1       -2 0.28161885E-02 0.27602830E+03</pdfrwt>
<totfact> 0.11518678E+04</totfact>
</mgrwt>
</event>
<event>
 9    1  0.2024718E-002  0.2753140E+03  0.7818608E-02  0.1098276E+00
          2   -1    0    0  501    0  0.00000000000E+00  0.00000000000E+00  0.56362862824E+03  0.56362862824E+03  0.00000000000E+00 0.  1.
         -2   -1    0    0    0  501 -0.00000000000E+00 -0.00000000000E+00 -0.33620460774E+02  0.33620460774E+02  0.00000000000E+00 0.  1.
         36    2    1    2    0    0  0.14210854715E-13  0.71054273576E-14  0.53000816746E+03  0.59724908901E+03  0.27531403296E+03 0.  0.
         25    2    3    3    0    0 -0.35598418669E+02 -0.21661792257E+02  0.18018555654E+03  0.22350709389E+03  0.12550739253E+03 0.  0.
         25    2    3    3    0    0  0.35598418669E+02  0.21661792257E+02  0.34982261092E+03  0.37374199511E+03  0.12478276782E+03 0.  0.
          5    1    4    4  502    0  0.28699880916E+02 -0.26050787487E+01  0.14445099512E+03  0.14737248587E+03  0.47000000000E+01 0. -1.
         -5    1    4    4    0  502 -0.64298299585E+02 -0.19056713508E+02  0.35734561418E+02  0.76134608024E+02  0.47000000000E+01 0. -1.
          5    1    5    5  503    0  0.81995328656E+02  0.16411451137E+02  0.24419526634E+03  0.25815884209E+03  0.47000000000E+01 0.  1.
         -5    1    5    5    0  503 -0.46396909987E+02  0.52503411201E+01  0.10562734459E+03  0.11558315302E+03  0.47000000000E+01 0.  1.
<mgrwt>
<rscale>  0 0.27531403E+03</rscale>
<asrwt>0</asrwt>
<pdfrwt beam="1">  1        2 0.86712090E-01 0.27531403E+03</pdfrwt>
<pdfrwt beam="2">  1       -2 0.51723790E-02 0.27531403E+03</pdfrwt>
<totfact> 0.10039449E+04</totfact>
</mgrwt>
</event>
<event>
 9    1  0.2024718E-002  0.2751600E+03  0.7818608E-02  0.1098362E+00
         -2   -1    0    0    0  501 -0.00000000000E+00  0.00000000000E+00  0.25109553055E+02  0.25109553055E+02  0.00000000000E+00 0.  1.
          2   -1    0    0  501    0  0.00000000000E+00 -0.00000000000E+00 -0.75382697320E+03  0.75382697320E+03  0.00000000000E+00 0.  1.
         36    2    1    2    0    0  0.17763568394E-14 -0.71054273576E-14 -0.72871742015E+03  0.77893652626E+03  0.27516001438E+03 0.  0.
         25    2    3    3    0    0  0.10987665177E+02  0.57323767337E+02 -0.31132520988E+03  0.33985610249E+03  0.12317483918E+03 0.  0.
         25    2    3    3    0    0 -0.10987665177E+02 -0.57323767337E+02 -0.41739221026E+03  0.43908042376E+03  0.12316094452E+03 0.  0.
          5    1    4    4  502    0 -0.41634934932E+02  0.20900705452E+02 -0.23735944093E+03  0.24193367168E+03  0.47000000000E+01 0. -1.
         -5    1    4    4    0  502  0.52622600110E+02  0.36423061884E+02 -0.73965768956E+02  0.97922430815E+02  0.47000000000E+01 0. -1.
          5    1    5    5  503    0  0.16775236504E+01 -0.69014471622E+02 -0.10242748048E+03  0.12360942576E+03  0.47000000000E+01 0.  1.
         -5    1    5    5    0  503 -0.12665188828E+02  0.11690704286E+02 -0.31496472978E+03  0.31547099800E+03  0.47000000000E+01 0.  1.
<mgrwt>
<rscale>  0 0.27516001E+03</rscale>
<asrwt>0</asrwt>
<pdfrwt beam="1">  1        2 0.11597337E+00 0.27516001E+03</pdfrwt>
<pdfrwt beam="2">  1       -2 0.38630085E-02 0.27516001E+03</pdfrwt>
<totfact> 0.11042969E+04</totfact>
</mgrwt>
</event>
<event>
 9    1  0.2024718E-002  0.2752716E+03  0.7818608E-02  0.1098300E+00
         -1   -1    0    0    0  501 -0.00000000000E+00  0.00000000000E+00  0.22227479026E+02  0.22227479026E+02  0.00000000000E+00 0.  1.
          1   -1    0    0  501    0  0.00000000000E+00 -0.00000000000E+00 -0.85226075187E+03  0.85226075187E+03  0.00000000000E+00 0.  1.
         36    2    1    2    0    0  0.71054273576E-14  0.71054273576E-14 -0.83003327285E+03  0.87448823090E+03  0.27527156037E+03 0.  0.
         25    2    3    3    0    0 -0.27547696939E+02 -0.48682163038E+02 -0.39368162565E+03  0.41866050580E+03  0.13100598512E+03 0.  0.
         25    2    3    3    0    0  0.27547696939E+02  0.48682163038E+02 -0.43635164719E+03  0.45582772510E+03  0.11936216466E+03 0.  0.
          5    1    4    4  502    0 -0.51439551860E+02 -0.72243847903E+02 -0.16408835472E+03  0.18658048990E+03  0.47000000000E+01 0. -1.
         -5    1    4    4    0  502  0.23891854922E+02  0.23561684865E+02 -0.22959327093E+03  0.23208001591E+03  0.47000000000E+01 0. -1.
          5    1    5    5  503    0 -0.31557700090E+02 -0.17943686868E+02 -0.19758569800E+03  0.20094790964E+03  0.47000000000E+01 0.  1.
         -5    1    5    5    0  503  0.59105397028E+02  0.66625849907E+02 -0.23876594919E+03  0.25487981546E+03  0.47000000000E+01 0.  1.
<mgrwt>
<rscale>  0 0.27527156E+03</rscale>
<asrwt>0</asrwt>
<pdfrwt beam="1">  1        1 0.13111702E+00 0.27527156E+03</pdfrwt>
<pdfrwt beam="2">  1       -1 0.34196125E-02 0.27527156E+03</pdfrwt>
<totfact> 0.64690472E+03</totfact>
</mgrwt>
</event>
<event>
 9    1  0.2024718E-002  0.2750809E+03  0.7818608E-02  0.1098406E+00
         -1   -1    0    0    0  501 -0.00000000000E+00  0.00000000000E+00  0.10405942310E+04  0.10405942310E+04  0.00000000000E+00 0.  1.
          1   -1    0    0  501    0  0.00000000000E+00 -0.00000000000E+00 -0.18179394531E+02  0.18179394531E+02  0.00000000000E+00 0.  1.
         36    2    1    2    0    0 -0.35527136788E-14 -0.71054273576E-14  0.10224148365E+04  0.10587736256E+04  0.27508088318E+03 0.  0.
         25    2    3    3    0    0 -0.21472081487E+02  0.41136777174E+02  0.39005841476E+03  0.41207200229E+03  0.12451700052E+03 0.  0.
         25    2    3    3    0    0  0.21472081487E+02 -0.41136777174E+02  0.63235642175E+03  0.64670162329E+03  0.12725981580E+03 0.  0.
          5    1    4    4  502    0  0.10459695582E+02  0.51010774015E+02  0.57153478540E+02  0.77460405412E+02  0.47000000000E+01 0. -1.
         -5    1    4    4    0  502 -0.31931777069E+02 -0.98739968405E+01  0.33290493622E+03  0.33461159687E+03  0.47000000000E+01 0. -1.
          5    1    5    5  503    0  0.87591224826E+01 -0.15439892174E+02  0.54953933494E+01  0.19167729262E+02  0.47000000000E+01 0.  1.
         -5    1    5    5    0  503  0.12712959005E+02 -0.25696885000E+02  0.62686102840E+03  0.62753389403E+03  0.47000000000E+01 0.  1.
<mgrwt>
<rscale>  0 0.27508088E+03</rscale>
<asrwt>0</asrwt>
<pdfrwt beam="1">  1        1 0.27968307E-02 0.27508088E+03</pdfrwt>
<pdfrwt beam="2">  1       -1 0.16009137E+00 0.27508088E+03</pdfrwt>
<totfact> 0.11951068E+03</totfact>
</mgrwt>
</event>
<event>
 9    1  0.2024718E-002  0.2757797E+03  0.7818608E-02  0.1098017E+00
          1   -1    0    0  501    0  0.00000000000E+00  0.00000000000E+00  0.25034457055E+03  0.25034457055E+03  0.00000000000E+00 0.  1.
         -1   -1    0    0    0  501 -0.00000000000E+00 -0.00000000000E+00 -0.75949763723E+02  0.75949763723E+02  0.00000000000E+00 0.  1.
         36    2    1    2    0    0  0.00000000000E+00  0.00000000000E+00  0.17439480683E+03  0.32629433427E+03  0.27577970181E+03 0.  0.
         25    2    3    3    0    0 -0.66532556085E+01 -0.47945520994E+02  0.74496586514E+02  0.15716809493E+03  0.12964964276E+03 0.  0.
         25    2    3    3    0    0  0.66532556085E+01  0.47945520994E+02  0.99898220315E+02  0.16912623935E+03  0.12759698907E+03 0.  0.
          5    1    4    4  502    0 -0.25456783977E+02 -0.28884194509E+02  0.10757415978E+03  0.11435311275E+03  0.47000000000E+01 0. -1.
         -5    1    4    4    0  502  0.18803528368E+02 -0.19061326485E+02 -0.33077573262E+02  0.42814982184E+02  0.47000000000E+01 0. -1.
          5    1    5    5  503    0  0.27166388003E+02  0.86061097910E+02  0.51451523068E+02  0.10398978044E+03  0.47000000000E+01 0.  1.
         -5    1    5    5    0  503 -0.20513132394E+02 -0.38115576916E+02  0.48446697247E+02  0.65136458902E+02  0.47000000000E+01 0.  1.
<mgrwt>
<rscale>  0 0.27577970E+03</rscale>
<asrwt>0</asrwt>
<pdfrwt beam="1">  1        1 0.38514549E-01 0.27577970E+03</pdfrwt>
<pdfrwt beam="2">  1       -1 0.11684579E-01 0.27577970E+03</pdfrwt>
<totfact> 0.52314186E+03</totfact>
</mgrwt>
</event>
<event>
 9    1  0.2024718E-002  0.2757492E+03  0.7818608E-02  0.1098034E+00
         -2   -1    0    0    0  501 -0.00000000000E+00  0.00000000000E+00  0.42942575623E+02  0.42942575623E+02  0.00000000000E+00 0. -1.
          2   -1    0    0  501    0  0.00000000000E+00 -0.00000000000E+00 -0.44267051378E+03  0.44267051378E+03  0.00000000000E+00 0. -1.
         36    2    1    2    0    0 -0.14210854715E-13  0.00000000000E+00 -0.39972793816E+03  0.48561308940E+03  0.27574924852E+03 0.  0.
         25    2    3    3    0    0 -0.51924197271E+02 -0.25342795281E+02 -0.17192356219E+03  0.21879131517E+03  0.12236645301E+03 0.  0.
         25    2    3    3    0    0  0.51924197271E+02  0.25342795281E+02 -0.22780437597E+03  0.26682177423E+03  0.12633545013E+03 0.  0.
          5    1    4    4  502    0 -0.62423295332E+02 -0.63885448267E+02 -0.86769785439E+02  0.12461582550E+03  0.47000000000E+01 0. -1.
         -5    1    4    4    0  502  0.10499098062E+02  0.38542652986E+02 -0.85153776750E+02  0.94175489668E+02  0.47000000000E+01 0. -1.
          5    1    5    5  503    0  0.84516491202E+02  0.46057970712E+02 -0.18744297788E+03  0.21076369210E+03  0.47000000000E+01 0.  1.
         -5    1    5    5    0  503 -0.32592293931E+02 -0.20715175431E+02 -0.40361398085E+02  0.56058082131E+02  0.47000000000E+01 0.  1.
<mgrwt>
<rscale>  0 0.27574925E+03</rscale>
<asrwt>0</asrwt>
<pdfrwt beam="1">  1        2 0.68103159E-01 0.27574925E+03</pdfrwt>
<pdfrwt beam="2">  1       -2 0.66065498E-02 0.27574925E+03</pdfrwt>
<totfact> 0.90437476E+03</totfact>
</mgrwt>
</event>
<event>
 9    1  0.2024718E-002  0.2750353E+03  0.7818608E-02  0.1098432E+00
         -2   -1    0    0    0  501 -0.00000000000E+00  0.00000000000E+00  0.34665980791E+02  0.34665980791E+02  0.00000000000E+00 0. -1.
          2   -1    0    0  501    0  0.00000000000E+00 -0.00000000000E+00 -0.54552345783E+03  0.54552345783E+03  0.00000000000E+00 0. -1.
         36    2    1    2    0    0  0.00000000000E+00 -0.71054273576E-14 -0.51085747704E+03  0.58018943862E+03  0.27503531199E+03 0.  0.
         25    2    3    3    0    0 -0.33188846872E+02 -0.51527325028E+02 -0.25953055405E+03  0.29299153799E+03  0.12137284731E+03 0.  0.
         25    2    3    3    0    0  0.33188846872E+02  0.51527325028E+02 -0.25132692298E+03  0.28719790063E+03  0.12474312458E+03 0.  0.
          5    1    4    4  502    0 -0.29253510977E+02 -0.84503698469E+02 -0.23486618674E+03  0.25135802878E+03  0.47000000000E+01 0.  1.
         -5    1    4    4    0  502 -0.39353358955E+01  0.32976373440E+02 -0.24664367313E+02  0.41633509206E+02  0.47000000000E+01 0.  1.
          5    1    5    5  503    0 -0.22263772068E+02 -0.21024061611E+02 -0.13874535577E+03  0.14216205704E+03  0.47000000000E+01 0.  1.
         -5    1    5    5    0  503  0.55452618940E+02  0.72551386639E+02 -0.11258156721E+03  0.14503584359E+03  0.47000000000E+01 0.  1.
<mgrwt>
<rscale>  0 0.27503531E+03</rscale>
<asrwt>0</asrwt>
<pdfrwt beam="1">  1        2 0.83926681E-01 0.27503531E+03</pdfrwt>
<pdfrwt beam="2">  1       -2 0.53332281E-02 0.27503531E+03</pdfrwt>
<totfact> 0.99450126E+03</totfact>
</mgrwt>
</event>
<event>
 9    1  0.2024718E-002  0.2748292E+03  0.7818608E-02  0.1098547E+00
         -1   -1    0    0    0  501 -0.00000000000E+00  0.00000000000E+00  0.31977249163E+03  0.31977249163E+03  0.00000000000E+00 0.  1.
          1   -1    0    0  501    0  0.00000000000E+00 -0.00000000000E+00 -0.59050662752E+02  0.59050662752E+02  0.00000000000E+00 0.  1.
         36    2    1    2    0    0 -0.71054273576E-14  0.71054273576E-14  0.26072182888E+03  0.37882315439E+03  0.27482923833E+03 0.  0.
         25    2    3    3    0    0 -0.33078773094E+02 -0.31837666469E+02  0.74195187727E+02  0.15039588471E+03  0.12249960825E+03 0.  0.
         25    2    3    3    0    0  0.33078773094E+02  0.31837666469E+02  0.18652664116E+03  0.22842726967E+03  0.12360820132E+03 0.  0.
          5    1    4    4  502    0  0.36937232332E+01 -0.16465970112E+02  0.10075784526E+03  0.10226927762E+03  0.47000000000E+01 0. -1.
         -5    1    4    4    0  502 -0.36772496328E+02 -0.15371696357E+02 -0.26562657534E+02  0.48126607094E+02  0.47000000000E+01 0. -1.
          5    1    5    5  503    0  0.68447290553E+02  0.21647663358E+02  0.51712416953E+02  0.88599757223E+02  0.47000000000E+01 0.  1.
         -5    1    5    5    0  503 -0.35368517458E+02  0.10190003110E+02  0.13481422420E+03  0.13982751245E+03  0.47000000000E+01 0.  1.
<mgrwt>
<rscale>  0 0.27482924E+03</rscale>
<asrwt>0</asrwt>
<pdfrwt beam="1">  1        1 0.90847175E-02 0.27482924E+03</pdfrwt>
<pdfrwt beam="2">  1       -1 0.49195767E-01 0.27482924E+03</pdfrwt>
<totfact> 0.30829813E+03</totfact>
</mgrwt>
</event>
<event>
 9    1  0.2024718E-002  0.2762720E+03  0.7818608E-02  0.1097743E+00
         -1   -1    0    0    0  501 -0.00000000000E+00  0.00000000000E+00  0.15617238223E+02  0.15617238223E+02  0.00000000000E+00 0.  1.
          1   -1    0    0  501    0  0.00000000000E+00 -0.00000000000E+00 -0.12218268078E+04  0.12218268078E+04  0.00000000000E+00 0.  1.
         36    2    1    2    0    0  0.00000000000E+00 -0.71054273576E-14 -0.12062095696E+04  0.12374440460E+04  0.27627204219E+03 0.  0.
         25    2    3    3    0    0 -0.21676897761E+02  0.54991249071E+02 -0.65983328591E+03  0.67378889524E+03  0.12295358790E+03 0.  0.
         25    2    3    3    0    0  0.21676897761E+02 -0.54991249071E+02 -0.54637628368E+03  0.56365515080E+03  0.12524440221E+03 0.  0.
          5    1    4    4  502    0  0.50677991615E+02  0.23647086342E+02 -0.32107168494E+03  0.32593950420E+03  0.47000000000E+01 0.  1.
         -5    1    4    4    0  502 -0.72354889375E+02  0.31344162729E+02 -0.33876160097E+03  0.34784939103E+03  0.47000000000E+01 0.  1.
          5    1    5    5  503    0 -0.36413008406E+01  0.38427722939E+02 -0.21130000823E+03  0.21484816136E+03  0.47000000000E+01 0. -1.
         -5    1    5    5    0  503  0.25318198601E+02 -0.93418972010E+02 -0.33507627545E+03  0.34880698944E+03  0.47000000000E+01 0. -1.
<mgrwt>
<rscale>  0 0.27627204E+03</rscale>
<asrwt>0</asrwt>
<pdfrwt beam="1">  1        1 0.18797343E+00 0.27627204E+03</pdfrwt>
<pdfrwt beam="2">  1       -1 0.24026511E-02 0.27627204E+03</pdfrwt>
<totfact> 0.57881312E+03</totfact>
</mgrwt>
</event>
<event>
 9    1  0.2024718E-002  0.2751055E+03  0.7818608E-02  0.1098393E+00
          2   -1    0    0  501    0  0.00000000000E+00  0.00000000000E+00  0.36882400609E+03  0.36882400609E+03  0.00000000000E+00 0.  1.
         -2   -1    0    0    0  501 -0.00000000000E+00 -0.00000000000E+00 -0.51300224772E+02  0.51300224772E+02  0.00000000000E+00 0.  1.
         36    2    1    2    0    0  0.35527136788E-14  0.00000000000E+00  0.31752378132E+03  0.42012423086E+03  0.27510546642E+03 0.  0.
         25    2    3    3    0    0 -0.16635164143E+02 -0.21848650582E+02  0.92152314002E+02  0.15688006690E+03  0.12395650122E+03 0.  0.
         25    2    3    3    0    0  0.16635164143E+02  0.21848650582E+02  0.22537146732E+03  0.26324416397E+03  0.13323325172E+03 0.  0.
          5    1    4    4  502    0  0.26289552656E+02  0.41975293659E+02  0.32433681898E+02  0.59389389440E+02  0.47000000000E+01 0.  1.
         -5    1    4    4    0  502 -0.42924716799E+02 -0.63823944241E+02  0.59718632104E+02  0.97490677458E+02  0.47000000000E+01 0.  1.
          5    1    5    5  503    0 -0.40662233212E+02  0.53281699376E+02  0.14294274568E+03  0.15794643156E+03  0.47000000000E+01 0. -1.
         -5    1    5    5    0  503  0.57297397355E+02 -0.31433048794E+02  0.82428721632E+02  0.10529773241E+03  0.47000000000E+01 0. -1.
<mgrwt>
<rscale>  0 0.27510547E+03</rscale>
<asrwt>0</asrwt>
<pdfrwt beam="1">  1        2 0.56742153E-01 0.27510547E+03</pdfrwt>
<pdfrwt beam="2">  1       -2 0.78923425E-02 0.27510547E+03</pdfrwt>
<totfact> 0.83705028E+03</totfact>
</mgrwt>
</event>
<event>
 9    1  0.2024718E-002  0.2749029E+03  0.7818608E-02  0.1098506E+00
          2   -1    0    0  501    0  0.00000000000E+00  0.00000000000E+00  0.42516717523E+02  0.42516717523E+02  0.00000000000E+00 0. -1.
         -2   -1    0    0    0  501 -0.00000000000E+00 -0.00000000000E+00 -0.44436390919E+03  0.44436390919E+03  0.00000000000E+00 0. -1.
         36    2    1    2    0    0  0.71054273576E-14  0.00000000000E+00 -0.40184719166E+03  0.48688062671E+03  0.27490285415E+03 0.  0.
         25    2    3    3    0    0  0.36458037539E+02 -0.17282891738E+02 -0.12635426168E+03  0.18365409089E+03  0.12702574073E+03 0.  0.
         25    2    3    3    0    0 -0.36458037539E+02  0.17282891738E+02 -0.27549292999E+03  0.30322653582E+03  0.12009200933E+03 0.  0.
          5    1    4    4  502    0  0.77036011840E+02 -0.37888901502E+02 -0.95332871699E+02  0.12837664275E+03  0.47000000000E+01 0.  1.
         -5    1    4    4    0  502 -0.40577974301E+02  0.20606009765E+02 -0.31021389977E+02  0.55277448141E+02  0.47000000000E+01 0.  1.
          5    1    5    5  503    0 -0.43033991058E+01 -0.27293611270E+02 -0.66812784960E+01  0.28813016891E+02  0.47000000000E+01 0. -1.
         -5    1    5    5    0  503 -0.32154638433E+02  0.44576503007E+02 -0.26881165149E+03  0.27441351893E+03  0.47000000000E+01 0. -1.
<mgrwt>
<rscale>  0 0.27490285E+03</rscale>
<asrwt>0</asrwt>
<pdfrwt beam="1">  1        2 0.65410335E-02 0.27490285E+03</pdfrwt>
<pdfrwt beam="2">  1       -2 0.68363678E-01 0.27490285E+03</pdfrwt>
<totfact> 0.22089638E+03</totfact>
</mgrwt>
</event>
<event>
 9    1  0.2024718E-002  0.2762003E+03  0.7818608E-02  0.1097783E+00
          2   -1    0    0  501    0  0.00000000000E+00  0.00000000000E+00  0.70972700669E+03  0.70972700669E+03  0.00000000000E+00 0.  1.
         -2   -1    0    0    0  501 -0.00000000000E+00 -0.00000000000E+00 -0.26871808422E+02  0.26871808422E+02  0.00000000000E+00 0.  1.
         36    2    1    2    0    0 -0.35527136788E-14  0.71054273576E-14  0.68285519827E+03  0.73659881512E+03  0.27620027629E+03 0.  0.
         25    2    3    3    0    0  0.23632041037E+02  0.40659021183E+02  0.21918896256E+03  0.25428556887E+03  0.12002383038E+03 0.  0.
         25    2    3    3    0    0 -0.23632041037E+02 -0.40659021183E+02  0.46366623571E+03  0.48231324624E+03  0.12420974197E+03 0.  0.
          5    1    4    4  502    0 -0.40088676003E+02  0.56004761087E+01  0.14366029658E+03  0.14932795482E+03  0.47000000000E+01 0.  1.
         -5    1    4    4    0  502  0.63720717040E+02  0.35058545075E+02  0.75528665979E+02  0.10495761405E+03  0.47000000000E+01 0.  1.
          5    1    5    5  503    0 -0.21681242234E+02 -0.43867190724E+02  0.55648942521E+02  0.74251609346E+02  0.47000000000E+01 0.  1.
         -5    1    5    5    0  503 -0.19507988028E+01  0.32081695403E+01  0.40801729319E+03  0.40806163690E+03  0.47000000000E+01 0.  1.
<mgrwt>
<rscale>  0 0.27620028E+03</rscale>
<asrwt>0</asrwt>
<pdfrwt beam="1">  1        2 0.10918876E+00 0.27620028E+03</pdfrwt>
<pdfrwt beam="2">  1       -2 0.41341249E-02 0.27620028E+03</pdfrwt>
<totfact> 0.10741793E+04</totfact>
</mgrwt>
</event>
<event>
 9    1  0.2024718E-002  0.2747793E+03  0.7818608E-02  0.1098575E+00
         -1   -1    0    0    0  501 -0.00000000000E+00  0.00000000000E+00  0.21353075087E+02  0.21353075087E+02  0.00000000000E+00 0. -1.
          1   -1    0    0  501    0  0.00000000000E+00 -0.00000000000E+00 -0.88399065594E+03  0.88399065594E+03  0.00000000000E+00 0. -1.
         36    2    1    2    0    0  0.00000000000E+00  0.00000000000E+00 -0.86263758085E+03  0.90534373103E+03  0.27477932129E+03 0.  0.
         25    2    3    3    0    0 -0.36766207226E+02  0.43979693070E+02 -0.46834773045E+03  0.48708800206E+03  0.12090970903E+03 0.  0.
         25    2    3    3    0    0  0.36766207226E+02 -0.43979693070E+02 -0.39428985041E+03  0.41825572897E+03  0.12722971857E+03 0.  0.
          5    1    4    4  502    0 -0.20705406979E+02  0.56261542586E+02 -0.46124535500E+03  0.46514883915E+03  0.47000000000E+01 0. -1.
         -5    1    4    4    0  502 -0.16060800247E+02 -0.12281849516E+02 -0.71023754450E+01  0.21939162907E+02  0.47000000000E+01 0. -1.
          5    1    5    5  503    0  0.73637308310E+02 -0.18819794566E+02 -0.33689806743E+03  0.34539692482E+03  0.47000000000E+01 0. -1.
         -5    1    5    5    0  503 -0.36871101084E+02 -0.25159898504E+02 -0.57391782980E+02  0.72858804146E+02  0.47000000000E+01 0. -1.
<mgrwt>
<rscale>  0 0.27477932E+03</rscale>
<asrwt>0</asrwt>
<pdfrwt beam="1">  1        1 0.13599859E+00 0.27477932E+03</pdfrwt>
<pdfrwt beam="2">  1       -1 0.32850878E-02 0.27477932E+03</pdfrwt>
<totfact> 0.64748851E+03</totfact>
</mgrwt>
</event>
<event>
 9    1  0.2024718E-002  0.2738693E+03  0.7818608E-02  0.1099085E+00
          2   -1    0    0  501    0  0.00000000000E+00  0.00000000000E+00  0.11845293992E+04  0.11845293992E+04  0.00000000000E+00 0.  1.
         -2   -1    0    0    0  501 -0.00000000000E+00 -0.00000000000E+00 -0.15829995726E+02  0.15829995726E+02  0.00000000000E+00 0.  1.
         36    2    1    2    0    0  0.35527136788E-14  0.35527136788E-14  0.11686994035E+04  0.12003593949E+04  0.27386927777E+03 0.  0.
         25    2    3    3    0    0 -0.13867154082E+02 -0.18799987850E+02  0.30429024555E+03  0.32755412432E+03  0.11896811890E+03 0.  0.
         25    2    3    3    0    0  0.13867154082E+02  0.18799987850E+02  0.86440915794E+03  0.87280527062E+03  0.11849097263E+03 0.  0.
          5    1    4    4  502    0  0.20739428824E+02 -0.22836029981E+02  0.12437505452E+02  0.33591512545E+02  0.47000000000E+01 0.  1.
         -5    1    4    4    0  502 -0.34606582906E+02  0.40360421311E+01  0.29185274010E+03  0.29396261177E+03  0.47000000000E+01 0.  1.
          5    1    5    5  503    0  0.13114087900E+02 -0.38769292492E+02  0.13583309999E+03  0.14194279973E+03  0.47000000000E+01 0.  1.
         -5    1    5    5    0  503  0.75306618230E+00  0.57569280341E+02  0.72857605795E+03  0.73086247089E+03  0.47000000000E+01 0.  1.
<mgrwt>
<rscale>  0 0.27386928E+03</rscale>
<asrwt>0</asrwt>
<pdfrwt beam="1">  1        2 0.18223522E+00 0.27386928E+03</pdfrwt>
<pdfrwt beam="2">  1       -2 0.24353849E-02 0.27386928E+03</pdfrwt>
<totfact> 0.11764161E+04</totfact>
</mgrwt>
</event>
<event>
 8    1  0.2024718E-002  0.3135293E+03  0.7818608E-02  0.1078666E+00
          1   -1    0    0  501    0  0.00000000000E+00  0.00000000000E+00  0.15512695462E+03  0.15512695462E+03  0.00000000000E+00 0. -1.
         -1   -1    0    0    0  501 -0.00000000000E+00 -0.00000000000E+00 -0.15841959338E+03  0.15841959338E+03  0.00000000000E+00 0. -1.
         25    2    1    2    0    0  0.83140667245E+02  0.24949329348E+02 -0.24003205832E+02  0.15465004925E+03  0.12572050054E+03 0.  0.
         25    2    1    2    0    0 -0.83140667245E+02 -0.24949329348E+02  0.20710567071E+02  0.15889649876E+03  0.13146988303E+03 0.  0.
          5    1    3    3  502    0  0.38429050896E+02 -0.32165822060E+02 -0.55944360503E+02  0.75254857209E+02  0.47000000000E+01 0.  1.
         -5    1    3    3    0  502  0.44711616349E+02  0.57115151408E+02  0.31941154670E+02  0.79395192037E+02  0.47000000000E+01 0.  1.
          5    1    4    4  503    0 -0.37498046443E+02 -0.45940650945E+02 -0.46038864611E+02  0.75221765142E+02  0.47000000000E+01 0. -1.
         -5    1    4    4    0  503 -0.45642620802E+02  0.20991321597E+02  0.66749431682E+02  0.83674733618E+02  0.47000000000E+01 0. -1.
<mgrwt>
<rscale>  0 0.31352926E+03</rscale>
<asrwt>0</asrwt>
<pdfrwt beam="1">  1        1 0.23865685E-01 0.31352926E+03</pdfrwt>
<pdfrwt beam="2">  1       -1 0.24372245E-01 0.31352926E+03</pdfrwt>
<totfact> 0.29513776E+03</totfact>
</mgrwt>
</event>
<event>
 9    1  0.2024718E-002  0.2742118E+03  0.7818608E-02  0.1098893E+00
          2   -1    0    0  501    0  0.00000000000E+00  0.00000000000E+00  0.36505907273E+03  0.36505907273E+03  0.00000000000E+00 0. -1.
         -2   -1    0    0    0  501 -0.00000000000E+00 -0.00000000000E+00 -0.51493116649E+02  0.51493116649E+02  0.00000000000E+00 0. -1.
         36    2    1    2    0    0 -0.17763568394E-14  0.00000000000E+00  0.31356595609E+03  0.41655218938E+03  0.27421181168E+03 0.  0.
         25    2    3    3    0    0 -0.58176985567E+01 -0.37286324546E+02  0.10124708355E+03  0.16597010511E+03  0.12598011053E+03 0.  0.
         25    2    3    3    0    0  0.58176985567E+01  0.37286324546E+02  0.21231887253E+03  0.25058208427E+03  0.12762429905E+03 0.  0.
          5    1    4    4  502    0  0.53104188045E+01 -0.82509999644E+02  0.77757937637E+02  0.11359792012E+03  0.47000000000E+01 0.  1.
         -5    1    4    4    0  502 -0.11128117361E+02  0.45223675098E+02  0.23489145915E+02  0.52372184995E+02  0.47000000000E+01 0.  1.
          5    1    5    5  503    0  0.35275956624E+02  0.55130533410E+01  0.22963919924E+01  0.36085319578E+02  0.47000000000E+01 0. -1.
         -5    1    5    5    0  503 -0.29458258067E+02  0.31773271205E+02  0.21002248054E+03  0.21449676469E+03  0.47000000000E+01 0. -1.
<mgrwt>
<rscale>  0 0.27421181E+03</rscale>
<asrwt>0</asrwt>
<pdfrwt beam="1">  1        2 0.56162933E-01 0.27421181E+03</pdfrwt>
<pdfrwt beam="2">  1       -2 0.79220182E-02 0.27421181E+03</pdfrwt>
<totfact> 0.84134493E+03</totfact>
</mgrwt>
</event>
<event>
 9    1  0.2024718E-002  0.2734983E+03  0.7818608E-02  0.1099294E+00
          2   -1    0    0  501    0  0.00000000000E+00  0.00000000000E+00  0.23677823075E+02  0.23677823075E+02  0.00000000000E+00 0.  1.
         -2   -1    0    0    0  501 -0.00000000000E+00 -0.00000000000E+00 -0.78978261548E+03  0.78978261548E+03  0.00000000000E+00 0.  1.
         36    2    1    2    0    0  0.71054273576E-14 -0.71054273576E-14 -0.76610479241E+03  0.81346043856E+03  0.27349832202E+03 0.  0.
         25    2    3    3    0    0  0.22782130402E+02  0.47998566954E+02 -0.26388894348E+03  0.29249817182E+03  0.11443302901E+03 0.  0.
         25    2    3    3    0    0 -0.22782130402E+02 -0.47998566954E+02 -0.50221584892E+03  0.52096226674E+03  0.12789854011E+03 0.  0.
          5    1    4    4  502    0 -0.32204296530E+02  0.61256457427E+02 -0.14893665663E+03  0.16429755926E+03  0.47000000000E+01 0. -1.
         -5    1    4    4    0  502  0.54986426932E+02 -0.13257890474E+02 -0.11495228685E+03  0.12820061255E+03  0.47000000000E+01 0. -1.
          5    1    5    5  503    0  0.51329019191E+02 -0.26968695129E+02 -0.27207523174E+03  0.27822473013E+03  0.47000000000E+01 0. -1.
         -5    1    5    5    0  503 -0.74111149593E+02 -0.21029871825E+02 -0.23014061718E+03  0.24273753661E+03  0.47000000000E+01 0. -1.
<mgrwt>
<rscale>  0 0.27349832E+03</rscale>
<asrwt>0</asrwt>
<pdfrwt beam="1">  1        2 0.36427414E-02 0.27349832E+03</pdfrwt>
<pdfrwt beam="2">  1       -2 0.12150504E+00 0.27349832E+03</pdfrwt>
<totfact> 0.12951944E+03</totfact>
</mgrwt>
</event>
<event>
 9    1  0.2024718E-002  0.2751459E+03  0.7818608E-02  0.1098370E+00
         -2   -1    0    0    0  501 -0.00000000000E+00  0.00000000000E+00  0.29202633963E+02  0.29202633963E+02  0.00000000000E+00 0. -1.
          2   -1    0    0  501    0  0.00000000000E+00 -0.00000000000E+00 -0.64810320884E+03  0.64810320884E+03  0.00000000000E+00 0. -1.
         36    2    1    2    0    0  0.00000000000E+00  0.71054273576E-14 -0.61890057488E+03  0.67730584280E+03  0.27514593057E+03 0.  0.
         25    2    3    3    0    0 -0.76655558182E+01  0.34943554641E+02 -0.37352291050E+03  0.39596921306E+03  0.12646122043E+03 0.  0.
         25    2    3    3    0    0  0.76655558182E+01 -0.34943554641E+02 -0.24537766438E+03  0.28133662974E+03  0.13289201744E+03 0.  0.
          5    1    4    4  502    0 -0.33981161736E+02 -0.14227851876E+02 -0.29514827764E+02  0.47438024620E+02  0.47000000000E+01 0.  1.
         -5    1    4    4    0  502  0.26315605917E+02  0.49171406517E+02 -0.34400808273E+03  0.34853118844E+03  0.47000000000E+01 0.  1.
          5    1    5    5  503    0 -0.54286650718E+02 -0.21543408285E+02 -0.54005673344E+02  0.79686019101E+02  0.47000000000E+01 0.  1.
         -5    1    5    5    0  503  0.61952206536E+02 -0.13400146356E+02 -0.19137199104E+03  0.20165061064E+03  0.47000000000E+01 0.  1.
<mgrwt>
<rscale>  0 0.27514593E+03</rscale>
<asrwt>0</asrwt>
<pdfrwt beam="1">  1        2 0.99708191E-01 0.27514593E+03</pdfrwt>
<pdfrwt beam="2">  1       -2 0.44927127E-02 0.27514593E+03</pdfrwt>
<totfact> 0.10565915E+04</totfact>
</mgrwt>
</event>
<event>
 9    1  0.2024718E-002  0.2743678E+03  0.7818608E-02  0.1098806E+00
         -1   -1    0    0    0  501 -0.00000000000E+00  0.00000000000E+00  0.58170018578E+02  0.58170018578E+02  0.00000000000E+00 0. -1.
          1   -1    0    0  501    0  0.00000000000E+00 -0.00000000000E+00 -0.32352438127E+03  0.32352438127E+03  0.00000000000E+00 0. -1.
         36    2    1    2    0    0 -0.35527136788E-14  0.00000000000E+00 -0.26535436269E+03  0.38169439984E+03  0.27436777704E+03 0.  0.
         25    2    3    3    0    0 -0.21286663605E+01 -0.52943112659E+02 -0.80289997137E+02  0.15200832825E+03  0.11769683012E+03 0.  0.
         25    2    3    3    0    0  0.21286663605E+01  0.52943112659E+02 -0.18506436555E+03  0.22968607159E+03  0.12529711764E+03 0.  0.
          5    1    4    4  502    0 -0.28378130064E+02  0.24132985547E+02  0.18456152155E-01  0.37547431310E+02  0.47000000000E+01 0. -1.
         -5    1    4    4    0  502  0.26249463703E+02 -0.77076098206E+02 -0.80308453290E+02  0.11446089694E+03  0.47000000000E+01 0. -1.
          5    1    5    5  503    0  0.29586218102E+02  0.96081682143E+01 -0.17422393653E+03  0.17704160883E+03  0.47000000000E+01 0. -1.
         -5    1    5    5    0  503 -0.27457551741E+02  0.43334944445E+02 -0.10840429019E+02  0.52644462757E+02  0.47000000000E+01 0. -1.
<mgrwt>
<rscale>  0 0.27436778E+03</rscale>
<asrwt>0</asrwt>
<pdfrwt beam="1">  1        1 0.49772982E-01 0.27436778E+03</pdfrwt>
<pdfrwt beam="2">  1       -1 0.89492336E-02 0.27436778E+03</pdfrwt>
<totfact> 0.57259126E+03</totfact>
</mgrwt>
</event>
<event>
 9    1  0.2024718E-002  0.2753575E+03  0.7818608E-02  0.1098252E+00
          1   -1    0    0  501    0  0.00000000000E+00  0.00000000000E+00  0.16018728799E+03  0.16018728799E+03  0.00000000000E+00 0.  1.
         -1   -1    0    0    0  501 -0.00000000000E+00 -0.00000000000E+00 -0.11833298312E+03  0.11833298312E+03  0.00000000000E+00 0.  1.
         36    2    1    2    0    0 -0.71054273576E-14  0.00000000000E+00  0.41854304872E+02  0.27852027111E+03  0.27535751049E+03 0.  0.
         25    2    3    3    0    0  0.13248604758E+02 -0.12204559254E+02  0.62027519407E+02  0.13878352436E+03  0.12283719581E+03 0.  0.
         25    2    3    3    0    0 -0.13248604758E+02  0.12204559254E+02 -0.20173214536E+02  0.13973674675E+03  0.13709457689E+03 0.  0.
          5    1    4    4  502    0  0.53498624689E+02 -0.46518194302E+02  0.35224304092E+02  0.79302502126E+02  0.47000000000E+01 0.  1.
         -5    1    4    4    0  502 -0.40250019931E+02  0.34313635047E+02  0.26803215316E+02  0.59481022233E+02  0.47000000000E+01 0.  1.
          5    1    5    5  503    0  0.34601160159E+02 -0.49167565252E+02 -0.93393240014E+01  0.61024607578E+02  0.47000000000E+01 0.  1.
         -5    1    5    5    0  503 -0.47849764917E+02  0.61372124507E+02 -0.10833890534E+02  0.78712139173E+02  0.47000000000E+01 0.  1.
<mgrwt>
<rscale>  0 0.27535751E+03</rscale>
<asrwt>0</asrwt>
<pdfrwt beam="1">  1        1 0.24644198E-01 0.27535751E+03</pdfrwt>
<pdfrwt beam="2">  1       -1 0.18205074E-01 0.27535751E+03</pdfrwt>
<totfact> 0.45525873E+03</totfact>
</mgrwt>
</event>
<event>
 9    1  0.2024718E-002  0.2749340E+03  0.7818608E-02  0.1098488E+00
          2   -1    0    0  501    0  0.00000000000E+00  0.00000000000E+00  0.27571227056E+04  0.27571227056E+04  0.00000000000E+00 0. -1.
         -2   -1    0    0    0  501 -0.00000000000E+00 -0.00000000000E+00 -0.68539505761E+01  0.68539505761E+01  0.00000000000E+00 0. -1.
         36    2    1    2    0    0  0.00000000000E+00  0.71054273576E-14  0.27502687550E+04  0.27639766562E+04  0.27493404850E+03 0.  0.
         25    2    3    3    0    0  0.14107857102E+02 -0.51440334803E+01  0.77748666416E+03  0.78726487345E+03  0.12278019108E+03 0.  0.
         25    2    3    3    0    0 -0.14107857102E+02  0.51440334803E+01  0.19727820909E+04  0.19767117827E+04  0.12367215204E+03 0.  0.
          5    1    4    4  502    0  0.50642108471E+02 -0.44800341924E+02  0.36465672252E+03  0.37090202084E+03  0.47000000000E+01 0. -1.
         -5    1    4    4    0  502 -0.36534251370E+02  0.39656308444E+02  0.41282994164E+03  0.41636285261E+03  0.47000000000E+01 0. -1.
          5    1    5    5  503    0  0.31891135937E+02 -0.39534143126E+02  0.51698574771E+03  0.51949624288E+03  0.47000000000E+01 0. -1.
         -5    1    5    5    0  503 -0.45998993039E+02  0.44678176606E+02  0.14557963432E+04  0.14572155399E+04  0.47000000000E+01 0. -1.
<mgrwt>
<rscale>  0 0.27493405E+03</rscale>
<asrwt>0</asrwt>
<pdfrwt beam="1">  1        2 0.42417184E+00 0.27493405E+03</pdfrwt>
<pdfrwt beam="2">  1       -2 0.10544561E-02 0.27493405E+03</pdfrwt>
<totfact> 0.56893799E+03</totfact>
</mgrwt>
</event>
<event>
 9    1  0.2024718E-002  0.2755987E+03  0.7818608E-02  0.1098117E+00
          2   -1    0    0  501    0  0.00000000000E+00  0.00000000000E+00  0.64013926539E+03  0.64013926539E+03  0.00000000000E+00 0.  1.
         -2   -1    0    0    0  501 -0.00000000000E+00 -0.00000000000E+00 -0.29663317242E+02  0.29663317242E+02  0.00000000000E+00 0.  1.
         36    2    1    2    0    0  0.14210854715E-13  0.00000000000E+00  0.61047594815E+03  0.66980258263E+03  0.27559865100E+03 0.  0.
         25    2    3    3    0    0 -0.59123038863E+02  0.25943422279E+02  0.32957513156E+03  0.35520005850E+03  0.11566641400E+03 0.  0.
         25    2    3    3    0    0  0.59123038863E+02 -0.25943422279E+02  0.28090081658E+03  0.31460252413E+03  0.12609870955E+03 0.  0.
          5    1    4    4  502    0 -0.84375944563E+02  0.11542243750E+02  0.14447906537E+03  0.16777608215E+03  0.47000000000E+01 0.  1.
         -5    1    4    4    0  502  0.25252905701E+02  0.14401178528E+02  0.18509606619E+03  0.18742397634E+03  0.47000000000E+01 0.  1.
          5    1    5    5  503    0  0.48191604522E+02  0.47165835030E+02  0.13379970524E+03  0.14990496277E+03  0.47000000000E+01 0.  1.
         -5    1    5    5    0  503  0.10931434341E+02 -0.73109257309E+02  0.14710111135E+03  0.16469756137E+03  0.47000000000E+01 0.  1.
<mgrwt>
<rscale>  0 0.27559865E+03</rscale>
<asrwt>0</asrwt>
<pdfrwt beam="1">  1        2 0.98482953E-01 0.27559865E+03</pdfrwt>
<pdfrwt beam="2">  1       -2 0.45635878E-02 0.27559865E+03</pdfrwt>
<totfact> 0.10471454E+04</totfact>
</mgrwt>
</event>
<event>
 9    1  0.2024718E-002  0.2759429E+03  0.7818608E-02  0.1097926E+00
         -1   -1    0    0    0  501 -0.00000000000E+00  0.00000000000E+00  0.40581088344E+02  0.40581088344E+02  0.00000000000E+00 0.  1.
          1   -1    0    0  501    0  0.00000000000E+00 -0.00000000000E+00 -0.46908840239E+03  0.46908840239E+03  0.00000000000E+00 0.  1.
         36    2    1    2    0    0  0.00000000000E+00  0.00000000000E+00 -0.42850731405E+03  0.50966949074E+03  0.27594287741E+03 0.  0.
         25    2    3    3    0    0  0.52491594672E+02 -0.13113376807E+02 -0.26385627481E+03  0.29673287454E+03  0.12451079034E+03 0.  0.
         25    2    3    3    0    0 -0.52491594672E+02  0.13113376807E+02 -0.16465103924E+03  0.21293661620E+03  0.12371220487E+03 0.  0.
          5    1    4    4  502    0  0.79485915148E+02  0.28537251454E+02 -0.18529148205E+03  0.20368458152E+03  0.47000000000E+01 0. -1.
         -5    1    4    4    0  502 -0.26994320477E+02 -0.41650628261E+02 -0.78564792761E+02  0.93048293021E+02  0.47000000000E+01 0. -1.
          5    1    5    5  503    0 -0.17056203127E+02 -0.55076711161E+02 -0.65134832718E+02  0.87114835766E+02  0.47000000000E+01 0.  1.
         -5    1    5    5    0  503 -0.35435391545E+02  0.68190087968E+02 -0.99516206521E+02  0.12582178043E+03  0.47000000000E+01 0.  1.
<mgrwt>
<rscale>  0 0.27594288E+03</rscale>
<asrwt>0</asrwt>
<pdfrwt beam="1">  1        1 0.72167444E-01 0.27594288E+03</pdfrwt>
<pdfrwt beam="2">  1       -1 0.62432446E-02 0.27594288E+03</pdfrwt>
<totfact> 0.61546372E+03</totfact>
</mgrwt>
</event>
<event>
 8    1  0.2024718E-002  0.3505828E+03  0.7818608E-02  0.1062376E+00
         -1   -1    0    0    0  501 -0.00000000000E+00  0.00000000000E+00  0.80767283314E+01  0.80767283314E+01  0.00000000000E+00 0. -1.
          1   -1    0    0  501    0  0.00000000000E+00 -0.00000000000E+00 -0.38043961139E+04  0.38043961139E+04  0.00000000000E+00 0. -1.
         25    2    1    2    0    0 -0.83736941335E+02 -0.41764735199E+02 -0.28402289943E+04  0.28437097902E+04  0.10501648550E+03 0.  0.
         25    2    1    2    0    0  0.83736941335E+02  0.41764735199E+02 -0.95609039124E+03  0.96876305202E+03  0.12504737623E+03 0.  0.
          5    1    3    3  502    0  0.48394824410E+01  0.25093409863E+02 -0.32856655385E+03  0.32959243031E+03  0.47000000000E+01 0. -1.
         -5    1    3    3    0  502 -0.88576423776E+02 -0.66858145061E+02 -0.25116624405E+04  0.25141173599E+04  0.47000000000E+01 0. -1.
          5    1    4    4  503    0  0.39005080475E+02  0.50691077592E+01 -0.67400405466E+02  0.78179260762E+02  0.47000000000E+01 0. -1.
         -5    1    4    4    0  503  0.44731860860E+02  0.36695627439E+02 -0.88868998577E+03  0.89058379126E+03  0.47000000000E+01 0. -1.
<mgrwt>
<rscale>  0 0.35058279E+03</rscale>
<asrwt>0</asrwt>
<pdfrwt beam="1">  1        1 0.58529400E+00 0.35058279E+03</pdfrwt>
<pdfrwt beam="2">  1       -1 0.12425687E-02 0.35058279E+03</pdfrwt>
<totfact> 0.24519964E+02</totfact>
</mgrwt>
</event>
<event>
 9    1  0.2024718E-002  0.2749296E+03  0.7818608E-02  0.1098491E+00
          1   -1    0    0  501    0  0.00000000000E+00  0.00000000000E+00  0.18124319984E+04  0.18124319984E+04  0.00000000000E+00 0.  1.
         -1   -1    0    0    0  501 -0.00000000000E+00 -0.00000000000E+00 -0.10426087712E+02  0.10426087712E+02  0.00000000000E+00 0.  1.
         36    2    1    2    0    0  0.00000000000E+00  0.00000000000E+00  0.18020059107E+04  0.18228580861E+04  0.27492962727E+03 0.  0.
         25    2    3    3    0    0 -0.21040852523E+02  0.38389632815E+02  0.73701190929E+03  0.74970366641E+03  0.13020196473E+03 0.  0.
         25    2    3    3    0    0  0.21040852523E+02 -0.38389632815E+02  0.10649940014E+04  0.10731544197E+04  0.12462625774E+03 0.  0.
          5    1    4    4  502    0 -0.30465079963E+02  0.66490269014E+02  0.69032190478E+03  0.69420133909E+03  0.47000000000E+01 0. -1.
         -5    1    4    4    0  502  0.94242274408E+01 -0.28100636199E+02  0.46690004502E+02  0.55502327321E+02  0.47000000000E+01 0. -1.
          5    1    5    5  503    0  0.21813924937E+02  0.27977653992E+02  0.76646928276E+03  0.76730427332E+03  0.47000000000E+01 0. -1.
         -5    1    5    5    0  503 -0.77307241463E+00 -0.66367286807E+02  0.29852471862E+03  0.30585014636E+03  0.47000000000E+01 0. -1.
<mgrwt>
<rscale>  0 0.27492963E+03</rscale>
<asrwt>0</asrwt>
<pdfrwt beam="1">  1        1 0.27883544E+00 0.27492963E+03</pdfrwt>
<pdfrwt beam="2">  1       -1 0.16040149E-02 0.27492963E+03</pdfrwt>
<totfact> 0.42276237E+03</totfact>
</mgrwt>
</event>
<event>
 9    1  0.2024718E-002  0.2748254E+03  0.7818608E-02  0.1098549E+00
         -2   -1    0    0    0  501 -0.00000000000E+00  0.00000000000E+00  0.17768331214E+02  0.17768331214E+02  0.00000000000E+00 0. -1.
          2   -1    0    0  501    0  0.00000000000E+00 -0.00000000000E+00 -0.10626909684E+04  0.10626909684E+04  0.00000000000E+00 0. -1.
         36    2    1    2    0    0  0.00000000000E+00  0.00000000000E+00 -0.10449226372E+04  0.10804592996E+04  0.27482536349E+03 0.  0.
         25    2    3    3    0    0  0.42060251945E+02  0.10624816205E+02 -0.35660131366E+03  0.37995340790E+03  0.12376648882E+03 0.  0.
         25    2    3    3    0    0 -0.42060251945E+02 -0.10624816205E+02 -0.68832132352E+03  0.70050589171E+03  0.12263893507E+03 0.  0.
          5    1    4    4  502    0  0.76840056881E+02 -0.17414505759E+02 -0.16160529083E+03  0.17984999132E+03  0.47000000000E+01 0. -1.
         -5    1    4    4    0  502 -0.34779804936E+02  0.28039321965E+02 -0.19499602284E+03  0.20010341659E+03  0.47000000000E+01 0. -1.
          5    1    5    5  503    0 -0.48640461111E+02 -0.51767771179E+02 -0.24295004038E+03  0.25316518068E+03  0.47000000000E+01 0. -1.
         -5    1    5    5    0  503  0.65802091653E+01  0.41142954974E+02 -0.44537128314E+03  0.44734071103E+03  0.47000000000E+01 0. -1.
<mgrwt>
<rscale>  0 0.27482536E+03</rscale>
<asrwt>0</asrwt>
<pdfrwt beam="1">  1        2 0.16349092E+00 0.27482536E+03</pdfrwt>
<pdfrwt beam="2">  1       -2 0.27335894E-02 0.27482536E+03</pdfrwt>
<totfact> 0.11675981E+04</totfact>
</mgrwt>
</event>
<event>
 9    1  0.2024718E-002  0.2716515E+03  0.7818608E-02  0.1100338E+00
         -1   -1    0    0    0  501 -0.00000000000E+00  0.00000000000E+00  0.46101466360E+02  0.46101466360E+02  0.00000000000E+00 0.  1.
          1   -1    0    0  501    0  0.00000000000E+00 -0.00000000000E+00 -0.40017470299E+03  0.40017470299E+03  0.00000000000E+00 0.  1.
         36    2    1    2    0    0 -0.35527136788E-14  0.00000000000E+00 -0.35407323663E+03  0.44627616935E+03  0.27165154598E+03 0.  0.
         25    2    3    3    0    0  0.13356337579E+02  0.49896462724E+02 -0.13444091596E+03  0.18844609451E+03  0.12152992186E+03 0.  0.
         25    2    3    3    0    0 -0.13356337579E+02 -0.49896462724E+02 -0.21963232067E+03  0.25783007484E+03  0.12477957550E+03 0.  0.
          5    1    4    4  502    0  0.59117923853E+02  0.58943058623E+02 -0.99541854722E+02  0.12999955354E+03  0.47000000000E+01 0.  1.
         -5    1    4    4    0  502 -0.45761586274E+02 -0.90465958988E+01 -0.34899061240E+02  0.58446540968E+02  0.47000000000E+01 0.  1.
          5    1    5    5  503    0 -0.32470014243E+02 -0.23230855754E+02 -0.22103128484E+03  0.22465727979E+03  0.47000000000E+01 0. -1.
         -5    1    5    5    0  503  0.19113676664E+02 -0.26665606970E+02  0.13989641694E+01  0.33172795050E+02  0.47000000000E+01 0. -1.
<mgrwt>
<rscale>  0 0.27165155E+03</rscale>
<asrwt>0</asrwt>
<pdfrwt beam="1">  1        1 0.61565337E-01 0.27165155E+03</pdfrwt>
<pdfrwt beam="2">  1       -1 0.70925335E-02 0.27165155E+03</pdfrwt>
<totfact> 0.62309068E+03</totfact>
</mgrwt>
</event>
<event>
 9    1  0.2024718E-002  0.2753164E+03  0.7818608E-02  0.1098275E+00
         -2   -1    0    0    0  501 -0.00000000000E+00  0.00000000000E+00  0.12341523676E+02  0.12341523676E+02  0.00000000000E+00 0.  1.
          2   -1    0    0  501    0  0.00000000000E+00 -0.00000000000E+00 -0.15354489707E+04  0.15354489707E+04  0.00000000000E+00 0.  1.
         36    2    1    2    0    0 -0.71054273576E-14  0.00000000000E+00 -0.15231074470E+04  0.15477904943E+04  0.27531639853E+03 0.  0.
         25    2    3    3    0    0  0.78973630658E+01 -0.64688507280E+02 -0.69033833763E+03  0.70443389279E+03  0.12414957748E+03 0.  0.
         25    2    3    3    0    0 -0.78973630658E+01  0.64688507280E+02 -0.83276910935E+03  0.84335660155E+03  0.11618518220E+03 0.  0.
          5    1    4    4  502    0 -0.32398808522E+02 -0.19255171606E+02 -0.59024536858E+02  0.70188534523E+02  0.47000000000E+01 0. -1.
         -5    1    4    4    0  502  0.40296171588E+02 -0.45433335674E+02 -0.63131380077E+03  0.63424535827E+03  0.47000000000E+01 0. -1.
          5    1    5    5  503    0  0.45914898552E+02  0.64329971588E+02 -0.50237362099E+03  0.50857434876E+03  0.47000000000E+01 0.  1.
         -5    1    5    5    0  503 -0.53812261618E+02  0.35853569166E+00 -0.33039548837E+03  0.33478225279E+03  0.47000000000E+01 0.  1.
<mgrwt>
<rscale>  0 0.27531640E+03</rscale>
<asrwt>0</asrwt>
<pdfrwt beam="1">  1        2 0.23622301E+00 0.27531640E+03</pdfrwt>
<pdfrwt beam="2">  1       -2 0.18986952E-02 0.27531640E+03</pdfrwt>
<totfact> 0.10900615E+04</totfact>
</mgrwt>
</event>
<event>
 9    1  0.2024718E-002  0.2734146E+03  0.7818608E-02  0.1099341E+00
          2   -1    0    0  501    0  0.00000000000E+00  0.00000000000E+00  0.22309047888E+02  0.22309047888E+02  0.00000000000E+00 0. -1.
         -2   -1    0    0    0  501 -0.00000000000E+00 -0.00000000000E+00 -0.83772691112E+03  0.83772691112E+03  0.00000000000E+00 0. -1.
         36    2    1    2    0    0  0.71054273576E-14 -0.71054273576E-14 -0.81541786323E+03  0.86003595901E+03  0.27341462856E+03 0.  0.
         25    2    3    3    0    0  0.41404404390E+02 -0.22417217575E+02 -0.29144336994E+03  0.32068599465E+03  0.12523343379E+03 0.  0.
         25    2    3    3    0    0 -0.41404404390E+02  0.22417217575E+02 -0.52397449329E+03  0.53934996435E+03  0.11887917430E+03 0.  0.
          5    1    4    4  502    0 -0.24277675358E+02  0.35884781358E+02 -0.70518440169E+02  0.82897909851E+02  0.47000000000E+01 0.  1.
         -5    1    4    4    0  502  0.65682079748E+02 -0.58301998933E+02 -0.22092492977E+03  0.23778808480E+03  0.47000000000E+01 0.  1.
          5    1    5    5  503    0 -0.28211937051E+02 -0.47533690239E+02 -0.19552970615E+03  0.20324694607E+03  0.47000000000E+01 0.  1.
         -5    1    5    5    0  503 -0.13192467338E+02  0.69950907814E+02 -0.32844478714E+03  0.33610301829E+03  0.47000000000E+01 0.  1.
<mgrwt>
<rscale>  0 0.27341463E+03</rscale>
<asrwt>0</asrwt>
<pdfrwt beam="1">  1        2 0.34321617E-02 0.27341463E+03</pdfrwt>
<pdfrwt beam="2">  1       -2 0.12888105E+00 0.27341463E+03</pdfrwt>
<totfact> 0.12145008E+03</totfact>
</mgrwt>
</event>
<event>
 9    1  0.2024718E-002  0.2752937E+03  0.7818608E-02  0.1098288E+00
          1   -1    0    0  501    0  0.00000000000E+00  0.00000000000E+00  0.55350384423E+03  0.55350384423E+03  0.00000000000E+00 0.  1.
         -1   -1    0    0    0  501 -0.00000000000E+00 -0.00000000000E+00 -0.34230407447E+02  0.34230407447E+02  0.00000000000E+00 0.  1.
         36    2    1    2    0    0  0.00000000000E+00  0.71054273576E-14  0.51927343678E+03  0.58773425168E+03  0.27529374938E+03 0.  0.
         25    2    3    3    0    0  0.11468931444E+02  0.53211212226E+02  0.22194481107E+03  0.25965836429E+03  0.12328826988E+03 0.  0.
         25    2    3    3    0    0 -0.11468931444E+02 -0.53211212226E+02  0.29732862571E+03  0.32807588739E+03  0.12754021609E+03 0.  0.
          5    1    4    4  502    0 -0.33294493099E+02 -0.23047642538E+02  0.39032586978E+02  0.56438904521E+02  0.47000000000E+01 0.  1.
         -5    1    4    4    0  502  0.44763424543E+02  0.76258854764E+02  0.18291222409E+03  0.20321945977E+03  0.47000000000E+01 0.  1.
          5    1    5    5  503    0  0.14661351493E+02 -0.20768900070E+01 -0.79194965794E+01  0.17437807367E+02  0.47000000000E+01 0.  1.
         -5    1    5    5    0  503 -0.26130282937E+02 -0.51134322219E+02  0.30524812229E+03  0.31063808002E+03  0.47000000000E+01 0.  1.
<mgrwt>
<rscale>  0 0.27529375E+03</rscale>
<asrwt>0</asrwt>
<pdfrwt beam="1">  1        1 0.85154431E-01 0.27529375E+03</pdfrwt>
<pdfrwt beam="2">  1       -1 0.52662170E-02 0.27529375E+03</pdfrwt>
<totfact> 0.63759523E+03</totfact>
</mgrwt>
</event>
<event>
 9    1  0.2024718E-002  0.2749054E+03  0.7818608E-02  0.1098504E+00
          1   -1    0    0  501    0  0.00000000000E+00  0.00000000000E+00  0.30034310537E+03  0.30034310537E+03  0.00000000000E+00 0.  1.
         -1   -1    0    0    0  501 -0.00000000000E+00 -0.00000000000E+00 -0.62905547356E+02  0.62905547356E+02  0.00000000000E+00 0.  1.
         36    2    1    2    0    0  0.00000000000E+00  0.00000000000E+00  0.23743755801E+03  0.36324865273E+03  0.27490541965E+03 0.  0.
         25    2    3    3    0    0  0.56320369080E+02  0.30797661575E+02  0.80752209822E+02  0.16376182423E+03  0.12718701094E+03 0.  0.
         25    2    3    3    0    0 -0.56320369080E+02 -0.30797661575E+02  0.15668534819E+03  0.19948682850E+03  0.10547140121E+03 0.  0.
          5    1    4    4  502    0  0.32413786954E+02  0.68564885608E+02  0.90091684850E+02  0.11785753604E+03  0.47000000000E+01 0.  1.
         -5    1    4    4    0  502  0.23906582126E+02 -0.37767224033E+02 -0.93394750280E+01  0.45904288187E+02  0.47000000000E+01 0.  1.
          5    1    5    5  503    0 -0.20324933393E+02 -0.43266501570E+02  0.11605174509E+02  0.49415211736E+02  0.47000000000E+01 0.  1.
         -5    1    5    5    0  503 -0.35995435687E+02  0.12468839995E+02  0.14508017368E+03  0.15007161676E+03  0.47000000000E+01 0.  1.
<mgrwt>
<rscale>  0 0.27490542E+03</rscale>
<asrwt>0</asrwt>
<pdfrwt beam="1">  1        1 0.46206631E-01 0.27490542E+03</pdfrwt>
<pdfrwt beam="2">  1       -1 0.96777767E-02 0.27490542E+03</pdfrwt>
<totfact> 0.55746854E+03</totfact>
</mgrwt>
</event>
<event>
 9    1  0.2024718E-002  0.2750792E+03  0.7818608E-02  0.1098407E+00
         -2   -1    0    0    0  501 -0.00000000000E+00  0.00000000000E+00  0.61393704922E+02  0.61393704922E+02  0.00000000000E+00 0. -1.
          2   -1    0    0  501    0  0.00000000000E+00 -0.00000000000E+00 -0.30812832313E+03  0.30812832313E+03  0.00000000000E+00 0. -1.
         36    2    1    2    0    0  0.00000000000E+00  0.00000000000E+00 -0.24673461821E+03  0.36952202805E+03  0.27507918386E+03 0.  0.
         25    2    3    3    0    0  0.26647101254E+02  0.40521068221E+01 -0.58435015747E+02  0.14031596294E+03  0.12468933722E+03 0.  0.
         25    2    3    3    0    0 -0.26647101254E+02 -0.40521068221E+01 -0.18829960246E+03  0.22920606511E+03  0.12787569128E+03 0.  0.
          5    1    4    4  502    0  0.64866488218E+02  0.32072369577E+02 -0.57728967899E+02  0.92687765744E+02  0.47000000000E+01 0. -1.
         -5    1    4    4    0  502 -0.38219386964E+02 -0.28020262754E+02 -0.70604784794E+00  0.47628197197E+02  0.47000000000E+01 0. -1.
          5    1    5    5  503    0 -0.20890374359E+02 -0.29205921409E+02  0.27928854374E+01  0.36321946469E+02  0.47000000000E+01 0. -1.
         -5    1    5    5    0  503 -0.57567268954E+01  0.25153814587E+02 -0.19109248790E+03  0.19288411864E+03  0.47000000000E+01 0. -1.
<mgrwt>
<rscale>  0 0.27507918E+03</rscale>
<asrwt>0</asrwt>
<pdfrwt beam="1">  1        2 0.47404357E-01 0.27507918E+03</pdfrwt>
<pdfrwt beam="2">  1       -2 0.94451855E-02 0.27507918E+03</pdfrwt>
<totfact> 0.76628051E+03</totfact>
</mgrwt>
</event>
<event>
 9    1  0.2024718E-002  0.2757538E+03  0.7818608E-02  0.1098031E+00
          2   -1    0    0  501    0  0.00000000000E+00  0.00000000000E+00  0.19039833184E+04  0.19039833184E+04  0.00000000000E+00 0.  1.
         -2   -1    0    0    0  501 -0.00000000000E+00 -0.00000000000E+00 -0.99843513245E+01  0.99843513245E+01  0.00000000000E+00 0.  1.
         36    2    1    2    0    0 -0.71054273576E-14  0.71054273576E-14  0.18939989671E+04  0.19139676698E+04  0.27575379140E+03 0.  0.
         25    2    3    3    0    0 -0.17082236191E+02 -0.58057697282E+02  0.10602360430E+04  0.10688460748E+04  0.12111550605E+03 0.  0.
         25    2    3    3    0    0  0.17082236191E+02  0.58057697282E+02  0.83376292413E+03  0.84512159494E+03  0.12412653858E+03 0.  0.
          5    1    4    4  502    0  0.37870622139E+02 -0.91848717842E+01  0.70266644022E+03  0.70376186463E+03  0.47000000000E+01 0. -1.
         -5    1    4    4    0  502 -0.54952858330E+02 -0.48872825498E+02  0.35756960276E+03  0.36508421018E+03  0.47000000000E+01 0. -1.
          5    1    5    5  503    0 -0.24932482413E+02 -0.18026629028E+02  0.72492306109E+02  0.78891143219E+02  0.47000000000E+01 0. -1.
         -5    1    5    5    0  503  0.42014718604E+02  0.76084326310E+02  0.76127061802E+03  0.76623045172E+03  0.47000000000E+01 0. -1.
<mgrwt>
<rscale>  0 0.27575379E+03</rscale>
<asrwt>0</asrwt>
<pdfrwt beam="1">  1        2 0.29292022E+00 0.27575379E+03</pdfrwt>
<pdfrwt beam="2">  1       -2 0.15360556E-02 0.27575379E+03</pdfrwt>
<totfact> 0.95095446E+03</totfact>
</mgrwt>
</event>
<event>
 9    1  0.2024718E-002  0.2746643E+03  0.7818608E-02  0.1098639E+00
          1   -1    0    0  501    0  0.00000000000E+00  0.00000000000E+00  0.25251625573E+03  0.25251625573E+03  0.00000000000E+00 0.  1.
         -1   -1    0    0    0  501 -0.00000000000E+00 -0.00000000000E+00 -0.74688756797E+02  0.74688756797E+02  0.00000000000E+00 0.  1.
         36    2    1    2    0    0  0.71054273576E-14  0.00000000000E+00  0.17782749893E+03  0.32720501252E+03  0.27466434214E+03 0.  0.
         25    2    3    3    0    0  0.48769299470E+02  0.21598715870E+02  0.95379592611E+02  0.16495990145E+03  0.12357003400E+03 0.  0.
         25    2    3    3    0    0 -0.48769299470E+02 -0.21598715870E+02  0.82447906319E+02  0.16224511107E+03  0.12915444132E+03 0.  0.
          5    1    4    4  502    0  0.86731367280E+02 -0.58578820930E+01  0.55381842209E+02  0.10317888979E+03  0.47000000000E+01 0. -1.
         -5    1    4    4    0  502 -0.37962067810E+02  0.27456597963E+02  0.39997750402E+02  0.61781011657E+02  0.47000000000E+01 0. -1.
          5    1    5    5  503    0 -0.41865016938E+02 -0.11484001198E+01  0.11524128371E+03  0.12270550899E+03  0.47000000000E+01 0.  1.
         -5    1    5    5    0  503 -0.69042825314E+01 -0.20450315751E+02 -0.32793377393E+02  0.39539602077E+02  0.47000000000E+01 0.  1.
<mgrwt>
<rscale>  0 0.27466434E+03</rscale>
<asrwt>0</asrwt>
<pdfrwt beam="1">  1        1 0.38848654E-01 0.27466434E+03</pdfrwt>
<pdfrwt beam="2">  1       -1 0.11490578E-01 0.27466434E+03</pdfrwt>
<totfact> 0.53111241E+03</totfact>
</mgrwt>
</event>
<event>
 9    1  0.2024718E-002  0.2760188E+03  0.7818608E-02  0.1097883E+00
          2   -1    0    0  501    0  0.00000000000E+00  0.00000000000E+00  0.26412481547E+03  0.26412481547E+03  0.00000000000E+00 0.  1.
         -2   -1    0    0    0  501 -0.00000000000E+00 -0.00000000000E+00 -0.72112109344E+02  0.72112109344E+02  0.00000000000E+00 0.  1.
         36    2    1    2    0    0  0.00000000000E+00  0.00000000000E+00  0.19201270613E+03  0.33623692482E+03  0.27601882236E+03 0.  0.
         25    2    3    3    0    0  0.44289103871E+02  0.16470363196E+02  0.56325791797E+02  0.14658393881E+03  0.12681269144E+03 0.  0.
         25    2    3    3    0    0 -0.44289103871E+02 -0.16470363196E+02  0.13568691433E+03  0.18965298601E+03  0.12379224045E+03 0.  0.
          5    1    4    4  502    0  0.39668475073E+02  0.10488973659E+02 -0.35419421052E+02  0.54408012928E+02  0.47000000000E+01 0. -1.
         -5    1    4    4    0  502  0.46206287973E+01  0.59813895373E+01  0.91745212849E+02  0.92175925881E+02  0.47000000000E+01 0. -1.
          5    1    5    5  503    0 -0.11985908181E+01  0.11136233481E+02 -0.21271692423E+02  0.24495452938E+02  0.47000000000E+01 0.  1.
         -5    1    5    5    0  503 -0.43090513053E+02 -0.27606596678E+02  0.15695860675E+03  0.16515753307E+03  0.47000000000E+01 0.  1.
<mgrwt>
<rscale>  0 0.27601882E+03</rscale>
<asrwt>0</asrwt>
<pdfrwt beam="1">  1        2 0.40634586E-01 0.27601882E+03</pdfrwt>
<pdfrwt beam="2">  1       -2 0.11094171E-01 0.27601882E+03</pdfrwt>
<totfact> 0.70007135E+03</totfact>
</mgrwt>
</event>
<event>
 9    1  0.2024718E-002  0.2753488E+03  0.7818608E-02  0.1098257E+00
          2   -1    0    0  501    0  0.00000000000E+00  0.00000000000E+00  0.44782616187E+03  0.44782616187E+03  0.00000000000E+00 0. -1.
         -2   -1    0    0    0  501 -0.00000000000E+00 -0.00000000000E+00 -0.42324993986E+02  0.42324993986E+02  0.00000000000E+00 0. -1.
         36    2    1    2    0    0  0.14210854715E-13  0.00000000000E+00  0.40550116788E+03  0.49015115585E+03  0.27534879413E+03 0.  0.
         25    2    3    3    0    0 -0.50257030099E+02  0.24494110250E+02  0.22842384428E+03  0.26897872838E+03  0.13056176000E+03 0.  0.
         25    2    3    3    0    0  0.50257030099E+02 -0.24494110250E+02  0.17707732360E+03  0.22117242747E+03  0.12014630094E+03 0.  0.
          5    1    4    4  502    0  0.18515608672E+02 -0.38097112823E+02  0.38385305935E+02  0.57356250589E+02  0.47000000000E+01 0. -1.
         -5    1    4    4    0  502 -0.68772638772E+02  0.62591223073E+02  0.19003853834E+03  0.21162247779E+03  0.47000000000E+01 0. -1.
          5    1    5    5  503    0  0.64058969815E+02  0.18501987669E+02  0.42662733903E+02  0.79297377167E+02  0.47000000000E+01 0. -1.
         -5    1    5    5    0  503 -0.13801939716E+02 -0.42996097918E+02  0.13441458970E+03  0.14187505031E+03  0.47000000000E+01 0. -1.
<mgrwt>
<rscale>  0 0.27534879E+03</rscale>
<asrwt>0</asrwt>
<pdfrwt beam="1">  1        2 0.68896329E-01 0.27534879E+03</pdfrwt>
<pdfrwt beam="2">  1       -2 0.65115379E-02 0.27534879E+03</pdfrwt>
<totfact> 0.91305742E+03</totfact>
</mgrwt>
</event>
<event>
 9    1  0.2024718E-002  0.2757836E+03  0.7818608E-02  0.1098014E+00
         -4   -1    0    0    0  501 -0.00000000000E+00  0.00000000000E+00  0.74908909855E+03  0.74908909855E+03  0.00000000000E+00 0.  1.
          4   -1    0    0  501    0  0.00000000000E+00 -0.00000000000E+00 -0.25383021647E+02  0.25383021647E+02  0.00000000000E+00 0.  1.
         36    2    1    2    0    0  0.00000000000E+00  0.00000000000E+00  0.72370607690E+03  0.77447212019E+03  0.27578357314E+03 0.  0.
         25    2    3    3    0    0 -0.27634444235E+02  0.24334843592E+02  0.42858849288E+03  0.44786968943E+03  0.12467283329E+03 0.  0.
         25    2    3    3    0    0  0.27634444235E+02 -0.24334843592E+02  0.29511758402E+03  0.32660243076E+03  0.13497745094E+03 0.  0.
          5    1    4    4  502    0  0.73133737115E+01  0.16559474437E+02  0.40342247726E+03  0.40385577473E+03  0.47000000000E+01 0. -1.
         -5    1    4    4    0  502 -0.34947817946E+02  0.77753691552E+01  0.25166015622E+02  0.44013914697E+02  0.47000000000E+01 0. -1.
          5    1    5    5  503    0  0.42652269174E+02 -0.20675571138E+02  0.30430944508E+03  0.30801464847E+03  0.47000000000E+01 0.  1.
         -5    1    5    5    0  503 -0.15017824939E+02 -0.36592724546E+01 -0.91918610596E+01  0.18587782292E+02  0.47000000000E+01 0.  1.
<mgrwt>
<rscale>  0 0.27578357E+03</rscale>
<asrwt>0</asrwt>
<pdfrwt beam="1">  1        4 0.39050808E-02 0.27578357E+03</pdfrwt>
<pdfrwt beam="2">  1       -4 0.11524446E+00 0.27578357E+03</pdfrwt>
<totfact> 0.40576154E+02</totfact>
</mgrwt>
</event>
<event>
 9    1  0.2024718E-002  0.2746177E+03  0.7818608E-02  0.1098665E+00
          2   -1    0    0  501    0  0.00000000000E+00  0.00000000000E+00  0.17326351666E+04  0.17326351666E+04  0.00000000000E+00 0. -1.
         -2   -1    0    0    0  501 -0.00000000000E+00 -0.00000000000E+00 -0.10881532262E+02  0.10881532262E+02  0.00000000000E+00 0. -1.
         36    2    1    2    0    0 -0.71054273576E-14 -0.35527136788E-14  0.17217536343E+04  0.17435166989E+04  0.27461773769E+03 0.  0.
         25    2    3    3    0    0  0.28442486808E+02  0.28886791862E+02  0.12030434558E+04  0.12097132010E+04  0.12020420270E+03 0.  0.
         25    2    3    3    0    0 -0.28442486808E+02 -0.28886791862E+02  0.51871017857E+03  0.53380349789E+03  0.11934195911E+03 0.  0.
          5    1    4    4  502    0  0.55554316398E+02 -0.14114135327E+01  0.10439781516E+04  0.10454667595E+04  0.47000000000E+01 0. -1.
         -5    1    4    4    0  502 -0.27111829589E+02  0.30298205395E+02  0.15906530416E+03  0.16424644149E+03  0.47000000000E+01 0. -1.
          5    1    5    5  503    0 -0.27522740767E+02  0.32050072153E+02  0.77606372441E+02  0.88484729913E+02  0.47000000000E+01 0. -1.
         -5    1    5    5    0  503 -0.91974604123E+00 -0.60936864015E+02  0.44110380613E+03  0.44531876797E+03  0.47000000000E+01 0. -1.
<mgrwt>
<rscale>  0 0.27461774E+03</rscale>
<asrwt>0</asrwt>
<pdfrwt beam="1">  1        2 0.26655904E+00 0.27461774E+03</pdfrwt>
<pdfrwt beam="2">  1       -2 0.16740833E-02 0.27461774E+03</pdfrwt>
<totfact> 0.10312848E+04</totfact>
</mgrwt>
</event>
<event>
 9    1  0.2024718E-002  0.2748746E+03  0.7818608E-02  0.1098522E+00
         -2   -1    0    0    0  501 -0.00000000000E+00  0.00000000000E+00  0.22213772809E+02  0.22213772809E+02  0.00000000000E+00 0.  1.
          2   -1    0    0  501    0  0.00000000000E+00 -0.00000000000E+00 -0.85032901250E+03  0.85032901250E+03  0.00000000000E+00 0.  1.
         36    2    1    2    0    0  0.17763568394E-14  0.71054273576E-14 -0.82811523969E+03  0.87254278531E+03  0.27487462958E+03 0.  0.
         25    2    3    3    0    0  0.16979069245E+01  0.30848056275E+02 -0.35685851227E+03  0.38414018287E+03  0.13878471405E+03 0.  0.
         25    2    3    3    0    0 -0.16979069245E+01 -0.30848056275E+02 -0.47125672743E+03  0.48840260244E+03  0.12449784521E+03 0.  0.
          5    1    4    4  502    0 -0.14805891070E+02  0.82766038794E+02 -0.25481645328E+03  0.26837091208E+03  0.47000000000E+01 0. -1.
         -5    1    4    4    0  502  0.16503797994E+02 -0.51917982519E+02 -0.10204205898E+03  0.11576927079E+03  0.47000000000E+01 0. -1.
          5    1    5    5  503    0 -0.28703581096E+02  0.44584052676E+01 -0.21532328804E+02  0.36462365927E+02  0.47000000000E+01 0.  1.
         -5    1    5    5    0  503  0.27005674171E+02 -0.35306461542E+02 -0.44972439862E+03  0.45194023651E+03  0.47000000000E+01 0.  1.
<mgrwt>
<rscale>  0 0.27487463E+03</rscale>
<asrwt>0</asrwt>
<pdfrwt beam="1">  1        2 0.13081987E+00 0.27487463E+03</pdfrwt>
<pdfrwt beam="2">  1       -2 0.34175029E-02 0.27487463E+03</pdfrwt>
<totfact> 0.11380820E+04</totfact>
</mgrwt>
</event>
<event>
 9    1  0.2024718E-002  0.2756040E+03  0.7818608E-02  0.1098114E+00
         -2   -1    0    0    0  501 -0.00000000000E+00  0.00000000000E+00  0.90811118890E+01  0.90811118890E+01  0.00000000000E+00 0.  1.
          2   -1    0    0  501    0  0.00000000000E+00 -0.00000000000E+00 -0.20910872896E+04  0.20910872896E+04  0.00000000000E+00 0.  1.
         36    2    1    2    0    0  0.71054273576E-14 -0.71054273576E-14 -0.20820061777E+04  0.21001684015E+04  0.27560404675E+03 0.  0.
         25    2    3    3    0    0  0.43826376727E+02  0.26794692507E+02 -0.12694631844E+04  0.12764754037E+04  0.12334493467E+03 0.  0.
         25    2    3    3    0    0 -0.43826376727E+02 -0.26794692507E+02 -0.81254299331E+03  0.82369299777E+03  0.12492130224E+03 0.  0.
          5    1    4    4  502    0  0.74834636293E+02  0.47083315633E+02 -0.10613571164E+04  0.10650436986E+04  0.47000000000E+01 0. -1.
         -5    1    4    4    0  502 -0.31008259567E+02 -0.20288623126E+02 -0.20810606800E+03  0.21143170511E+03  0.47000000000E+01 0. -1.
          5    1    5    5  503    0 -0.16648637569E+02  0.23332426280E+02 -0.66211702077E+03  0.66275381435E+03  0.47000000000E+01 0. -1.
         -5    1    5    5    0  503 -0.27177739157E+02 -0.50127118787E+02 -0.15042597254E+03  0.16093918342E+03  0.47000000000E+01 0. -1.
<mgrwt>
<rscale>  0 0.27560405E+03</rscale>
<asrwt>0</asrwt>
<pdfrwt beam="1">  1        2 0.32170593E+00 0.27560405E+03</pdfrwt>
<pdfrwt beam="2">  1       -2 0.13970933E-02 0.27560405E+03</pdfrwt>
<totfact> 0.87076446E+03</totfact>
</mgrwt>
</event>
<event>
 9    1  0.2024718E-002  0.2817578E+03  0.7818608E-02  0.1094733E+00
         -1   -1    0    0    0  501 -0.00000000000E+00  0.00000000000E+00  0.24814840654E+02  0.24814840654E+02  0.00000000000E+00 0.  1.
          1   -1    0    0  501    0  0.00000000000E+00 -0.00000000000E+00 -0.79979796979E+03  0.79979796979E+03  0.00000000000E+00 0.  1.
         36    2    1    2    0    0  0.71054273576E-14  0.17763568394E-14 -0.77498312914E+03  0.82461281045E+03  0.28175776245E+03 0.  0.
         25    2    3    3    0    0  0.30326009671E+02  0.54136157417E+01 -0.21093914513E+03  0.24644466254E+03  0.12365546752E+03 0.  0.
         25    2    3    3    0    0 -0.30326009671E+02 -0.54136157417E+01 -0.56404398401E+03  0.57816814791E+03  0.12322263290E+03 0.  0.
          5    1    4    4  502    0  0.56322676338E+02  0.35975880643E+02 -0.18889397770E+03  0.20042338354E+03  0.47000000000E+01 0. -1.
         -5    1    4    4    0  502 -0.25996666668E+02 -0.30562264902E+02 -0.22045167429E+02  0.46021278999E+02  0.47000000000E+01 0. -1.
          5    1    5    5  503    0 -0.29621901414E+02 -0.19315633430E+02 -0.38757426975E+02  0.52676169981E+02  0.47000000000E+01 0.  1.
         -5    1    5    5    0  503 -0.70410825706E+00  0.13902017688E+02 -0.52528655704E+03  0.52549197793E+03  0.47000000000E+01 0.  1.
<mgrwt>
<rscale>  0 0.28175776E+03</rscale>
<asrwt>0</asrwt>
<pdfrwt beam="1">  1        1 0.12304585E+00 0.28175776E+03</pdfrwt>
<pdfrwt beam="2">  1       -1 0.38176674E-02 0.28175776E+03</pdfrwt>
<totfact> 0.60710552E+03</totfact>
</mgrwt>
</event>
<event>
 9    1  0.2024718E-002  0.2754186E+03  0.7818608E-02  0.1098218E+00
          3   -1    0    0  501    0  0.00000000000E+00  0.00000000000E+00  0.24435217115E+03  0.24435217115E+03  0.00000000000E+00 0.  1.
         -3   -1    0    0    0  501 -0.00000000000E+00 -0.00000000000E+00 -0.77608708173E+02  0.77608708173E+02  0.00000000000E+00 0.  1.
         36    2    1    2    0    0  0.00000000000E+00  0.71054273576E-14  0.16674346297E+03  0.32196087932E+03  0.27541863657E+03 0.  0.
         25    2    3    3    0    0 -0.45997063918E+02  0.59372769826E+01  0.90770735720E+02  0.16946399633E+03  0.13537997799E+03 0.  0.
         25    2    3    3    0    0  0.45997063918E+02 -0.59372769826E+01  0.75972727254E+02  0.15249688299E+03  0.12382432269E+03 0.  0.
          5    1    4    4  502    0 -0.78911188046E+02  0.44585240139E+02  0.46664282896E+02  0.10205128385E+03  0.47000000000E+01 0. -1.
         -5    1    4    4    0  502  0.32914124128E+02 -0.38647963156E+02  0.44106452824E+02  0.67412712480E+02  0.47000000000E+01 0. -1.
          5    1    5    5  503    0  0.25097160591E+01  0.52552629807E+02  0.93585108699E+01  0.53644657702E+02  0.47000000000E+01 0. -1.
         -5    1    5    5    0  503  0.43487347859E+02 -0.58489906789E+02  0.66614216384E+02  0.98852225289E+02  0.47000000000E+01 0. -1.
<mgrwt>
<rscale>  0 0.27541864E+03</rscale>
<asrwt>0</asrwt>
<pdfrwt beam="1">  1        3 0.37592641E-01 0.27541864E+03</pdfrwt>
<pdfrwt beam="2">  1       -3 0.11939801E-01 0.27541864E+03</pdfrwt>
<totfact> 0.97608513E+02</totfact>
</mgrwt>
</event>
<event>
 9    1  0.2024718E-002  0.2737495E+03  0.7818608E-02  0.1099153E+00
         -2   -1    0    0    0  501 -0.00000000000E+00  0.00000000000E+00  0.63042243574E+01  0.63042243574E+01  0.00000000000E+00 0. -1.
          2   -1    0    0  501    0  0.00000000000E+00 -0.00000000000E+00 -0.29717696210E+04  0.29717696210E+04  0.00000000000E+00 0. -1.
         36    2    1    2    0    0  0.00000000000E+00 -0.71054273576E-14 -0.29654653966E+04  0.29780738453E+04  0.27374953829E+03 0.  0.
         25    2    3    3    0    0 -0.55591492488E+02  0.13335609702E+02 -0.15139147821E+04  0.15199960804E+04  0.12321470901E+03 0.  0.
         25    2    3    3    0    0  0.55591492488E+02 -0.13335609702E+02 -0.14515506145E+04  0.14580777649E+04  0.12539270112E+03 0.  0.
          5    1    4    4  502    0 -0.35996650673E+02  0.52671935605E+02 -0.12994968079E+04  0.13010703807E+04  0.47000000000E+01 0. -1.
         -5    1    4    4    0  502 -0.19594841815E+02 -0.39336325902E+02 -0.21441797419E+03  0.21892569976E+03  0.47000000000E+01 0. -1.
          5    1    5    5  503    0  0.16092461043E+02  0.52115152667E+02 -0.39809301357E+03  0.40183963704E+03  0.47000000000E+01 0. -1.
         -5    1    5    5    0  503  0.39499031444E+02 -0.65450762370E+02 -0.10534576009E+04  0.10562381279E+04  0.47000000000E+01 0. -1.
<mgrwt>
<rscale>  0 0.27374954E+03</rscale>
<asrwt>0</asrwt>
<pdfrwt beam="1">  1        2 0.45719636E+00 0.27374954E+03</pdfrwt>
<pdfrwt beam="2">  1       -2 0.96987847E-03 0.27374954E+03</pdfrwt>
<totfact> 0.48267217E+03</totfact>
</mgrwt>
</event>
<event>
 9    1  0.2024718E-002  0.2745552E+03  0.7818608E-02  0.1098700E+00
          2   -1    0    0  501    0  0.00000000000E+00  0.00000000000E+00  0.72861559441E+02  0.72861559441E+02  0.00000000000E+00 0.  1.
         -2   -1    0    0    0  501 -0.00000000000E+00 -0.00000000000E+00 -0.25864311205E+03  0.25864311205E+03  0.00000000000E+00 0.  1.
         36    2    1    2    0    0 -0.35527136788E-14  0.71054273576E-14 -0.18578155261E+03  0.33150467149E+03  0.27455520744E+03 0.  0.
         25    2    3    3    0    0  0.28176137628E+02  0.40565570139E+02 -0.13003533211E+03  0.18625158375E+03  0.12385880930E+03 0.  0.
         25    2    3    3    0    0 -0.28176137628E+02 -0.40565570139E+02 -0.55746220500E+02  0.14525308774E+03  0.12470508484E+03 0.  0.
          5    1    4    4  502    0 -0.62886902612E+01  0.77696608357E+02 -0.10100658093E+03  0.12767431208E+03  0.47000000000E+01 0.  1.
         -5    1    4    4    0  502  0.34464827890E+02 -0.37131038218E+02 -0.29028751178E+02  0.58577271664E+02  0.47000000000E+01 0.  1.
          5    1    5    5  503    0  0.16151011979E+02  0.38280715841E+02 -0.70029137910E+01  0.42395745008E+02  0.47000000000E+01 0.  1.
         -5    1    5    5    0  503 -0.44327149607E+02 -0.78846285980E+02 -0.48743306709E+02  0.10285734273E+03  0.47000000000E+01 0.  1.
<mgrwt>
<rscale>  0 0.27455521E+03</rscale>
<asrwt>0</asrwt>
<pdfrwt beam="1">  1        2 0.11209471E-01 0.27455521E+03</pdfrwt>
<pdfrwt beam="2">  1       -2 0.39791247E-01 0.27455521E+03</pdfrwt>
<totfact> 0.33296439E+03</totfact>
</mgrwt>
</event>
<event>
 9    1  0.2024718E-002  0.2742834E+03  0.7818608E-02  0.1098853E+00
         -1   -1    0    0    0  501 -0.00000000000E+00  0.00000000000E+00  0.11955528192E+02  0.11955528192E+02  0.00000000000E+00 0.  1.
          1   -1    0    0  501    0  0.00000000000E+00 -0.00000000000E+00 -0.15731510640E+04  0.15731510640E+04  0.00000000000E+00 0.  1.
         36    2    1    2    0    0  0.00000000000E+00  0.71054273576E-14 -0.15611955358E+04  0.15851065922E+04  0.27428344387E+03 0.  0.
         25    2    3    3    0    0  0.54771724745E+02 -0.23761221820E+02 -0.77229913500E+03  0.78320402235E+03  0.11574994258E+03 0.  0.
         25    2    3    3    0    0 -0.54771724745E+02  0.23761221820E+02 -0.78889640078E+03  0.80190256981E+03  0.13086505576E+03 0.  0.
          5    1    4    4  502    0 -0.15927935547E+02 -0.44649072900E+02 -0.17549691810E+03  0.18184745559E+03  0.47000000000E+01 0. -1.
         -5    1    4    4    0  502  0.70699660292E+02  0.20887851081E+02 -0.59680221690E+03  0.60135656676E+03  0.47000000000E+01 0. -1.
          5    1    5    5  503    0 -0.43864561395E+02 -0.41022652342E+02 -0.18820609629E+03  0.19761220214E+03  0.47000000000E+01 0.  1.
         -5    1    5    5    0  503 -0.10907163350E+02  0.64783874162E+02 -0.60069030449E+03  0.60429036768E+03  0.47000000000E+01 0.  1.
<mgrwt>
<rscale>  0 0.27428344E+03</rscale>
<asrwt>0</asrwt>
<pdfrwt beam="1">  1        1 0.24202332E+00 0.27428344E+03</pdfrwt>
<pdfrwt beam="2">  1       -1 0.18393114E-02 0.27428344E+03</pdfrwt>
<totfact> 0.49622669E+03</totfact>
</mgrwt>
</event>
<event>
 9    1  0.2024718E-002  0.2746995E+03  0.7818608E-02  0.1098620E+00
         -2   -1    0    0    0  501 -0.00000000000E+00  0.00000000000E+00  0.15491824165E+02  0.15491824165E+02  0.00000000000E+00 0.  1.
          2   -1    0    0  501    0  0.00000000000E+00 -0.00000000000E+00 -0.12177363614E+04  0.12177363614E+04  0.00000000000E+00 0.  1.
         36    2    1    2    0    0  0.00000000000E+00  0.00000000000E+00 -0.12022445372E+04  0.12332281855E+04  0.27469952740E+03 0.  0.
         25    2    3    3    0    0 -0.46270419428E+01  0.34062377615E+02 -0.38854957967E+03  0.40953073432E+03  0.12475171904E+03 0.  0.
         25    2    3    3    0    0  0.46270419428E+01 -0.34062377615E+02 -0.81369495751E+03  0.82369745120E+03  0.12327348514E+03 0.  0.
          5    1    4    4  502    0 -0.33239259833E+02  0.37322187058E+02 -0.54065642914E+02  0.73776539528E+02  0.47000000000E+01 0. -1.
         -5    1    4    4    0  502  0.28612217890E+02 -0.32598094437E+01 -0.33448393676E+03  0.33575419479E+03  0.47000000000E+01 0. -1.
          5    1    5    5  503    0  0.39993871139E+02  0.28347051401E+02 -0.20794211055E+03  0.21369388478E+03  0.47000000000E+01 0.  1.
         -5    1    5    5    0  503 -0.35366829196E+02 -0.62409429016E+02 -0.60575284696E+03  0.61000356642E+03  0.47000000000E+01 0.  1.
<mgrwt>
<rscale>  0 0.27469953E+03</rscale>
<asrwt>0</asrwt>
<pdfrwt beam="1">  1        2 0.18734403E+00 0.27469953E+03</pdfrwt>
<pdfrwt beam="2">  1       -2 0.23833579E-02 0.27469953E+03</pdfrwt>
<totfact> 0.11630493E+04</totfact>
</mgrwt>
</event>
<event>
 9    1  0.2024718E-002  0.2702424E+03  0.7818608E-02  0.1101141E+00
          2   -1    0    0  501    0  0.00000000000E+00  0.00000000000E+00  0.20705293301E+04  0.20705293301E+04  0.00000000000E+00 0.  1.
         -2   -1    0    0    0  501 -0.00000000000E+00 -0.00000000000E+00 -0.88179089117E+01  0.88179089117E+01  0.00000000000E+00 0.  1.
         36    2    1    2    0    0  0.14210854715E-13 -0.35527136788E-14  0.20617114212E+04  0.20793472391E+04  0.27024240254E+03 0.  0.
         25    2    3    3    0    0 -0.46751802336E+02  0.64177155245E+01  0.11295824379E+04  0.11374048810E+04  0.12452494182E+03 0.  0.
         25    2    3    3    0    0  0.46751802336E+02 -0.64177155245E+01  0.93212898334E+03  0.94194235810E+03  0.12713790271E+03 0.  0.
          5    1    4    4  502    0 -0.81608624398E+02  0.53314548220E+01  0.99261147180E+03  0.99598595168E+03  0.47000000000E+01 0.  1.
         -5    1    4    4    0  502  0.34856822061E+02  0.10862607025E+01  0.13697096609E+03  0.14141892928E+03  0.47000000000E+01 0.  1.
          5    1    5    5  503    0 -0.55377482011E+01  0.52671947806E+02  0.27650959603E+03  0.28157529622E+03  0.47000000000E+01 0.  1.
         -5    1    5    5    0  503  0.52289550538E+02 -0.59089663330E+02  0.65561938731E+03  0.66036706189E+03  0.47000000000E+01 0.  1.
<mgrwt>
<rscale>  0 0.27024240E+03</rscale>
<asrwt>0</asrwt>
<pdfrwt beam="1">  1        2 0.31854259E+00 0.27024240E+03</pdfrwt>
<pdfrwt beam="2">  1       -2 0.13566030E-02 0.27024240E+03</pdfrwt>
<totfact> 0.93183105E+03</totfact>
</mgrwt>
</event>
<event>
 9    1  0.2024718E-002  0.2750562E+03  0.7818608E-02  0.1098420E+00
          2   -1    0    0  501    0  0.00000000000E+00  0.00000000000E+00  0.15985514404E+03  0.15985514404E+03  0.00000000000E+00 0.  1.
         -2   -1    0    0    0  501 -0.00000000000E+00 -0.00000000000E+00 -0.11831948091E+03  0.11831948091E+03  0.00000000000E+00 0.  1.
         36    2    1    2    0    0 -0.71054273576E-14  0.00000000000E+00  0.41535663136E+02  0.27817462495E+03  0.27505619545E+03 0.  0.
         25    2    3    3    0    0 -0.44689337692E+02  0.21914457712E+02  0.52894935063E+02  0.14211201077E+03  0.12214978138E+03 0.  0.
         25    2    3    3    0    0  0.44689337692E+02 -0.21914457712E+02 -0.11359271927E+02  0.13606261418E+03  0.12612145558E+03 0.  0.
          5    1    4    4  502    0 -0.37114915508E+02  0.29840956101E+02  0.90656097193E+02  0.10251154848E+03  0.47000000000E+01 0. -1.
         -5    1    4    4    0  502 -0.75744221835E+01 -0.79264983888E+01 -0.37761162129E+02  0.39600462289E+02  0.47000000000E+01 0. -1.
          5    1    5    5  503    0 -0.37078274301E+02  0.44382341185E+01  0.22216696624E+02  0.43705468263E+02  0.47000000000E+01 0. -1.
         -5    1    5    5    0  503  0.81767611993E+02 -0.26352691830E+02 -0.33575968551E+02  0.92357145917E+02  0.47000000000E+01 0. -1.
<mgrwt>
<rscale>  0 0.27505620E+03</rscale>
<asrwt>0</asrwt>
<pdfrwt beam="1">  1        2 0.24593099E-01 0.27505620E+03</pdfrwt>
<pdfrwt beam="2">  1       -2 0.18202997E-01 0.27505620E+03</pdfrwt>
<totfact> 0.53753679E+03</totfact>
</mgrwt>
</event>
<event>
 9    1  0.2024718E-002  0.2773360E+03  0.7818608E-02  0.1097153E+00
          2   -1    0    0  501    0  0.00000000000E+00  0.00000000000E+00  0.37791940971E+03  0.37791940971E+03  0.00000000000E+00 0.  1.
         -2   -1    0    0    0  501 -0.00000000000E+00 -0.00000000000E+00 -0.50880736348E+02  0.50880736348E+02  0.00000000000E+00 0.  1.
         36    2    1    2    0    0 -0.71054273576E-14  0.00000000000E+00  0.32703867336E+03  0.42880014606E+03  0.27733602612E+03 0.  0.
         25    2    3    3    0    0 -0.45596181555E+02  0.62364317100E+01  0.90223833238E+02  0.15407853746E+03  0.11611180288E+03 0.  0.
         25    2    3    3    0    0  0.45596181555E+02 -0.62364317100E+01  0.23681484013E+03  0.27472160860E+03  0.13142598250E+03 0.  0.
          5    1    4    4  502    0 -0.82927368135E+02 -0.10325682492E+02  0.63229990254E+02  0.10489847364E+03  0.47000000000E+01 0. -1.
         -5    1    4    4    0  502  0.37331186579E+02  0.16562114202E+02  0.26993842985E+02  0.49180063820E+02  0.47000000000E+01 0. -1.
          5    1    5    5  503    0 -0.29677582258E+01 -0.10053373149E+01  0.22391184288E+03  0.22398308346E+03  0.47000000000E+01 0.  1.
         -5    1    5    5    0  503  0.48563939781E+02 -0.52310943951E+01  0.12902997241E+02  0.50738525141E+02  0.47000000000E+01 0.  1.
<mgrwt>
<rscale>  0 0.27733603E+03</rscale>
<asrwt>0</asrwt>
<pdfrwt beam="1">  1        2 0.58141446E-01 0.27733603E+03</pdfrwt>
<pdfrwt beam="2">  1       -2 0.78278058E-02 0.27733603E+03</pdfrwt>
<totfact> 0.82604135E+03</totfact>
</mgrwt>
</event>
<event>
 9    1  0.2024718E-002  0.2752910E+03  0.7818608E-02  0.1098289E+00
          4   -1    0    0  501    0  0.00000000000E+00  0.00000000000E+00  0.31221283122E+02  0.31221283122E+02  0.00000000000E+00 0.  1.
         -4   -1    0    0    0  501 -0.00000000000E+00 -0.00000000000E+00 -0.60683861327E+03  0.60683861327E+03  0.00000000000E+00 0.  1.
         36    2    1    2    0    0  0.00000000000E+00 -0.71054273576E-14 -0.57561733015E+03  0.63805989639E+03  0.27529097446E+03 0.  0.
         25    2    3    3    0    0 -0.53013950956E+02  0.10999618549E+01 -0.29180910209E+03  0.32178259074E+03  0.12481904792E+03 0.  0.
         25    2    3    3    0    0  0.53013950956E+02 -0.10999618549E+01 -0.28380822805E+03  0.31627730565E+03  0.12912217025E+03 0.  0.
          5    1    4    4  502    0 -0.50942065944E+02 -0.56550446740E+02 -0.14198026119E+03  0.16116305928E+03  0.47000000000E+01 0. -1.
         -5    1    4    4    0  502 -0.20718850124E+01  0.57650408595E+02 -0.14982884090E+03  0.16061953145E+03  0.47000000000E+01 0. -1.
          5    1    5    5  503    0 -0.29112802018E+02 -0.23190033374E+02 -0.17019912735E+03  0.17428472636E+03  0.47000000000E+01 0. -1.
         -5    1    5    5    0  503  0.82126752975E+02  0.22090071519E+02 -0.11360910070E+03  0.14199257930E+03  0.47000000000E+01 0. -1.
<mgrwt>
<rscale>  0 0.27529097E+03</rscale>
<asrwt>0</asrwt>
<pdfrwt beam="1">  1        4 0.48032747E-02 0.27529097E+03</pdfrwt>
<pdfrwt beam="2">  1       -4 0.93359779E-01 0.27529097E+03</pdfrwt>
<totfact> 0.47791990E+02</totfact>
</mgrwt>
</event>
<event>
 9    1  0.2024718E-002  0.2748298E+03  0.7818608E-02  0.1098547E+00
         -2   -1    0    0    0  501 -0.00000000000E+00  0.00000000000E+00  0.99180325832E+02  0.99180325832E+02  0.00000000000E+00 0. -1.
          2   -1    0    0  501    0  0.00000000000E+00 -0.00000000000E+00 -0.19038917188E+03  0.19038917188E+03  0.00000000000E+00 0. -1.
         36    2    1    2    0    0 -0.14210854715E-13 -0.71054273576E-14 -0.91208846050E+02  0.28956949771E+03  0.27482983901E+03 0.  0.
         25    2    3    3    0    0 -0.48212733308E+02 -0.33210770123E+02 -0.33366233431E+02  0.14129603048E+03  0.12419275257E+03 0.  0.
         25    2    3    3    0    0  0.48212733308E+02  0.33210770123E+02 -0.57842612620E+02  0.14827346723E+03  0.12333624912E+03 0.  0.
          5    1    4    4  502    0 -0.84183680729E+02 -0.22469808018E+01 -0.39631891125E+02  0.93191833429E+02  0.47000000000E+01 0.  1.
         -5    1    4    4    0  502  0.35970947421E+02 -0.30963789321E+02  0.62656576942E+01  0.48104197050E+02  0.47000000000E+01 0.  1.
          5    1    5    5  503    0  0.12616590173E+02 -0.43807310829E+02 -0.41318602546E+02  0.61705556849E+02  0.47000000000E+01 0.  1.
         -5    1    5    5    0  503  0.35596143135E+02  0.77018080953E+02 -0.16524010074E+02  0.86567910386E+02  0.47000000000E+01 0.  1.
<mgrwt>
<rscale>  0 0.27482984E+03</rscale>
<asrwt>0</asrwt>
<pdfrwt beam="1">  1        2 0.29290642E-01 0.27482984E+03</pdfrwt>
<pdfrwt beam="2">  1       -2 0.15258512E-01 0.27482984E+03</pdfrwt>
<totfact> 0.59470143E+03</totfact>
</mgrwt>
</event>
<event>
 9    1  0.2024718E-002  0.2754328E+03  0.7818608E-02  0.1098210E+00
         -2   -1    0    0    0  501 -0.00000000000E+00  0.00000000000E+00  0.44203318947E+01  0.44203318947E+01  0.00000000000E+00 0. -1.
          2   -1    0    0  501    0  0.00000000000E+00 -0.00000000000E+00 -0.42905846859E+04  0.42905846859E+04  0.00000000000E+00 0. -1.
         36    2    1    2    0    0  0.00000000000E+00 -0.35527136788E-14 -0.42861643540E+04  0.42950050178E+04  0.27543281093E+03 0.  0.
         25    2    3    3    0    0  0.19677779358E+02  0.95453154759E+01 -0.27565713823E+04  0.27595845906E+04  0.12705510113E+03 0.  0.
         25    2    3    3    0    0 -0.19677779358E+02 -0.95453154759E+01 -0.15295929716E+04  0.15354204272E+04  0.13184423087E+03 0.  0.
          5    1    4    4  502    0 -0.44471615887E+02  0.12495477145E+02 -0.51508419095E+03  0.51717277126E+03  0.47000000000E+01 0. -1.
         -5    1    4    4    0  502  0.64149395244E+02 -0.29501616695E+01 -0.22414871914E+04  0.22424118194E+04  0.47000000000E+01 0. -1.
          5    1    5    5  503    0 -0.20670925726E+02  0.58838109080E+02 -0.58184689021E+03  0.58519834577E+03  0.47000000000E+01 0. -1.
         -5    1    5    5    0  503  0.99314636872E+00 -0.68383424556E+02 -0.94774608144E+03  0.95022208140E+03  0.47000000000E+01 0. -1.
<mgrwt>
<rscale>  0 0.27543281E+03</rscale>
<asrwt>0</asrwt>
<pdfrwt beam="1">  1        2 0.66009038E+00 0.27543281E+03</pdfrwt>
<pdfrwt beam="2">  1       -2 0.68005062E-03 0.27543281E+03</pdfrwt>
<totfact> 0.97143604E+02</totfact>
</mgrwt>
</event>
<event>
 9    1  0.2024718E-002  0.2694665E+03  0.7818608E-02  0.1101585E+00
         -2   -1    0    0    0  501 -0.00000000000E+00  0.00000000000E+00  0.91462359012E+02  0.91462359012E+02  0.00000000000E+00 0.  1.
          2   -1    0    0  501    0  0.00000000000E+00 -0.00000000000E+00 -0.19847561403E+03  0.19847561403E+03  0.00000000000E+00 0.  1.
         36    2    1    2    0    0 -0.17763568394E-14 -0.10658141036E-13 -0.10701325501E+03  0.28993797304E+03  0.26946649413E+03 0.  0.
         25    2    3    3    0    0  0.43028829889E+01  0.28056219100E+02 -0.88346030151E+02  0.15872648982E+03  0.12877659452E+03 0.  0.
         25    2    3    3    0    0 -0.43028829889E+01 -0.28056219100E+02 -0.18667224863E+02  0.13121148322E+03  0.12673721557E+03 0.  0.
          5    1    4    4  502    0  0.41525138830E+02  0.47596819888E+02 -0.29272045338E+01  0.63407041760E+02  0.47000000000E+01 0. -1.
         -5    1    4    4    0  502 -0.37222255842E+02 -0.19540600788E+02 -0.85418825618E+02  0.95319448063E+02  0.47000000000E+01 0. -1.
          5    1    5    5  503    0 -0.17401182658E+02 -0.57728751372E+02  0.33850692681E+02  0.69306343778E+02  0.47000000000E+01 0. -1.
         -5    1    5    5    0  503  0.13098299669E+02  0.29672532272E+02 -0.52517917544E+02  0.61905139438E+02  0.47000000000E+01 0. -1.
<mgrwt>
<rscale>  0 0.26946649E+03</rscale>
<asrwt>0</asrwt>
<pdfrwt beam="1">  1        2 0.30534710E-01 0.26946649E+03</pdfrwt>
<pdfrwt beam="2">  1       -2 0.14071132E-01 0.26946649E+03</pdfrwt>
<totfact> 0.64881972E+03</totfact>
</mgrwt>
</event>
<event>
 9    1  0.2024718E-002  0.2762214E+03  0.7818608E-02  0.1097771E+00
          1   -1    0    0  501    0  0.00000000000E+00  0.00000000000E+00  0.39937851422E+03  0.39937851422E+03  0.00000000000E+00 0.  1.
         -1   -1    0    0    0  501 -0.00000000000E+00 -0.00000000000E+00 -0.47760635617E+02  0.47760635617E+02  0.00000000000E+00 0.  1.
         36    2    1    2    0    0  0.71054273576E-14  0.00000000000E+00  0.35161787861E+03  0.44713914984E+03  0.27622144516E+03 0.  0.
         25    2    3    3    0    0 -0.44497359308E+02 -0.33768529580E+02  0.25008201832E+03  0.28725899728E+03  0.12983214954E+03 0.  0.
         25    2    3    3    0    0  0.44497359308E+02  0.33768529580E+02  0.10153586029E+03  0.15988015256E+03  0.11014446733E+03 0.  0.
          5    1    4    4  502    0 -0.79434452122E+02  0.12411295920E+02  0.17213032024E+03  0.19003896862E+03  0.47000000000E+01 0.  1.
         -5    1    4    4    0  502  0.34937092815E+02 -0.46179825500E+02  0.77951698083E+02  0.97220028654E+02  0.47000000000E+01 0.  1.
          5    1    5    5  503    0 -0.32718028384E+02  0.29483307189E+02  0.24474023733E+02  0.50604373544E+02  0.47000000000E+01 0.  1.
         -5    1    5    5    0  503  0.77215387692E+02  0.42852223914E+01  0.77061836554E+02  0.10927577902E+03  0.47000000000E+01 0.  1.
<mgrwt>
<rscale>  0 0.27622145E+03</rscale>
<asrwt>0</asrwt>
<pdfrwt beam="1">  1        1 0.61442846E-01 0.27622145E+03</pdfrwt>
<pdfrwt beam="2">  1       -1 0.73477903E-02 0.27622145E+03</pdfrwt>
<totfact> 0.59231387E+03</totfact>
</mgrwt>
</event>
<event>
 8    1  0.2024718E-002  0.3669638E+03  0.7818608E-02  0.1055860E+00
          1   -1    0    0  501    0  0.00000000000E+00  0.00000000000E+00  0.50119923061E+02  0.50119923061E+02  0.00000000000E+00 0.  1.
         -1   -1    0    0    0  501 -0.00000000000E+00 -0.00000000000E+00 -0.67170094403E+03  0.67170094403E+03  0.00000000000E+00 0.  1.
         25    2    1    2    0    0 -0.10525330173E+03  0.73508072000E+02 -0.37333598142E+03  0.41499872109E+03  0.12791594627E+03 0.  0.
         25    2    1    2    0    0  0.10525330173E+03 -0.73508072000E+02 -0.24824503955E+03  0.30682214600E+03  0.12661964871E+03 0.  0.
          5    1    3    3  502    0 -0.50414808150E+02  0.29035199189E+02 -0.32320073395E+02  0.66718609225E+02  0.47000000000E+01 0.  1.
         -5    1    3    3    0  502 -0.54838493584E+02  0.44472872811E+02 -0.34101590803E+03  0.34828011187E+03  0.47000000000E+01 0.  1.
          5    1    4    4  503    0  0.78514728218E+02 -0.84623835061E+02 -0.25202425974E+03  0.27724370778E+03  0.47000000000E+01 0. -1.
         -5    1    4    4    0  503  0.26738573516E+02  0.11115763061E+02  0.37792201916E+01  0.29578438217E+02  0.47000000000E+01 0. -1.
<mgrwt>
<rscale>  0 0.36696376E+03</rscale>
<asrwt>0</asrwt>
<pdfrwt beam="1">  1        1 0.77107579E-02 0.36696376E+03</pdfrwt>
<pdfrwt beam="2">  1       -1 0.10333860E+00 0.36696376E+03</pdfrwt>
<totfact> 0.85824628E+02</totfact>
</mgrwt>
</event>
<event>
 9    1  0.2024718E-002  0.2743371E+03  0.7818608E-02  0.1098823E+00
          1   -1    0    0  501    0  0.00000000000E+00  0.00000000000E+00  0.34982489248E+02  0.34982489248E+02  0.00000000000E+00 0.  1.
         -1   -1    0    0    0  501 -0.00000000000E+00 -0.00000000000E+00 -0.53784658779E+03  0.53784658779E+03  0.00000000000E+00 0.  1.
         36    2    1    2    0    0  0.17763568394E-14  0.00000000000E+00 -0.50286409854E+03  0.57282907704E+03  0.27433710995E+03 0.  0.
         25    2    3    3    0    0 -0.78823723077E+01 -0.14771355007E+02 -0.14684509396E+03  0.19443135457E+03  0.12633188551E+03 0.  0.
         25    2    3    3    0    0  0.78823723077E+01  0.14771355007E+02 -0.35601900458E+03  0.37839772247E+03  0.12710224241E+03 0.  0.
          5    1    4    4  502    0 -0.33114295829E+02 -0.52731255489E+02 -0.30717496598E+02  0.69590203987E+02  0.47000000000E+01 0. -1.
         -5    1    4    4    0  502  0.25231923522E+02  0.37959900482E+02 -0.11612759737E+03  0.12484115058E+03  0.47000000000E+01 0. -1.
          5    1    5    5  503    0 -0.95559597740E+01  0.38406976528E+02 -0.27239130447E+02  0.48274967020E+02  0.47000000000E+01 0.  1.
         -5    1    5    5    0  503  0.17438332082E+02 -0.23635621522E+02 -0.32877987413E+03  0.33012275545E+03  0.47000000000E+01 0.  1.
<mgrwt>
<rscale>  0 0.27433711E+03</rscale>
<asrwt>0</asrwt>
<pdfrwt beam="1">  1        1 0.53819214E-02 0.27433711E+03</pdfrwt>
<pdfrwt beam="2">  1       -1 0.82745629E-01 0.27433711E+03</pdfrwt>
<totfact> 0.22795420E+03</totfact>
</mgrwt>
</event>
<event>
 9    1  0.2024718E-002  0.2745756E+03  0.7818608E-02  0.1098689E+00
         -1   -1    0    0    0  501 -0.00000000000E+00  0.00000000000E+00  0.45162164226E+02  0.45162164226E+02  0.00000000000E+00 0.  1.
          1   -1    0    0  501    0  0.00000000000E+00 -0.00000000000E+00 -0.41733919559E+03  0.41733919559E+03  0.00000000000E+00 0.  1.
         36    2    1    2    0    0  0.71054273576E-14 -0.14210854715E-13 -0.37217703136E+03  0.46250135981E+03  0.27457560918E+03 0.  0.
         25    2    3    3    0    0  0.33192565382E+02  0.44168874779E+02 -0.22518376142E+03  0.26102921163E+03  0.11989948714E+03 0.  0.
         25    2    3    3    0    0 -0.33192565382E+02 -0.44168874779E+02 -0.14699326994E+03  0.20147214819E+03  0.12621952778E+03 0.  0.
          5    1    4    4  502    0  0.43201142035E+02  0.24797346521E+02 -0.23229168829E+03  0.23761895024E+03  0.47000000000E+01 0.  1.
         -5    1    4    4    0  502 -0.10008576653E+02  0.19371528258E+02  0.71079268637E+01  0.23410261382E+02  0.47000000000E+01 0.  1.
          5    1    5    5  503    0 -0.34629833081E+02 -0.61190376343E+02 -0.16300978825E+03  0.17758876248E+03  0.47000000000E+01 0.  1.
         -5    1    5    5    0  503  0.14372676985E+01  0.17021501564E+02  0.16016518309E+02  0.23883385704E+02  0.47000000000E+01 0.  1.
<mgrwt>
<rscale>  0 0.27457561E+03</rscale>
<asrwt>0</asrwt>
<pdfrwt beam="1">  1        1 0.64206032E-01 0.27457561E+03</pdfrwt>
<pdfrwt beam="2">  1       -1 0.69480251E-02 0.27457561E+03</pdfrwt>
<totfact> 0.60928351E+03</totfact>
</mgrwt>
</event>
<event>
 9    1  0.2024718E-002  0.2744207E+03  0.7818608E-02  0.1098776E+00
         -3   -1    0    0    0  501 -0.00000000000E+00  0.00000000000E+00  0.60230232590E+03  0.60230232590E+03  0.00000000000E+00 0. -1.
          3   -1    0    0  501    0  0.00000000000E+00 -0.00000000000E+00 -0.31257854609E+02  0.31257854609E+02  0.00000000000E+00 0. -1.
         36    2    1    2    0    0 -0.35527136788E-14  0.00000000000E+00  0.57104447129E+03  0.63356018051E+03  0.27442068824E+03 0.  0.
         25    2    3    3    0    0 -0.21521194704E+02 -0.47673301146E+02  0.26148688850E+03  0.29490457956E+03  0.12592621938E+03 0.  0.
         25    2    3    3    0    0  0.21521194704E+02  0.47673301146E+02  0.30955758280E+03  0.33865560095E+03  0.12698745420E+03 0.  0.
          5    1    4    4  502    0  0.70533414759E+01  0.24236742035E+02  0.18226070108E+03  0.18406037719E+03  0.47000000000E+01 0. -1.
         -5    1    4    4    0  502 -0.28574536180E+02 -0.71910043181E+02  0.79226187412E+02  0.11084420237E+03  0.47000000000E+01 0. -1.
          5    1    5    5  503    0  0.31758274191E+02  0.64238370928E+02  0.77205657691E+02  0.10544173680E+03  0.47000000000E+01 0. -1.
         -5    1    5    5    0  503 -0.10237079487E+02 -0.16565069783E+02  0.23235192511E+03  0.23321386415E+03  0.47000000000E+01 0. -1.
<mgrwt>
<rscale>  0 0.27442069E+03</rscale>
<asrwt>0</asrwt>
<pdfrwt beam="1">  1        3 0.48089012E-02 0.27442069E+03</pdfrwt>
<pdfrwt beam="2">  1       -3 0.92661888E-01 0.27442069E+03</pdfrwt>
<totfact> 0.66237771E+02</totfact>
</mgrwt>
</event>
<event>
 9    1  0.2024718E-002  0.2757087E+03  0.7818608E-02  0.1098056E+00
          2   -1    0    0  501    0  0.00000000000E+00  0.00000000000E+00  0.46513451554E+03  0.46513451554E+03  0.00000000000E+00 0. -1.
         -2   -1    0    0    0  501 -0.00000000000E+00 -0.00000000000E+00 -0.40856626044E+02  0.40856626044E+02  0.00000000000E+00 0. -1.
         36    2    1    2    0    0  0.26645352591E-14 -0.71054273576E-14  0.42427788950E+03  0.50599114158E+03  0.27570873734E+03 0.  0.
         25    2    3    3    0    0 -0.10694190550E+00  0.57319557871E+02  0.21552373114E+03  0.25584553091E+03  0.12538306844E+03 0.  0.
         25    2    3    3    0    0  0.10694190550E+00 -0.57319557871E+02  0.20875415836E+03  0.25014561068E+03  0.12533548882E+03 0.  0.
          5    1    4    4  502    0 -0.28509943288E+02  0.73856677371E+02  0.67499567403E+02  0.10414368564E+03  0.47000000000E+01 0. -1.
         -5    1    4    4    0  502  0.28403001383E+02 -0.16537119499E+02  0.14802416374E+03  0.15170184527E+03  0.47000000000E+01 0. -1.
          5    1    5    5  503    0 -0.67057439329E+01 -0.23545666692E+02  0.21358810608E+03  0.21503798381E+03  0.47000000000E+01 0.  1.
         -5    1    5    5    0  503  0.68126858384E+01 -0.33773891179E+02 -0.48339477211E+01  0.35107626868E+02  0.47000000000E+01 0.  1.
<mgrwt>
<rscale>  0 0.27570874E+03</rscale>
<asrwt>0</asrwt>
<pdfrwt beam="1">  1        2 0.71559153E-01 0.27570874E+03</pdfrwt>
<pdfrwt beam="2">  1       -2 0.62856351E-02 0.27570874E+03</pdfrwt>
<totfact> 0.92462981E+03</totfact>
</mgrwt>
</event>
<event>
 9    1  0.2024718E-002  0.2761668E+03  0.7818608E-02  0.1097801E+00
         -1   -1    0    0    0  501 -0.00000000000E+00  0.00000000000E+00  0.41422139577E+03  0.41422139577E+03  0.00000000000E+00 0.  1.
          1   -1    0    0  501    0  0.00000000000E+00 -0.00000000000E+00 -0.46031005085E+02  0.46031005085E+02  0.00000000000E+00 0.  1.
         36    2    1    2    0    0  0.14210854715E-13 -0.71054273576E-14  0.36819039068E+03  0.46025240085E+03  0.27616681317E+03 0.  0.
         25    2    3    3    0    0  0.47732314966E+02 -0.37226357366E+02  0.18057258547E+03  0.22741521201E+03  0.12428613944E+03 0.  0.
         25    2    3    3    0    0 -0.47732314966E+02  0.37226357366E+02  0.18761780521E+03  0.23283718884E+03  0.12388922512E+03 0.  0.
          5    1    4    4  502    0  0.29813606438E+02 -0.30407558986E+02  0.19707974668E+03  0.20168288803E+03  0.47000000000E+01 0. -1.
         -5    1    4    4    0  502  0.17918708528E+02 -0.68187983803E+01 -0.16507161205E+02  0.25732323986E+02  0.47000000000E+01 0. -1.
          5    1    5    5  503    0 -0.46646992701E+02  0.62708526548E+01  0.19499608189E+03  0.20065100915E+03  0.47000000000E+01 0. -1.
         -5    1    5    5    0  503 -0.10853222647E+01  0.30955504711E+02 -0.73782766767E+01  0.32186179691E+02  0.47000000000E+01 0. -1.
<mgrwt>
<rscale>  0 0.27616681E+03</rscale>
<asrwt>0</asrwt>
<pdfrwt beam="1">  1        1 0.70816934E-02 0.27616681E+03</pdfrwt>
<pdfrwt beam="2">  1       -1 0.63726366E-01 0.27616681E+03</pdfrwt>
<totfact> 0.26490740E+03</totfact>
</mgrwt>
</event>
<event>
 9    1  0.2024718E-002  0.2740331E+03  0.7818608E-02  0.1098993E+00
         -2   -1    0    0    0  501 -0.00000000000E+00  0.00000000000E+00  0.27679162724E+03  0.27679162724E+03  0.00000000000E+00 0. -1.
          2   -1    0    0  501    0  0.00000000000E+00 -0.00000000000E+00 -0.67825501278E+02  0.67825501278E+02  0.00000000000E+00 0. -1.
         36    2    1    2    0    0  0.00000000000E+00  0.00000000000E+00  0.20896612596E+03  0.34461712851E+03  0.27403307003E+03 0.  0.
         25    2    3    3    0    0 -0.43801076037E+02  0.58369177756E+01  0.14482805637E+03  0.19797995070E+03  0.12754721125E+03 0.  0.
         25    2    3    3    0    0  0.43801076037E+02 -0.58369177756E+01  0.64138069585E+02  0.14663717781E+03  0.12424236828E+03 0.  0.
          5    1    4    4  502    0 -0.18212825579E+02  0.37034629323E+02 -0.58271978271E+01  0.41944213178E+02  0.47000000000E+01 0.  1.
         -5    1    4    4    0  502 -0.25588250458E+02 -0.31197711547E+02  0.15065525420E+03  0.15603573753E+03  0.47000000000E+01 0.  1.
          5    1    5    5  503    0  0.49244897528E+02 -0.18823293287E+02  0.97042942479E+02  0.11053867643E+03  0.47000000000E+01 0. -1.
         -5    1    5    5    0  503 -0.54438214914E+01  0.12986375512E+02 -0.32904872894E+02  0.36098501375E+02  0.47000000000E+01 0. -1.
<mgrwt>
<rscale>  0 0.27403307E+03</rscale>
<asrwt>0</asrwt>
<pdfrwt beam="1">  1        2 0.10434693E-01 0.27403307E+03</pdfrwt>
<pdfrwt beam="2">  1       -2 0.42583327E-01 0.27403307E+03</pdfrwt>
<totfact> 0.31924512E+03</totfact>
</mgrwt>
</event>
<event>
 9    1  0.2024718E-002  0.2710003E+03  0.7818608E-02  0.1100708E+00
         -1   -1    0    0    0  501 -0.00000000000E+00  0.00000000000E+00  0.39075605931E+02  0.39075605931E+02  0.00000000000E+00 0.  1.
          1   -1    0    0  501    0  0.00000000000E+00 -0.00000000000E+00 -0.46986596304E+03  0.46986596304E+03  0.00000000000E+00 0.  1.
         36    2    1    2    0    0  0.00000000000E+00 -0.71054273576E-14 -0.43079035711E+03  0.50894156897E+03  0.27100034843E+03 0.  0.
         25    2    3    3    0    0  0.11144860321E+02 -0.50684112630E+02 -0.24581360371E+03  0.27976071254E+03  0.12307981689E+03 0.  0.
         25    2    3    3    0    0 -0.11144860321E+02  0.50684112630E+02 -0.18497675340E+03  0.22918085643E+03  0.12495750667E+03 0.  0.
          5    1    4    4  502    0  0.29652988989E+02 -0.18133088745E+02 -0.43235649781E+01  0.35339664366E+02  0.47000000000E+01 0.  1.
         -5    1    4    4    0  502 -0.18508128668E+02 -0.32551023885E+02 -0.24149003873E+03  0.24442104817E+03  0.47000000000E+01 0.  1.
          5    1    5    5  503    0 -0.11654244142E+01  0.74874222384E+02 -0.46712247991E+02  0.88383434557E+02  0.47000000000E+01 0. -1.
         -5    1    5    5    0  503 -0.99794359066E+01 -0.24190109755E+02 -0.13826450541E+03  0.14079742188E+03  0.47000000000E+01 0. -1.
<mgrwt>
<rscale>  0 0.27100035E+03</rscale>
<asrwt>0</asrwt>
<pdfrwt beam="1">  1        1 0.72287074E-01 0.27100035E+03</pdfrwt>
<pdfrwt beam="2">  1       -1 0.60116315E-02 0.27100035E+03</pdfrwt>
<totfact> 0.64981981E+03</totfact>
</mgrwt>
</event>
<event>
 9    1  0.2024718E-002  0.2766652E+03  0.7818608E-02  0.1097524E+00
         -2   -1    0    0    0  501 -0.00000000000E+00  0.00000000000E+00  0.19535067260E+02  0.19535067260E+02  0.00000000000E+00 0. -1.
          2   -1    0    0  501    0  0.00000000000E+00 -0.00000000000E+00 -0.97956697689E+03  0.97956697689E+03  0.00000000000E+00 0. -1.
         36    2    1    2    0    0 -0.71054273576E-14 -0.71054273576E-14 -0.96003190963E+03  0.99910204415E+03  0.27666518956E+03 0.  0.
         25    2    3    3    0    0 -0.39909550273E+02 -0.26993851884E+02 -0.66521146515E+03  0.67852538992E+03  0.12477568332E+03 0.  0.
         25    2    3    3    0    0  0.39909550273E+02  0.26993851884E+02 -0.29482044448E+03  0.32057665423E+03  0.11631361277E+03 0.  0.
          5    1    4    4  502    0 -0.38406750597E+02 -0.69582786063E+02 -0.54730719299E+03  0.55306789466E+03  0.47000000000E+01 0.  1.
         -5    1    4    4    0  502 -0.15027996761E+01  0.42588934179E+02 -0.11790427217E+03  0.12545749526E+03  0.47000000000E+01 0.  1.
          5    1    5    5  503    0 -0.31795443446E+02  0.35494191867E+02 -0.16662894938E+03  0.17337267562E+03  0.47000000000E+01 0.  1.
         -5    1    5    5    0  503  0.71704993719E+02 -0.85003399829E+01 -0.12819149510E+03  0.14720397861E+03  0.47000000000E+01 0.  1.
<mgrwt>
<rscale>  0 0.27666519E+03</rscale>
<asrwt>0</asrwt>
<pdfrwt beam="1">  1        2 0.15070265E+00 0.27666519E+03</pdfrwt>
<pdfrwt beam="2">  1       -2 0.30053943E-02 0.27666519E+03</pdfrwt>
<totfact> 0.11393377E+04</totfact>
</mgrwt>
</event>
<event>
 9    1  0.2024718E-002  0.2744090E+03  0.7818608E-02  0.1098782E+00
         -2   -1    0    0    0  501 -0.00000000000E+00  0.00000000000E+00  0.20276827784E+02  0.20276827784E+02  0.00000000000E+00 0. -1.
          2   -1    0    0  501    0  0.00000000000E+00 -0.00000000000E+00 -0.92840306417E+03  0.92840306417E+03  0.00000000000E+00 0. -1.
         36    2    1    2    0    0  0.17763568394E-14  0.35527136788E-14 -0.90812623639E+03  0.94867989196E+03  0.27440895792E+03 0.  0.
         25    2    3    3    0    0 -0.13494293630E+02  0.23435521660E+02 -0.28519067713E+03  0.31253130821E+03  0.12494309365E+03 0.  0.
         25    2    3    3    0    0  0.13494293630E+02 -0.23435521660E+02 -0.62293555926E+03  0.63614858375E+03  0.12611498716E+03 0.  0.
          5    1    4    4  502    0 -0.53217947416E+01  0.13158355750E+02 -0.29506478431E+03  0.29544336304E+03  0.47000000000E+01 0.  1.
         -5    1    4    4    0  502 -0.81724988887E+01  0.10277165910E+02  0.98741071809E+01  0.17087945162E+02  0.47000000000E+01 0.  1.
          5    1    5    5  503    0 -0.54731528880E+02 -0.14279328799E+02 -0.21228177050E+03  0.21973866199E+03  0.47000000000E+01 0.  1.
         -5    1    5    5    0  503  0.68225822510E+02 -0.91561928612E+01 -0.41065378876E+03  0.41640992177E+03  0.47000000000E+01 0.  1.
<mgrwt>
<rscale>  0 0.27440896E+03</rscale>
<asrwt>0</asrwt>
<pdfrwt beam="1">  1        2 0.14283121E+00 0.27440896E+03</pdfrwt>
<pdfrwt beam="2">  1       -2 0.31195126E-02 0.27440896E+03</pdfrwt>
<totfact> 0.11601301E+04</totfact>
</mgrwt>
</event>
<event>
 9    1  0.2024718E-002  0.2748744E+03  0.7818608E-02  0.1098522E+00
          2   -1    0    0  501    0  0.00000000000E+00  0.00000000000E+00  0.19244783506E+04  0.19244783506E+04  0.00000000000E+00 0.  1.
         -2   -1    0    0    0  501 -0.00000000000E+00 -0.00000000000E+00 -0.98151189718E+01  0.98151189718E+01  0.00000000000E+00 0.  1.
         36    2    1    2    0    0 -0.10658141036E-13  0.00000000000E+00  0.19146632316E+04  0.19342934696E+04  0.27487440019E+03 0.  0.
         25    2    3    3    0    0 -0.20112076071E+02  0.43656668978E+02  0.71736599665E+03  0.72966646111E+03  0.12445389095E+03 0.  0.
         25    2    3    3    0    0  0.20112076071E+02 -0.43656668978E+02  0.11972972350E+04  0.12046270084E+04  0.12367360379E+03 0.  0.
          5    1    4    4  502    0 -0.50761633183E+02  0.64374680581E+01  0.60657493180E+03  0.60874742076E+03  0.47000000000E+01 0.  1.
         -5    1    4    4    0  502  0.30649557112E+02  0.37219200920E+02  0.11079106485E+03  0.12091904035E+03  0.47000000000E+01 0.  1.
          5    1    5    5  503    0 -0.50069193573E+02 -0.14642575679E+02  0.64336030637E+03  0.64548888680E+03  0.47000000000E+01 0.  1.
         -5    1    5    5    0  503  0.70181269644E+02 -0.29014093299E+02  0.55393692858E+03  0.55913812164E+03  0.47000000000E+01 0.  1.
<mgrwt>
<rscale>  0 0.27487440E+03</rscale>
<asrwt>0</asrwt>
<pdfrwt beam="1">  1        2 0.29607329E+00 0.27487440E+03</pdfrwt>
<pdfrwt beam="2">  1       -2 0.15100198E-02 0.27487440E+03</pdfrwt>
<totfact> 0.95114481E+03</totfact>
</mgrwt>
</event>
<event>
 9    1  0.2024718E-002  0.2758583E+03  0.7818608E-02  0.1097973E+00
          1   -1    0    0  501    0  0.00000000000E+00  0.00000000000E+00  0.37136872780E+02  0.37136872780E+02  0.00000000000E+00 0. -1.
         -1   -1    0    0    0  501 -0.00000000000E+00 -0.00000000000E+00 -0.51227921286E+03  0.51227921286E+03  0.00000000000E+00 0. -1.
         36    2    1    2    0    0 -0.35527136788E-14  0.71054273576E-14 -0.47514234008E+03  0.54941608564E+03  0.27585828214E+03 0.  0.
         25    2    3    3    0    0  0.16392751184E+02 -0.38060741586E+02 -0.16231363288E+03  0.20956903674E+03  0.12592109989E+03 0.  0.
         25    2    3    3    0    0 -0.16392751184E+02  0.38060741586E+02 -0.31282870720E+03  0.33984704890E+03  0.12616209518E+03 0.  0.
          5    1    4    4  502    0 -0.41014940836E+02  0.14364278370E+02 -0.21641848704E+02  0.48775172785E+02  0.47000000000E+01 0.  1.
         -5    1    4    4    0  502  0.57407692020E+02 -0.52425019956E+02 -0.14067178418E+03  0.16079386395E+03  0.47000000000E+01 0.  1.
          5    1    5    5  503    0 -0.82742413242E+01 -0.14817471487E+02  0.43619901049E+01  0.18142146743E+02  0.47000000000E+01 0.  1.
         -5    1    5    5    0  503 -0.81185098597E+01  0.52878213073E+02 -0.31719069730E+03  0.32170490216E+03  0.47000000000E+01 0.  1.
<mgrwt>
<rscale>  0 0.27585828E+03</rscale>
<asrwt>0</asrwt>
<pdfrwt beam="1">  1        1 0.57133654E-02 0.27585828E+03</pdfrwt>
<pdfrwt beam="2">  1       -1 0.78812182E-01 0.27585828E+03</pdfrwt>
<totfact> 0.23229354E+03</totfact>
</mgrwt>
</event>
<event>
 9    1  0.2024718E-002  0.2849813E+03  0.7818608E-02  0.1092999E+00
          2   -1    0    0  501    0  0.00000000000E+00  0.00000000000E+00  0.11401899214E+04  0.11401899214E+04  0.00000000000E+00 0. -1.
         -2   -1    0    0    0  501 -0.00000000000E+00 -0.00000000000E+00 -0.17807196527E+02  0.17807196527E+02  0.00000000000E+00 0. -1.
         36    2    1    2    0    0  0.17763568394E-14 -0.71054273576E-14  0.11223827249E+04  0.11579971179E+04  0.28498130471E+03 0.  0.
         25    2    3    3    0    0 -0.54689162193E+01 -0.51559504586E+02  0.36521244253E+03  0.38884336514E+03  0.12300708469E+03 0.  0.
         25    2    3    3    0    0  0.54689162193E+01  0.51559504586E+02  0.75717028234E+03  0.76915375277E+03  0.12490943676E+03 0.  0.
          5    1    4    4  502    0  0.25236629600E+02 -0.76054711005E+02  0.31418900152E+03  0.32428078145E+03  0.47000000000E+01 0.  1.
         -5    1    4    4    0  502 -0.30705545819E+02  0.24495206419E+02  0.51023441002E+02  0.64562583694E+02  0.47000000000E+01 0.  1.
          5    1    5    5  503    0  0.23596945065E+01 -0.34152834747E+02  0.88801269402E+02  0.95287668283E+02  0.47000000000E+01 0. -1.
         -5    1    5    5    0  503  0.31092217127E+01  0.85712339333E+02  0.66836901294E+03  0.67386608449E+03  0.47000000000E+01 0. -1.
<mgrwt>
<rscale>  0 0.28498130E+03</rscale>
<asrwt>0</asrwt>
<pdfrwt beam="1">  1        2 0.17541378E+00 0.28498130E+03</pdfrwt>
<pdfrwt beam="2">  1       -2 0.27395696E-02 0.28498130E+03</pdfrwt>
<totfact> 0.10490172E+04</totfact>
</mgrwt>
</event>
<event>
 9    1  0.2024718E-002  0.2717104E+03  0.7818608E-02  0.1100305E+00
          4   -1    0    0  501    0  0.00000000000E+00  0.00000000000E+00  0.66327719960E+03  0.66327719960E+03  0.00000000000E+00 0. -1.
         -4   -1    0    0    0  501 -0.00000000000E+00 -0.00000000000E+00 -0.27826421775E+02  0.27826421775E+02  0.00000000000E+00 0. -1.
         36    2    1    2    0    0  0.71054273576E-14 -0.35527136788E-14  0.63545077783E+03  0.69110362138E+03  0.27171036867E+03 0.  0.
         25    2    3    3    0    0  0.18791786741E+02  0.88972928616E+01  0.18092083118E+03  0.22003566380E+03  0.12349515422E+03 0.  0.
         25    2    3    3    0    0 -0.18791786741E+02 -0.88972928616E+01  0.45452994664E+03  0.47106795758E+03  0.12196415537E+03 0.  0.
          5    1    4    4  502    0  0.29731349608E+02 -0.49834033228E+02  0.52813154496E+02  0.78604728262E+02  0.47000000000E+01 0. -1.
         -5    1    4    4    0  502 -0.10939562867E+02  0.58731326089E+02  0.12810767669E+03  0.14143093554E+03  0.47000000000E+01 0. -1.
          5    1    5    5  503    0  0.39811123662E+02 -0.39929482949E+02  0.18488197079E+03  0.19334612047E+03  0.47000000000E+01 0. -1.
         -5    1    5    5    0  503 -0.58602910403E+02  0.31032190087E+02  0.26964797585E+03  0.27772183712E+03  0.47000000000E+01 0. -1.
<mgrwt>
<rscale>  0 0.27171037E+03</rscale>
<asrwt>0</asrwt>
<pdfrwt beam="1">  1        4 0.10204263E+00 0.27171037E+03</pdfrwt>
<pdfrwt beam="2">  1       -4 0.42809884E-02 0.27171037E+03</pdfrwt>
<totfact> 0.46700514E+02</totfact>
</mgrwt>
</event>
<event>
 9    1  0.2024718E-002  0.2742078E+03  0.7818608E-02  0.1098895E+00
         -2   -1    0    0    0  501 -0.00000000000E+00  0.00000000000E+00  0.18005168498E+03  0.18005168498E+03  0.00000000000E+00 0.  1.
          2   -1    0    0  501    0  0.00000000000E+00 -0.00000000000E+00 -0.10440045933E+03  0.10440045933E+03  0.00000000000E+00 0.  1.
         36    2    1    2    0    0  0.00000000000E+00  0.00000000000E+00  0.75651225649E+02  0.28445214430E+03  0.27420779430E+03 0.  0.
         25    2    3    3    0    0  0.18537189296E+02 -0.39814468548E+02  0.39988806860E+01  0.13518965958E+03  0.12779449799E+03 0.  0.
         25    2    3    3    0    0 -0.18537189296E+02  0.39814468548E+02  0.71652344963E+02  0.14926248473E+03  0.12335481959E+03 0.  0.
          5    1    4    4  502    0  0.12969298342E+02 -0.68442135144E+02  0.46168437815E+02  0.83702707321E+02  0.47000000000E+01 0. -1.
         -5    1    4    4    0  502  0.55678909547E+01  0.28627666596E+02 -0.42169557129E+02  0.51486952259E+02  0.47000000000E+01 0. -1.
          5    1    5    5  503    0 -0.27295236467E+02 -0.13236899012E+02  0.87728969001E+02  0.92944647136E+02  0.47000000000E+01 0.  1.
         -5    1    5    5    0  503  0.87580471710E+01  0.53051367560E+02 -0.16076624039E+02  0.56317837589E+02  0.47000000000E+01 0.  1.
<mgrwt>
<rscale>  0 0.27420779E+03</rscale>
<asrwt>0</asrwt>
<pdfrwt beam="1">  1        2 0.16061609E-01 0.27420779E+03</pdfrwt>
<pdfrwt beam="2">  1       -2 0.27700259E-01 0.27420779E+03</pdfrwt>
<totfact> 0.42215909E+03</totfact>
</mgrwt>
</event>
<event>
 9    1  0.2024718E-002  0.2751029E+03  0.7818608E-02  0.1098394E+00
          2   -1    0    0  501    0  0.00000000000E+00  0.00000000000E+00  0.19186251749E+04  0.19186251749E+04  0.00000000000E+00 0. -1.
         -2   -1    0    0    0  501 -0.00000000000E+00 -0.00000000000E+00 -0.98614380950E+01  0.98614380950E+01  0.00000000000E+00 0. -1.
         36    2    1    2    0    0 -0.71054273576E-14  0.00000000000E+00  0.19087637368E+04  0.19284866130E+04  0.27510291449E+03 0.  0.
         25    2    3    3    0    0  0.34656388540E+02 -0.38171415214E+02  0.82143628954E+03  0.83231471948E+03  0.12382282616E+03 0.  0.
         25    2    3    3    0    0 -0.34656388540E+02  0.38171415214E+02  0.10873274473E+04  0.10961718935E+04  0.12904929429E+03 0.  0.
          5    1    4    4  502    0 -0.44805125967E+02 -0.14490270886E+02  0.39864179080E+03  0.40144094788E+03  0.47000000000E+01 0. -1.
         -5    1    4    4    0  502  0.79461514507E+02 -0.23681144328E+02  0.42279449874E+03  0.43087377160E+03  0.47000000000E+01 0. -1.
          5    1    5    5  503    0  0.28629823810E+01  0.74995342663E+02  0.41360634534E+03  0.42038648527E+03  0.47000000000E+01 0. -1.
         -5    1    5    5    0  503 -0.37519370921E+02 -0.36823927449E+02  0.67372110194E+03  0.67578540827E+03  0.47000000000E+01 0. -1.
<mgrwt>
<rscale>  0 0.27510291E+03</rscale>
<asrwt>0</asrwt>
<pdfrwt beam="1">  1        2 0.29517281E+00 0.27510291E+03</pdfrwt>
<pdfrwt beam="2">  1       -2 0.15171458E-02 0.27510291E+03</pdfrwt>
<totfact> 0.95133327E+03</totfact>
</mgrwt>
</event>
<event>
 9    1  0.2024718E-002  0.2756075E+03  0.7818608E-02  0.1098113E+00
         -2   -1    0    0    0  501 -0.00000000000E+00  0.00000000000E+00  0.11650007893E+03  0.11650007893E+03  0.00000000000E+00 0.  1.
          2   -1    0    0  501    0  0.00000000000E+00 -0.00000000000E+00 -0.16300307079E+03  0.16300307079E+03  0.00000000000E+00 0.  1.
         36    2    1    2    0    0  0.35527136788E-14  0.71054273576E-14 -0.46502991864E+02  0.27950314972E+03  0.27560747895E+03 0.  0.
         25    2    3    3    0    0 -0.18793770174E+02  0.40852940766E+02  0.24592336138E+02  0.13005685486E+03  0.11953172772E+03 0.  0.
         25    2    3    3    0    0  0.18793770174E+02 -0.40852940766E+02 -0.71095328002E+02  0.14944629486E+03  0.12352117558E+03 0.  0.
          5    1    4    4  502    0 -0.16058644107E+02  0.82675557088E+02  0.24658726077E+02  0.87882140177E+02  0.47000000000E+01 0. -1.
         -5    1    4    4    0  502 -0.27351260671E+01 -0.41822616322E+02 -0.66389938228E-01  0.42174714679E+02  0.47000000000E+01 0. -1.
          5    1    5    5  503    0 -0.50041774428E+02 -0.15562615140E+02 -0.50969199538E+02  0.73255194215E+02  0.47000000000E+01 0. -1.
         -5    1    5    5    0  503  0.68835544602E+02 -0.25290325626E+02 -0.20126128464E+02  0.76191100648E+02  0.47000000000E+01 0. -1.
<mgrwt>
<rscale>  0 0.27560748E+03</rscale>
<asrwt>0</asrwt>
<pdfrwt beam="1">  1        2 0.25077395E-01 0.27560748E+03</pdfrwt>
<pdfrwt beam="2">  1       -2 0.17923089E-01 0.27560748E+03</pdfrwt>
<totfact> 0.53991704E+03</totfact>
</mgrwt>
</event>
<event>
 9    1  0.2024718E-002  0.2751407E+03  0.7818608E-02  0.1098373E+00
         -2   -1    0    0    0  501 -0.00000000000E+00  0.00000000000E+00  0.65126117861E+02  0.65126117861E+02  0.00000000000E+00 0. -1.
          2   -1    0    0  501    0  0.00000000000E+00 -0.00000000000E+00 -0.29059923706E+03  0.29059923706E+03  0.00000000000E+00 0. -1.
         36    2    1    2    0    0  0.00000000000E+00 -0.35527136788E-14 -0.22547311920E+03  0.35572535492E+03  0.27514069247E+03 0.  0.
         25    2    3    3    0    0  0.40483858313E+02 -0.27047953444E+02 -0.14776282443E+03  0.19930291420E+03  0.12456831362E+03 0.  0.
         25    2    3    3    0    0 -0.40483858313E+02  0.27047953444E+02 -0.77710294773E+02  0.15642244072E+03  0.12672235587E+03 0.  0.
          5    1    4    4  502    0 -0.27631858836E+01  0.61357158288E+01  0.20652099173E+02  0.22223442695E+02  0.47000000000E+01 0. -1.
         -5    1    4    4    0  502  0.43247044196E+02 -0.33183669273E+02 -0.16841492360E+03  0.17707947151E+03  0.47000000000E+01 0. -1.
          5    1    5    5  503    0 -0.54532182487E+02 -0.14237065159E+02 -0.93942648817E+02  0.10965292617E+03  0.47000000000E+01 0. -1.
         -5    1    5    5    0  503  0.14048324174E+02  0.41285018603E+02  0.16232354045E+02  0.46769514548E+02  0.47000000000E+01 0. -1.
<mgrwt>
<rscale>  0 0.27514069E+03</rscale>
<asrwt>0</asrwt>
<pdfrwt beam="1">  1        2 0.44707575E-01 0.27514069E+03</pdfrwt>
<pdfrwt beam="2">  1       -2 0.10019403E-01 0.27514069E+03</pdfrwt>
<totfact> 0.74318739E+03</totfact>
</mgrwt>
</event>
<event>
 9    1  0.2024718E-002  0.2743107E+03  0.7818608E-02  0.1098838E+00
          2   -1    0    0  501    0  0.00000000000E+00  0.00000000000E+00  0.11102701198E+03  0.11102701198E+03  0.00000000000E+00 0. -1.
         -2   -1    0    0    0  501 -0.00000000000E+00 -0.00000000000E+00 -0.16943257385E+03  0.16943257385E+03  0.00000000000E+00 0. -1.
         36    2    1    2    0    0  0.00000000000E+00  0.00000000000E+00 -0.58405561875E+02  0.28045958583E+03  0.27431071730E+03 0.  0.
         25    2    3    3    0    0 -0.15964950958E+02  0.18686242652E+02 -0.82867938333E+02  0.15021232250E+03  0.12285190802E+03 0.  0.
         25    2    3    3    0    0  0.15964950958E+02 -0.18686242652E+02  0.24462376457E+02  0.13024726333E+03  0.12554635168E+03 0.  0.
          5    1    4    4  502    0  0.24972189941E+01  0.65989594926E+02 -0.19788946986E+02  0.69098156010E+02  0.47000000000E+01 0. -1.
         -5    1    4    4    0  502 -0.18462169952E+02 -0.47303352274E+02 -0.63078991346E+02  0.81114166488E+02  0.47000000000E+01 0. -1.
          5    1    5    5  503    0 -0.78444262918E+01 -0.59176976347E+02 -0.22208060415E+02  0.63864994330E+02  0.47000000000E+01 0.  1.
         -5    1    5    5    0  503  0.23809377250E+02  0.40490733695E+02  0.46670436873E+02  0.66382269004E+02  0.47000000000E+01 0.  1.
<mgrwt>
<rscale>  0 0.27431072E+03</rscale>
<asrwt>0</asrwt>
<pdfrwt beam="1">  1        2 0.17081079E-01 0.27431072E+03</pdfrwt>
<pdfrwt beam="2">  1       -2 0.26066550E-01 0.27431072E+03</pdfrwt>
<totfact> 0.43779374E+03</totfact>
</mgrwt>
</event>
<event>
 9    1  0.2024718E-002  0.2792430E+03  0.7818608E-02  0.1096103E+00
          1   -1    0    0  501    0  0.00000000000E+00  0.00000000000E+00  0.98939395264E+02  0.98939395264E+02  0.00000000000E+00 0.  1.
         -1   -1    0    0    0  501 -0.00000000000E+00 -0.00000000000E+00 -0.19703141950E+03  0.19703141950E+03  0.00000000000E+00 0.  1.
         36    2    1    2    0    0  0.00000000000E+00 -0.71054273576E-14 -0.98092024239E+02  0.29597081477E+03  0.27924304463E+03 0.  0.
         25    2    3    3    0    0 -0.26265769042E+02  0.36261696787E+02 -0.74906375902E+02  0.15272024631E+03  0.12533039219E+03 0.  0.
         25    2    3    3    0    0  0.26265769042E+02 -0.36261696787E+02 -0.23185648337E+02  0.14325056845E+03  0.13408336883E+03 0.  0.
          5    1    4    4  502    0  0.13850640809E+02  0.18295454157E+02 -0.99440597829E+02  0.10216205945E+03  0.47000000000E+01 0.  1.
         -5    1    4    4    0  502 -0.40116409850E+02  0.17966242631E+02  0.24534221927E+02  0.50558186866E+02  0.47000000000E+01 0.  1.
          5    1    5    5  503    0  0.15519375088E+02  0.48681709743E+02  0.81509628839E+01  0.51954673154E+02  0.47000000000E+01 0. -1.
         -5    1    5    5    0  503  0.10746393954E+02 -0.84943406530E+02 -0.31336611221E+02  0.91295895301E+02  0.47000000000E+01 0. -1.
<mgrwt>
<rscale>  0 0.27924304E+03</rscale>
<asrwt>0</asrwt>
<pdfrwt beam="1">  1        1 0.15221446E-01 0.27924304E+03</pdfrwt>
<pdfrwt beam="2">  1       -1 0.30312526E-01 0.27924304E+03</pdfrwt>
<totfact> 0.36515058E+03</totfact>
</mgrwt>
</event>
<event>
 9    1  0.2024718E-002  0.2751336E+03  0.7818608E-02  0.1098377E+00
         -2   -1    0    0    0  501 -0.00000000000E+00  0.00000000000E+00  0.39465860252E+02  0.39465860252E+02  0.00000000000E+00 0.  1.
          2   -1    0    0  501    0  0.00000000000E+00 -0.00000000000E+00 -0.47951874353E+03  0.47951874353E+03  0.00000000000E+00 0.  1.
         36    2    1    2    0    0 -0.71054273576E-14  0.00000000000E+00 -0.44005288328E+03  0.51898460378E+03  0.27513356553E+03 0.  0.
         25    2    3    3    0    0 -0.50640868760E+02  0.30780396828E+02 -0.23139888979E+03  0.26797680867E+03  0.12146684062E+03 0.  0.
         25    2    3    3    0    0  0.50640868760E+02 -0.30780396828E+02 -0.20865399348E+03  0.25100779511E+03  0.12631901596E+03 0.  0.
          5    1    4    4  502    0 -0.97179391738E+01  0.46360715612E+02 -0.19317846313E+02  0.51371426689E+02  0.47000000000E+01 0.  1.
         -5    1    4    4    0  502 -0.40922929587E+02 -0.15580318784E+02 -0.21208104348E+03  0.21660538198E+03  0.47000000000E+01 0.  1.
          5    1    5    5  503    0 -0.27373938550E+01  0.10075049726E+02 -0.17556625573E+03  0.17593919433E+03  0.47000000000E+01 0.  1.
         -5    1    5    5    0  503  0.53378262615E+02 -0.40855446554E+02 -0.33087737755E+02  0.75068600778E+02  0.47000000000E+01 0.  1.
<mgrwt>
<rscale>  0 0.27513357E+03</rscale>
<asrwt>0</asrwt>
<pdfrwt beam="1">  1        2 0.73772114E-01 0.27513357E+03</pdfrwt>
<pdfrwt beam="2">  1       -2 0.60716708E-02 0.27513357E+03</pdfrwt>
<totfact> 0.94272640E+03</totfact>
</mgrwt>
</event>
<event>
 9    1  0.2024718E-002  0.2757176E+03  0.7818608E-02  0.1098051E+00
         -2   -1    0    0    0  501 -0.00000000000E+00  0.00000000000E+00  0.35040142218E+02  0.35040142218E+02  0.00000000000E+00 0.  1.
          2   -1    0    0  501    0  0.00000000000E+00 -0.00000000000E+00 -0.54237934233E+03  0.54237934233E+03  0.00000000000E+00 0.  1.
         36    2    1    2    0    0  0.10658141036E-13  0.00000000000E+00 -0.50733920012E+03  0.57741948455E+03  0.27571760402E+03 0.  0.
         25    2    3    3    0    0 -0.14159627199E+02  0.12503737857E+02 -0.36264521020E+03  0.38530583095E+03  0.12881069979E+03 0.  0.
         25    2    3    3    0    0  0.14159627199E+02 -0.12503737857E+02 -0.14469398992E+03  0.19211365360E+03  0.12495785962E+03 0.  0.
          5    1    4    4  502    0 -0.49126238545E+02 -0.37798398539E+02 -0.12178524628E+03  0.13673274099E+03  0.47000000000E+01 0. -1.
         -5    1    4    4    0  502  0.34966611347E+02  0.50302136396E+02 -0.24085996391E+03  0.24857308996E+03  0.47000000000E+01 0. -1.
          5    1    5    5  503    0 -0.25867596271E+01  0.38832313864E+02 -0.17522396379E+01  0.39240288851E+02  0.47000000000E+01 0. -1.
         -5    1    5    5    0  503  0.16746386826E+02 -0.51336051720E+02 -0.14294175028E+03  0.15287336475E+03  0.47000000000E+01 0. -1.
<mgrwt>
<rscale>  0 0.27571760E+03</rscale>
<asrwt>0</asrwt>
<pdfrwt beam="1">  1        2 0.83442974E-01 0.27571760E+03</pdfrwt>
<pdfrwt beam="2">  1       -2 0.53907912E-02 0.27571760E+03</pdfrwt>
<totfact> 0.98489064E+03</totfact>
</mgrwt>
</event>
<event>
 9    1  0.2024718E-002  0.2748973E+03  0.7818608E-02  0.1098509E+00
          2   -1    0    0  501    0  0.00000000000E+00  0.00000000000E+00  0.28718744186E+03  0.28718744186E+03  0.00000000000E+00 0. -1.
         -2   -1    0    0    0  501 -0.00000000000E+00 -0.00000000000E+00 -0.65783258739E+02  0.65783258739E+02  0.00000000000E+00 0. -1.
         36    2    1    2    0    0  0.35527136788E-14  0.71054273576E-14  0.22140418313E+03  0.35297070060E+03  0.27489725932E+03 0.  0.
         25    2    3    3    0    0  0.98263753289E+01  0.34222729248E+02  0.17329008736E+03  0.21477339876E+03  0.12178015269E+03 0.  0.
         25    2    3    3    0    0 -0.98263753289E+01 -0.34222729248E+02  0.48114095764E+02  0.13819730184E+03  0.12456233450E+03 0.  0.
          5    1    4    4  502    0  0.56481568835E+02  0.43798913933E+02  0.13740857647E+03  0.15495715333E+03  0.47000000000E+01 0.  1.
         -5    1    4    4    0  502 -0.46655193506E+02 -0.95761846850E+01  0.35881510893E+02  0.59816245437E+02  0.47000000000E+01 0.  1.
          5    1    5    5  503    0 -0.32002167641E+02  0.24929049010E+02 -0.19749963230E+02  0.45362399251E+02  0.47000000000E+01 0.  1.
         -5    1    5    5    0  503  0.22175792312E+02 -0.59151778258E+02  0.67864058994E+02  0.92834902590E+02  0.47000000000E+01 0.  1.
<mgrwt>
<rscale>  0 0.27489726E+03</rscale>
<asrwt>0</asrwt>
<pdfrwt beam="1">  1        2 0.44182683E-01 0.27489726E+03</pdfrwt>
<pdfrwt beam="2">  1       -2 0.10120502E-01 0.27489726E+03</pdfrwt>
<totfact> 0.74073936E+03</totfact>
</mgrwt>
</event>
<event>
 9    1  0.2024718E-002  0.2749717E+03  0.7818608E-02  0.1098467E+00
         -2   -1    0    0    0  501 -0.00000000000E+00  0.00000000000E+00  0.60664382388E+03  0.60664382388E+03  0.00000000000E+00 0. -1.
          2   -1    0    0  501    0  0.00000000000E+00 -0.00000000000E+00 -0.31158907082E+02  0.31158907082E+02  0.00000000000E+00 0. -1.
         36    2    1    2    0    0  0.00000000000E+00  0.53290705182E-14  0.57548491680E+03  0.63780273097E+03  0.27497169702E+03 0.  0.
         25    2    3    3    0    0  0.51285983133E+02  0.23162950237E+01  0.30150494168E+03  0.32991153168E+03  0.12369628769E+03 0.  0.
         25    2    3    3    0    0 -0.51285983133E+02 -0.23162950237E+01  0.27397997512E+03  0.30789119929E+03  0.13075299822E+03 0.  0.
          5    1    4    4  502    0  0.55520061288E+02  0.16656834313E+02  0.30763356164E+03  0.31308213872E+03  0.47000000000E+01 0. -1.
         -5    1    4    4    0  502 -0.42340781547E+01 -0.14340539289E+02 -0.61286199585E+01  0.16829392963E+02  0.47000000000E+01 0. -1.
          5    1    5    5  503    0  0.10168512594E+02 -0.48620477711E+02  0.17758930121E+03  0.18446517125E+03  0.47000000000E+01 0. -1.
         -5    1    5    5    0  503 -0.61454495727E+02  0.46304182688E+02  0.96390673910E+02  0.12342602803E+03  0.47000000000E+01 0. -1.
<mgrwt>
<rscale>  0 0.27497170E+03</rscale>
<asrwt>0</asrwt>
<pdfrwt beam="1">  1        2 0.47936784E-02 0.27497170E+03</pdfrwt>
<pdfrwt beam="2">  1       -2 0.93329811E-01 0.27497170E+03</pdfrwt>
<totfact> 0.16710969E+03</totfact>
</mgrwt>
</event>
<event>
 9    1  0.2024718E-002  0.2749577E+03  0.7818608E-02  0.1098475E+00
          1   -1    0    0  501    0  0.00000000000E+00  0.00000000000E+00  0.15768577987E+04  0.15768577987E+04  0.00000000000E+00 0.  1.
         -1   -1    0    0    0  501 -0.00000000000E+00 -0.00000000000E+00 -0.11986135827E+02  0.11986135827E+02  0.00000000000E+00 0.  1.
         36    2    1    2    0    0 -0.71054273576E-14  0.00000000000E+00  0.15648716628E+04  0.15888439345E+04  0.27495768223E+03 0.  0.
         25    2    3    3    0    0  0.49414208383E+02  0.28837965085E+02  0.89230456011E+03  0.90271756408E+03  0.12416996532E+03 0.  0.
         25    2    3    3    0    0 -0.49414208383E+02 -0.28837965085E+02  0.67256710274E+03  0.68612637042E+03  0.12308329001E+03 0.  0.
          5    1    4    4  502    0  0.49956408963E+02  0.70468400087E+02  0.72936812142E+03  0.73448035014E+03  0.47000000000E+01 0.  1.
         -5    1    4    4    0  502 -0.54220058009E+00 -0.41630435002E+02  0.16293643869E+03  0.16823721394E+03  0.47000000000E+01 0.  1.
          5    1    5    5  503    0 -0.69330875554E+02 -0.63811312457E+01  0.18677711675E+03  0.19938723751E+03  0.47000000000E+01 0. -1.
         -5    1    5    5    0  503  0.19916667171E+02 -0.22456833839E+02  0.48578998599E+03  0.48673913291E+03  0.47000000000E+01 0. -1.
<mgrwt>
<rscale>  0 0.27495768E+03</rscale>
<asrwt>0</asrwt>
<pdfrwt beam="1">  1        1 0.24259334E+00 0.27495768E+03</pdfrwt>
<pdfrwt beam="2">  1       -1 0.18440221E-02 0.27495768E+03</pdfrwt>
<totfact> 0.49161725E+03</totfact>
</mgrwt>
</event>
<event>
 9    1  0.2024718E-002  0.2742835E+03  0.7818608E-02  0.1098853E+00
         -2   -1    0    0    0  501 -0.00000000000E+00  0.00000000000E+00  0.84507766858E+02  0.84507766858E+02  0.00000000000E+00 0.  1.
          2   -1    0    0  501    0  0.00000000000E+00 -0.00000000000E+00 -0.22255784411E+03  0.22255784411E+03  0.00000000000E+00 0.  1.
         36    2    1    2    0    0 -0.71054273576E-14  0.00000000000E+00 -0.13805007725E+03  0.30706561097E+03  0.27428354965E+03 0.  0.
         25    2    3    3    0    0  0.27488243926E+02  0.40560245985E+02 -0.98651931615E+02  0.16672399352E+03  0.12515570021E+03 0.  0.
         25    2    3    3    0    0 -0.27488243926E+02 -0.40560245985E+02 -0.39398145636E+02  0.14034161745E+03  0.12547038933E+03 0.  0.
          5    1    4    4  502    0 -0.37867734457E+02  0.45251072242E+02 -0.77888925527E+02  0.97828419039E+02  0.47000000000E+01 0. -1.
         -5    1    4    4    0  502  0.65355978382E+02 -0.46908262567E+01 -0.20763006088E+02  0.68895574481E+02  0.47000000000E+01 0. -1.
          5    1    5    5  503    0 -0.54877314031E+02 -0.43086036115E+02 -0.69988446319E+02  0.98936336709E+02  0.47000000000E+01 0. -1.
         -5    1    5    5    0  503  0.27389070105E+02  0.25257901295E+01  0.30590300683E+02  0.41405280737E+02  0.47000000000E+01 0. -1.
<mgrwt>
<rscale>  0 0.27428355E+03</rscale>
<asrwt>0</asrwt>
<pdfrwt beam="1">  1        2 0.34239668E-01 0.27428355E+03</pdfrwt>
<pdfrwt beam="2">  1       -2 0.13001195E-01 0.27428355E+03</pdfrwt>
<totfact> 0.65202866E+03</totfact>
</mgrwt>
</event>
<event>
 9    1  0.2024718E-002  0.2748571E+03  0.7818608E-02  0.1098532E+00
          2   -1    0    0  501    0  0.00000000000E+00  0.00000000000E+00  0.10579027913E+04  0.10579027913E+04  0.00000000000E+00 0.  1.
         -2   -1    0    0    0  501 -0.00000000000E+00 -0.00000000000E+00 -0.17852871816E+02  0.17852871816E+02  0.00000000000E+00 0.  1.
         36    2    1    2    0    0  0.71054273576E-14  0.71054273576E-14  0.10400499195E+04  0.10757556631E+04  0.27485707506E+03 0.  0.
         25    2    3    3    0    0 -0.13870288988E+02 -0.54295663321E+02  0.50687414964E+03  0.52525002360E+03  0.12580055540E+03 0.  0.
         25    2    3    3    0    0  0.13870288988E+02  0.54295663321E+02  0.53317576987E+03  0.55050563955E+03  0.12505860077E+03 0.  0.
          5    1    4    4  502    0 -0.59183037883E+02 -0.99714358324E+00  0.14572797823E+03  0.15736060469E+03  0.47000000000E+01 0.  1.
         -5    1    4    4    0  502  0.45312748896E+02 -0.53298519738E+02  0.36114617141E+03  0.36788941891E+03  0.47000000000E+01 0.  1.
          5    1    5    5  503    0  0.58243000602E+02  0.50893422726E+02  0.44422072283E+03  0.45092851783E+03  0.47000000000E+01 0.  1.
         -5    1    5    5    0  503 -0.44372711615E+02  0.34022405952E+01  0.88955047038E+02  0.99577121723E+02  0.47000000000E+01 0.  1.
<mgrwt>
<rscale>  0 0.27485708E+03</rscale>
<asrwt>0</asrwt>
<pdfrwt beam="1">  1        2 0.16275423E+00 0.27485708E+03</pdfrwt>
<pdfrwt beam="2">  1       -2 0.27465965E-02 0.27485708E+03</pdfrwt>
<totfact> 0.11670579E+04</totfact>
</mgrwt>
</event>
<event>
 9    1  0.2024718E-002  0.2751660E+03  0.7818608E-02  0.1098359E+00
          2   -1    0    0  501    0  0.00000000000E+00  0.00000000000E+00  0.29341104590E+03  0.29341104590E+03  0.00000000000E+00 0. -1.
         -2   -1    0    0    0  501 -0.00000000000E+00 -0.00000000000E+00 -0.64513847305E+02  0.64513847305E+02  0.00000000000E+00 0. -1.
         36    2    1    2    0    0  0.00000000000E+00  0.14210854715E-13  0.22889719859E+03  0.35792489320E+03  0.27516595293E+03 0.  0.
         25    2    3    3    0    0  0.21905882987E+02  0.51961384871E+02  0.10853152247E+03  0.17530075003E+03  0.12558426798E+03 0.  0.
         25    2    3    3    0    0 -0.21905882987E+02 -0.51961384871E+02  0.12036567612E+03  0.18262414317E+03  0.12523509274E+03 0.  0.
          5    1    4    4  502    0  0.54441290472E+02  0.78212877722E+02  0.79442046340E+02  0.12415408602E+03  0.47000000000E+01 0.  1.
         -5    1    4    4    0  502 -0.32535407485E+02 -0.26251492852E+02  0.29089476134E+02  0.51146664006E+02  0.47000000000E+01 0.  1.
          5    1    5    5  503    0 -0.16363931845E+02  0.21453460624E+02 -0.12920712061E+02  0.30283065207E+02  0.47000000000E+01 0.  1.
         -5    1    5    5    0  503 -0.55419511414E+01 -0.73414845495E+02  0.13328638818E+03  0.15234107796E+03  0.47000000000E+01 0.  1.
<mgrwt>
<rscale>  0 0.27516595E+03</rscale>
<asrwt>0</asrwt>
<pdfrwt beam="1">  1        2 0.45140160E-01 0.27516595E+03</pdfrwt>
<pdfrwt beam="2">  1       -2 0.99252074E-02 0.27516595E+03</pdfrwt>
<totfact> 0.74665738E+03</totfact>
</mgrwt>
</event>
<event>
 9    1  0.2024718E-002  0.2763861E+03  0.7818608E-02  0.1097679E+00
          3   -1    0    0  501    0  0.00000000000E+00  0.00000000000E+00  0.10133874838E+03  0.10133874838E+03  0.00000000000E+00 0.  1.
         -3   -1    0    0    0  501 -0.00000000000E+00 -0.00000000000E+00 -0.18845031261E+03  0.18845031261E+03  0.00000000000E+00 0.  1.
         36    2    1    2    0    0 -0.53290705182E-14  0.35527136788E-14 -0.87111564232E+02  0.28978906099E+03  0.27638609815E+03 0.  0.
         25    2    3    3    0    0  0.35903365491E+01  0.15030197064E+02 -0.88154542303E+02  0.15697789774E+03  0.12896526552E+03 0.  0.
         25    2    3    3    0    0 -0.35903365491E+01 -0.15030197064E+02  0.10429780710E+01  0.13281116325E+03  0.13190496557E+03 0.  0.
          5    1    4    4  502    0  0.48914560124E+02  0.38548817230E+02 -0.85165743431E+02  0.10561221215E+03  0.47000000000E+01 0. -1.
         -5    1    4    4    0  502 -0.45324223575E+02 -0.23518620166E+02 -0.29887988717E+01  0.51365685588E+02  0.47000000000E+01 0. -1.
          5    1    5    5  503    0 -0.82051218487E+01 -0.11246836205E+02 -0.64843894652E+02  0.66487863726E+02  0.47000000000E+01 0. -1.
         -5    1    5    5    0  503  0.46147852996E+01 -0.37833608597E+01  0.65886872723E+02  0.66323299526E+02  0.47000000000E+01 0. -1.
<mgrwt>
<rscale>  0 0.27638610E+03</rscale>
<asrwt>0</asrwt>
<pdfrwt beam="1">  1        3 0.15590577E-01 0.27638610E+03</pdfrwt>
<pdfrwt beam="2">  1       -3 0.28992356E-01 0.27638610E+03</pdfrwt>
<totfact> 0.10108167E+03</totfact>
</mgrwt>
</event>
<event>
 9    1  0.2024718E-002  0.2745564E+03  0.7818608E-02  0.1098700E+00
         -1   -1    0    0    0  501 -0.00000000000E+00  0.00000000000E+00  0.14796190195E+03  0.14796190195E+03  0.00000000000E+00 0. -1.
          1   -1    0    0  501    0  0.00000000000E+00 -0.00000000000E+00 -0.12736593855E+03  0.12736593855E+03  0.00000000000E+00 0. -1.
         36    2    1    2    0    0  0.17763568394E-14  0.00000000000E+00  0.20595963406E+02  0.27532784050E+03  0.27455641687E+03 0.  0.
         25    2    3    3    0    0 -0.69547800694E+01 -0.13794633931E+02 -0.15190963502E+02  0.12468714825E+03  0.12279030367E+03 0.  0.
         25    2    3    3    0    0  0.69547800694E+01  0.13794633931E+02  0.35786926908E+02  0.15064069225E+03  0.14551031968E+03 0.  0.
          5    1    4    4  502    0 -0.15953761613E+02 -0.67248808477E+02 -0.63724185553E+01  0.69567395161E+02  0.47000000000E+01 0.  1.
         -5    1    4    4    0  502  0.89989815434E+01  0.53454174546E+02 -0.88185449464E+01  0.55119753085E+02  0.47000000000E+01 0.  1.
          5    1    5    5  503    0 -0.37772103711E+02  0.50141830295E+02  0.60908303604E+02  0.87594785301E+02  0.47000000000E+01 0. -1.
         -5    1    5    5    0  503  0.44726883780E+02 -0.36347196364E+02 -0.25121376696E+02  0.63045906951E+02  0.47000000000E+01 0. -1.
<mgrwt>
<rscale>  0 0.27455642E+03</rscale>
<asrwt>0</asrwt>
<pdfrwt beam="1">  1        1 0.19594760E-01 0.27455642E+03</pdfrwt>
<pdfrwt beam="2">  1       -1 0.22763370E-01 0.27455642E+03</pdfrwt>
<totfact> 0.42440944E+03</totfact>
</mgrwt>
</event>
<event>
 9    1  0.2024718E-002  0.2763540E+03  0.7818608E-02  0.1097697E+00
          2   -1    0    0  501    0  0.00000000000E+00  0.00000000000E+00  0.51294990550E+03  0.51294990550E+03  0.00000000000E+00 0. -1.
         -2   -1    0    0    0  501 -0.00000000000E+00 -0.00000000000E+00 -0.37221732663E+02  0.37221732663E+02  0.00000000000E+00 0. -1.
         36    2    1    2    0    0  0.35527136788E-14 -0.71054273576E-14  0.47572817284E+03  0.55017163817E+03  0.27635400668E+03 0.  0.
         25    2    3    3    0    0 -0.14570227932E+02  0.66335360988E+00  0.34772931123E+03  0.37275440850E+03  0.13348199725E+03 0.  0.
         25    2    3    3    0    0  0.14570227932E+02 -0.66335360988E+00  0.12799886161E+03  0.17741722966E+03  0.12198538121E+03 0.  0.
          5    1    4    4  502    0 -0.37283571528E+02 -0.33754706190E+02  0.31728732698E+03  0.32128302594E+03  0.47000000000E+01 0.  1.
         -5    1    4    4    0  502  0.22713343597E+02  0.34418059800E+02  0.30441984251E+02  0.51471382562E+02  0.47000000000E+01 0.  1.
          5    1    5    5  503    0  0.46290403948E+02  0.43158351431E+02  0.43374291173E+02  0.76869135098E+02  0.47000000000E+01 0. -1.
         -5    1    5    5    0  503 -0.31720176016E+02 -0.43821705041E+02  0.84624570438E+02  0.10054809457E+03  0.47000000000E+01 0. -1.
<mgrwt>
<rscale>  0 0.27635401E+03</rscale>
<asrwt>0</asrwt>
<pdfrwt beam="1">  1        2 0.78915365E-01 0.27635401E+03</pdfrwt>
<pdfrwt beam="2">  1       -2 0.57264208E-02 0.27635401E+03</pdfrwt>
<totfact> 0.95658163E+03</totfact>
</mgrwt>
</event>
<event>
 9    1  0.2024718E-002  0.2748095E+03  0.7818608E-02  0.1098558E+00
          4   -1    0    0  501    0  0.00000000000E+00  0.00000000000E+00  0.98085089053E+03  0.98085089053E+03  0.00000000000E+00 0. -1.
         -4   -1    0    0    0  501 -0.00000000000E+00 -0.00000000000E+00 -0.19248665366E+02  0.19248665366E+02  0.00000000000E+00 0. -1.
         36    2    1    2    0    0  0.00000000000E+00  0.35527136788E-14  0.96160222517E+03  0.10000995559E+04  0.27480953816E+03 0.  0.
         25    2    3    3    0    0 -0.49980540709E+02 -0.29258929630E+02  0.44376332393E+03  0.46446152358E+03  0.12427582149E+03 0.  0.
         25    2    3    3    0    0  0.49980540709E+02  0.29258929630E+02  0.51783890124E+03  0.53563803232E+03  0.12408398213E+03 0.  0.
          5    1    4    4  502    0 -0.56812549931E+02  0.24021418360E+02  0.35690826626E+03  0.36222961626E+03  0.47000000000E+01 0. -1.
         -5    1    4    4    0  502  0.68320092220E+01 -0.53280347990E+02  0.86855057674E+02  0.10223190733E+03  0.47000000000E+01 0. -1.
          5    1    5    5  503    0  0.84107589960E+02 -0.95571582563E+01  0.33688587478E+03  0.34738970708E+03  0.47000000000E+01 0.  1.
         -5    1    5    5    0  503 -0.34127049251E+02  0.38816087887E+02  0.18095302646E+03  0.18824832524E+03  0.47000000000E+01 0.  1.
<mgrwt>
<rscale>  0 0.27480954E+03</rscale>
<asrwt>0</asrwt>
<pdfrwt beam="1">  1        4 0.15090010E+00 0.27480954E+03</pdfrwt>
<pdfrwt beam="2">  1       -4 0.29613339E-02 0.27480954E+03</pdfrwt>
<totfact> 0.32086432E+02</totfact>
</mgrwt>
</event>
<event>
 9    1  0.2024718E-002  0.2717955E+03  0.7818608E-02  0.1100256E+00
          2   -1    0    0  501    0  0.00000000000E+00  0.00000000000E+00  0.12191852164E+04  0.12191852164E+04  0.00000000000E+00 0.  1.
         -2   -1    0    0    0  501 -0.00000000000E+00 -0.00000000000E+00 -0.15147986167E+02  0.15147986167E+02  0.00000000000E+00 0.  1.
         36    2    1    2    0    0  0.00000000000E+00  0.71054273576E-14  0.12040372303E+04  0.12343332026E+04  0.27179551721E+03 0.  0.
         25    2    3    3    0    0 -0.34403990319E+02 -0.35392792933E+02  0.58843370090E+03  0.60423823911E+03  0.12811457724E+03 0.  0.
         25    2    3    3    0    0  0.34403990319E+02  0.35392792933E+02  0.61560352938E+03  0.63009496351E+03  0.12496268768E+03 0.  0.
          5    1    4    4  502    0 -0.27654979562E+02 -0.64434257816E+02  0.55403636124E+03  0.55847555994E+03  0.47000000000E+01 0.  1.
         -5    1    4    4    0  502 -0.67490107573E+01  0.29041464882E+02  0.34397339664E+02  0.45762679169E+02  0.47000000000E+01 0.  1.
          5    1    5    5  503    0  0.15607991295E+02 -0.39346395256E+02  0.99264760453E+02  0.10801541964E+03  0.47000000000E+01 0.  1.
         -5    1    5    5    0  503  0.18795999025E+02  0.74739188189E+02  0.51633876893E+03  0.52207954387E+03  0.47000000000E+01 0.  1.
<mgrwt>
<rscale>  0 0.27179552E+03</rscale>
<asrwt>0</asrwt>
<pdfrwt beam="1">  1        2 0.18756688E+00 0.27179552E+03</pdfrwt>
<pdfrwt beam="2">  1       -2 0.23304604E-02 0.27179552E+03</pdfrwt>
<totfact> 0.11996408E+04</totfact>
</mgrwt>
</event>
<event>
 9    1  0.2024718E-002  0.2762603E+03  0.7818608E-02  0.1097749E+00
          2   -1    0    0  501    0  0.00000000000E+00  0.00000000000E+00  0.58951607294E+03  0.58951607294E+03  0.00000000000E+00 0.  1.
         -2   -1    0    0    0  501 -0.00000000000E+00 -0.00000000000E+00 -0.32365416126E+02  0.32365416126E+02  0.00000000000E+00 0.  1.
         36    2    1    2    0    0 -0.35527136788E-14  0.00000000000E+00  0.55715065681E+03  0.62188148907E+03  0.27626026145E+03 0.  0.
         25    2    3    3    0    0  0.83815053542E+00 -0.44406832625E+01  0.40441526663E+03  0.42203252635E+03  0.12057911613E+03 0.  0.
         25    2    3    3    0    0 -0.83815053542E+00  0.44406832625E+01  0.15273539018E+03  0.19984896271E+03  0.12880639084E+03 0.  0.
          5    1    4    4  502    0  0.41884063626E+02  0.36983604928E+02  0.13218017766E+03  0.14358186231E+03  0.47000000000E+01 0. -1.
         -5    1    4    4    0  502 -0.41045913090E+02 -0.41424288191E+02  0.27223508898E+03  0.27845066404E+03  0.47000000000E+01 0. -1.
          5    1    5    5  503    0  0.11740035959E+01 -0.61531480360E+02  0.61374931920E+02  0.87042941287E+02  0.47000000000E+01 0.  1.
         -5    1    5    5    0  503 -0.20121541313E+01  0.65972163622E+02  0.91360458257E+02  0.11280602143E+03  0.47000000000E+01 0.  1.
<mgrwt>
<rscale>  0 0.27626026E+03</rscale>
<asrwt>0</asrwt>
<pdfrwt beam="1">  1        2 0.90694772E-01 0.27626026E+03</pdfrwt>
<pdfrwt beam="2">  1       -2 0.49792952E-02 0.27626026E+03</pdfrwt>
<totfact> 0.10103113E+04</totfact>
</mgrwt>
</event>
<event>
 9    1  0.2024718E-002  0.2759970E+03  0.7818608E-02  0.1097896E+00
         -2   -1    0    0    0  501 -0.00000000000E+00  0.00000000000E+00  0.29951015941E+02  0.29951015941E+02  0.00000000000E+00 0.  1.
          2   -1    0    0  501    0  0.00000000000E+00 -0.00000000000E+00 -0.63582443699E+03  0.63582443699E+03  0.00000000000E+00 0.  1.
         36    2    1    2    0    0  0.35527136788E-14  0.00000000000E+00 -0.60587342105E+03  0.66577545293E+03  0.27599701338E+03 0.  0.
         25    2    3    3    0    0 -0.75482336513E+01  0.56363019594E+02 -0.36736761739E+03  0.39144154404E+03  0.12261219468E+03 0.  0.
         25    2    3    3    0    0  0.75482336513E+01 -0.56363019594E+02 -0.23850580366E+03  0.27433390889E+03  0.12304596450E+03 0.  0.
          5    1    4    4  502    0  0.26669275558E+02 -0.24125883050E+01 -0.27655364335E+03  0.27788680877E+03  0.47000000000E+01 0.  1.
         -5    1    4    4    0  502 -0.34217509209E+02  0.58775607899E+02 -0.90813974044E+02  0.11355473527E+03  0.47000000000E+01 0.  1.
          5    1    5    5  503    0 -0.31265007055E+02  0.24239113675E+02 -0.39535042020E+02  0.56126151172E+02  0.47000000000E+01 0. -1.
         -5    1    5    5    0  503  0.38813240706E+02 -0.80602133269E+02 -0.19897076164E+03  0.21820775772E+03  0.47000000000E+01 0. -1.
<mgrwt>
<rscale>  0 0.27599701E+03</rscale>
<asrwt>0</asrwt>
<pdfrwt beam="1">  1        2 0.97819130E-01 0.27599701E+03</pdfrwt>
<pdfrwt beam="2">  1       -2 0.46078493E-02 0.27599701E+03</pdfrwt>
<totfact> 0.10402871E+04</totfact>
</mgrwt>
</event>
<event>
 9    1  0.2024718E-002  0.2750907E+03  0.7818608E-02  0.1098401E+00
          1   -1    0    0  501    0  0.00000000000E+00  0.00000000000E+00  0.46417121913E+03  0.46417121913E+03  0.00000000000E+00 0. -1.
         -1   -1    0    0    0  501 -0.00000000000E+00 -0.00000000000E+00 -0.40758070288E+02  0.40758070288E+02  0.00000000000E+00 0. -1.
         36    2    1    2    0    0  0.00000000000E+00  0.35527136788E-14  0.42341314884E+03  0.50492928942E+03  0.27509069904E+03 0.  0.
         25    2    3    3    0    0 -0.25816913521E+02  0.29633599774E+02  0.26629382358E+03  0.29772552753E+03  0.12721409516E+03 0.  0.
         25    2    3    3    0    0  0.25816913521E+02 -0.29633599774E+02  0.15711932526E+03  0.20720376188E+03  0.12923719786E+03 0.  0.
          5    1    4    4  502    0  0.33785764339E+02 -0.32202829919E+02  0.85877569773E+02  0.97854724551E+02  0.47000000000E+01 0. -1.
         -5    1    4    4    0  502 -0.59602677860E+02  0.61836429693E+02  0.18041625381E+03  0.19987080298E+03  0.47000000000E+01 0. -1.
          5    1    5    5  503    0  0.59709745214E+02 -0.37597908704E+02  0.32685614717E+02  0.77905685427E+02  0.47000000000E+01 0.  1.
         -5    1    5    5    0  503 -0.33892831693E+02  0.79643089307E+01  0.12443371054E+03  0.12929807646E+03  0.47000000000E+01 0.  1.
<mgrwt>
<rscale>  0 0.27509070E+03</rscale>
<asrwt>0</asrwt>
<pdfrwt beam="1">  1        1 0.71410953E-01 0.27509070E+03</pdfrwt>
<pdfrwt beam="2">  1       -1 0.62704727E-02 0.27509070E+03</pdfrwt>
<totfact> 0.61988006E+03</totfact>
</mgrwt>
</event>
<event>
 9    1  0.2024718E-002  0.2749321E+03  0.7818608E-02  0.1098490E+00
          2   -1    0    0  501    0  0.00000000000E+00  0.00000000000E+00  0.15404187960E+04  0.15404187960E+04  0.00000000000E+00 0.  1.
         -2   -1    0    0    0  501 -0.00000000000E+00 -0.00000000000E+00 -0.12267384539E+02  0.12267384539E+02  0.00000000000E+00 0.  1.
         36    2    1    2    0    0  0.00000000000E+00 -0.35527136788E-14  0.15281514114E+04  0.15526861805E+04  0.27493206231E+03 0.  0.
         25    2    3    3    0    0  0.71590902449E+01 -0.20967396307E+02  0.10333965757E+04  0.10409579409E+04  0.12326421951E+03 0.  0.
         25    2    3    3    0    0 -0.71590902449E+01  0.20967396307E+02  0.49475483577E+03  0.51172823963E+03  0.12881210904E+03 0.  0.
          5    1    4    4  502    0 -0.42782946792E+02 -0.50177988252E+02  0.48149258378E+03  0.48600968023E+03  0.47000000000E+01 0. -1.
         -5    1    4    4    0  502  0.49942037037E+02  0.29210591944E+02  0.55190399188E+03  0.55494826065E+03  0.47000000000E+01 0. -1.
          5    1    5    5  503    0  0.44183203165E+02  0.16790180787E+02  0.74848048882E+02  0.88647538230E+02  0.47000000000E+01 0. -1.
         -5    1    5    5    0  503 -0.51342293410E+02  0.41772155208E+01  0.41990678689E+03  0.42308070140E+03  0.47000000000E+01 0. -1.
<mgrwt>
<rscale>  0 0.27493206E+03</rscale>
<asrwt>0</asrwt>
<pdfrwt beam="1">  1        2 0.23698735E+00 0.27493206E+03</pdfrwt>
<pdfrwt beam="2">  1       -2 0.18872911E-02 0.27493206E+03</pdfrwt>
<totfact> 0.10930377E+04</totfact>
</mgrwt>
</event>
<event>
 9    1  0.2024718E-002  0.2768346E+03  0.7818608E-02  0.1097430E+00
          1   -1    0    0  501    0  0.00000000000E+00  0.00000000000E+00  0.19556205976E+03  0.19556205976E+03  0.00000000000E+00 0.  1.
         -1   -1    0    0    0  501 -0.00000000000E+00 -0.00000000000E+00 -0.97970693580E+02  0.97970693580E+02  0.00000000000E+00 0.  1.
         36    2    1    2    0    0  0.00000000000E+00  0.00000000000E+00  0.97591366180E+02  0.29353275334E+03  0.27683461223E+03 0.  0.
         25    2    3    3    0    0 -0.21209619710E+02 -0.59923236812E+02  0.53838812669E+02  0.14966453682E+03  0.12433910710E+03 0.  0.
         25    2    3    3    0    0  0.21209619710E+02  0.59923236812E+02  0.43752553511E+02  0.14386821652E+03  0.12142131406E+03 0.  0.
          5    1    4    4  502    0  0.29878050751E+02  0.25749556817E+02  0.17382141429E+02  0.43358579700E+02  0.47000000000E+01 0.  1.
         -5    1    4    4    0  502 -0.51087670461E+02 -0.85672793629E+02  0.36456671240E+02  0.10630595712E+03  0.47000000000E+01 0.  1.
          5    1    5    5  503    0  0.26407250192E+02  0.39595982088E+02 -0.36895460098E+02  0.60403225377E+02  0.47000000000E+01 0. -1.
         -5    1    5    5    0  503 -0.51976304821E+01  0.20327254725E+02  0.80648013609E+02  0.83464991142E+02  0.47000000000E+01 0. -1.
<mgrwt>
<rscale>  0 0.27683461E+03</rscale>
<asrwt>0</asrwt>
<pdfrwt beam="1">  1        1 0.30086471E-01 0.27683461E+03</pdfrwt>
<pdfrwt beam="2">  1       -1 0.15072414E-01 0.27683461E+03</pdfrwt>
<totfact> 0.47824320E+03</totfact>
</mgrwt>
</event>
<event>
 9    1  0.2024718E-002  0.2745865E+03  0.7818608E-02  0.1098683E+00
         -1   -1    0    0    0  501 -0.00000000000E+00  0.00000000000E+00  0.28850828170E+02  0.28850828170E+02  0.00000000000E+00 0. -1.
          1   -1    0    0  501    0  0.00000000000E+00 -0.00000000000E+00 -0.65334134488E+03  0.65334134488E+03  0.00000000000E+00 0. -1.
         36    2    1    2    0    0  0.00000000000E+00 -0.71054273576E-14 -0.62449051671E+03  0.68219217305E+03  0.27458651735E+03 0.  0.
         25    2    3    3    0    0  0.73349095419E+01  0.49821627703E+02 -0.36679439461E+03  0.39089517296E+03  0.12539901450E+03 0.  0.
         25    2    3    3    0    0 -0.73349095419E+01 -0.49821627703E+02 -0.25769612210E+03  0.29129700009E+03  0.12613744660E+03 0.  0.
          5    1    4    4  502    0  0.42862241979E+02 -0.25632426938E+02 -0.16615140005E+03  0.17355855161E+03  0.47000000000E+01 0. -1.
         -5    1    4    4    0  502 -0.35527332437E+02  0.75454054641E+02 -0.20064299456E+03  0.21733662135E+03  0.47000000000E+01 0. -1.
          5    1    5    5  503    0 -0.18979150429E+02 -0.44543501159E+02 -0.26914346451E+03  0.27350434391E+03  0.47000000000E+01 0.  1.
         -5    1    5    5    0  503  0.11644240887E+02 -0.52781265441E+01  0.11447342417E+02  0.17792656183E+02  0.47000000000E+01 0.  1.
<mgrwt>
<rscale>  0 0.27458652E+03</rscale>
<asrwt>0</asrwt>
<pdfrwt beam="1">  1        1 0.10051405E+00 0.27458652E+03</pdfrwt>
<pdfrwt beam="2">  1       -1 0.44385889E-02 0.27458652E+03</pdfrwt>
<totfact> 0.65385392E+03</totfact>
</mgrwt>
</event>
<event>
 9    1  0.2024718E-002  0.2770927E+03  0.7818608E-02  0.1097288E+00
         -1   -1    0    0    0  501 -0.00000000000E+00  0.00000000000E+00  0.19109268275E+02  0.19109268275E+02  0.00000000000E+00 0.  1.
          1   -1    0    0  501    0  0.00000000000E+00 -0.00000000000E+00 -0.10044909438E+04  0.10044909438E+04  0.00000000000E+00 0.  1.
         36    2    1    2    0    0  0.28421709430E-13  0.71054273576E-14 -0.98538167553E+03  0.10236002121E+04  0.27709266987E+03 0.  0.
         25    2    3    3    0    0 -0.80619682015E+02 -0.29947678125E+02 -0.73343267408E+03  0.74888162861E+03  0.12451429521E+03 0.  0.
         25    2    3    3    0    0  0.80619682015E+02  0.29947678125E+02 -0.25194900145E+03  0.27471858347E+03  0.67790885947E+02 0.  0.
          5    1    4    4  502    0  0.72070266250E+01 -0.54736183340E+02 -0.37059450273E+03  0.37471371266E+03  0.47000000000E+01 0.  1.
         -5    1    4    4    0  502 -0.87826708640E+02  0.24788505216E+02 -0.36283817134E+03  0.37416791595E+03  0.47000000000E+01 0.  1.
          5    1    5    5  503    0  0.92356840773E+02  0.25267025686E+02 -0.22550011365E+03  0.24503183442E+03  0.47000000000E+01 0. -1.
         -5    1    5    5    0  503 -0.11737158758E+02  0.46806524382E+01 -0.26448887806E+02  0.29686749050E+02  0.47000000000E+01 0. -1.
<mgrwt>
<rscale>  0 0.27709267E+03</rscale>
<asrwt>0</asrwt>
<pdfrwt beam="1">  1        1 0.15453714E+00 0.27709267E+03</pdfrwt>
<pdfrwt beam="2">  1       -1 0.29398861E-02 0.27709267E+03</pdfrwt>
<totfact> 0.61645355E+03</totfact>
</mgrwt>
</event>
<event>
 9    1  0.2024718E-002  0.2747654E+03  0.7818608E-02  0.1098583E+00
         -2   -1    0    0    0  501 -0.00000000000E+00  0.00000000000E+00  0.74798345666E+02  0.74798345666E+02  0.00000000000E+00 0. -1.
          2   -1    0    0  501    0  0.00000000000E+00 -0.00000000000E+00 -0.25233178068E+03  0.25233178068E+03  0.00000000000E+00 0. -1.
         36    2    1    2    0    0  0.00000000000E+00 -0.35527136788E-14 -0.17753343501E+03  0.32713012635E+03  0.27476535265E+03 0.  0.
         25    2    3    3    0    0  0.56647463051E+02  0.82520109946E+01 -0.72655984399E+02  0.15413987190E+03  0.12330116498E+03 0.  0.
         25    2    3    3    0    0 -0.56647463051E+02 -0.82520109946E+01 -0.10487745061E+03  0.17299025444E+03  0.12509723310E+03 0.  0.
          5    1    4    4  502    0  0.56366761134E+02 -0.34563087138E+02 -0.86426068776E+02  0.10891911732E+03  0.47000000000E+01 0.  1.
         -5    1    4    4    0  502  0.28070191699E+00  0.42815098133E+02  0.13770084377E+02  0.45220754587E+02  0.47000000000E+01 0.  1.
          5    1    5    5  503    0  0.23691079392E+02 -0.30461068275E+02  0.86217247055E-01  0.38874687865E+02  0.47000000000E+01 0.  1.
         -5    1    5    5    0  503 -0.80338542442E+02  0.22209057280E+02 -0.10496366786E+03  0.13411556658E+03  0.47000000000E+01 0.  1.
<mgrwt>
<rscale>  0 0.27476535E+03</rscale>
<asrwt>0</asrwt>
<pdfrwt beam="1">  1        2 0.38820274E-01 0.27476535E+03</pdfrwt>
<pdfrwt beam="2">  1       -2 0.11507438E-01 0.27476535E+03</pdfrwt>
<totfact> 0.69335122E+03</totfact>
</mgrwt>
</event>
<event>
 9    1  0.2024718E-002  0.2752423E+03  0.7818608E-02  0.1098316E+00
         -2   -1    0    0    0  501 -0.00000000000E+00  0.00000000000E+00  0.38041411212E+02  0.38041411212E+02  0.00000000000E+00 0.  1.
          2   -1    0    0  501    0  0.00000000000E+00 -0.00000000000E+00 -0.49786753539E+03  0.49786753539E+03  0.00000000000E+00 0.  1.
         36    2    1    2    0    0 -0.35527136788E-14  0.00000000000E+00 -0.45982612417E+03  0.53590894660E+03  0.27524231973E+03 0.  0.
         25    2    3    3    0    0  0.15691654147E+02  0.53617988067E+02 -0.22060877224E+03  0.26067486632E+03  0.12713000781E+03 0.  0.
         25    2    3    3    0    0 -0.15691654147E+02 -0.53617988067E+02 -0.23921735193E+03  0.27523408028E+03  0.12412792123E+03 0.  0.
          5    1    4    4  502    0  0.71065969574E+02  0.21682556611E+02 -0.12731884196E+03  0.14748790734E+03  0.47000000000E+01 0.  1.
         -5    1    4    4    0  502 -0.55374315427E+02  0.31935431456E+02 -0.93289930276E+02  0.11318695898E+03  0.47000000000E+01 0.  1.
          5    1    5    5  503    0  0.96269589917E+01 -0.16594093232E+02 -0.22787705003E+03  0.22873146307E+03  0.47000000000E+01 0.  1.
         -5    1    5    5    0  503 -0.25318613139E+02 -0.37023894835E+02 -0.11340301905E+02  0.46502617209E+02  0.47000000000E+01 0.  1.
<mgrwt>
<rscale>  0 0.27524232E+03</rscale>
<asrwt>0</asrwt>
<pdfrwt beam="1">  1        2 0.76595007E-01 0.27524232E+03</pdfrwt>
<pdfrwt beam="2">  1       -2 0.58525247E-02 0.27524232E+03</pdfrwt>
<totfact> 0.95653119E+03</totfact>
</mgrwt>
</event>
<event>
 9    1  0.2024718E-002  0.2722976E+03  0.7818608E-02  0.1099972E+00
          1   -1    0    0  501    0  0.00000000000E+00  0.00000000000E+00  0.52270998535E+03  0.52270998535E+03  0.00000000000E+00 0. -1.
         -1   -1    0    0    0  501 -0.00000000000E+00 -0.00000000000E+00 -0.35462285163E+02  0.35462285163E+02  0.00000000000E+00 0. -1.
         36    2    1    2    0    0  0.00000000000E+00 -0.14210854715E-13  0.48724770019E+03  0.55817227051E+03  0.27229756193E+03 0.  0.
         25    2    3    3    0    0 -0.31674087005E+01  0.46742723043E+02  0.27357429815E+03  0.30564381307E+03  0.12798566023E+03 0.  0.
         25    2    3    3    0    0  0.31674087005E+01 -0.46742723043E+02  0.21367340204E+03  0.25252845744E+03  0.12617204304E+03 0.  0.
          5    1    4    4  502    0  0.44270199542E+02  0.25577235388E+02  0.23559279210E+03  0.24112258133E+03  0.47000000000E+01 0. -1.
         -5    1    4    4    0  502 -0.47437608242E+02  0.21165487655E+02  0.37981506046E+02  0.64521231738E+02  0.47000000000E+01 0. -1.
          5    1    5    5  503    0 -0.48643146312E+02 -0.32130216917E+02  0.40550598001E+02  0.71168444697E+02  0.47000000000E+01 0.  1.
         -5    1    5    5    0  503  0.51810555013E+02 -0.14612506126E+02  0.17312280404E+03  0.18136001275E+03  0.47000000000E+01 0.  1.
<mgrwt>
<rscale>  0 0.27229756E+03</rscale>
<asrwt>0</asrwt>
<pdfrwt beam="1">  1        1 0.80416916E-01 0.27229756E+03</pdfrwt>
<pdfrwt beam="2">  1       -1 0.54557365E-02 0.27229756E+03</pdfrwt>
<totfact> 0.65298589E+03</totfact>
</mgrwt>
</event>
<event>
 9    1  0.2024718E-002  0.2741886E+03  0.7818608E-02  0.1098906E+00
         -1   -1    0    0    0  501 -0.00000000000E+00  0.00000000000E+00  0.55263463657E+02  0.55263463657E+02  0.00000000000E+00 0. -1.
          1   -1    0    0  501    0  0.00000000000E+00 -0.00000000000E+00 -0.34009543698E+03  0.34009543698E+03  0.00000000000E+00 0. -1.
         36    2    1    2    0    0  0.14210854715E-13  0.14210854715E-13 -0.28483197332E+03  0.39535890064E+03  0.27418863449E+03 0.  0.
         25    2    3    3    0    0 -0.45550876162E+02 -0.23398441541E+02 -0.17774399556E+03  0.22297820258E+03  0.12451498497E+03 0.  0.
         25    2    3    3    0    0  0.45550876162E+02  0.23398441541E+02 -0.10708797776E+03  0.17238069806E+03  0.12499960278E+03 0.  0.
          5    1    4    4  502    0 -0.12125395766E+02 -0.68902437258E+02 -0.59894963385E+02  0.92217502251E+02  0.47000000000E+01 0.  1.
         -5    1    4    4    0  502 -0.33425480397E+02  0.45503995717E+02 -0.11784903217E+03  0.13076070033E+03  0.47000000000E+01 0.  1.
          5    1    5    5  503    0  0.19799247219E+01 -0.49632346524E+02 -0.40931255127E+02  0.64534855463E+02  0.47000000000E+01 0. -1.
         -5    1    5    5    0  503  0.43570951440E+02  0.73030788066E+02 -0.66156722637E+02  0.10784584260E+03  0.47000000000E+01 0. -1.
<mgrwt>
<rscale>  0 0.27418863E+03</rscale>
<asrwt>0</asrwt>
<pdfrwt beam="1">  1        1 0.52322375E-01 0.27418863E+03</pdfrwt>
<pdfrwt beam="2">  1       -1 0.85020713E-02 0.27418863E+03</pdfrwt>
<totfact> 0.58152735E+03</totfact>
</mgrwt>
</event>
<event>
 9    1  0.2024718E-002  0.2765716E+03  0.7818608E-02  0.1097576E+00
         -1   -1    0    0    0  501 -0.00000000000E+00  0.00000000000E+00  0.34720774656E+02  0.34720774656E+02  0.00000000000E+00 0.  1.
          1   -1    0    0  501    0  0.00000000000E+00 -0.00000000000E+00 -0.55076418556E+03  0.55076418556E+03  0.00000000000E+00 0.  1.
         36    2    1    2    0    0  0.00000000000E+00  0.71054273576E-14 -0.51604341090E+03  0.58548496022E+03  0.27657157609E+03 0.  0.
         25    2    3    3    0    0 -0.21898192257E+02  0.14244602839E+02 -0.18299866868E+03  0.23018693766E+03  0.13716805021E+03 0.  0.
         25    2    3    3    0    0  0.21898192257E+02 -0.14244602839E+02 -0.33304474223E+03  0.35529802255E+03  0.12097704315E+03 0.  0.
          5    1    4    4  502    0 -0.22097401116E+02  0.21582912753E+02 -0.20455892234E+03  0.20693129287E+03  0.47000000000E+01 0. -1.
         -5    1    4    4    0  502  0.19920885862E+00 -0.73383099134E+01  0.21560253667E+02  0.23255644793E+02  0.47000000000E+01 0. -1.
          5    1    5    5  503    0  0.38891960876E+02  0.34618479887E+02 -0.26270129041E+03  0.26785272400E+03  0.47000000000E+01 0. -1.
         -5    1    5    5    0  503 -0.16993768619E+02 -0.48863082726E+02 -0.70343451815E+02  0.87445298551E+02  0.47000000000E+01 0. -1.
<mgrwt>
<rscale>  0 0.27657158E+03</rscale>
<asrwt>0</asrwt>
<pdfrwt beam="1">  1        1 0.84732946E-01 0.27657158E+03</pdfrwt>
<pdfrwt beam="2">  1       -1 0.53416580E-02 0.27657158E+03</pdfrwt>
<totfact> 0.62843220E+03</totfact>
</mgrwt>
</event>
<event>
 9    1  0.2024718E-002  0.2751480E+03  0.7818608E-02  0.1098369E+00
          2   -1    0    0  501    0  0.00000000000E+00  0.00000000000E+00  0.43165544281E+03  0.43165544281E+03  0.00000000000E+00 0. -1.
         -2   -1    0    0    0  501 -0.00000000000E+00 -0.00000000000E+00 -0.43846553625E+02  0.43846553625E+02  0.00000000000E+00 0. -1.
         36    2    1    2    0    0  0.71054273576E-14  0.35527136788E-14  0.38780888919E+03  0.47550199644E+03  0.27514798579E+03 0.  0.
         25    2    3    3    0    0  0.48669226681E+02  0.24186759274E+02  0.20851118583E+03  0.24988161938E+03  0.12653148278E+03 0.  0.
         25    2    3    3    0    0 -0.48669226681E+02 -0.24186759274E+02  0.17929770335E+03  0.22562037706E+03  0.12571075995E+03 0.  0.
          5    1    4    4  502    0  0.67177645563E+02 -0.17953863547E+02  0.18560020682E+03  0.19825414006E+03  0.47000000000E+01 0.  1.
         -5    1    4    4    0  502 -0.18508418881E+02  0.42140622821E+02  0.22910979012E+02  0.51627479316E+02  0.47000000000E+01 0.  1.
          5    1    5    5  503    0 -0.32313429521E+02  0.38417498595E+02  0.14222806578E+03  0.15090054546E+03  0.47000000000E+01 0.  1.
         -5    1    5    5    0  503 -0.16355797161E+02 -0.62604257869E+02  0.37069637579E+02  0.74719831600E+02  0.47000000000E+01 0.  1.
<mgrwt>
<rscale>  0 0.27514799E+03</rscale>
<asrwt>0</asrwt>
<pdfrwt beam="1">  1        2 0.66408527E-01 0.27514799E+03</pdfrwt>
<pdfrwt beam="2">  1       -2 0.67456239E-02 0.27514799E+03</pdfrwt>
<totfact> 0.90021935E+03</totfact>
</mgrwt>
</event>
<event>
 9    1  0.2024718E-002  0.2754860E+03  0.7818608E-02  0.1098180E+00
         -1   -1    0    0    0  501 -0.00000000000E+00  0.00000000000E+00  0.95933527370E+01  0.95933527370E+01  0.00000000000E+00 0. -1.
          1   -1    0    0  501    0  0.00000000000E+00 -0.00000000000E+00 -0.19777377108E+04  0.19777377108E+04  0.00000000000E+00 0. -1.
         36    2    1    2    0    0  0.00000000000E+00  0.00000000000E+00 -0.19681443581E+04  0.19873310635E+04  0.27548601040E+03 0.  0.
         25    2    3    3    0    0 -0.60420838859E+02  0.18081619727E+02 -0.10391944561E+04  0.10479259384E+04  0.11935674321E+03 0.  0.
         25    2    3    3    0    0  0.60420838859E+02 -0.18081619727E+02 -0.92894990200E+03  0.93940512512E+03  0.12472548232E+03 0.  0.
          5    1    4    4  502    0 -0.24618630107E+02 -0.35941309803E+02 -0.14759547562E+03  0.15396223277E+03  0.47000000000E+01 0. -1.
         -5    1    4    4    0  502 -0.35802208751E+02  0.54022929530E+02 -0.89159898044E+03  0.89396370563E+03  0.47000000000E+01 0. -1.
          5    1    5    5  503    0  0.42995569983E+02 -0.37079441012E+02 -0.15710351616E+03  0.16711405917E+03  0.47000000000E+01 0.  1.
         -5    1    5    5    0  503  0.17425268876E+02  0.18997821286E+02 -0.77184638584E+03  0.77229106595E+03  0.47000000000E+01 0.  1.
<mgrwt>
<rscale>  0 0.27548601E+03</rscale>
<asrwt>0</asrwt>
<pdfrwt beam="1">  1        1 0.30426767E+00 0.27548601E+03</pdfrwt>
<pdfrwt beam="2">  1       -1 0.14758988E-02 0.27548601E+03</pdfrwt>
<totfact> 0.37274027E+03</totfact>
</mgrwt>
</event>
<event>
 9    1  0.2024718E-002  0.2768386E+03  0.7818608E-02  0.1097428E+00
         -2   -1    0    0    0  501 -0.00000000000E+00  0.00000000000E+00  0.12999870675E+02  0.12999870675E+02  0.00000000000E+00 0. -1.
          2   -1    0    0  501    0  0.00000000000E+00 -0.00000000000E+00 -0.14738536460E+04  0.14738536460E+04  0.00000000000E+00 0. -1.
         36    2    1    2    0    0  0.71054273576E-14  0.00000000000E+00 -0.14608537753E+04  0.14868535166E+04  0.27683863019E+03 0.  0.
         25    2    3    3    0    0 -0.11951835573E+02  0.50851406042E+02 -0.57200348095E+03  0.58753596045E+03  0.12361962116E+03 0.  0.
         25    2    3    3    0    0  0.11951835573E+02 -0.50851406042E+02 -0.88885029434E+03  0.89931755619E+03  0.12644567706E+03 0.  0.
          5    1    4    4  502    0  0.15128538268E+02  0.60829485411E+02 -0.54202858937E+03  0.54566123251E+03  0.47000000000E+01 0. -1.
         -5    1    4    4    0  502 -0.27080373842E+02 -0.99780793696E+01 -0.29974891577E+02  0.41874727944E+02  0.47000000000E+01 0. -1.
          5    1    5    5  503    0 -0.54113523186E+02 -0.34581631112E+02 -0.32167726193E+03  0.32805870427E+03  0.47000000000E+01 0.  1.
         -5    1    5    5    0  503  0.66065358759E+02 -0.16269774930E+02 -0.56717303241E+03  0.57125885192E+03  0.47000000000E+01 0.  1.
<mgrwt>
<rscale>  0 0.27683863E+03</rscale>
<asrwt>0</asrwt>
<pdfrwt beam="1">  1        2 0.22674686E+00 0.27683863E+03</pdfrwt>
<pdfrwt beam="2">  1       -2 0.19999788E-02 0.27683863E+03</pdfrwt>
<totfact> 0.10896105E+04</totfact>
</mgrwt>
</event>
<event>
 9    1  0.2024718E-002  0.2759594E+03  0.7818608E-02  0.1097917E+00
         -1   -1    0    0    0  501 -0.00000000000E+00  0.00000000000E+00  0.78964297785E+02  0.78964297785E+02  0.00000000000E+00 0.  1.
          1   -1    0    0  501    0  0.00000000000E+00 -0.00000000000E+00 -0.24110133353E+03  0.24110133353E+03  0.00000000000E+00 0.  1.
         36    2    1    2    0    0 -0.71054273576E-14  0.35527136788E-14 -0.16213703574E+03  0.32006563131E+03  0.27595939917E+03 0.  0.
         25    2    3    3    0    0  0.32446512472E+02  0.25500470872E+02 -0.79958519330E+02  0.16243921623E+03  0.13524083692E+03 0.  0.
         25    2    3    3    0    0 -0.32446512472E+02 -0.25500470872E+02 -0.82178516414E+02  0.15762641508E+03  0.12802237299E+03 0.  0.
          5    1    4    4  502    0  0.26197532900E+00  0.74633196926E+02 -0.70476147370E+02  0.10275777373E+03  0.47000000000E+01 0.  1.
         -5    1    4    4    0  502  0.32184537143E+02 -0.49132726054E+02 -0.94823719596E+01  0.59681442497E+02  0.47000000000E+01 0.  1.
          5    1    5    5  503    0  0.28426972905E+01 -0.29683628337E+02 -0.10884241203E+03  0.11295113712E+03  0.47000000000E+01 0.  1.
         -5    1    5    5    0  503 -0.35289209762E+02  0.41831574649E+01  0.26663895616E+02  0.44675277967E+02  0.47000000000E+01 0.  1.
<mgrwt>
<rscale>  0 0.27595940E+03</rscale>
<asrwt>0</asrwt>
<pdfrwt beam="1">  1        1 0.37092513E-01 0.27595940E+03</pdfrwt>
<pdfrwt beam="2">  1       -1 0.12148354E-01 0.27595940E+03</pdfrwt>
<totfact> 0.51611840E+03</totfact>
</mgrwt>
</event>
<event>
 9    1  0.2024718E-002  0.2730273E+03  0.7818608E-02  0.1099559E+00
          2   -1    0    0  501    0  0.00000000000E+00  0.00000000000E+00  0.24156110609E+04  0.24156110609E+04  0.00000000000E+00 0. -1.
         -2   -1    0    0    0  501 -0.00000000000E+00 -0.00000000000E+00 -0.77148099943E+01  0.77148099943E+01  0.00000000000E+00 0. -1.
         36    2    1    2    0    0  0.35527136788E-14  0.00000000000E+00  0.24078962509E+04  0.24233258709E+04  0.27302732724E+03 0.  0.
         25    2    3    3    0    0 -0.27804203600E+02  0.36051213483E+02  0.14862236471E+04  0.14921502882E+04  0.12481582343E+03 0.  0.
         25    2    3    3    0    0  0.27804203600E+02 -0.36051213483E+02  0.92167260387E+03  0.93117558271E+03  0.12463873148E+03 0.  0.
          5    1    4    4  502    0  0.34687899870E+02  0.49012184410E+02  0.45892821141E+03  0.46286351968E+03  0.47000000000E+01 0. -1.
         -5    1    4    4    0  502 -0.62492103470E+02 -0.12960970926E+02  0.10272954357E+04  0.10292867685E+04  0.47000000000E+01 0. -1.
          5    1    5    5  503    0 -0.93374936833E+01 -0.24877831747E+02  0.84206679834E+03  0.84249906716E+03  0.47000000000E+01 0. -1.
         -5    1    5    5    0  503  0.37141697283E+02 -0.11173381737E+02  0.79605805531E+02  0.88676515554E+02  0.47000000000E+01 0. -1.
<mgrwt>
<rscale>  0 0.27302733E+03</rscale>
<asrwt>0</asrwt>
<pdfrwt beam="1">  1        2 0.37163187E+00 0.27302733E+03</pdfrwt>
<pdfrwt beam="2">  1       -2 0.11868958E-02 0.27302733E+03</pdfrwt>
<totfact> 0.74080279E+03</totfact>
</mgrwt>
</event>
<event>
 9    1  0.2024718E-002  0.2751736E+03  0.7818608E-02  0.1098355E+00
         -4   -1    0    0    0  501 -0.00000000000E+00  0.00000000000E+00  0.18722483421E+03  0.18722483421E+03  0.00000000000E+00 0.  1.
          4   -1    0    0  501    0  0.00000000000E+00 -0.00000000000E+00 -0.10110907645E+03  0.10110907645E+03  0.00000000000E+00 0.  1.
         36    2    1    2    0    0  0.71054273576E-14  0.00000000000E+00  0.86115757761E+02  0.28833391065E+03  0.27517361846E+03 0.  0.
         25    2    3    3    0    0 -0.34989088359E+02 -0.32475603201E+02  0.10978084261E+02  0.13425725521E+03  0.12500236451E+03 0.  0.
         25    2    3    3    0    0  0.34989088359E+02  0.32475603201E+02  0.75137673500E+02  0.15407665544E+03  0.12575788113E+03 0.  0.
          5    1    4    4  502    0  0.12786849270E+02 -0.31193165193E+02 -0.47594816506E+02  0.58513875511E+02  0.47000000000E+01 0.  1.
         -5    1    4    4    0  502 -0.47775937629E+02 -0.12824380074E+01  0.58572900767E+02  0.75743379696E+02  0.47000000000E+01 0.  1.
          5    1    5    5  503    0  0.32840522570E+02 -0.21561424494E+02 -0.20157434747E+02  0.44405034900E+02  0.47000000000E+01 0.  1.
         -5    1    5    5    0  503  0.21485657889E+01  0.54037027695E+02  0.95295108247E+02  0.10967162054E+03  0.47000000000E+01 0.  1.
<mgrwt>
<rscale>  0 0.27517362E+03</rscale>
<asrwt>0</asrwt>
<pdfrwt beam="1">  1        4 0.15555243E-01 0.27517362E+03</pdfrwt>
<pdfrwt beam="2">  1       -4 0.28803821E-01 0.27517362E+03</pdfrwt>
<totfact> 0.76164003E+02</totfact>
</mgrwt>
</event>
<event>
 9    1  0.2024718E-002  0.2751280E+03  0.7818608E-02  0.1098380E+00
         -2   -1    0    0    0  501 -0.00000000000E+00  0.00000000000E+00  0.14053141744E+03  0.14053141744E+03  0.00000000000E+00 0.  1.
          2   -1    0    0  501    0  0.00000000000E+00 -0.00000000000E+00 -0.13465923722E+03  0.13465923722E+03  0.00000000000E+00 0.  1.
         36    2    1    2    0    0  0.71054273576E-14 -0.71054273576E-14  0.58721802207E+01  0.27519065465E+03  0.27512799550E+03 0.  0.
         25    2    3    3    0    0 -0.50042634484E+02  0.25872513138E+02  0.15993908013E+02  0.13715729811E+03  0.12402688067E+03 0.  0.
         25    2    3    3    0    0  0.50042634484E+02 -0.25872513138E+02 -0.10121727793E+02  0.13803335655E+03  0.12560695022E+03 0.  0.
          5    1    4    4  502    0 -0.72487363145E+02  0.52750512865E+02  0.35806738340E+02  0.96650126403E+02  0.47000000000E+01 0. -1.
         -5    1    4    4    0  502  0.22444728661E+02 -0.26877999727E+02 -0.19812830327E+02  0.40507171705E+02  0.47000000000E+01 0. -1.
          5    1    5    5  503    0 -0.11796011601E+02  0.14027141385E+02 -0.50521774366E+02  0.53948552068E+02  0.47000000000E+01 0. -1.
         -5    1    5    5    0  503  0.61838646085E+02 -0.39899654523E+02  0.40400046574E+02  0.84084804477E+02  0.47000000000E+01 0. -1.
<mgrwt>
<rscale>  0 0.27512800E+03</rscale>
<asrwt>0</asrwt>
<pdfrwt beam="1">  1        2 0.20716806E-01 0.27512800E+03</pdfrwt>
<pdfrwt beam="2">  1       -2 0.21620218E-01 0.27512800E+03</pdfrwt>
<totfact> 0.48627765E+03</totfact>
</mgrwt>
</event>
<event>
 9    1  0.2024718E-002  0.2751793E+03  0.7818608E-02  0.1098351E+00
          2   -1    0    0  501    0  0.00000000000E+00  0.00000000000E+00  0.18218780137E+03  0.18218780137E+03  0.00000000000E+00 0. -1.
         -2   -1    0    0    0  501 -0.00000000000E+00 -0.00000000000E+00 -0.10390878490E+03  0.10390878490E+03  0.00000000000E+00 0. -1.
         36    2    1    2    0    0  0.14210854715E-13  0.71054273576E-14  0.78279016477E+02  0.28609658627E+03  0.27517930928E+03 0.  0.
         25    2    3    3    0    0 -0.46039071177E+02  0.30861267406E+02  0.73284074694E+02  0.15305470481E+03  0.12240577258E+03 0.  0.
         25    2    3    3    0    0  0.46039071177E+02 -0.30861267406E+02  0.49949417827E+01  0.13304188146E+03  0.12084361331E+03 0.  0.
          5    1    4    4  502    0 -0.73031550678E+02 -0.17706994725E+02  0.25130230379E+02  0.79377349008E+02  0.47000000000E+01 0. -1.
         -5    1    4    4    0  502  0.26992479502E+02  0.48568262131E+02  0.48153844315E+02  0.73677355805E+02  0.47000000000E+01 0. -1.
          5    1    5    5  503    0  0.33995737394E+02  0.44599564568E+02 -0.58657834265E+00  0.56278462974E+02  0.47000000000E+01 0.  1.
         -5    1    5    5    0  503  0.12043333783E+02 -0.75460831974E+02  0.55815201253E+01  0.76763418486E+02  0.47000000000E+01 0.  1.
<mgrwt>
<rscale>  0 0.27517931E+03</rscale>
<asrwt>0</asrwt>
<pdfrwt beam="1">  1        2 0.28028893E-01 0.27517931E+03</pdfrwt>
<pdfrwt beam="2">  1       -2 0.15985967E-01 0.27517931E+03</pdfrwt>
<totfact> 0.57786117E+03</totfact>
</mgrwt>
</event>
<event>
 9    1  0.2024718E-002  0.2749037E+03  0.7818608E-02  0.1098505E+00
         -1   -1    0    0    0  501 -0.00000000000E+00  0.00000000000E+00  0.28908903198E+02  0.28908903198E+02  0.00000000000E+00 0.  1.
          1   -1    0    0  501    0  0.00000000000E+00 -0.00000000000E+00 -0.65353620310E+03  0.65353620310E+03  0.00000000000E+00 0.  1.
         36    2    1    2    0    0  0.35527136788E-14  0.35527136788E-14 -0.62462729991E+03  0.68244510630E+03  0.27490372738E+03 0.  0.
         25    2    3    3    0    0 -0.20345755380E+02 -0.11854624163E+02 -0.20001443475E+03  0.23896090605E+03  0.12861593462E+03 0.  0.
         25    2    3    3    0    0  0.20345755380E+02  0.11854624163E+02 -0.42461286516E+03  0.44348420025E+03  0.12580806309E+03 0.  0.
          5    1    4    4  502    0  0.71657390263E+01 -0.67552006592E+02 -0.11329404245E+03  0.13218264434E+03  0.47000000000E+01 0.  1.
         -5    1    4    4    0  502 -0.27511494406E+02  0.55697382428E+02 -0.86720392295E+02  0.10677826171E+03  0.47000000000E+01 0.  1.
          5    1    5    5  503    0  0.42946005873E+02  0.21638828339E+02 -0.55769637641E+02  0.73789842085E+02  0.47000000000E+01 0. -1.
         -5    1    5    5    0  503 -0.22600250493E+02 -0.97842041753E+01 -0.36884322752E+03  0.36969435816E+03  0.47000000000E+01 0. -1.
<mgrwt>
<rscale>  0 0.27490373E+03</rscale>
<asrwt>0</asrwt>
<pdfrwt beam="1">  1        1 0.10054403E+00 0.27490373E+03</pdfrwt>
<pdfrwt beam="2">  1       -1 0.44475235E-02 0.27490373E+03</pdfrwt>
<totfact> 0.65163884E+03</totfact>
</mgrwt>
</event>
<event>
 9    1  0.2024718E-002  0.2778157E+03  0.7818608E-02  0.1096888E+00
          1   -1    0    0  501    0  0.00000000000E+00  0.00000000000E+00  0.10508033595E+02  0.10508033595E+02  0.00000000000E+00 0. -1.
         -1   -1    0    0    0  501 -0.00000000000E+00 -0.00000000000E+00 -0.18362515152E+04  0.18362515152E+04  0.00000000000E+00 0. -1.
         36    2    1    2    0    0 -0.71054273576E-14  0.00000000000E+00 -0.18257434816E+04  0.18467595488E+04  0.27781571309E+03 0.  0.
         25    2    3    3    0    0 -0.51863243035E+02 -0.36190411959E+02 -0.95869978462E+03  0.96897265551E+03  0.12571073224E+03 0.  0.
         25    2    3    3    0    0  0.51863243035E+02  0.36190411959E+02 -0.86704369695E+03  0.87778689325E+03  0.12143111481E+03 0.  0.
          5    1    4    4  502    0 -0.59789819471E+02  0.33997312848E+02 -0.41567089986E+03  0.42134905576E+03  0.47000000000E+01 0. -1.
         -5    1    4    4    0  502  0.79265764367E+01 -0.70187724806E+02 -0.54302888476E+03  0.54762359976E+03  0.47000000000E+01 0. -1.
          5    1    5    5  503    0 -0.86020790546E+00  0.71479510343E+02 -0.52655678424E+03  0.53140775059E+03  0.47000000000E+01 0. -1.
         -5    1    5    5    0  503  0.52723450940E+02 -0.35289098385E+02 -0.34048691270E+03  0.34637914265E+03  0.47000000000E+01 0. -1.
<mgrwt>
<rscale>  0 0.27781571E+03</rscale>
<asrwt>0</asrwt>
<pdfrwt beam="1">  1        1 0.16166178E-02 0.27781571E+03</pdfrwt>
<pdfrwt beam="2">  1       -1 0.28250071E+00 0.27781571E+03</pdfrwt>
<totfact> 0.40628428E+02</totfact>
</mgrwt>
</event>
<event>
 9    1  0.2024718E-002  0.2713672E+03  0.7818608E-02  0.1100500E+00
          2   -1    0    0  501    0  0.00000000000E+00  0.00000000000E+00  0.10520123234E+04  0.10520123234E+04  0.00000000000E+00 0.  1.
         -2   -1    0    0    0  501 -0.00000000000E+00 -0.00000000000E+00 -0.17499830499E+02  0.17499830499E+02  0.00000000000E+00 0.  1.
         36    2    1    2    0    0  0.71054273576E-14 -0.71054273576E-14  0.10345124929E+04  0.10695121539E+04  0.27136718550E+03 0.  0.
         25    2    3    3    0    0 -0.39462077654E+02 -0.32372386534E+02  0.49618515106E+03  0.51435397252E+03  0.12551923331E+03 0.  0.
         25    2    3    3    0    0  0.39462077654E+02  0.32372386534E+02  0.53832734179E+03  0.55515818133E+03  0.12569428147E+03 0.  0.
          5    1    4    4  502    0 -0.62529212410E+02 -0.52862023826E+02  0.45679257990E+03  0.46409680781E+03  0.47000000000E+01 0. -1.
         -5    1    4    4    0  502  0.23067134755E+02  0.20489637292E+02  0.39392571165E+02  0.50257164715E+02  0.47000000000E+01 0. -1.
          5    1    5    5  503    0  0.35928817734E+02  0.57838984814E+02  0.13777403571E+03  0.15375305858E+03  0.47000000000E+01 0.  1.
         -5    1    5    5    0  503  0.35332599199E+01 -0.25466598281E+02  0.40055330608E+03  0.40140512275E+03  0.47000000000E+01 0.  1.
<mgrwt>
<rscale>  0 0.27136719E+03</rscale>
<asrwt>0</asrwt>
<pdfrwt beam="1">  1        2 0.16184800E+00 0.27136719E+03</pdfrwt>
<pdfrwt beam="2">  1       -2 0.26922824E-02 0.27136719E+03</pdfrwt>
<totfact> 0.12114533E+04</totfact>
</mgrwt>
</event>
<event>
 9    1  0.2024718E-002  0.2744786E+03  0.7818608E-02  0.1098743E+00
          2   -1    0    0  501    0  0.00000000000E+00  0.00000000000E+00  0.20583915333E+04  0.20583915333E+04  0.00000000000E+00 0.  1.
         -2   -1    0    0    0  501 -0.00000000000E+00 -0.00000000000E+00 -0.91501695747E+01  0.91501695747E+01  0.00000000000E+00 0.  1.
         36    2    1    2    0    0 -0.35527136788E-14  0.71054273576E-14  0.20492413637E+04  0.20675417028E+04  0.27447864457E+03 0.  0.
         25    2    3    3    0    0 -0.29410930902E+02 -0.28303764513E+02  0.99694560035E+03  0.10071339856E+04  0.13693877787E+03 0.  0.
         25    2    3    3    0    0  0.29410930902E+02  0.28303764513E+02  0.10522957634E+04  0.10604077173E+04  0.12438668484E+03 0.  0.
          5    1    4    4  502    0  0.33200545234E+02  0.34542217993E+02  0.22493190975E+03  0.23002585735E+03  0.47000000000E+01 0.  1.
         -5    1    4    4    0  502 -0.62611476136E+02 -0.62845982506E+02  0.77201369060E+03  0.77710812821E+03  0.47000000000E+01 0.  1.
          5    1    5    5  503    0  0.57822286744E+02  0.52038406466E+01  0.94769672168E+03  0.94948494621E+03  0.47000000000E+01 0. -1.
         -5    1    5    5    0  503 -0.28411355842E+02  0.23099923867E+02  0.10459904168E+03  0.11092277107E+03  0.47000000000E+01 0. -1.
<mgrwt>
<rscale>  0 0.27447864E+03</rscale>
<asrwt>0</asrwt>
<pdfrwt beam="1">  1        2 0.31667525E+00 0.27447864E+03</pdfrwt>
<pdfrwt beam="2">  1       -2 0.14077200E-02 0.27447864E+03</pdfrwt>
<totfact> 0.89606385E+03</totfact>
</mgrwt>
</event>
<event>
 9    1  0.2024718E-002  0.2750676E+03  0.7818608E-02  0.1098414E+00
          2   -1    0    0  501    0  0.00000000000E+00  0.00000000000E+00  0.78399683668E+03  0.78399683668E+03  0.00000000000E+00 0. -1.
         -2   -1    0    0    0  501 -0.00000000000E+00 -0.00000000000E+00 -0.24127069459E+02  0.24127069459E+02  0.00000000000E+00 0. -1.
         36    2    1    2    0    0  0.00000000000E+00  0.44408920985E-15  0.75986976722E+03  0.80812390614E+03  0.27506759994E+03 0.  0.
         25    2    3    3    0    0  0.17554783133E+02  0.22140718029E+01  0.54212405721E+03  0.55626398009E+03  0.12336145920E+03 0.  0.
         25    2    3    3    0    0 -0.17554783133E+02 -0.22140718029E+01  0.21774571001E+03  0.25185992605E+03  0.12532819155E+03 0.  0.
          5    1    4    4  502    0 -0.30716585577E+02  0.56012585887E+01  0.36308801923E+02  0.48117583318E+02  0.47000000000E+01 0.  1.
         -5    1    4    4    0  502  0.48271368710E+02 -0.33871867858E+01  0.50581525529E+03  0.50814639677E+03  0.47000000000E+01 0.  1.
          5    1    5    5  503    0  0.40876477646E+02  0.36956474065E+02  0.82179609128E+02  0.99056779457E+02  0.47000000000E+01 0.  1.
         -5    1    5    5    0  503 -0.58431260778E+02 -0.39170545867E+02  0.13556610089E+03  0.15280314659E+03  0.47000000000E+01 0.  1.
<mgrwt>
<rscale>  0 0.27506760E+03</rscale>
<asrwt>0</asrwt>
<pdfrwt beam="1">  1        2 0.12061488E+00 0.27506760E+03</pdfrwt>
<pdfrwt beam="2">  1       -2 0.37118574E-02 0.27506760E+03</pdfrwt>
<totfact> 0.11161752E+04</totfact>
</mgrwt>
</event>
<event>
 9    1  0.2024718E-002  0.2755791E+03  0.7818608E-02  0.1098128E+00
          1   -1    0    0  501    0  0.00000000000E+00  0.00000000000E+00  0.16884692526E+04  0.16884692526E+04  0.00000000000E+00 0.  1.
         -1   -1    0    0    0  501 -0.00000000000E+00 -0.00000000000E+00 -0.11244481699E+02  0.11244481699E+02  0.00000000000E+00 0.  1.
         36    2    1    2    0    0 -0.71054273576E-14  0.00000000000E+00  0.16772247709E+04  0.16997137343E+04  0.27557911104E+03 0.  0.
         25    2    3    3    0    0  0.59164531920E+02  0.17767506105E+02  0.87790043668E+03  0.88885451254E+03  0.12464766993E+03 0.  0.
         25    2    3    3    0    0 -0.59164531920E+02 -0.17767506105E+02  0.79932433424E+03  0.81085922179E+03  0.12147905224E+03 0.  0.
          5    1    4    4  502    0  0.25839556735E+01 -0.25030875642E+02  0.37223445315E+02  0.45176281868E+02  0.47000000000E+01 0.  1.
         -5    1    4    4    0  502  0.56580576247E+02  0.42798381747E+02  0.84067699137E+03  0.84367823067E+03  0.47000000000E+01 0.  1.
          5    1    5    5  503    0 -0.63073124857E+02 -0.18000183868E+02  0.80162937951E+03  0.80432206099E+03  0.47000000000E+01 0.  1.
         -5    1    5    5    0  503  0.39085929370E+01  0.23267776341E+00 -0.23050452635E+01  0.65371608023E+01  0.47000000000E+01 0.  1.
<mgrwt>
<rscale>  0 0.27557911E+03</rscale>
<asrwt>0</asrwt>
<pdfrwt beam="1">  1        1 0.25976430E+00 0.27557911E+03</pdfrwt>
<pdfrwt beam="2">  1       -1 0.17299216E-02 0.27557911E+03</pdfrwt>
<totfact> 0.45601806E+03</totfact>
</mgrwt>
</event>
<event>
 9    1  0.2024718E-002  0.2758583E+03  0.7818608E-02  0.1097973E+00
         -1   -1    0    0    0  501 -0.00000000000E+00  0.00000000000E+00  0.39504653371E+03  0.39504653371E+03  0.00000000000E+00 0. -1.
          1   -1    0    0  501    0  0.00000000000E+00 -0.00000000000E+00 -0.48157508708E+02  0.48157508708E+02  0.00000000000E+00 0. -1.
         36    2    1    2    0    0  0.00000000000E+00 -0.88817841970E-14  0.34688902500E+03  0.44320404242E+03  0.27585834689E+03 0.  0.
         25    2    3    3    0    0  0.18885053076E+02 -0.15470060391E+02  0.25517800761E+03  0.28522770483E+03  0.12507221927E+03 0.  0.
         25    2    3    3    0    0 -0.18885053076E+02  0.15470060391E+02  0.91711017388E+02  0.15797633759E+03  0.12629190208E+03 0.  0.
          5    1    4    4  502    0 -0.32967591025E+02 -0.18124010555E+02  0.17246564548E+02  0.41651840359E+02  0.47000000000E+01 0.  1.
         -5    1    4    4    0  502  0.51852644101E+02  0.26539501645E+01  0.23793144307E+03  0.24357586447E+03  0.47000000000E+01 0.  1.
          5    1    5    5  503    0 -0.22439582606E+02  0.68694973682E+02  0.68250444382E+02  0.99512549133E+02  0.47000000000E+01 0. -1.
         -5    1    5    5    0  503  0.35545295301E+01 -0.53224913291E+02  0.23460573006E+02  0.58463788458E+02  0.47000000000E+01 0. -1.
<mgrwt>
<rscale>  0 0.27585835E+03</rscale>
<asrwt>0</asrwt>
<pdfrwt beam="1">  1        1 0.74088477E-02 0.27585835E+03</pdfrwt>
<pdfrwt beam="2">  1       -1 0.60776388E-01 0.27585835E+03</pdfrwt>
<totfact> 0.27305315E+03</totfact>
</mgrwt>
</event>
<event>
 9    1  0.2024718E-002  0.2753783E+03  0.7818608E-02  0.1098240E+00
          4   -1    0    0  501    0  0.00000000000E+00  0.00000000000E+00  0.14651229494E+02  0.14651229494E+02  0.00000000000E+00 0.  1.
         -4   -1    0    0    0  501 -0.00000000000E+00 -0.00000000000E+00 -0.12939732354E+04  0.12939732354E+04  0.00000000000E+00 0.  1.
         36    2    1    2    0    0  0.35527136788E-14  0.14210854715E-13 -0.12793220059E+04  0.13086244649E+04  0.27537827678E+03 0.  0.
         25    2    3    3    0    0 -0.28003594735E+01 -0.59050256787E+02 -0.65918426584E+03  0.67342811484E+03  0.12444579015E+03 0.  0.
         25    2    3    3    0    0  0.28003594735E+01  0.59050256787E+02 -0.62013774003E+03  0.63519635002E+03  0.12413223445E+03 0.  0.
          5    1    4    4  502    0  0.48425217372E+02  0.52158212841E+01 -0.15417002870E+03  0.16174886156E+03  0.47000000000E+01 0.  1.
         -5    1    4    4    0  502 -0.51225576845E+02 -0.64266078071E+02 -0.50501423715E+03  0.51167925328E+03  0.47000000000E+01 0.  1.
          5    1    5    5  503    0 -0.30243840121E+02  0.77657886289E+02 -0.54000751445E+03  0.54642075623E+03  0.47000000000E+01 0. -1.
         -5    1    5    5    0  503  0.33044199594E+02 -0.18607629502E+02 -0.80130225579E+02  0.88775593797E+02  0.47000000000E+01 0. -1.
<mgrwt>
<rscale>  0 0.27537828E+03</rscale>
<asrwt>0</asrwt>
<pdfrwt beam="1">  1        4 0.22540358E-02 0.27537828E+03</pdfrwt>
<pdfrwt beam="2">  1       -4 0.19907277E+00 0.27537828E+03</pdfrwt>
<totfact> 0.23036001E+02</totfact>
</mgrwt>
</event>
<event>
 9    1  0.2024718E-002  0.2739453E+03  0.7818608E-02  0.1099043E+00
          3   -1    0    0  501    0  0.00000000000E+00  0.00000000000E+00  0.21014160072E+03  0.21014160072E+03  0.00000000000E+00 0. -1.
         -3   -1    0    0    0  501 -0.00000000000E+00 -0.00000000000E+00 -0.89280331445E+02  0.89280331445E+02  0.00000000000E+00 0. -1.
         36    2    1    2    0    0  0.35527136788E-14 -0.14210854715E-13  0.12086126928E+03  0.29942193217E+03  0.27394533588E+03 0.  0.
         25    2    3    3    0    0  0.15958384989E+01 -0.44000927861E+02  0.10286960002E+03  0.16649577506E+03  0.12328852401E+03 0.  0.
         25    2    3    3    0    0 -0.15958384989E+01  0.44000927861E+02  0.17991669260E+02  0.13292615710E+03  0.12412507694E+03 0.  0.
          5    1    4    4  502    0  0.26045440127E+02 -0.44989294687E+02  0.12354445533E+03  0.13411832101E+03  0.47000000000E+01 0.  1.
         -5    1    4    4    0  502 -0.24449601629E+02  0.98836682565E+00 -0.20674855313E+02  0.32377454054E+02  0.47000000000E+01 0.  1.
          5    1    5    5  503    0 -0.42646962979E+02  0.60077083028E+02 -0.17806119387E+02  0.75941867531E+02  0.47000000000E+01 0. -1.
         -5    1    5    5    0  503  0.41051124480E+02 -0.16076155167E+02  0.35797788646E+02  0.56984289572E+02  0.47000000000E+01 0. -1.
<mgrwt>
<rscale>  0 0.27394534E+03</rscale>
<asrwt>0</asrwt>
<pdfrwt beam="1">  1        3 0.32329477E-01 0.27394534E+03</pdfrwt>
<pdfrwt beam="2">  1       -3 0.13735436E-01 0.27394534E+03</pdfrwt>
<totfact> 0.10245312E+03</totfact>
</mgrwt>
</event>
<event>
 9    1  0.2024718E-002  0.2716844E+03  0.7818608E-02  0.1100319E+00
          2   -1    0    0  501    0  0.00000000000E+00  0.00000000000E+00  0.25768022166E+03  0.25768022166E+03  0.00000000000E+00 0.  1.
         -2   -1    0    0    0  501 -0.00000000000E+00 -0.00000000000E+00 -0.71612410176E+02  0.71612410176E+02  0.00000000000E+00 0.  1.
         36    2    1    2    0    0  0.71054273576E-14  0.00000000000E+00  0.18606781148E+03  0.32929263183E+03  0.27168438842E+03 0.  0.
         25    2    3    3    0    0 -0.30152923051E+02  0.39012016149E+02  0.12389119621E+03  0.18121180349E+03  0.12270922155E+03 0.  0.
         25    2    3    3    0    0  0.30152923051E+02 -0.39012016149E+02  0.62176615268E+02  0.14808082834E+03  0.12502345405E+03 0.  0.
          5    1    4    4  502    0 -0.69053119204E+02  0.18171495771E+02  0.30452225338E+02  0.77768660516E+02  0.47000000000E+01 0. -1.
         -5    1    4    4    0  502  0.38900196153E+02  0.20840520378E+02  0.93438970874E+02  0.10344314297E+03  0.47000000000E+01 0. -1.
          5    1    5    5  503    0 -0.14265821591E+02 -0.24487721250E+02  0.89324792277E+02  0.93830542325E+02  0.47000000000E+01 0. -1.
         -5    1    5    5    0  503  0.44418744642E+02 -0.14524294900E+02 -0.27148177009E+02  0.54250286016E+02  0.47000000000E+01 0. -1.
<mgrwt>
<rscale>  0 0.27168439E+03</rscale>
<asrwt>0</asrwt>
<pdfrwt beam="1">  1        2 0.39643110E-01 0.27168439E+03</pdfrwt>
<pdfrwt beam="2">  1       -2 0.11017294E-01 0.27168439E+03</pdfrwt>
<totfact> 0.72657228E+03</totfact>
</mgrwt>
</event>
<event>
 9    1  0.2024718E-002  0.2648427E+03  0.7818608E-02  0.1104268E+00
          2   -1    0    0  501    0  0.00000000000E+00  0.00000000000E+00  0.91727262200E+03  0.91727262200E+03  0.00000000000E+00 0. -1.
         -2   -1    0    0    0  501 -0.00000000000E+00 -0.00000000000E+00 -0.19116900619E+02  0.19116900619E+02  0.00000000000E+00 0. -1.
         36    2    1    2    0    0  0.71054273576E-14  0.00000000000E+00  0.89815572138E+03  0.93638952262E+03  0.26484266692E+03 0.  0.
         25    2    3    3    0    0 -0.93981118832E+01  0.43390342589E+01  0.28732585778E+03  0.31242189683E+03  0.12224623244E+03 0.  0.
         25    2    3    3    0    0  0.93981118832E+01 -0.43390342589E+01  0.61082986360E+03  0.62396762579E+03  0.12694614621E+03 0.  0.
          5    1    4    4  502    0 -0.57704766287E+02  0.12289839413E+02  0.22699740070E+03  0.23458642358E+03  0.47000000000E+01 0. -1.
         -5    1    4    4    0  502  0.48306654404E+02 -0.79508051536E+01  0.60328457078E+02  0.77835473248E+02  0.47000000000E+01 0. -1.
          5    1    5    5  503    0  0.59920464209E+02 -0.25946895392E+02  0.22894139465E+03  0.23811752476E+03  0.47000000000E+01 0. -1.
         -5    1    5    5    0  503 -0.50522352325E+02  0.21607861133E+02  0.38188846895E+03  0.38585010103E+03  0.47000000000E+01 0. -1.
<mgrwt>
<rscale>  0 0.26484267E+03</rscale>
<asrwt>0</asrwt>
<pdfrwt beam="1">  1        2 0.14111883E+00 0.26484267E+03</pdfrwt>
<pdfrwt beam="2">  1       -2 0.29410623E-02 0.26484267E+03</pdfrwt>
<totfact> 0.12856852E+04</totfact>
</mgrwt>
</event>
<event>
 9    1  0.2024718E-002  0.2621614E+03  0.7818608E-02  0.1105852E+00
          2   -1    0    0  501    0  0.00000000000E+00  0.00000000000E+00  0.13378551820E+04  0.13378551820E+04  0.00000000000E+00 0. -1.
         -2   -1    0    0    0  501 -0.00000000000E+00 -0.00000000000E+00 -0.12843060642E+02  0.12843060642E+02  0.00000000000E+00 0. -1.
         36    2    1    2    0    0  0.00000000000E+00  0.00000000000E+00  0.13250121214E+04  0.13506982427E+04  0.26216144059E+03 0.  0.
         25    2    3    3    0    0  0.39092498195E+02  0.16669654320E+02  0.69690158681E+03  0.70930908036E+03  0.12506577866E+03 0.  0.
         25    2    3    3    0    0 -0.39092498195E+02 -0.16669654320E+02  0.62811053456E+03  0.64138916229E+03  0.12268297802E+03 0.  0.
          5    1    4    4  502    0  0.63572859299E+02  0.13196469235E+02  0.66724214203E+03  0.67041018887E+03  0.47000000000E+01 0.  1.
         -5    1    4    4    0  502 -0.24480361104E+02  0.34731850846E+01  0.29659444778E+02  0.38898891487E+02  0.47000000000E+01 0.  1.
          5    1    5    5  503    0  0.18572423013E+02 -0.20762043357E+02  0.32922645910E+02  0.43381885098E+02  0.47000000000E+01 0.  1.
         -5    1    5    5    0  503 -0.57664921208E+02  0.40923890376E+01  0.59518788865E+03  0.59800727720E+03  0.47000000000E+01 0.  1.
<mgrwt>
<rscale>  0 0.26216144E+03</rscale>
<asrwt>0</asrwt>
<pdfrwt beam="1">  1        2 0.20582376E+00 0.26216144E+03</pdfrwt>
<pdfrwt beam="2">  1       -2 0.19758565E-02 0.26216144E+03</pdfrwt>
<totfact> 0.13127696E+04</totfact>
</mgrwt>
</event>
<event>
 9    1  0.2024718E-002  0.2745411E+03  0.7818608E-02  0.1098708E+00
         -1   -1    0    0    0  501 -0.00000000000E+00  0.00000000000E+00  0.16975750423E+02  0.16975750423E+02  0.00000000000E+00 0.  1.
          1   -1    0    0  501    0  0.00000000000E+00 -0.00000000000E+00 -0.11100068291E+04  0.11100068291E+04  0.00000000000E+00 0.  1.
         36    2    1    2    0    0  0.71054273576E-14 -0.71054273576E-14 -0.10930310787E+04  0.11269825795E+04  0.27454106359E+03 0.  0.
         25    2    3    3    0    0  0.10399369394E+02  0.48774354766E+02 -0.60055771408E+03  0.61519772964E+03  0.12374002606E+03 0.  0.
         25    2    3    3    0    0 -0.10399369394E+02 -0.48774354766E+02 -0.49247336460E+03  0.51178484988E+03  0.13002550967E+03 0.  0.
          5    1    4    4  502    0  0.45253536610E+02  0.37970935473E+02 -0.12626096017E+03  0.13947614340E+03  0.47000000000E+01 0.  1.
         -5    1    4    4    0  502 -0.34854167216E+02  0.10803419293E+02 -0.47429675391E+03  0.47572158623E+03  0.47000000000E+01 0.  1.
          5    1    5    5  503    0 -0.66672249399E+02 -0.44696586810E+02 -0.24258596155E+03  0.25556410635E+03  0.47000000000E+01 0. -1.
         -5    1    5    5    0  503  0.56272880005E+02 -0.40777679560E+01 -0.24988740305E+03  0.25622074353E+03  0.47000000000E+01 0. -1.
<mgrwt>
<rscale>  0 0.27454106E+03</rscale>
<asrwt>0</asrwt>
<pdfrwt beam="1">  1        1 0.17077031E+00 0.27454106E+03</pdfrwt>
<pdfrwt beam="2">  1       -1 0.26116535E-02 0.27454106E+03</pdfrwt>
<totfact> 0.61416045E+03</totfact>
</mgrwt>
</event>
<event>
 9    1  0.2024718E-002  0.2743077E+03  0.7818608E-02  0.1098839E+00
         -1   -1    0    0    0  501 -0.00000000000E+00  0.00000000000E+00  0.82874368713E+02  0.82874368713E+02  0.00000000000E+00 0. -1.
          1   -1    0    0  501    0  0.00000000000E+00 -0.00000000000E+00 -0.22698435762E+03  0.22698435762E+03  0.00000000000E+00 0. -1.
         36    2    1    2    0    0  0.00000000000E+00  0.00000000000E+00 -0.14410998891E+03  0.30985872633E+03  0.27430774940E+03 0.  0.
         25    2    3    3    0    0 -0.33057786874E+02  0.37492736824E+02 -0.77125109287E+02  0.15718276183E+03  0.12751319754E+03 0.  0.
         25    2    3    3    0    0  0.33057786874E+02 -0.37492736824E+02 -0.66984879619E+02  0.15267596450E+03  0.12776718456E+03 0.  0.
          5    1    4    4  502    0 -0.60603230620E+02  0.50368258313E+02 -0.53871433725E+01  0.79125370905E+02  0.47000000000E+01 0. -1.
         -5    1    4    4    0  502  0.27545443747E+02 -0.12875521489E+02 -0.71737965914E+02  0.78057390927E+02  0.47000000000E+01 0. -1.
          5    1    5    5  503    0  0.22261754442E+02 -0.70201149865E+02  0.37171958959E+01  0.73889746911E+02  0.47000000000E+01 0.  1.
         -5    1    5    5    0  503  0.10796032432E+02  0.32708413041E+02 -0.70702075515E+02  0.78786217589E+02  0.47000000000E+01 0.  1.
<mgrwt>
<rscale>  0 0.27430775E+03</rscale>
<asrwt>0</asrwt>
<pdfrwt beam="1">  1        1 0.34920670E-01 0.27430775E+03</pdfrwt>
<pdfrwt beam="2">  1       -1 0.12749903E-01 0.27430775E+03</pdfrwt>
<totfact> 0.51608089E+03</totfact>
</mgrwt>
</event>
<event>
 9    1  0.2024718E-002  0.2746982E+03  0.7818608E-02  0.1098620E+00
          1   -1    0    0  501    0  0.00000000000E+00  0.00000000000E+00  0.42009601670E+03  0.42009601670E+03  0.00000000000E+00 0. -1.
         -1   -1    0    0    0  501 -0.00000000000E+00 -0.00000000000E+00 -0.44905873643E+02  0.44905873643E+02  0.00000000000E+00 0. -1.
         36    2    1    2    0    0  0.88817841970E-15  0.14210854715E-13  0.37519014306E+03  0.46500189034E+03  0.27469822456E+03 0.  0.
         25    2    3    3    0    0  0.52615367432E+01  0.35993930579E+02  0.25875855864E+03  0.28087235181E+03  0.10300504615E+03 0.  0.
         25    2    3    3    0    0 -0.52615367432E+01 -0.35993930579E+02  0.11643158441E+03  0.18412953853E+03  0.13792797506E+03 0.  0.
          5    1    4    4  502    0  0.91081007232E+00  0.43481498410E+02  0.26540586616E+03  0.26898668010E+03  0.47000000000E+01 0.  1.
         -5    1    4    4    0  502  0.43507266708E+01 -0.74875678316E+01 -0.66473075206E+01  0.11885671705E+02  0.47000000000E+01 0.  1.
          5    1    5    5  503    0 -0.11514067916E+02 -0.87595185006E+02  0.87600986177E+02  0.12450507209E+03  0.47000000000E+01 0.  1.
         -5    1    5    5    0  503  0.62525311732E+01  0.51601254427E+02  0.28830598236E+02  0.59624466448E+02  0.47000000000E+01 0.  1.
<mgrwt>
<rscale>  0 0.27469822E+03</rscale>
<asrwt>0</asrwt>
<pdfrwt beam="1">  1        1 0.64630154E-01 0.27469822E+03</pdfrwt>
<pdfrwt beam="2">  1       -1 0.69085962E-02 0.27469822E+03</pdfrwt>
<totfact> 0.60937881E+03</totfact>
</mgrwt>
</event>
<event>
 9    1  0.2024718E-002  0.2787532E+03  0.7818608E-02  0.1096372E+00
         -1   -1    0    0    0  501 -0.00000000000E+00  0.00000000000E+00  0.20969188937E+03  0.20969188937E+03  0.00000000000E+00 0.  1.
          1   -1    0    0  501    0  0.00000000000E+00 -0.00000000000E+00 -0.92639898125E+02  0.92639898125E+02  0.00000000000E+00 0.  1.
         36    2    1    2    0    0  0.00000000000E+00  0.00000000000E+00  0.11705199125E+03  0.30233178750E+03  0.27875319025E+03 0.  0.
         25    2    3    3    0    0 -0.44039747637E+02 -0.12409744787E+02  0.97238561986E+02  0.16324165195E+03  0.12287797954E+03 0.  0.
         25    2    3    3    0    0  0.44039747637E+02  0.12409744787E+02  0.19813429261E+02  0.13909013555E+03  0.12984603456E+03 0.  0.
          5    1    4    4  502    0  0.99457706140E+01  0.39784162798E+02  0.73588200319E+02  0.84374232968E+02  0.47000000000E+01 0. -1.
         -5    1    4    4    0  502 -0.53985518251E+02 -0.52193907584E+02  0.23650361667E+02  0.78867418981E+02  0.47000000000E+01 0. -1.
          5    1    5    5  503    0  0.13037295769E+02  0.64188029224E+02 -0.17528080142E+02  0.67966151650E+02  0.47000000000E+01 0. -1.
         -5    1    5    5    0  503  0.31002451868E+02 -0.51778284438E+02  0.37341509403E+02  0.71123983899E+02  0.47000000000E+01 0. -1.
<mgrwt>
<rscale>  0 0.27875319E+03</rscale>
<asrwt>0</asrwt>
<pdfrwt beam="1">  1        1 0.14252292E-01 0.27875319E+03</pdfrwt>
<pdfrwt beam="2">  1       -1 0.32260291E-01 0.27875319E+03</pdfrwt>
<totfact> 0.35786319E+03</totfact>
</mgrwt>
</event>
<event>
 9    1  0.2024718E-002  0.2773201E+03  0.7818608E-02  0.1097162E+00
         -1   -1    0    0    0  501 -0.00000000000E+00  0.00000000000E+00  0.53007216572E+03  0.53007216572E+03  0.00000000000E+00 0. -1.
          1   -1    0    0  501    0  0.00000000000E+00 -0.00000000000E+00 -0.36271686142E+02  0.36271686142E+02  0.00000000000E+00 0. -1.
         36    2    1    2    0    0  0.71054273576E-14  0.00000000000E+00  0.49380047958E+03  0.56634385186E+03  0.27732011271E+03 0.  0.
         25    2    3    3    0    0 -0.90820920369E+01  0.25724077641E+02  0.34888769354E+03  0.37188272398E+03  0.12581703037E+03 0.  0.
         25    2    3    3    0    0  0.90820920369E+01 -0.25724077641E+02  0.14491278604E+03  0.19446112788E+03  0.12677224511E+03 0.  0.
          5    1    4    4  502    0 -0.50316850852E+02 -0.57911874433E+01  0.61507359478E+02  0.79815841796E+02  0.47000000000E+01 0.  1.
         -5    1    4    4    0  502  0.41234758815E+02  0.31515265084E+02  0.28738033406E+03  0.29206688219E+03  0.47000000000E+01 0.  1.
          5    1    5    5  503    0 -0.35057215634E+02  0.35575914121E+02  0.35641582695E+02  0.61539145676E+02  0.47000000000E+01 0.  1.
         -5    1    5    5    0  503  0.44139307671E+02 -0.61299991762E+02  0.10927120335E+03  0.13292198220E+03  0.47000000000E+01 0.  1.
<mgrwt>
<rscale>  0 0.27732011E+03</rscale>
<asrwt>0</asrwt>
<pdfrwt beam="1">  1        1 0.55802598E-02 0.27732011E+03</pdfrwt>
<pdfrwt beam="2">  1       -1 0.81549558E-01 0.27732011E+03</pdfrwt>
<totfact> 0.22358895E+03</totfact>
</mgrwt>
</event>
<event>
 9    1  0.2024718E-002  0.2752116E+03  0.7818608E-02  0.1098333E+00
          2   -1    0    0  501    0  0.00000000000E+00  0.00000000000E+00  0.11746027437E+03  0.11746027437E+03  0.00000000000E+00 0.  1.
         -2   -1    0    0    0  501 -0.00000000000E+00 -0.00000000000E+00 -0.16120649758E+03  0.16120649758E+03  0.00000000000E+00 0.  1.
         36    2    1    2    0    0  0.71054273576E-14  0.00000000000E+00 -0.43746223208E+02  0.27866677195E+03  0.27521162356E+03 0.  0.
         25    2    3    3    0    0 -0.41749288590E+02 -0.25687554812E+02 -0.83525004966E+01  0.13910843993E+03  0.12991743619E+03 0.  0.
         25    2    3    3    0    0  0.41749288590E+02  0.25687554812E+02 -0.35393722711E+02  0.13955833202E+03  0.12578139313E+03 0.  0.
          5    1    4    4  502    0 -0.73769018147E+02  0.90777797823E+01 -0.37498526520E+02  0.83381674338E+02  0.47000000000E+01 0. -1.
         -5    1    4    4    0  502  0.32019729558E+02 -0.34765334594E+02  0.29146026023E+02  0.55726765592E+02  0.47000000000E+01 0. -1.
          5    1    5    5  503    0 -0.76175966822E+01  0.19157019193E+02 -0.73625697595E+02  0.76601909310E+02  0.47000000000E+01 0.  1.
         -5    1    5    5    0  503  0.49366885272E+02  0.65305356188E+01  0.38231974883E+02  0.62956422710E+02  0.47000000000E+01 0.  1.
<mgrwt>
<rscale>  0 0.27521162E+03</rscale>
<asrwt>0</asrwt>
<pdfrwt beam="1">  1        2 0.18070811E-01 0.27521162E+03</pdfrwt>
<pdfrwt beam="2">  1       -2 0.24801000E-01 0.27521162E+03</pdfrwt>
<totfact> 0.44780766E+03</totfact>
</mgrwt>
</event>
<event>
 9    1  0.2024718E-002  0.2753289E+03  0.7818608E-02  0.1098268E+00
         -2   -1    0    0    0  501 -0.00000000000E+00  0.00000000000E+00  0.10092913155E+02  0.10092913155E+02  0.00000000000E+00 0.  1.
          2   -1    0    0  501    0  0.00000000000E+00 -0.00000000000E+00 -0.18777042408E+04  0.18777042408E+04  0.00000000000E+00 0.  1.
         36    2    1    2    0    0  0.00000000000E+00  0.71054273576E-14 -0.18676113277E+04  0.18877971540E+04  0.27532893661E+03 0.  0.
         25    2    3    3    0    0  0.45665864747E+02 -0.31012513162E+02 -0.80029638874E+03  0.81211844333E+03  0.12655002564E+03 0.  0.
         25    2    3    3    0    0 -0.45665864747E+02  0.31012513162E+02 -0.10673149389E+04  0.10756787107E+04  0.12196869479E+03 0.  0.
          5    1    4    4  502    0 -0.11875941315E+02 -0.61209928842E+02 -0.54757447895E+03  0.55113300878E+03  0.47000000000E+01 0. -1.
         -5    1    4    4    0  502  0.57541806062E+02  0.30197415680E+02 -0.25272190979E+03  0.26098543455E+03  0.47000000000E+01 0. -1.
          5    1    5    5  503    0 -0.30233191388E+02  0.53888204823E+02 -0.23938358241E+03  0.24727428901E+03  0.47000000000E+01 0.  1.
         -5    1    5    5    0  503 -0.15432673359E+02 -0.22875691662E+02 -0.82793135653E+03  0.82840442164E+03  0.47000000000E+01 0.  1.
<mgrwt>
<rscale>  0 0.27532894E+03</rscale>
<asrwt>0</asrwt>
<pdfrwt beam="1">  1        2 0.28887765E+00 0.27532894E+03</pdfrwt>
<pdfrwt beam="2">  1       -2 0.15527555E-02 0.27532894E+03</pdfrwt>
<totfact> 0.96621013E+03</totfact>
</mgrwt>
</event>
<event>
 9    1  0.2024718E-002  0.2748584E+03  0.7818608E-02  0.1098531E+00
         -1   -1    0    0    0  501 -0.00000000000E+00  0.00000000000E+00  0.18190156508E+02  0.18190156508E+02  0.00000000000E+00 0.  1.
          1   -1    0    0  501    0  0.00000000000E+00 -0.00000000000E+00 -0.10382972334E+04  0.10382972334E+04  0.00000000000E+00 0.  1.
         36    2    1    2    0    0  0.35527136788E-14  0.35527136788E-14 -0.10201070768E+04  0.10564873899E+04  0.27485843030E+03 0.  0.
         25    2    3    3    0    0 -0.40270663406E+01 -0.16822906879E+02 -0.52418679080E+03  0.54520821829E+03  0.14893281096E+03 0.  0.
         25    2    3    3    0    0  0.40270663406E+01  0.16822906879E+02 -0.49592028604E+03  0.51127917157E+03  0.12316750267E+03 0.  0.
          5    1    4    4  502    0 -0.17476626848E+02 -0.30520633149E+02 -0.20191536321E+02  0.40825600703E+02  0.47000000000E+01 0.  1.
         -5    1    4    4    0  502  0.13449560507E+02  0.13697726271E+02 -0.50399525448E+03  0.50438261759E+03  0.47000000000E+01 0.  1.
          5    1    5    5  503    0 -0.41022301350E+02 -0.16419464510E+02 -0.37861174207E+03  0.38121040025E+03  0.47000000000E+01 0. -1.
         -5    1    5    5    0  503  0.45049367690E+02  0.33242371389E+02 -0.11730854397E+03  0.13006877132E+03  0.47000000000E+01 0. -1.
<mgrwt>
<rscale>  0 0.27485843E+03</rscale>
<asrwt>0</asrwt>
<pdfrwt beam="1">  1        1 0.15973805E+00 0.27485843E+03</pdfrwt>
<pdfrwt beam="2">  1       -1 0.27984853E-02 0.27485843E+03</pdfrwt>
<totfact> 0.62559439E+03</totfact>
</mgrwt>
</event>
<event>
 9    1  0.2024718E-002  0.2757339E+03  0.7818608E-02  0.1098042E+00
          1   -1    0    0  501    0  0.00000000000E+00  0.00000000000E+00  0.16376284237E+04  0.16376284237E+04  0.00000000000E+00 0.  1.
         -1   -1    0    0    0  501 -0.00000000000E+00 -0.00000000000E+00 -0.11606601408E+02  0.11606601408E+02  0.00000000000E+00 0.  1.
         36    2    1    2    0    0  0.71054273576E-14  0.00000000000E+00  0.16260218223E+04  0.16492350251E+04  0.27573393240E+03 0.  0.
         25    2    3    3    0    0  0.34835178094E+02 -0.47683071639E+02  0.82656062922E+03  0.83773157780E+03  0.12290060093E+03 0.  0.
         25    2    3    3    0    0 -0.34835178094E+02  0.47683071639E+02  0.79946119310E+03  0.81150344733E+03  0.12614468208E+03 0.  0.
          5    1    4    4  502    0  0.44594792907E+02  0.30503322128E+02  0.25164724625E+03  0.25742489149E+03  0.47000000000E+01 0.  1.
         -5    1    4    4    0  502 -0.97596148135E+01 -0.78186393766E+02  0.57491338297E+03  0.58030668630E+03  0.47000000000E+01 0.  1.
          5    1    5    5  503    0 -0.13668978854E+02 -0.42854626336E+02  0.30791016083E+03  0.31121394108E+03  0.47000000000E+01 0.  1.
         -5    1    5    5    0  503 -0.21166199240E+02  0.90537697975E+02  0.49155103227E+03  0.50028950625E+03  0.47000000000E+01 0.  1.
<mgrwt>
<rscale>  0 0.27573393E+03</rscale>
<asrwt>0</asrwt>
<pdfrwt beam="1">  1        1 0.25194265E+00 0.27573393E+03</pdfrwt>
<pdfrwt beam="2">  1       -1 0.17856323E-02 0.27573393E+03</pdfrwt>
<totfact> 0.47004975E+03</totfact>
</mgrwt>
</event>
<event>
 9    1  0.2024718E-002  0.2755459E+03  0.7818608E-02  0.1098147E+00
          1   -1    0    0  501    0  0.00000000000E+00  0.00000000000E+00  0.10996789065E+04  0.10996789065E+04  0.00000000000E+00 0. -1.
         -1   -1    0    0    0  501 -0.00000000000E+00 -0.00000000000E+00 -0.17260845141E+02  0.17260845141E+02  0.00000000000E+00 0. -1.
         36    2    1    2    0    0  0.00000000000E+00  0.00000000000E+00  0.10824180614E+04  0.11169397517E+04  0.27554591131E+03 0.  0.
         25    2    3    3    0    0  0.45152452365E+02  0.18268996336E+02  0.61709590139E+03  0.63154978154E+03  0.12520093796E+03 0.  0.
         25    2    3    3    0    0 -0.45152452365E+02 -0.18268996336E+02  0.46532216000E+03  0.48538997013E+03  0.12925250612E+03 0.  0.
          5    1    4    4  502    0  0.22517536596E+02  0.58331307498E+02  0.52252358993E+03  0.52627233721E+03  0.47000000000E+01 0. -1.
         -5    1    4    4    0  502  0.22634915770E+02 -0.40062311163E+02  0.94572311466E+02  0.10527744433E+03  0.47000000000E+01 0. -1.
          5    1    5    5  503    0 -0.40169311197E+02 -0.70871100114E+01  0.46975633218E+03  0.47154734897E+03  0.47000000000E+01 0. -1.
         -5    1    5    5    0  503 -0.49831411686E+01 -0.11181886324E+02 -0.44341721877E+01  0.13842621163E+02  0.47000000000E+01 0. -1.
<mgrwt>
<rscale>  0 0.27554591E+03</rscale>
<asrwt>0</asrwt>
<pdfrwt beam="1">  1        1 0.16918132E+00 0.27554591E+03</pdfrwt>
<pdfrwt beam="2">  1       -1 0.26555155E-02 0.27554591E+03</pdfrwt>
<totfact> 0.60968433E+03</totfact>
</mgrwt>
</event>
<event>
 9    1  0.2024718E-002  0.2751789E+03  0.7818608E-02  0.1098352E+00
          1   -1    0    0  501    0  0.00000000000E+00  0.00000000000E+00  0.47392114064E+03  0.47392114064E+03  0.00000000000E+00 0. -1.
         -1   -1    0    0    0  501 -0.00000000000E+00 -0.00000000000E+00 -0.39945163811E+02  0.39945163811E+02  0.00000000000E+00 0. -1.
         36    2    1    2    0    0  0.00000000000E+00 -0.71054273576E-14  0.43397597683E+03  0.51386630445E+03  0.27517890614E+03 0.  0.
         25    2    3    3    0    0  0.27483927975E+02  0.16047023350E+02  0.11071088841E+03  0.16547868170E+03  0.11879991594E+03 0.  0.
         25    2    3    3    0    0 -0.27483927975E+02 -0.16047023350E+02  0.32326508842E+03  0.34838762275E+03  0.12593944991E+03 0.  0.
          5    1    4    4  502    0  0.49827126754E+01  0.15434425530E+02 -0.23708145549E+02  0.29106959347E+02  0.47000000000E+01 0.  1.
         -5    1    4    4    0  502  0.22501215300E+02  0.61259782013E+00  0.13441903396E+03  0.13637172235E+03  0.47000000000E+01 0.  1.
          5    1    5    5  503    0  0.46141024802E+02  0.42056850458E+01  0.72124420468E+02  0.85852804173E+02  0.47000000000E+01 0.  1.
         -5    1    5    5    0  503 -0.73624952777E+02 -0.20252708396E+02  0.25114066795E+03  0.26253481858E+03  0.47000000000E+01 0.  1.
<mgrwt>
<rscale>  0 0.27517891E+03</rscale>
<asrwt>0</asrwt>
<pdfrwt beam="1">  1        1 0.72910941E-01 0.27517891E+03</pdfrwt>
<pdfrwt beam="2">  1       -1 0.61454102E-02 0.27517891E+03</pdfrwt>
<totfact> 0.62183810E+03</totfact>
</mgrwt>
</event>
<event>
 9    1  0.2024718E-002  0.2745615E+03  0.7818608E-02  0.1098697E+00
         -2   -1    0    0    0  501 -0.00000000000E+00  0.00000000000E+00  0.15696919073E+02  0.15696919073E+02  0.00000000000E+00 0. -1.
          2   -1    0    0  501    0  0.00000000000E+00 -0.00000000000E+00 -0.12006179855E+04  0.12006179855E+04  0.00000000000E+00 0. -1.
         36    2    1    2    0    0  0.00000000000E+00 -0.10658141036E-13 -0.11849210664E+04  0.12163149046E+04  0.27456149297E+03 0.  0.
         25    2    3    3    0    0  0.18059283367E+02  0.24241207620E+02 -0.36800283104E+03  0.38917743785E+03  0.12296023998E+03 0.  0.
         25    2    3    3    0    0 -0.18059283367E+02 -0.24241207620E+02 -0.81691823540E+03  0.82713746674E+03  0.12604448296E+03 0.  0.
          5    1    4    4  502    0  0.28277235308E+02  0.66490689647E+02 -0.14668407386E+03  0.16358154349E+03  0.47000000000E+01 0. -1.
         -5    1    4    4    0  502 -0.10217951941E+02 -0.42249482026E+02 -0.22131875718E+03  0.22559589436E+03  0.47000000000E+01 0. -1.
          5    1    5    5  503    0  0.26887625689E+02 -0.50747396187E+02 -0.20393561303E+03  0.21191995399E+03  0.47000000000E+01 0.  1.
         -5    1    5    5    0  503 -0.44946909056E+02  0.26506188567E+02 -0.61298262237E+03  0.61521751275E+03  0.47000000000E+01 0.  1.
<mgrwt>
<rscale>  0 0.27456149E+03</rscale>
<asrwt>0</asrwt>
<pdfrwt beam="1">  1        2 0.18471041E+00 0.27456149E+03</pdfrwt>
<pdfrwt beam="2">  1       -2 0.24149113E-02 0.27456149E+03</pdfrwt>
<totfact> 0.11664091E+04</totfact>
</mgrwt>
</event>
<event>
 9    1  0.2024718E-002  0.2755797E+03  0.7818608E-02  0.1098128E+00
          2   -1    0    0  501    0  0.00000000000E+00  0.00000000000E+00  0.13037102574E+04  0.13037102574E+04  0.00000000000E+00 0.  1.
         -2   -1    0    0    0  501 -0.00000000000E+00 -0.00000000000E+00 -0.14563085396E+02  0.14563085396E+02  0.00000000000E+00 0.  1.
         36    2    1    2    0    0  0.00000000000E+00 -0.14210854715E-13  0.12891471720E+04  0.13182733428E+04  0.27557970761E+03 0.  0.
         25    2    3    3    0    0 -0.91106290992E+01 -0.57739175092E+02  0.76571677207E+03  0.77697296603E+03  0.11810164697E+03 0.  0.
         25    2    3    3    0    0  0.91106290992E+01  0.57739175092E+02  0.52343039997E+03  0.54130037679E+03  0.12493957902E+03 0.  0.
          5    1    4    4  502    0 -0.37129950011E+02 -0.12109453850E+02  0.79952722813E+02  0.89105555077E+02  0.47000000000E+01 0. -1.
         -5    1    4    4    0  502  0.28019320911E+02 -0.45629721242E+02  0.68576404925E+03  0.68786741095E+03  0.47000000000E+01 0. -1.
          5    1    5    5  503    0  0.60330491156E+02  0.57920175253E+02  0.26968704694E+03  0.28239636710E+03  0.47000000000E+01 0.  1.
         -5    1    5    5    0  503 -0.51219862057E+02 -0.18100016090E+00  0.25374335303E+03  0.25890400970E+03  0.47000000000E+01 0.  1.
<mgrwt>
<rscale>  0 0.27557971E+03</rscale>
<asrwt>0</asrwt>
<pdfrwt beam="1">  1        2 0.20057072E+00 0.27557971E+03</pdfrwt>
<pdfrwt beam="2">  1       -2 0.22404757E-02 0.27557971E+03</pdfrwt>
<totfact> 0.11408085E+04</totfact>
</mgrwt>
</event>
<event>
 9    1  0.2024718E-002  0.2748639E+03  0.7818608E-02  0.1098528E+00
          3   -1    0    0  501    0  0.00000000000E+00  0.00000000000E+00  0.10953389495E+03  0.10953389495E+03  0.00000000000E+00 0. -1.
         -3   -1    0    0    0  501 -0.00000000000E+00 -0.00000000000E+00 -0.17243561512E+03  0.17243561512E+03  0.00000000000E+00 0. -1.
         36    2    1    2    0    0  0.00000000000E+00  0.00000000000E+00 -0.62901720163E+02  0.28196951007E+03  0.27486392671E+03 0.  0.
         25    2    3    3    0    0  0.48370860296E+02  0.23759853888E+01 -0.11465025645E+02  0.13220479904E+03  0.12247969891E+03 0.  0.
         25    2    3    3    0    0 -0.48370860296E+02 -0.23759853888E+01 -0.51436694518E+02  0.14976471103E+03  0.13205434371E+03 0.  0.
          5    1    4    4  502    0  0.60637566309E+02  0.49370551732E+02  0.98578394032E+01  0.78953358535E+02  0.47000000000E+01 0. -1.
         -5    1    4    4    0  502 -0.12266706014E+02 -0.46994566343E+02 -0.21322865048E+02  0.53251440507E+02  0.47000000000E+01 0. -1.
          5    1    5    5  503    0 -0.12983473457E+02  0.31779838361E+02 -0.83814455103E+02  0.90694440807E+02  0.47000000000E+01 0. -1.
         -5    1    5    5    0  503 -0.35387386838E+02 -0.34155823749E+02  0.32377760585E+02  0.59070270219E+02  0.47000000000E+01 0. -1.
<mgrwt>
<rscale>  0 0.27486393E+03</rscale>
<asrwt>0</asrwt>
<pdfrwt beam="1">  1        3 0.16851369E-01 0.27486393E+03</pdfrwt>
<pdfrwt beam="2">  1       -3 0.26528556E-01 0.27486393E+03</pdfrwt>
<totfact> 0.10398424E+03</totfact>
</mgrwt>
</event>
<event>
 9    1  0.2024718E-002  0.2747832E+03  0.7818608E-02  0.1098573E+00
         -2   -1    0    0    0  501 -0.00000000000E+00  0.00000000000E+00  0.68499773757E+01  0.68499773757E+01  0.00000000000E+00 0.  1.
          2   -1    0    0  501    0  0.00000000000E+00 -0.00000000000E+00 -0.27556953397E+04  0.27556953397E+04  0.00000000000E+00 0.  1.
         36    2    1    2    0    0  0.35527136788E-14 -0.71054273576E-14 -0.27488453623E+04  0.27625453171E+04  0.27478319258E+03 0.  0.
         25    2    3    3    0    0 -0.27326828756E+02  0.39423810419E+02 -0.11672679626E+04  0.11751402517E+04  0.12703984603E+03 0.  0.
         25    2    3    3    0    0  0.27326828756E+02 -0.39423810419E+02 -0.15815773998E+04  0.15874050653E+04  0.12714864356E+03 0.  0.
          5    1    4    4  502    0 -0.18754853860E+01  0.15953052307E+02 -0.15403087318E+02  0.22745602262E+02  0.47000000000E+01 0.  1.
         -5    1    4    4    0  502 -0.25451343370E+02  0.23470758112E+02 -0.11518648752E+04  0.11523946495E+04  0.47000000000E+01 0.  1.
          5    1    5    5  503    0 -0.23542952401E+02  0.23058781034E+02 -0.15440731100E+03  0.15795469503E+03  0.47000000000E+01 0.  1.
         -5    1    5    5    0  503  0.50869781157E+02 -0.62482591453E+02 -0.14271700888E+04  0.14294503703E+04  0.47000000000E+01 0.  1.
<mgrwt>
<rscale>  0 0.27478319E+03</rscale>
<asrwt>0</asrwt>
<pdfrwt beam="1">  1        2 0.42395280E+00 0.27478319E+03</pdfrwt>
<pdfrwt beam="2">  1       -2 0.10538435E-02 0.27478319E+03</pdfrwt>
<totfact> 0.57048479E+03</totfact>
</mgrwt>
</event>
<event>
 9    1  0.2024718E-002  0.2748926E+03  0.7818608E-02  0.1098512E+00
         -2   -1    0    0    0  501 -0.00000000000E+00  0.00000000000E+00  0.22820962056E+02  0.22820962056E+02  0.00000000000E+00 0.  1.
          2   -1    0    0  501    0  0.00000000000E+00 -0.00000000000E+00 -0.82781271432E+03  0.82781271432E+03  0.00000000000E+00 0.  1.
         36    2    1    2    0    0 -0.71054273576E-14  0.71054273576E-14 -0.80499175227E+03  0.85063367638E+03  0.27489257933E+03 0.  0.
         25    2    3    3    0    0 -0.35087513072E+02  0.29559290825E+02 -0.48660036802E+03  0.50503362156E+03  0.12717765330E+03 0.  0.
         25    2    3    3    0    0  0.35087513072E+02 -0.29559290825E+02 -0.31839138424E+03  0.34560005482E+03  0.12633858904E+03 0.  0.
          5    1    4    4  502    0  0.21893844745E+01 -0.71745442564E+01  0.53115218334E+01  0.10323262752E+02  0.47000000000E+01 0. -1.
         -5    1    4    4    0  502 -0.37276897547E+02  0.36733835081E+02 -0.49191188986E+03  0.49471035881E+03  0.47000000000E+01 0. -1.
          5    1    5    5  503    0  0.23496544635E+02 -0.45594258985E+02 -0.32099199274E+03  0.32509825202E+03  0.47000000000E+01 0. -1.
         -5    1    5    5    0  503  0.11590968437E+02  0.16034968161E+02  0.26006085017E+01  0.20501802794E+02  0.47000000000E+01 0. -1.
<mgrwt>
<rscale>  0 0.27489258E+03</rscale>
<asrwt>0</asrwt>
<pdfrwt beam="1">  1        2 0.12735577E+00 0.27489258E+03</pdfrwt>
<pdfrwt beam="2">  1       -2 0.35109182E-02 0.27489258E+03</pdfrwt>
<totfact> 0.11318342E+04</totfact>
</mgrwt>
</event>
<event>
 9    1  0.2024718E-002  0.2731551E+03  0.7818608E-02  0.1099487E+00
          2   -1    0    0  501    0  0.00000000000E+00  0.00000000000E+00  0.22212424435E+02  0.22212424435E+02  0.00000000000E+00 0.  1.
         -2   -1    0    0    0  501 -0.00000000000E+00 -0.00000000000E+00 -0.83977468040E+03  0.83977468040E+03  0.00000000000E+00 0.  1.
         36    2    1    2    0    0 -0.71054273576E-14  0.00000000000E+00 -0.81756225596E+03  0.86198710483E+03  0.27315513270E+03 0.  0.
         25    2    3    3    0    0  0.51257786755E+02  0.66464332747E+01 -0.46434996874E+03  0.48392879364E+03  0.12607397856E+03 0.  0.
         25    2    3    3    0    0 -0.51257786755E+02 -0.66464332747E+01 -0.35321228723E+03  0.37805831119E+03  0.12448948163E+03 0.  0.
          5    1    4    4  502    0  0.11214561709E+02 -0.58432101131E+02 -0.20736074248E+03  0.21577915645E+03  0.47000000000E+01 0. -1.
         -5    1    4    4    0  502  0.40043225046E+02  0.65078534406E+02 -0.25698922626E+03  0.26814963719E+03  0.47000000000E+01 0. -1.
          5    1    5    5  503    0  0.24865929489E+02 -0.99121230136E+01 -0.23987304113E+03  0.24140780951E+03  0.47000000000E+01 0.  1.
         -5    1    5    5    0  503 -0.76123716244E+02  0.32656897389E+01 -0.11333924610E+03  0.13665050168E+03  0.47000000000E+01 0.  1.
<mgrwt>
<rscale>  0 0.27315513E+03</rscale>
<asrwt>0</asrwt>
<pdfrwt beam="1">  1        2 0.34172970E-02 0.27315513E+03</pdfrwt>
<pdfrwt beam="2">  1       -2 0.12919607E+00 0.27315513E+03</pdfrwt>
<totfact> 0.12142723E+03</totfact>
</mgrwt>
</event>
<event>
 9    1  0.2024718E-002  0.2752774E+03  0.7818608E-02  0.1098297E+00
         -1   -1    0    0    0  501 -0.00000000000E+00  0.00000000000E+00  0.31107401337E+02  0.31107401337E+02  0.00000000000E+00 0. -1.
          1   -1    0    0  501    0  0.00000000000E+00 -0.00000000000E+00 -0.60900017531E+03  0.60900017531E+03  0.00000000000E+00 0. -1.
         36    2    1    2    0    0  0.71054273576E-14  0.00000000000E+00 -0.57789277398E+03  0.64010757665E+03  0.27527740821E+03 0.  0.
         25    2    3    3    0    0 -0.43732932641E+02  0.18660317541E+02 -0.22031612955E+03  0.25826193693E+03  0.12609224513E+03 0.  0.
         25    2    3    3    0    0  0.43732932641E+02 -0.18660317541E+02 -0.35757664443E+03  0.38184563971E+03  0.12523681201E+03 0.  0.
          5    1    4    4  502    0  0.12071179675E+02  0.62330347736E+02 -0.99679355294E+02  0.11827446681E+03  0.47000000000E+01 0. -1.
         -5    1    4    4    0  502 -0.55804112316E+02 -0.43670030195E+02 -0.12063677426E+03  0.13998747012E+03  0.47000000000E+01 0. -1.
          5    1    5    5  503    0  0.73167651189E+02  0.14117957578E+02 -0.30024658577E+03  0.30939121541E+03  0.47000000000E+01 0. -1.
         -5    1    5    5    0  503 -0.29434718549E+02 -0.32778275119E+02 -0.57330058655E+02  0.72454424304E+02  0.47000000000E+01 0. -1.
<mgrwt>
<rscale>  0 0.27527741E+03</rscale>
<asrwt>0</asrwt>
<pdfrwt beam="1">  1        1 0.93692325E-01 0.27527741E+03</pdfrwt>
<pdfrwt beam="2">  1       -1 0.47857545E-02 0.27527741E+03</pdfrwt>
<totfact> 0.64516949E+03</totfact>
</mgrwt>
</event>
<event>
 9    1  0.2024718E-002  0.2752589E+03  0.7818608E-02  0.1098307E+00
          1   -1    0    0  501    0  0.00000000000E+00  0.00000000000E+00  0.22339140157E+04  0.22339140157E+04  0.00000000000E+00 0. -1.
         -1   -1    0    0    0  501 -0.00000000000E+00 -0.00000000000E+00 -0.84792267002E+01  0.84792267002E+01  0.00000000000E+00 0. -1.
         36    2    1    2    0    0 -0.35527136788E-14 -0.35527136788E-14  0.22254347890E+04  0.22423932424E+04  0.27525888445E+03 0.  0.
         25    2    3    3    0    0  0.16447409196E+02  0.18406217816E+02  0.69406677559E+03  0.70580793685E+03  0.12580480366E+03 0.  0.
         25    2    3    3    0    0 -0.16447409196E+02 -0.18406217816E+02  0.15313680134E+04  0.15365853055E+04  0.12408506197E+03 0.  0.
          5    1    4    4  502    0  0.28451065636E+02 -0.48495340980E+02  0.39949722567E+03  0.40346175104E+03  0.47000000000E+01 0.  1.
         -5    1    4    4    0  502 -0.12003656441E+02  0.66901558796E+02  0.29456954992E+03  0.30234618582E+03  0.47000000000E+01 0.  1.
          5    1    5    5  503    0  0.23577610308E+01 -0.15642419009E+02  0.14965394324E+04  0.14966304177E+04  0.47000000000E+01 0. -1.
         -5    1    5    5    0  503 -0.18805170227E+02 -0.27637988073E+01  0.34828580960E+02  0.39954887846E+02  0.47000000000E+01 0. -1.
<mgrwt>
<rscale>  0 0.27525888E+03</rscale>
<asrwt>0</asrwt>
<pdfrwt beam="1">  1        1 0.34367861E+00 0.27525888E+03</pdfrwt>
<pdfrwt beam="2">  1       -1 0.13044982E-02 0.27525888E+03</pdfrwt>
<totfact> 0.30377918E+03</totfact>
</mgrwt>
</event>
<event>
 9    1  0.2024718E-002  0.2727209E+03  0.7818608E-02  0.1099732E+00
          2   -1    0    0  501    0  0.00000000000E+00  0.00000000000E+00  0.42677424620E+03  0.42677424620E+03  0.00000000000E+00 0. -1.
         -2   -1    0    0    0  501 -0.00000000000E+00 -0.00000000000E+00 -0.43569104912E+02  0.43569104912E+02  0.00000000000E+00 0. -1.
         36    2    1    2    0    0  0.00000000000E+00  0.71054273576E-14  0.38320514129E+03  0.47034335111E+03  0.27272089694E+03 0.  0.
         25    2    3    3    0    0 -0.12279729894E+02 -0.35088879885E+00  0.25802659655E+03  0.28726000168E+03  0.12565695027E+03 0.  0.
         25    2    3    3    0    0  0.12279729894E+02  0.35088879885E+00  0.12517854474E+03  0.18308334943E+03  0.13303732516E+03 0.  0.
          5    1    4    4  502    0  0.28902721870E+02 -0.46670642360E+02  0.69133516317E+02  0.88402767310E+02  0.47000000000E+01 0.  1.
         -5    1    4    4    0  502 -0.41182451764E+02  0.46319753561E+02  0.18889308023E+03  0.19885723437E+03  0.47000000000E+01 0.  1.
          5    1    5    5  503    0  0.38519201467E+02 -0.36857447687E+02  0.12643354010E+03  0.13729432033E+03  0.47000000000E+01 0.  1.
         -5    1    5    5    0  503 -0.26239471573E+02  0.37208336486E+02 -0.12549953629E+01  0.45789029099E+02  0.47000000000E+01 0.  1.
<mgrwt>
<rscale>  0 0.27272090E+03</rscale>
<asrwt>0</asrwt>
<pdfrwt beam="1">  1        2 0.65657573E-01 0.27272090E+03</pdfrwt>
<pdfrwt beam="2">  1       -2 0.67029395E-02 0.27272090E+03</pdfrwt>
<totfact> 0.92015926E+03</totfact>
</mgrwt>
</event>
<event>
 9    1  0.2024718E-002  0.2755336E+03  0.7818608E-02  0.1098154E+00
         -2   -1    0    0    0  501 -0.00000000000E+00  0.00000000000E+00  0.19842610902E+02  0.19842610902E+02  0.00000000000E+00 0. -1.
          2   -1    0    0  501    0  0.00000000000E+00 -0.00000000000E+00 -0.95651186759E+03  0.95651186759E+03  0.00000000000E+00 0. -1.
         36    2    1    2    0    0 -0.71054273576E-14  0.71054273576E-14 -0.93666925669E+03  0.97635447850E+03  0.27553361183E+03 0.  0.
         25    2    3    3    0    0  0.38335913648E+02 -0.41284332747E+02 -0.57163208138E+03  0.58669392137E+03  0.11946749563E+03 0.  0.
         25    2    3    3    0    0 -0.38335913648E+02  0.41284332747E+02 -0.36503717532E+03  0.38966055712E+03  0.12413368604E+03 0.  0.
          5    1    4    4  502    0  0.53461795669E+02  0.18856650015E+01 -0.49054510266E+03  0.49347574112E+03  0.47000000000E+01 0. -1.
         -5    1    4    4    0  502 -0.15125882021E+02 -0.43169997749E+02 -0.81086978718E+02  0.93218180255E+02  0.47000000000E+01 0. -1.
          5    1    5    5  503    0 -0.20413331742E+02 -0.44157443359E+02 -0.13398229734E+03  0.14261812619E+03  0.47000000000E+01 0.  1.
         -5    1    5    5    0  503 -0.17922581906E+02  0.85441776106E+02 -0.23105487798E+03  0.24704243094E+03  0.47000000000E+01 0.  1.
<mgrwt>
<rscale>  0 0.27553361E+03</rscale>
<asrwt>0</asrwt>
<pdfrwt beam="1">  1        2 0.14715567E+00 0.27553361E+03</pdfrwt>
<pdfrwt beam="2">  1       -2 0.30527093E-02 0.27553361E+03</pdfrwt>
<totfact> 0.11503846E+04</totfact>
</mgrwt>
</event>
<event>
 9    1  0.2024718E-002  0.2757317E+03  0.7818608E-02  0.1098043E+00
         -2   -1    0    0    0  501 -0.00000000000E+00  0.00000000000E+00  0.95532664045E+01  0.95532664045E+01  0.00000000000E+00 0. -1.
          2   -1    0    0  501    0  0.00000000000E+00 -0.00000000000E+00 -0.19895805192E+04  0.19895805192E+04  0.00000000000E+00 0. -1.
         36    2    1    2    0    0  0.00000000000E+00  0.00000000000E+00 -0.19800272528E+04  0.19991337856E+04  0.27573170100E+03 0.  0.
         25    2    3    3    0    0 -0.45611929100E+02 -0.40879755197E+02 -0.95127225360E+03  0.96112806676E+03  0.12286845722E+03 0.  0.
         25    2    3    3    0    0  0.45611929100E+02  0.40879755197E+02 -0.10287549992E+04  0.10380057189E+04  0.12396540456E+03 0.  0.
          5    1    4    4  502    0  0.35761264561E+02 -0.17603944037E+02 -0.52360547081E+03  0.52514145328E+03  0.47000000000E+01 0.  1.
         -5    1    4    4    0  502 -0.81373193661E+02 -0.23275811159E+02 -0.42766678279E+03  0.43598661348E+03  0.47000000000E+01 0.  1.
          5    1    5    5  503    0  0.45403148254E+02  0.43105106472E+02 -0.10305800514E+04  0.10324905948E+04  0.47000000000E+01 0. -1.
         -5    1    5    5    0  503  0.20878084573E+00 -0.22253512757E+01  0.18250521768E+01  0.55151240412E+01  0.47000000000E+01 0. -1.
<mgrwt>
<rscale>  0 0.27573170E+03</rscale>
<asrwt>0</asrwt>
<pdfrwt beam="1">  1        2 0.30608908E+00 0.27573170E+03</pdfrwt>
<pdfrwt beam="2">  1       -2 0.14697344E-02 0.27573170E+03</pdfrwt>
<totfact> 0.91458811E+03</totfact>
</mgrwt>
</event>
<event>
 9    1  0.2024718E-002  0.2756476E+03  0.7818608E-02  0.1098090E+00
          2   -1    0    0  501    0  0.00000000000E+00  0.00000000000E+00  0.34757799020E+03  0.34757799020E+03  0.00000000000E+00 0. -1.
         -2   -1    0    0    0  501 -0.00000000000E+00 -0.00000000000E+00 -0.54650737725E+02  0.54650737725E+02  0.00000000000E+00 0. -1.
         36    2    1    2    0    0 -0.14210854715E-13  0.00000000000E+00  0.29292725247E+03  0.40222872792E+03  0.27564755454E+03 0.  0.
         25    2    3    3    0    0 -0.58215123760E+02 -0.16190040973E+02  0.14368730195E+03  0.19698240755E+03  0.12043633207E+03 0.  0.
         25    2    3    3    0    0  0.58215123760E+02  0.16190040973E+02  0.14923995052E+03  0.20524632037E+03  0.12728853496E+03 0.  0.
          5    1    4    4  502    0  0.69963209210E+00  0.47506532377E+02  0.54764677255E+02  0.72654111917E+02  0.47000000000E+01 0.  1.
         -5    1    4    4    0  502 -0.58914755852E+02 -0.63696573350E+02  0.88922624693E+02  0.12432829564E+03  0.47000000000E+01 0.  1.
          5    1    5    5  503    0  0.98490479291E+02  0.15670069567E+02  0.11382157980E+03  0.15140464860E+03  0.47000000000E+01 0.  1.
         -5    1    5    5    0  503 -0.40275355531E+02  0.51997140539E+00  0.35418370726E+02  0.53841671764E+02  0.47000000000E+01 0.  1.
<mgrwt>
<rscale>  0 0.27564755E+03</rscale>
<asrwt>0</asrwt>
<pdfrwt beam="1">  1        2 0.53473536E-01 0.27564755E+03</pdfrwt>
<pdfrwt beam="2">  1       -2 0.84078060E-02 0.27564755E+03</pdfrwt>
<totfact> 0.80844089E+03</totfact>
</mgrwt>
</event>
<event>
 9    1  0.2024718E-002  0.2713195E+03  0.7818608E-02  0.1100527E+00
          2   -1    0    0  501    0  0.00000000000E+00  0.00000000000E+00  0.54634056712E+03  0.54634056712E+03  0.00000000000E+00 0. -1.
         -2   -1    0    0    0  501 -0.00000000000E+00 -0.00000000000E+00 -0.33685161133E+02  0.33685161133E+02  0.00000000000E+00 0. -1.
         36    2    1    2    0    0  0.41633363423E-14 -0.35527136788E-14  0.51265540599E+03  0.58002572826E+03  0.27131951671E+03 0.  0.
         25    2    3    3    0    0  0.96855085264E-01  0.65842695498E+01  0.35004182642E+03  0.37138805055E+03  0.12392111145E+03 0.  0.
         25    2    3    3    0    0 -0.96855085264E-01 -0.65842695498E+01  0.16261357957E+03  0.20863767770E+03  0.13054938648E+03 0.  0.
          5    1    4    4  502    0  0.16790491379E+00 -0.49901873849E+02  0.26147968221E+03  0.26624037901E+03  0.47000000000E+01 0. -1.
         -5    1    4    4    0  502 -0.71049828530E-01  0.56486143399E+02  0.88562144210E+02  0.10514767154E+03  0.47000000000E+01 0. -1.
          5    1    5    5  503    0 -0.59746828269E+02  0.22647606149E+02  0.82730932877E+02  0.10463792241E+03  0.47000000000E+01 0. -1.
         -5    1    5    5    0  503  0.59649973183E+02 -0.29231875699E+02  0.79882646693E+02  0.10399975529E+03  0.47000000000E+01 0. -1.
<mgrwt>
<rscale>  0 0.27131952E+03</rscale>
<asrwt>0</asrwt>
<pdfrwt beam="1">  1        2 0.84052388E-01 0.27131952E+03</pdfrwt>
<pdfrwt beam="2">  1       -2 0.51823329E-02 0.27131952E+03</pdfrwt>
<totfact> 0.10366300E+04</totfact>
</mgrwt>
</event>
<event>
 9    1  0.2024718E-002  0.2758184E+03  0.7818608E-02  0.1097995E+00
          2   -1    0    0  501    0  0.00000000000E+00  0.00000000000E+00  0.69503664303E+02  0.69503664303E+02  0.00000000000E+00 0.  1.
         -2   -1    0    0    0  501 -0.00000000000E+00 -0.00000000000E+00 -0.27363955318E+03  0.27363955318E+03  0.00000000000E+00 0.  1.
         36    2    1    2    0    0  0.00000000000E+00  0.00000000000E+00 -0.20413588888E+03  0.34314321748E+03  0.27581843045E+03 0.  0.
         25    2    3    3    0    0 -0.44143145065E+02  0.22408683286E+02 -0.57266197600E+02  0.14518579122E+03  0.12388999250E+03 0.  0.
         25    2    3    3    0    0  0.44143145065E+02 -0.22408683286E+02 -0.14686969128E+03  0.19795742626E+03  0.12314897504E+03 0.  0.
          5    1    4    4  502    0 -0.17667559554E+02  0.29546840195E+02  0.34698948605E+02  0.49104637871E+02  0.47000000000E+01 0.  1.
         -5    1    4    4    0  502 -0.26475585511E+02 -0.71381569090E+01 -0.91965146205E+02  0.96081153348E+02  0.47000000000E+01 0.  1.
          5    1    5    5  503    0  0.41144918867E+01  0.36195532583E+02 -0.11368494898E+03  0.11947134906E+03  0.47000000000E+01 0. -1.
         -5    1    5    5    0  503  0.40028653178E+02 -0.58604215870E+02 -0.33184742296E+02  0.78486077200E+02  0.47000000000E+01 0. -1.
<mgrwt>
<rscale>  0 0.27581843E+03</rscale>
<asrwt>0</asrwt>
<pdfrwt beam="1">  1        2 0.10692871E-01 0.27581843E+03</pdfrwt>
<pdfrwt beam="2">  1       -2 0.42098393E-01 0.27581843E+03</pdfrwt>
<totfact> 0.31674184E+03</totfact>
</mgrwt>
</event>
<event>
 9    1  0.2024718E-002  0.2742854E+03  0.7818608E-02  0.1098852E+00
          1   -1    0    0  501    0  0.00000000000E+00  0.00000000000E+00  0.34784028761E+03  0.34784028761E+03  0.00000000000E+00 0. -1.
         -1   -1    0    0    0  501 -0.00000000000E+00 -0.00000000000E+00 -0.54071140695E+02  0.54071140695E+02  0.00000000000E+00 0. -1.
         36    2    1    2    0    0 -0.71054273576E-14  0.14210854715E-13  0.29376914692E+03  0.40191142831E+03  0.27428540706E+03 0.  0.
         25    2    3    3    0    0  0.43897865245E+02 -0.39713353834E+02  0.17348963069E+03  0.21902565346E+03  0.11987248171E+03 0.  0.
         25    2    3    3    0    0 -0.43897865245E+02  0.39713353834E+02  0.12027951623E+03  0.18288577485E+03  0.12440205614E+03 0.  0.
          5    1    4    4  502    0 -0.13598009214E+02 -0.67950681218E+02  0.91273008835E+02  0.11469547975E+03  0.47000000000E+01 0. -1.
         -5    1    4    4    0  502  0.57495874460E+02  0.28237327384E+02  0.82216621856E+02  0.10433017371E+03  0.47000000000E+01 0. -1.
          5    1    5    5  503    0  0.40680340924E+02  0.61202046437E+01  0.15973267394E+02  0.44379976497E+02  0.47000000000E+01 0.  1.
         -5    1    5    5    0  503 -0.84578206170E+02  0.33593149190E+02  0.10430624883E+03  0.13850579835E+03  0.47000000000E+01 0.  1.
<mgrwt>
<rscale>  0 0.27428541E+03</rscale>
<asrwt>0</asrwt>
<pdfrwt beam="1">  1        1 0.53513889E-01 0.27428541E+03</pdfrwt>
<pdfrwt beam="2">  1       -1 0.83186373E-02 0.27428541E+03</pdfrwt>
<totfact> 0.58437694E+03</totfact>
</mgrwt>
</event>
<event>
 9    1  0.2024718E-002  0.2741505E+03  0.7818608E-02  0.1098927E+00
         -1   -1    0    0    0  501 -0.00000000000E+00  0.00000000000E+00  0.26560956280E+02  0.26560956280E+02  0.00000000000E+00 0.  1.
          1   -1    0    0  501    0  0.00000000000E+00 -0.00000000000E+00 -0.70741540288E+03  0.70741540288E+03  0.00000000000E+00 0.  1.
         36    2    1    2    0    0 -0.35527136788E-14 -0.71054273576E-14 -0.68085444660E+03  0.73397635916E+03  0.27415053958E+03 0.  0.
         25    2    3    3    0    0 -0.21051784824E+02  0.14332561981E+02 -0.48439700462E+03  0.49994914654E+03  0.12107886297E+03 0.  0.
         25    2    3    3    0    0  0.21051784824E+02 -0.14332561981E+02 -0.19645744198E+03  0.23402721262E+03  0.12459779196E+03 0.  0.
          5    1    4    4  502    0 -0.11006645091E+02  0.63515275506E+02 -0.17671672185E+03  0.18816542254E+03  0.47000000000E+01 0.  1.
         -5    1    4    4    0  502 -0.10045139733E+02 -0.49182713525E+02 -0.30768028277E+03  0.31178372399E+03  0.47000000000E+01 0.  1.
          5    1    5    5  503    0 -0.40891896066E+02  0.16666898766E+02 -0.13208214068E+03  0.13934745984E+03  0.47000000000E+01 0. -1.
         -5    1    5    5    0  503  0.61943680890E+02 -0.30999460748E+02 -0.64375301297E+02  0.94679752777E+02  0.47000000000E+01 0. -1.
<mgrwt>
<rscale>  0 0.27415054E+03</rscale>
<asrwt>0</asrwt>
<pdfrwt beam="1">  1        1 0.10883313E+00 0.27415054E+03</pdfrwt>
<pdfrwt beam="2">  1       -1 0.40863012E-02 0.27415054E+03</pdfrwt>
<totfact> 0.65929101E+03</totfact>
</mgrwt>
</event>
<event>
 9    1  0.2024718E-002  0.2751781E+03  0.7818608E-02  0.1098352E+00
          3   -1    0    0  501    0  0.00000000000E+00  0.00000000000E+00  0.64447909964E+03  0.64447909964E+03  0.00000000000E+00 0. -1.
         -3   -1    0    0    0  501 -0.00000000000E+00 -0.00000000000E+00 -0.29373711904E+02  0.29373711904E+02  0.00000000000E+00 0. -1.
         36    2    1    2    0    0  0.35527136788E-14 -0.35527136788E-14  0.61510538774E+03  0.67385281155E+03  0.27517807617E+03 0.  0.
         25    2    3    3    0    0  0.85618372847E+01  0.18482400025E+01  0.15299562418E+03  0.19534064975E+03  0.12113458374E+03 0.  0.
         25    2    3    3    0    0 -0.85618372847E+01 -0.18482400025E+01  0.46210976356E+03  0.47851216180E+03  0.12390211606E+03 0.  0.
          5    1    4    4  502    0  0.32298301109E+02 -0.47734830403E+02  0.11384351993E+03  0.12768802339E+03  0.47000000000E+01 0.  1.
         -5    1    4    4    0  502 -0.23736463824E+02  0.49583070405E+02  0.39152104251E+02  0.67652626357E+02  0.47000000000E+01 0.  1.
          5    1    5    5  503    0 -0.47098862150E+02  0.24668955812E+02  0.38132715523E+03  0.38504460717E+03  0.47000000000E+01 0.  1.
         -5    1    5    5    0  503  0.38537024865E+02 -0.26517195814E+02  0.80782608328E+02  0.93467554625E+02  0.47000000000E+01 0.  1.
<mgrwt>
<rscale>  0 0.27517808E+03</rscale>
<asrwt>0</asrwt>
<pdfrwt beam="1">  1        3 0.99150620E-01 0.27517808E+03</pdfrwt>
<pdfrwt beam="2">  1       -3 0.45190331E-02 0.27517808E+03</pdfrwt>
<totfact> 0.62834938E+02</totfact>
</mgrwt>
</event>
<event>
 9    1  0.2024718E-002  0.2753774E+03  0.7818608E-02  0.1098241E+00
         -2   -1    0    0    0  501 -0.00000000000E+00  0.00000000000E+00  0.36443518632E+02  0.36443518632E+02  0.00000000000E+00 0.  1.
          2   -1    0    0  501    0  0.00000000000E+00 -0.00000000000E+00 -0.52020700035E+03  0.52020700035E+03  0.00000000000E+00 0.  1.
         36    2    1    2    0    0  0.00000000000E+00 -0.71054273576E-14 -0.48376348172E+03  0.55665051898E+03  0.27537736661E+03 0.  0.
         25    2    3    3    0    0 -0.37719382734E+02 -0.31081952288E+02 -0.30326495574E+03  0.33155575670E+03  0.12478279861E+03 0.  0.
         25    2    3    3    0    0  0.37719382734E+02  0.31081952288E+02 -0.18049852598E+03  0.22509476229E+03  0.12529602761E+03 0.  0.
          5    1    4    4  502    0 -0.55665059715E+02 -0.13465114537E+02 -0.30036116193E+03  0.30580847891E+03  0.47000000000E+01 0.  1.
         -5    1    4    4    0  502  0.17945676981E+02 -0.17616837751E+02 -0.29037938112E+01  0.25747277781E+02  0.47000000000E+01 0.  1.
          5    1    5    5  503    0  0.41774552456E+02  0.23555528111E+01  0.11652795483E+00  0.42104221175E+02  0.47000000000E+01 0.  1.
         -5    1    5    5    0  503 -0.40551697221E+01  0.28726399477E+02 -0.18061505393E+03  0.18299054111E+03  0.47000000000E+01 0.  1.
<mgrwt>
<rscale>  0 0.27537737E+03</rscale>
<asrwt>0</asrwt>
<pdfrwt beam="1">  1        2 0.80031848E-01 0.27537737E+03</pdfrwt>
<pdfrwt beam="2">  1       -2 0.56066951E-02 0.27537737E+03</pdfrwt>
<totfact> 0.97237003E+03</totfact>
</mgrwt>
</event>
<event>
 9    1  0.2024718E-002  0.2752693E+03  0.7818608E-02  0.1098301E+00
         -2   -1    0    0    0  501 -0.00000000000E+00  0.00000000000E+00  0.14597352839E+02  0.14597352839E+02  0.00000000000E+00 0. -1.
          2   -1    0    0  501    0  0.00000000000E+00 -0.00000000000E+00 -0.12977216258E+04  0.12977216258E+04  0.00000000000E+00 0. -1.
         36    2    1    2    0    0  0.71054273576E-14  0.00000000000E+00 -0.12831242730E+04  0.13123189787E+04  0.27526932600E+03 0.  0.
         25    2    3    3    0    0  0.19674424927E+02  0.18977883731E+02 -0.89380063596E+03  0.90338033573E+03  0.12833242410E+03 0.  0.
         25    2    3    3    0    0 -0.19674424927E+02 -0.18977883731E+02 -0.38932363705E+03  0.40893864296E+03  0.12210928003E+03 0.  0.
          5    1    4    4  502    0  0.69249310598E+02  0.28232593385E+02 -0.39741133735E+03  0.40441365877E+03  0.47000000000E+01 0.  1.
         -5    1    4    4    0  502 -0.49574885670E+02 -0.92547096544E+01 -0.49638929861E+03  0.49896667696E+03  0.47000000000E+01 0.  1.
          5    1    5    5  503    0 -0.66432265055E+02  0.11719749732E+02 -0.24247948849E+03  0.25173198191E+03  0.47000000000E+01 0.  1.
         -5    1    5    5    0  503  0.46757840128E+02 -0.30697633463E+02 -0.14684414856E+03  0.15720666105E+03  0.47000000000E+01 0.  1.
<mgrwt>
<rscale>  0 0.27526933E+03</rscale>
<asrwt>0</asrwt>
<pdfrwt beam="1">  1        2 0.19964952E+00 0.27526933E+03</pdfrwt>
<pdfrwt beam="2">  1       -2 0.22457462E-02 0.27526933E+03</pdfrwt>
<totfact> 0.11455404E+04</totfact>
</mgrwt>
</event>
<event>
 9    1  0.2024718E-002  0.2764880E+03  0.7818608E-02  0.1097623E+00
          1   -1    0    0  501    0  0.00000000000E+00  0.00000000000E+00  0.83379895497E+02  0.83379895497E+02  0.00000000000E+00 0.  1.
         -1   -1    0    0    0  501 -0.00000000000E+00 -0.00000000000E+00 -0.22920882422E+03  0.22920882422E+03  0.00000000000E+00 0.  1.
         36    2    1    2    0    0 -0.71054273576E-14  0.14210854715E-13 -0.14582892872E+03  0.31258871972E+03  0.27648803092E+03 0.  0.
         25    2    3    3    0    0  0.36297723932E+02  0.33391729793E+02 -0.25899850081E+02  0.13396656400E+03  0.12183474732E+03 0.  0.
         25    2    3    3    0    0 -0.36297723932E+02 -0.33391729793E+02 -0.11992907864E+03  0.17862215572E+03  0.12284281920E+03 0.  0.
          5    1    4    4  502    0 -0.34676234378E+02 -0.21854386882E+02 -0.10780667208E+02  0.42642329229E+02  0.47000000000E+01 0.  1.
         -5    1    4    4    0  502  0.70973958310E+02  0.55246116675E+02 -0.15119182873E+02  0.91324234771E+02  0.47000000000E+01 0.  1.
          5    1    5    5  503    0 -0.26806010302E+02 -0.70046655168E+02 -0.11865057725E+03  0.14044623729E+03  0.47000000000E+01 0.  1.
         -5    1    5    5    0  503 -0.94917136306E+01  0.36654925374E+02 -0.12785013962E+01  0.38175918426E+02  0.47000000000E+01 0.  1.
<mgrwt>
<rscale>  0 0.27648803E+03</rscale>
<asrwt>0</asrwt>
<pdfrwt beam="1">  1        1 0.12827676E-01 0.27648803E+03</pdfrwt>
<pdfrwt beam="2">  1       -1 0.35262896E-01 0.27648803E+03</pdfrwt>
<totfact> 0.35253736E+03</totfact>
</mgrwt>
</event>
<event>
 9    1  0.2024718E-002  0.2748769E+03  0.7818608E-02  0.1098520E+00
         -2   -1    0    0    0  501 -0.00000000000E+00  0.00000000000E+00  0.27016362933E+03  0.27016362933E+03  0.00000000000E+00 0.  1.
          2   -1    0    0  501    0  0.00000000000E+00 -0.00000000000E+00 -0.69918099217E+02  0.69918099217E+02  0.00000000000E+00 0.  1.
         36    2    1    2    0    0 -0.35527136788E-14  0.00000000000E+00  0.20024553011E+03  0.34008172855E+03  0.27487689929E+03 0.  0.
         25    2    3    3    0    0 -0.20887993700E+02  0.43511196298E+02  0.10829655531E+03  0.17078155469E+03  0.12291730166E+03 0.  0.
         25    2    3    3    0    0  0.20887993700E+02 -0.43511196298E+02  0.91948974802E+02  0.16930017386E+03  0.13371014328E+03 0.  0.
          5    1    4    4  502    0 -0.46649060562E+02 -0.19783764681E+02  0.83788244679E+02  0.98031077433E+02  0.47000000000E+01 0. -1.
         -5    1    4    4    0  502  0.25761066862E+02  0.63294960979E+02  0.24508310631E+02  0.72750477257E+02  0.47000000000E+01 0. -1.
          5    1    5    5  503    0  0.22472998067E+02 -0.88486422573E+02  0.38294032018E+02  0.99113094544E+02  0.47000000000E+01 0.  1.
         -5    1    5    5    0  503 -0.15850043673E+01  0.44975226275E+02  0.53654942783E+02  0.70187079312E+02  0.47000000000E+01 0.  1.
<mgrwt>
<rscale>  0 0.27487690E+03</rscale>
<asrwt>0</asrwt>
<pdfrwt beam="1">  1        2 0.10756631E-01 0.27487690E+03</pdfrwt>
<pdfrwt beam="2">  1       -2 0.41563635E-01 0.27487690E+03</pdfrwt>
<totfact> 0.32223431E+03</totfact>
</mgrwt>
</event>
<event>
 9    1  0.2024718E-002  0.2743871E+03  0.7818608E-02  0.1098795E+00
          2   -1    0    0  501    0  0.00000000000E+00  0.00000000000E+00  0.20717684413E+04  0.20717684413E+04  0.00000000000E+00 0.  1.
         -2   -1    0    0    0  501 -0.00000000000E+00 -0.00000000000E+00 -0.90850273929E+01  0.90850273929E+01  0.00000000000E+00 0.  1.
         36    2    1    2    0    0  0.00000000000E+00  0.14210854715E-13  0.20626834139E+04  0.20808534687E+04  0.27438712098E+03 0.  0.
         25    2    3    3    0    0  0.11716177970E+02  0.71533585030E+02  0.55838624764E+03  0.56991751408E+03  0.88070702811E+02 0.  0.
         25    2    3    3    0    0 -0.11716177970E+02 -0.71533585030E+02  0.15042971662E+04  0.15109359546E+04  0.12150379366E+03 0.  0.
          5    1    4    4  502    0  0.31000285880E+02 -0.74480839176E+01  0.13764864778E+03  0.14137090193E+03  0.47000000000E+01 0.  1.
         -5    1    4    4    0  502 -0.19284107911E+02  0.78981668948E+02  0.42073759986E+03  0.42854661215E+03  0.47000000000E+01 0.  1.
          5    1    5    5  503    0 -0.63483745737E+02 -0.22617273463E+02  0.87491613240E+03  0.87752040191E+03  0.47000000000E+01 0. -1.
         -5    1    5    5    0  503  0.51767567768E+02 -0.48916311567E+02  0.62938103383E+03  0.63341555266E+03  0.47000000000E+01 0. -1.
<mgrwt>
<rscale>  0 0.27438712E+03</rscale>
<asrwt>0</asrwt>
<pdfrwt beam="1">  1        2 0.31873323E+00 0.27438712E+03</pdfrwt>
<pdfrwt beam="2">  1       -2 0.13976982E-02 0.27438712E+03</pdfrwt>
<totfact> 0.89087035E+03</totfact>
</mgrwt>
</event>
<event>
 9    1  0.2024718E-002  0.2748126E+03  0.7818608E-02  0.1098556E+00
         -1   -1    0    0    0  501 -0.00000000000E+00  0.00000000000E+00  0.24076434181E+03  0.24076434181E+03  0.00000000000E+00 0.  1.
          1   -1    0    0  501    0  0.00000000000E+00 -0.00000000000E+00 -0.78418946495E+02  0.78418946495E+02  0.00000000000E+00 0.  1.
         36    2    1    2    0    0 -0.71054273576E-14 -0.17763568394E-14  0.16234539532E+03  0.31918328831E+03  0.27481256186E+03 0.  0.
         25    2    3    3    0    0 -0.37650042548E+02  0.30611457496E+00  0.24050128416E+02  0.13113564541E+03  0.12329042709E+03 0.  0.
         25    2    3    3    0    0  0.37650042548E+02 -0.30611457496E+00  0.13829526690E+03  0.18804764290E+03  0.12173214752E+03 0.  0.
          5    1    4    4  502    0 -0.58377028150E+01 -0.10455553513E+02  0.71592278903E+02  0.72738860122E+02  0.47000000000E+01 0.  1.
         -5    1    4    4    0  502 -0.31812339733E+02  0.10761668088E+02 -0.47542150487E+02  0.58396785290E+02  0.47000000000E+01 0.  1.
          5    1    5    5  503    0  0.66819784383E+02  0.15354049538E+02  0.13849459664E+03  0.15460748274E+03  0.47000000000E+01 0.  1.
         -5    1    5    5    0  503 -0.29169741835E+02 -0.15660164113E+02 -0.19932973331E+00  0.33440160154E+02  0.47000000000E+01 0.  1.
<mgrwt>
<rscale>  0 0.27481256E+03</rscale>
<asrwt>0</asrwt>
<pdfrwt beam="1">  1        1 0.12064453E-01 0.27481256E+03</pdfrwt>
<pdfrwt beam="2">  1       -1 0.37040668E-01 0.27481256E+03</pdfrwt>
<totfact> 0.35090694E+03</totfact>
</mgrwt>
</event>
<event>
 9    1  0.2024718E-002  0.2727026E+03  0.7818608E-02  0.1099743E+00
          2   -1    0    0  501    0  0.00000000000E+00  0.00000000000E+00  0.39343884499E+03  0.39343884499E+03  0.00000000000E+00 0. -1.
         -2   -1    0    0    0  501 -0.00000000000E+00 -0.00000000000E+00 -0.47254295038E+02  0.47254295038E+02  0.00000000000E+00 0. -1.
         36    2    1    2    0    0 -0.71054273576E-14  0.00000000000E+00  0.34618454995E+03  0.44069314003E+03  0.27270258716E+03 0.  0.
         25    2    3    3    0    0  0.48050083028E+02 -0.30402854469E+02  0.17818096495E+03  0.22399193598E+03  0.12325091106E+03 0.  0.
         25    2    3    3    0    0 -0.48050083028E+02  0.30402854469E+02  0.16800358500E+03  0.21670120404E+03  0.12450326590E+03 0.  0.
          5    1    4    4  502    0  0.57999452223E+02 -0.71825605027E+02  0.11317262073E+03  0.14612660976E+03  0.47000000000E+01 0. -1.
         -5    1    4    4    0  502 -0.99493691950E+01  0.41422750558E+02  0.65008344211E+02  0.77865326226E+02  0.47000000000E+01 0. -1.
          5    1    5    5  503    0 -0.21701451068E+02 -0.33521673396E+02  0.13322911027E+03  0.13916444010E+03  0.47000000000E+01 0. -1.
         -5    1    5    5    0  503 -0.26348631960E+02  0.63924527865E+02  0.34774474734E+02  0.77536763938E+02  0.47000000000E+01 0. -1.
<mgrwt>
<rscale>  0 0.27270259E+03</rscale>
<asrwt>0</asrwt>
<pdfrwt beam="1">  1        2 0.60529051E-01 0.27270259E+03</pdfrwt>
<pdfrwt beam="2">  1       -2 0.72698918E-02 0.27270259E+03</pdfrwt>
<totfact> 0.88663780E+03</totfact>
</mgrwt>
</event>
<event>
 9    1  0.2024718E-002  0.2738831E+03  0.7818608E-02  0.1099078E+00
          2   -1    0    0  501    0  0.00000000000E+00  0.00000000000E+00  0.81643713333E+03  0.81643713333E+03  0.00000000000E+00 0. -1.
         -2   -1    0    0    0  501 -0.00000000000E+00 -0.00000000000E+00 -0.22969299416E+02  0.22969299416E+02  0.00000000000E+00 0. -1.
         36    2    1    2    0    0  0.35527136788E-14  0.17763568394E-14  0.79346783391E+03  0.83940643274E+03  0.27388310623E+03 0.  0.
         25    2    3    3    0    0  0.20848709410E+02 -0.15626300156E+02  0.19383700780E+03  0.22592972334E+03  0.11310439584E+03 0.  0.
         25    2    3    3    0    0 -0.20848709410E+02  0.15626300156E+02  0.59963082611E+03  0.61347670940E+03  0.12695548594E+03 0.  0.
          5    1    4    4  502    0  0.26883396797E+02  0.32237479111E+02  0.16322464652E+03  0.16860114861E+03  0.47000000000E+01 0. -1.
         -5    1    4    4    0  502 -0.60346873871E+01 -0.47863779267E+02  0.30612361281E+02  0.57328574732E+02  0.47000000000E+01 0. -1.
          5    1    5    5  503    0 -0.40469027142E+02 -0.51700294551E+01  0.57977372843E+02  0.71048836192E+02  0.47000000000E+01 0. -1.
         -5    1    5    5    0  503  0.19620317733E+02  0.20796329611E+02  0.54165345327E+03  0.54242787321E+03  0.47000000000E+01 0. -1.
<mgrwt>
<rscale>  0 0.27388311E+03</rscale>
<asrwt>0</asrwt>
<pdfrwt beam="1">  1        2 0.12560569E+00 0.27388311E+03</pdfrwt>
<pdfrwt beam="2">  1       -2 0.35337390E-02 0.27388311E+03</pdfrwt>
<totfact> 0.11409037E+04</totfact>
</mgrwt>
</event>
<event>
 9    1  0.2024718E-002  0.2749731E+03  0.7818608E-02  0.1098467E+00
          2   -1    0    0  501    0  0.00000000000E+00  0.00000000000E+00  0.33423741217E+03  0.33423741217E+03  0.00000000000E+00 0.  1.
         -2   -1    0    0    0  501 -0.00000000000E+00 -0.00000000000E+00 -0.56554277280E+02  0.56554277280E+02  0.00000000000E+00 0.  1.
         36    2    1    2    0    0  0.35527136788E-14  0.71054273576E-14  0.27768313489E+03  0.39079168945E+03  0.27497312804E+03 0.  0.
         25    2    3    3    0    0  0.10739940611E+02  0.25534307673E+02  0.73254995993E+02  0.15260017138E+03  0.13097011367E+03 0.  0.
         25    2    3    3    0    0 -0.10739940611E+02 -0.25534307673E+02  0.20442813890E+03  0.23819151807E+03  0.11906715800E+03 0.  0.
          5    1    4    4  502    0  0.33195226360E+01 -0.33521398571E+02 -0.21764799453E+02  0.40379448832E+02  0.47000000000E+01 0.  1.
         -5    1    4    4    0  502  0.74204179747E+01  0.59055706244E+02  0.95019795446E+02  0.11222072255E+03  0.47000000000E+01 0.  1.
          5    1    5    5  503    0  0.34658250252E+02  0.31818907967E+02  0.99908065559E+02  0.11053211650E+03  0.47000000000E+01 0.  1.
         -5    1    5    5    0  503 -0.45398190862E+02 -0.57353215640E+02  0.10452007334E+03  0.12765940157E+03  0.47000000000E+01 0.  1.
<mgrwt>
<rscale>  0 0.27497313E+03</rscale>
<asrwt>0</asrwt>
<pdfrwt beam="1">  1        2 0.51421139E-01 0.27497313E+03</pdfrwt>
<pdfrwt beam="2">  1       -2 0.87006583E-02 0.27497313E+03</pdfrwt>
<totfact> 0.79908577E+03</totfact>
</mgrwt>
</event>
<event>
 9    1  0.2024718E-002  0.2682495E+03  0.7818608E-02  0.1102286E+00
          1   -1    0    0  501    0  0.00000000000E+00  0.00000000000E+00  0.83644585597E+02  0.83644585597E+02  0.00000000000E+00 0.  1.
         -1   -1    0    0    0  501 -0.00000000000E+00 -0.00000000000E+00 -0.21507009264E+03  0.21507009264E+03  0.00000000000E+00 0.  1.
         36    2    1    2    0    0 -0.71054273576E-14  0.35527136788E-14 -0.13142550704E+03  0.29871467823E+03  0.26824950157E+03 0.  0.
         25    2    3    3    0    0 -0.37354895680E+02 -0.13386407777E+02 -0.53038016425E+02  0.14220300967E+03  0.12583354334E+03 0.  0.
         25    2    3    3    0    0  0.37354895680E+02  0.13386407777E+02 -0.78387490615E+02  0.15651166856E+03  0.12952497661E+03 0.  0.
          5    1    4    4  502    0 -0.14935941749E+02 -0.30534616837E+02  0.35369505379E+02  0.49280189651E+02  0.47000000000E+01 0.  1.
         -5    1    4    4    0  502 -0.22418953931E+02  0.17148209059E+02 -0.88407521805E+02  0.92922820023E+02  0.47000000000E+01 0.  1.
          5    1    5    5  503    0 -0.37267275227E+01 -0.13384645040E+02 -0.10117804484E+03  0.10223562969E+03  0.47000000000E+01 0.  1.
         -5    1    5    5    0  503  0.41081623203E+02  0.26771052818E+02  0.22790554221E+02  0.54276038872E+02  0.47000000000E+01 0.  1.
<mgrwt>
<rscale>  0 0.26824950E+03</rscale>
<asrwt>0</asrwt>
<pdfrwt beam="1">  1        1 0.12868398E-01 0.26824950E+03</pdfrwt>
<pdfrwt beam="2">  1       -1 0.33087707E-01 0.26824950E+03</pdfrwt>
<totfact> 0.39162550E+03</totfact>
</mgrwt>
</event>
<event>
 9    1  0.2024718E-002  0.2755064E+03  0.7818608E-02  0.1098169E+00
          2   -1    0    0  501    0  0.00000000000E+00  0.00000000000E+00  0.33189018872E+02  0.33189018872E+02  0.00000000000E+00 0.  1.
         -2   -1    0    0    0  501 -0.00000000000E+00 -0.00000000000E+00 -0.57175363828E+03  0.57175363828E+03  0.00000000000E+00 0.  1.
         36    2    1    2    0    0 -0.35527136788E-14  0.00000000000E+00 -0.53856461941E+03  0.60494265715E+03  0.27550638679E+03 0.  0.
         25    2    3    3    0    0 -0.23800706497E+02  0.66499575774E+02 -0.39704273421E+03  0.42082503993E+03  0.12025853084E+03 0.  0.
         25    2    3    3    0    0  0.23800706497E+02 -0.66499575774E+02 -0.14152188520E+03  0.18411761722E+03  0.94245348810E+02 0.  0.
          5    1    4    4  502    0 -0.54475127660E+02  0.41588009897E+02 -0.10117419203E+03  0.12229231061E+03  0.47000000000E+01 0.  1.
         -5    1    4    4    0  502  0.30674421163E+02  0.24911565877E+02 -0.29586854217E+03  0.29853272932E+03  0.47000000000E+01 0.  1.
          5    1    5    5  503    0  0.23121040643E+02 -0.89970318757E+02 -0.10320865471E+03  0.13893652214E+03  0.47000000000E+01 0.  1.
         -5    1    5    5    0  503  0.67966585308E+00  0.23470742983E+02 -0.38313230493E+02  0.45181095081E+02  0.47000000000E+01 0.  1.
<mgrwt>
<rscale>  0 0.27550639E+03</rscale>
<asrwt>0</asrwt>
<pdfrwt beam="1">  1        2 0.51060031E-02 0.27550639E+03</pdfrwt>
<pdfrwt beam="2">  1       -2 0.87962095E-01 0.27550639E+03</pdfrwt>
<totfact> 0.17582240E+03</totfact>
</mgrwt>
</event>
<event>
 9    1  0.2024718E-002  0.2744366E+03  0.7818608E-02  0.1098767E+00
         -2   -1    0    0    0  501 -0.00000000000E+00  0.00000000000E+00  0.70001188006E+02  0.70001188006E+02  0.00000000000E+00 0. -1.
          2   -1    0    0  501    0  0.00000000000E+00 -0.00000000000E+00 -0.26897919914E+03  0.26897919914E+03  0.00000000000E+00 0. -1.
         36    2    1    2    0    0  0.14210854715E-13  0.00000000000E+00 -0.19897801114E+03  0.33898038715E+03  0.27443661191E+03 0.  0.
         25    2    3    3    0    0 -0.38461426014E+02  0.10693811550E+02 -0.60539239086E+02  0.14610515595E+03  0.12683878835E+03 0.  0.
         25    2    3    3    0    0  0.38461426014E+02 -0.10693811550E+02 -0.13843877205E+03  0.19287523120E+03  0.12822605939E+03 0.  0.
          5    1    4    4  502    0  0.11336846356E+02  0.51126316602E+02  0.67632108697E+01  0.53011841657E+02  0.47000000000E+01 0. -1.
         -5    1    4    4    0  502 -0.49798272370E+02 -0.40432505052E+02 -0.67302449956E+02  0.93093314292E+02  0.47000000000E+01 0. -1.
          5    1    5    5  503    0 -0.99419842862E+01  0.19981978258E+02  0.16145293119E+02  0.27944283790E+02  0.47000000000E+01 0. -1.
         -5    1    5    5    0  503  0.48403410301E+02 -0.30675789808E+02 -0.15458406517E+03  0.16493094741E+03  0.47000000000E+01 0. -1.
<mgrwt>
<rscale>  0 0.27443661E+03</rscale>
<asrwt>0</asrwt>
<pdfrwt beam="1">  1        2 0.41381414E-01 0.27443661E+03</pdfrwt>
<pdfrwt beam="2">  1       -2 0.10769414E-01 0.27443661E+03</pdfrwt>
<totfact> 0.71976797E+03</totfact>
</mgrwt>
</event>
<event>
 9    1  0.2024718E-002  0.2759332E+03  0.7818608E-02  0.1097931E+00
         -3   -1    0    0    0  501 -0.00000000000E+00  0.00000000000E+00  0.45374827615E+02  0.45374827615E+02  0.00000000000E+00 0. -1.
          3   -1    0    0  501    0  0.00000000000E+00 -0.00000000000E+00 -0.41950080302E+03  0.41950080302E+03  0.00000000000E+00 0. -1.
         36    2    1    2    0    0 -0.14210854715E-13  0.00000000000E+00 -0.37412597540E+03  0.46487563063E+03  0.27593315583E+03 0.  0.
         25    2    3    3    0    0  0.44690600329E+02 -0.32216251448E+02 -0.20021864613E+03  0.24285806824E+03  0.12592616264E+03 0.  0.
         25    2    3    3    0    0 -0.44690600329E+02  0.32216251448E+02 -0.17390732927E+03  0.22201756239E+03  0.12654209664E+03 0.  0.
          5    1    4    4  502    0 -0.37743949531E+02 -0.97774843091E+01 -0.21640237288E+02  0.44839656505E+02  0.47000000000E+01 0. -1.
         -5    1    4    4    0  502  0.82434549861E+02 -0.22438767139E+02 -0.17857840884E+03  0.19801841174E+03  0.47000000000E+01 0. -1.
          5    1    5    5  503    0  0.31683613040E+02 -0.24961193888E+02 -0.36053556137E+02  0.54303420202E+02  0.47000000000E+01 0. -1.
         -5    1    5    5    0  503 -0.76374213369E+02  0.57177445335E+02 -0.13785377313E+03  0.16771414219E+03  0.47000000000E+01 0. -1.
<mgrwt>
<rscale>  0 0.27593316E+03</rscale>
<asrwt>0</asrwt>
<pdfrwt beam="1">  1        3 0.64538588E-01 0.27593316E+03</pdfrwt>
<pdfrwt beam="2">  1       -3 0.69807424E-02 0.27593316E+03</pdfrwt>
<totfact> 0.80128408E+02</totfact>
</mgrwt>
</event>
<event>
 9    1  0.2024718E-002  0.2742389E+03  0.7818608E-02  0.1098878E+00
          1   -1    0    0  501    0  0.00000000000E+00  0.00000000000E+00  0.20647747037E+03  0.20647747037E+03  0.00000000000E+00 0. -1.
         -1   -1    0    0    0  501 -0.00000000000E+00 -0.00000000000E+00 -0.91059573411E+02  0.91059573411E+02  0.00000000000E+00 0. -1.
         36    2    1    2    0    0 -0.10658141036E-13  0.00000000000E+00  0.11541789696E+03  0.29753704378E+03  0.27423894961E+03 0.  0.
         25    2    3    3    0    0 -0.19919922246E+02  0.23716068827E+02  0.16801780628E+01  0.12528755113E+03  0.12138736445E+03 0.  0.
         25    2    3    3    0    0  0.19919922246E+02 -0.23716068827E+02  0.11373771889E+03  0.17224949264E+03  0.12559603415E+03 0.  0.
          5    1    4    4  502    0 -0.40555247025E+02  0.28760038636E+02  0.51001944639E+02  0.71380363130E+02  0.47000000000E+01 0.  1.
         -5    1    4    4    0  502  0.20635324779E+02 -0.50439698089E+01 -0.49321766576E+02  0.53907188003E+02  0.47000000000E+01 0.  1.
          5    1    5    5  503    0 -0.40966156631E+02  0.79860321068E+01  0.32988859613E+01  0.42130456282E+02  0.47000000000E+01 0.  1.
         -5    1    5    5    0  503  0.60886078877E+02 -0.31702100934E+02  0.11043883293E+03  0.13011903636E+03  0.47000000000E+01 0.  1.
<mgrwt>
<rscale>  0 0.27423895E+03</rscale>
<asrwt>0</asrwt>
<pdfrwt beam="1">  1        1 0.31765765E-01 0.27423895E+03</pdfrwt>
<pdfrwt beam="2">  1       -1 0.14009165E-01 0.27423895E+03</pdfrwt>
<totfact> 0.50127741E+03</totfact>
</mgrwt>
</event>
<event>
 9    1  0.2024718E-002  0.2749996E+03  0.7818608E-02  0.1098452E+00
          3   -1    0    0  501    0  0.00000000000E+00  0.00000000000E+00  0.57246931601E+02  0.57246931601E+02  0.00000000000E+00 0. -1.
         -3   -1    0    0    0  501 -0.00000000000E+00 -0.00000000000E+00 -0.33025695604E+03  0.33025695604E+03  0.00000000000E+00 0. -1.
         36    2    1    2    0    0 -0.35527136788E-14 -0.14210854715E-13 -0.27301002444E+03  0.38750388764E+03  0.27499961726E+03 0.  0.
         25    2    3    3    0    0  0.19134692823E+02 -0.55238100387E+02 -0.14458662199E+03  0.19972629751E+03  0.12477146490E+03 0.  0.
         25    2    3    3    0    0 -0.19134692823E+02  0.55238100387E+02 -0.12842340245E+03  0.18777759014E+03  0.12389700907E+03 0.  0.
          5    1    4    4  502    0 -0.18400253131E+02 -0.69173784711E+02 -0.14228826927E+03  0.15934749254E+03  0.47000000000E+01 0.  1.
         -5    1    4    4    0  502  0.37534945954E+02  0.13935684324E+02 -0.22983527187E+01  0.40378804967E+02  0.47000000000E+01 0.  1.
          5    1    5    5  503    0 -0.66435853522E+02  0.40468672275E+02 -0.43259540024E+02  0.89134246348E+02  0.47000000000E+01 0. -1.
         -5    1    5    5    0  503  0.47301160699E+02  0.14769428112E+02 -0.85163862428E+02  0.98643343789E+02  0.47000000000E+01 0. -1.
<mgrwt>
<rscale>  0 0.27499962E+03</rscale>
<asrwt>0</asrwt>
<pdfrwt beam="1">  1        3 0.88072202E-02 0.27499962E+03</pdfrwt>
<pdfrwt beam="2">  1       -3 0.50808763E-01 0.27499962E+03</pdfrwt>
<totfact> 0.89554878E+02</totfact>
</mgrwt>
</event>
<event>
 9    1  0.2024718E-002  0.2798892E+03  0.7818608E-02  0.1095749E+00
          2   -1    0    0  501    0  0.00000000000E+00  0.00000000000E+00  0.21993607141E+03  0.21993607141E+03  0.00000000000E+00 0. -1.
         -2   -1    0    0    0  501 -0.00000000000E+00 -0.00000000000E+00 -0.89046309064E+02  0.89046309064E+02  0.00000000000E+00 0. -1.
         36    2    1    2    0    0  0.71054273576E-14 -0.71054273576E-14  0.13088976235E+03  0.30898238048E+03  0.27988923087E+03 0.  0.
         25    2    3    3    0    0  0.55466228912E+01  0.95257062577E+00 -0.30740879581E+01  0.12698508100E+03  0.12682305927E+03 0.  0.
         25    2    3    3    0    0 -0.55466228912E+01 -0.95257062577E+00  0.13396385031E+03  0.18199729948E+03  0.12306515109E+03 0.  0.
          5    1    4    4  502    0 -0.33635246346E+02  0.33162070715E+02 -0.41601108179E+02  0.63117310879E+02  0.47000000000E+01 0. -1.
         -5    1    4    4    0  502  0.39181869238E+02 -0.32209500089E+02  0.38527020221E+02  0.63867770119E+02  0.47000000000E+01 0. -1.
          5    1    5    5  503    0 -0.40487061462E+02 -0.45819850970E+02  0.44051744991E+02  0.75507000507E+02  0.47000000000E+01 0.  1.
         -5    1    5    5    0  503  0.34940438571E+02  0.44867280345E+02  0.89912105316E+02  0.10649029897E+03  0.47000000000E+01 0.  1.
<mgrwt>
<rscale>  0 0.27988923E+03</rscale>
<asrwt>0</asrwt>
<pdfrwt beam="1">  1        2 0.33836318E-01 0.27988923E+03</pdfrwt>
<pdfrwt beam="2">  1       -2 0.13699432E-01 0.27988923E+03</pdfrwt>
<totfact> 0.60687507E+03</totfact>
</mgrwt>
</event>
<event>
 9    1  0.2024718E-002  0.2749024E+03  0.7818608E-02  0.1098506E+00
         -1   -1    0    0    0  501 -0.00000000000E+00  0.00000000000E+00  0.78574747913E+02  0.78574747913E+02  0.00000000000E+00 0. -1.
          1   -1    0    0  501    0  0.00000000000E+00 -0.00000000000E+00 -0.24044400841E+03  0.24044400841E+03  0.00000000000E+00 0. -1.
         36    2    1    2    0    0  0.71054273576E-14  0.71054273576E-14 -0.16186926050E+03  0.31901875633E+03  0.27490236338E+03 0.  0.
         25    2    3    3    0    0  0.15060352603E+02  0.33328523045E+02 -0.11944867007E+03  0.17756248370E+03  0.12618576056E+03 0.  0.
         25    2    3    3    0    0 -0.15060352603E+02 -0.33328523045E+02 -0.42420590433E+02  0.14145627263E+03  0.12989521124E+03 0.  0.
          5    1    4    4  502    0  0.28745335994E+01 -0.58903272548E+01  0.25546876762E+02  0.26789770639E+02  0.47000000000E+01 0.  1.
         -5    1    4    4    0  502  0.12185819004E+02  0.39218850300E+02 -0.14499554683E+03  0.15077271306E+03  0.47000000000E+01 0.  1.
          5    1    5    5  503    0 -0.66682762133E+02 -0.18929463291E+02  0.51159787039E+01  0.69664758553E+02  0.47000000000E+01 0.  1.
         -5    1    5    5    0  503  0.51622409530E+02 -0.14399059754E+02 -0.47536569137E+02  0.71791514072E+02  0.47000000000E+01 0.  1.
<mgrwt>
<rscale>  0 0.27490236E+03</rscale>
<asrwt>0</asrwt>
<pdfrwt beam="1">  1        1 0.36991386E-01 0.27490236E+03</pdfrwt>
<pdfrwt beam="2">  1       -1 0.12088423E-01 0.27490236E+03</pdfrwt>
<totfact> 0.52184531E+03</totfact>
</mgrwt>
</event>
<event>
 9    1  0.2024718E-002  0.2771551E+03  0.7818608E-02  0.1097253E+00
         -4   -1    0    0    0  501 -0.00000000000E+00  0.00000000000E+00  0.11231024068E+04  0.11231024068E+04  0.00000000000E+00 0.  1.
          4   -1    0    0  501    0  0.00000000000E+00 -0.00000000000E+00 -0.17098829026E+02  0.17098829026E+02  0.00000000000E+00 0.  1.
         36    2    1    2    0    0  0.00000000000E+00 -0.35527136788E-14  0.11060035777E+04  0.11402012358E+04  0.27715509039E+03 0.  0.
         25    2    3    3    0    0 -0.16041305316E+02  0.30596024251E+02  0.39385238102E+03  0.41615389717E+03  0.12988813616E+03 0.  0.
         25    2    3    3    0    0  0.16041305316E+02 -0.30596024251E+02  0.71215119672E+03  0.72404733863E+03  0.12606260906E+03 0.  0.
          5    1    4    4  502    0 -0.21767773271E+02  0.78434726374E+02  0.29536907516E+03  0.30641609425E+03  0.47000000000E+01 0. -1.
         -5    1    4    4    0  502  0.57264679550E+01 -0.47838702123E+02  0.98483305863E+02  0.10973780292E+03  0.47000000000E+01 0. -1.
          5    1    5    5  503    0  0.44882030434E+02  0.26149467069E+02  0.16159089978E+03  0.16979958827E+03  0.47000000000E+01 0. -1.
         -5    1    5    5    0  503 -0.28840725119E+02 -0.56745491321E+02  0.55056029694E+03  0.55424775036E+03  0.47000000000E+01 0. -1.
<mgrwt>
<rscale>  0 0.27715509E+03</rscale>
<asrwt>0</asrwt>
<pdfrwt beam="1">  1        4 0.26305900E-02 0.27715509E+03</pdfrwt>
<pdfrwt beam="2">  1       -4 0.17278493E+00 0.27715509E+03</pdfrwt>
<totfact> 0.26986780E+02</totfact>
</mgrwt>
</event>
<event>
 9    1  0.2024718E-002  0.2738007E+03  0.7818608E-02  0.1099124E+00
          2   -1    0    0  501    0  0.00000000000E+00  0.00000000000E+00  0.21170192660E+03  0.21170192660E+03  0.00000000000E+00 0. -1.
         -2   -1    0    0    0  501 -0.00000000000E+00 -0.00000000000E+00 -0.88528739909E+02  0.88528739909E+02  0.00000000000E+00 0. -1.
         36    2    1    2    0    0  0.00000000000E+00 -0.14210854715E-13  0.12317318669E+03  0.30023066651E+03  0.27380069246E+03 0.  0.
         25    2    3    3    0    0 -0.24764537548E+02  0.16857449061E+02  0.11041188707E+03  0.16844305207E+03  0.12363179638E+03 0.  0.
         25    2    3    3    0    0  0.24764537548E+02 -0.16857449061E+02  0.12761299620E+02  0.13178761444E+03  0.12770148254E+03 0.  0.
          5    1    4    4  502    0 -0.24355686534E+02 -0.52259948468E+02  0.53284804114E+02  0.78648979841E+02  0.47000000000E+01 0. -1.
         -5    1    4    4    0  502 -0.40885101386E+00  0.69117397529E+02  0.57127082954E+02  0.89794072227E+02  0.47000000000E+01 0. -1.
          5    1    5    5  503    0 -0.12547642993E+02  0.49456117448E+02 -0.10044897891E+02  0.52214374183E+02  0.47000000000E+01 0. -1.
         -5    1    5    5    0  503  0.37312180541E+02 -0.66313566508E+02  0.22806197511E+02  0.79573240255E+02  0.47000000000E+01 0. -1.
<mgrwt>
<rscale>  0 0.27380069E+03</rscale>
<asrwt>0</asrwt>
<pdfrwt beam="1">  1        2 0.32569527E-01 0.27380069E+03</pdfrwt>
<pdfrwt beam="2">  1       -2 0.13619806E-01 0.27380069E+03</pdfrwt>
<totfact> 0.63819017E+03</totfact>
</mgrwt>
</event>
<event>
 9    1  0.2024718E-002  0.2754323E+03  0.7818608E-02  0.1098210E+00
         -2   -1    0    0    0  501 -0.00000000000E+00  0.00000000000E+00  0.90751139188E+03  0.90751139188E+03  0.00000000000E+00 0. -1.
          2   -1    0    0  501    0  0.00000000000E+00 -0.00000000000E+00 -0.20898629169E+02  0.20898629169E+02  0.00000000000E+00 0. -1.
         36    2    1    2    0    0  0.17763568394E-14  0.71054273576E-14  0.88661276271E+03  0.92841002105E+03  0.27543234411E+03 0.  0.
         25    2    3    3    0    0 -0.63225148755E+01 -0.38967417252E+02  0.55207785432E+03  0.56881625179E+03  0.13116225552E+03 0.  0.
         25    2    3    3    0    0  0.63225148755E+01  0.38967417252E+02  0.33453490840E+03  0.35959376926E+03  0.12583973996E+03 0.  0.
          5    1    4    4  502    0 -0.25209231608E+02  0.37120723681E+02  0.33387584590E+03  0.33691040940E+03  0.47000000000E+01 0.  1.
         -5    1    4    4    0  502  0.18886716733E+02 -0.76088140933E+02  0.21820200841E+03  0.23190584239E+03  0.47000000000E+01 0.  1.
          5    1    5    5  503    0 -0.29771860408E+01  0.68278457140E+01  0.32411834062E+03  0.32423798642E+03  0.47000000000E+01 0.  1.
         -5    1    5    5    0  503  0.92997009163E+01  0.32139571538E+02  0.10416567778E+02  0.35355782838E+02  0.47000000000E+01 0.  1.
<mgrwt>
<rscale>  0 0.27543234E+03</rscale>
<asrwt>0</asrwt>
<pdfrwt beam="1">  1        2 0.32151744E-02 0.27543234E+03</pdfrwt>
<pdfrwt beam="2">  1       -2 0.13961711E+00 0.27543234E+03</pdfrwt>
<totfact> 0.10866578E+03</totfact>
</mgrwt>
</event>
<event>
 9    1  0.2024718E-002  0.2744521E+03  0.7818608E-02  0.1098758E+00
         -1   -1    0    0    0  501 -0.00000000000E+00  0.00000000000E+00  0.85764321454E+03  0.85764321454E+03  0.00000000000E+00 0. -1.
          1   -1    0    0  501    0  0.00000000000E+00 -0.00000000000E+00 -0.21956676238E+02  0.21956676238E+02  0.00000000000E+00 0. -1.
         36    2    1    2    0    0 -0.71054273576E-14  0.35527136788E-14  0.83568653830E+03  0.87959989077E+03  0.27445214074E+03 0.  0.
         25    2    3    3    0    0 -0.58689283967E+02  0.29911087455E+02  0.39694831514E+03  0.41842915124E+03  0.11478625579E+03 0.  0.
         25    2    3    3    0    0  0.58689283967E+02 -0.29911087455E+02  0.43873822316E+03  0.46117073953E+03  0.12588930586E+03 0.  0.
          5    1    4    4  502    0 -0.10828854364E+02  0.35846415539E+02  0.34624318444E+03  0.34829393099E+03  0.47000000000E+01 0.  1.
         -5    1    4    4    0  502 -0.47860429602E+02 -0.59353280838E+01  0.50705130693E+02  0.70135220252E+02  0.47000000000E+01 0.  1.
          5    1    5    5  503    0 -0.28359050537E+02  0.25796826703E+02  0.11789855693E+03  0.12406398245E+03  0.47000000000E+01 0.  1.
         -5    1    5    5    0  503  0.87048334504E+02 -0.55707914158E+02  0.32083966623E+03  0.33710675708E+03  0.47000000000E+01 0.  1.
<mgrwt>
<rscale>  0 0.27445214E+03</rscale>
<asrwt>0</asrwt>
<pdfrwt beam="1">  1        1 0.33779509E-02 0.27445214E+03</pdfrwt>
<pdfrwt beam="2">  1       -1 0.13194508E+00 0.27445214E+03</pdfrwt>
<totfact> 0.15123066E+03</totfact>
</mgrwt>
</event>
<event>
 9    1  0.2024718E-002  0.2751478E+03  0.7818608E-02  0.1098369E+00
         -2   -1    0    0    0  501 -0.00000000000E+00  0.00000000000E+00  0.79735566596E+01  0.79735566596E+01  0.00000000000E+00 0.  1.
          2   -1    0    0  501    0  0.00000000000E+00 -0.00000000000E+00 -0.23736689587E+04  0.23736689587E+04  0.00000000000E+00 0.  1.
         36    2    1    2    0    0  0.00000000000E+00  0.71054273576E-14 -0.23656954021E+04  0.23816425154E+04  0.27514784341E+03 0.  0.
         25    2    3    3    0    0  0.21492787535E+00 -0.47433637713E+02 -0.13274217069E+04  0.13346948699E+04  0.13081288778E+03 0.  0.
         25    2    3    3    0    0 -0.21492787535E+00  0.47433637713E+02 -0.10382736952E+04  0.10469476455E+04  0.12584558050E+03 0.  0.
          5    1    4    4  502    0  0.34128082371E+02 -0.78995733730E+02 -0.10357744958E+04  0.10393536204E+04  0.47000000000E+01 0.  1.
         -5    1    4    4    0  502 -0.33913154495E+02  0.31562096017E+02 -0.29164721110E+03  0.29534124956E+03  0.47000000000E+01 0.  1.
          5    1    5    5  503    0 -0.46198210413E+02 -0.16737512111E+02 -0.56085646382E+03  0.56302440619E+03  0.47000000000E+01 0. -1.
         -5    1    5    5    0  503  0.45983282538E+02  0.64171149824E+02 -0.47741723133E+03  0.48392323928E+03  0.47000000000E+01 0. -1.
<mgrwt>
<rscale>  0 0.27514784E+03</rscale>
<asrwt>0</asrwt>
<pdfrwt beam="1">  1        2 0.36517966E+00 0.27514784E+03</pdfrwt>
<pdfrwt beam="2">  1       -2 0.12267016E-02 0.27514784E+03</pdfrwt>
<totfact> 0.74392675E+03</totfact>
</mgrwt>
</event>
<event>
 9    1  0.2024718E-002  0.2782864E+03  0.7818608E-02  0.1096629E+00
          2   -1    0    0  501    0  0.00000000000E+00  0.00000000000E+00  0.10802437144E+04  0.10802437144E+04  0.00000000000E+00 0. -1.
         -2   -1    0    0    0  501 -0.00000000000E+00 -0.00000000000E+00 -0.17922648082E+02  0.17922648082E+02  0.00000000000E+00 0. -1.
         36    2    1    2    0    0  0.00000000000E+00 -0.71054273576E-14  0.10623210663E+04  0.10981663625E+04  0.27828638441E+03 0.  0.
         25    2    3    3    0    0 -0.37746688799E+02 -0.35352212231E+02  0.53832427859E+03  0.55427992967E+03  0.12148506116E+03 0.  0.
         25    2    3    3    0    0  0.37746688799E+02  0.35352212231E+02  0.52399678774E+03  0.54388643283E+03  0.13625427270E+03 0.  0.
          5    1    4    4  502    0  0.33062054542E+02 -0.49360978559E+02  0.25420086465E+03  0.26109342244E+03  0.47000000000E+01 0.  1.
         -5    1    4    4    0  502 -0.70808743341E+02  0.14008766329E+02  0.28412341394E+03  0.29318650722E+03  0.47000000000E+01 0.  1.
          5    1    5    5  503    0 -0.26290045883E+02 -0.16405437139E+02  0.34927355900E+03  0.35067707923E+03  0.47000000000E+01 0. -1.
         -5    1    5    5    0  503  0.64036734682E+02  0.51757649370E+02  0.17472322873E+03  0.19320935359E+03  0.47000000000E+01 0. -1.
<mgrwt>
<rscale>  0 0.27828638E+03</rscale>
<asrwt>0</asrwt>
<pdfrwt beam="1">  1        2 0.16619129E+00 0.27828638E+03</pdfrwt>
<pdfrwt beam="2">  1       -2 0.27573313E-02 0.27828638E+03</pdfrwt>
<totfact> 0.11257837E+04</totfact>
</mgrwt>
</event>
<event>
 9    1  0.2024718E-002  0.2734591E+03  0.7818608E-02  0.1099316E+00
         -3   -1    0    0    0  501 -0.00000000000E+00  0.00000000000E+00  0.45495889934E+02  0.45495889934E+02  0.00000000000E+00 0.  1.
          3   -1    0    0  501    0  0.00000000000E+00 -0.00000000000E+00 -0.41091566685E+03  0.41091566685E+03  0.00000000000E+00 0.  1.
         36    2    1    2    0    0 -0.17763568394E-14  0.71054273576E-14 -0.36541977691E+03  0.45641155678E+03  0.27345913004E+03 0.  0.
         25    2    3    3    0    0 -0.49486695015E+01  0.55362903865E+02 -0.18827587134E+03  0.23445696114E+03  0.12819018077E+03 0.  0.
         25    2    3    3    0    0  0.49486695015E+01 -0.55362903865E+02 -0.17714390557E+03  0.22195459564E+03  0.12163198095E+03 0.  0.
          5    1    4    4  502    0 -0.18749416583E+01 -0.30006440099E+02 -0.12337333110E+03  0.12707073101E+03  0.47000000000E+01 0.  1.
         -5    1    4    4    0  502 -0.30737278432E+01  0.85369343965E+02 -0.64902540243E+02  0.10738623013E+03  0.47000000000E+01 0.  1.
          5    1    5    5  503    0 -0.31241911772E+02  0.24561018408E+02 -0.88590037964E+02  0.97208978510E+02  0.47000000000E+01 0. -1.
         -5    1    5    5    0  503  0.36190581274E+02 -0.79923922274E+02 -0.88553867609E+02  0.12474561713E+03  0.47000000000E+01 0. -1.
<mgrwt>
<rscale>  0 0.27345913E+03</rscale>
<asrwt>0</asrwt>
<pdfrwt beam="1">  1        3 0.63217797E-01 0.27345913E+03</pdfrwt>
<pdfrwt beam="2">  1       -3 0.69993674E-02 0.27345913E+03</pdfrwt>
<totfact> 0.83248906E+02</totfact>
</mgrwt>
</event>
<event>
 9    1  0.2024718E-002  0.2751479E+03  0.7818608E-02  0.1098369E+00
         -2   -1    0    0    0  501 -0.00000000000E+00  0.00000000000E+00  0.12352644971E+02  0.12352644971E+02  0.00000000000E+00 0. -1.
          2   -1    0    0  501    0  0.00000000000E+00 -0.00000000000E+00 -0.15321897958E+04  0.15321897958E+04  0.00000000000E+00 0. -1.
         36    2    1    2    0    0  0.00000000000E+00  0.00000000000E+00 -0.15198371508E+04  0.15445424408E+04  0.27514793530E+03 0.  0.
         25    2    3    3    0    0  0.72670448539E+01  0.92915593867E+01 -0.64549711242E+03  0.66075874946E+03  0.14069989278E+03 0.  0.
         25    2    3    3    0    0 -0.72670448539E+01 -0.92915593867E+01 -0.87434003842E+03  0.88378369133E+03  0.12831199183E+03 0.  0.
          5    1    4    4  502    0 -0.50841887563E+02 -0.19543195830E+02 -0.12794703970E+03  0.13913794954E+03  0.47000000000E+01 0. -1.
         -5    1    4    4    0  502  0.58108932417E+02  0.28834755217E+02 -0.51755007272E+03  0.52162079992E+03  0.47000000000E+01 0. -1.
          5    1    5    5  503    0  0.29549841673E+02  0.50344791026E+02 -0.40918725554E+03  0.41335709891E+03  0.47000000000E+01 0.  1.
         -5    1    5    5    0  503 -0.36816886527E+02 -0.59636350412E+02 -0.46515278289E+03  0.47042659241E+03  0.47000000000E+01 0.  1.
<mgrwt>
<rscale>  0 0.27514794E+03</rscale>
<asrwt>0</asrwt>
<pdfrwt beam="1">  1        2 0.23572132E+00 0.27514794E+03</pdfrwt>
<pdfrwt beam="2">  1       -2 0.19004084E-02 0.27514794E+03</pdfrwt>
<totfact> 0.10929718E+04</totfact>
</mgrwt>
</event>
<event>
 9    1  0.2024718E-002  0.2757913E+03  0.7818608E-02  0.1098010E+00
         -2   -1    0    0    0  501 -0.00000000000E+00  0.00000000000E+00  0.11483385080E+03  0.11483385080E+03  0.00000000000E+00 0.  1.
          2   -1    0    0  501    0  0.00000000000E+00 -0.00000000000E+00 -0.16558891084E+03  0.16558891084E+03  0.00000000000E+00 0.  1.
         36    2    1    2    0    0 -0.71054273576E-14  0.71054273576E-14 -0.50755060042E+02  0.28042276164E+03  0.27579131445E+03 0.  0.
         25    2    3    3    0    0 -0.38390933914E+02 -0.22178766332E+02 -0.60864720546E+02  0.14927003678E+03  0.12888470891E+03 0.  0.
         25    2    3    3    0    0  0.38390933914E+02  0.22178766332E+02  0.10109660504E+02  0.13115272486E+03  0.12301654572E+03 0.  0.
          5    1    4    4  502    0  0.29900271326E+02  0.33023931821E+02 -0.49688977117E+01  0.45070902396E+02  0.47000000000E+01 0.  1.
         -5    1    4    4    0  502 -0.68291205239E+02 -0.55202698153E+02 -0.55895822834E+02  0.10419913439E+03  0.47000000000E+01 0.  1.
          5    1    5    5  503    0  0.30376095912E+02  0.71774352289E+02 -0.56693416062E+01  0.78284712962E+02  0.47000000000E+01 0.  1.
         -5    1    5    5    0  503  0.80148380018E+01 -0.49595585957E+02  0.15779002110E+02  0.52868011899E+02  0.47000000000E+01 0.  1.
<mgrwt>
<rscale>  0 0.27579131E+03</rscale>
<asrwt>0</asrwt>
<pdfrwt beam="1">  1        2 0.25475217E-01 0.27579131E+03</pdfrwt>
<pdfrwt beam="2">  1       -2 0.17666746E-01 0.27579131E+03</pdfrwt>
<totfact> 0.54355963E+03</totfact>
</mgrwt>
</event>
<event>
 9    1  0.2024718E-002  0.2748517E+03  0.7818608E-02  0.1098535E+00
         -1   -1    0    0    0  501 -0.00000000000E+00  0.00000000000E+00  0.12765728351E+03  0.12765728351E+03  0.00000000000E+00 0. -1.
          1   -1    0    0  501    0  0.00000000000E+00 -0.00000000000E+00 -0.14794196316E+03  0.14794196316E+03  0.00000000000E+00 0. -1.
         36    2    1    2    0    0 -0.71054273576E-14 -0.71054273576E-14 -0.20284679650E+02  0.27559924666E+03  0.27485173555E+03 0.  0.
         25    2    3    3    0    0  0.38784942256E+02  0.26420725010E+02  0.18244216139E+02  0.13591774452E+03  0.12624759560E+03 0.  0.
         25    2    3    3    0    0 -0.38784942256E+02 -0.26420725010E+02 -0.38528895790E+02  0.13968150215E+03  0.12579395763E+03 0.  0.
          5    1    4    4  502    0  0.21045156952E+02 -0.25407393045E+02  0.58807069523E+02  0.67592867067E+02  0.47000000000E+01 0. -1.
         -5    1    4    4    0  502  0.17739785304E+02  0.51828118055E+02 -0.40562853383E+02  0.68324877449E+02  0.47000000000E+01 0. -1.
          5    1    5    5  503    0 -0.21065576192E+02  0.12177097755E+02  0.41857831622E+02  0.48643686930E+02  0.47000000000E+01 0. -1.
         -5    1    5    5    0  503 -0.17719366064E+02 -0.38597822765E+02 -0.80386727412E+02  0.91037815219E+02  0.47000000000E+01 0. -1.
<mgrwt>
<rscale>  0 0.27485174E+03</rscale>
<asrwt>0</asrwt>
<pdfrwt beam="1">  1        1 0.22760302E-01 0.27485174E+03</pdfrwt>
<pdfrwt beam="2">  1       -1 0.19639582E-01 0.27485174E+03</pdfrwt>
<totfact> 0.44569820E+03</totfact>
</mgrwt>
</event>
<event>
 9    1  0.2024718E-002  0.2774379E+03  0.7818608E-02  0.1097097E+00
         -2   -1    0    0    0  501 -0.00000000000E+00  0.00000000000E+00  0.75130448935E+01  0.75130448935E+01  0.00000000000E+00 0.  1.
          2   -1    0    0  501    0  0.00000000000E+00 -0.00000000000E+00 -0.25612719187E+04  0.25612719187E+04  0.00000000000E+00 0.  1.
         36    2    1    2    0    0 -0.14210854715E-13  0.71054273576E-14 -0.25537588738E+04  0.25687849636E+04  0.27743792754E+03 0.  0.
         25    2    3    3    0    0  0.41896917908E+02 -0.85449475651E+01 -0.16622364257E+04  0.16674814926E+04  0.12504489278E+03 0.  0.
         25    2    3    3    0    0 -0.41896917908E+02  0.85449475651E+01 -0.89152244806E+03  0.90130347100E+03  0.12532878193E+03 0.  0.
          5    1    4    4  502    0  0.80211502002E+02  0.13026101854E+02 -0.80488066157E+03  0.80898611468E+03  0.47000000000E+01 0. -1.
         -5    1    4    4    0  502 -0.38314584095E+02 -0.21571049419E+02 -0.85735576416E+03  0.85849537790E+03  0.47000000000E+01 0. -1.
          5    1    5    5  503    0 -0.77382610453E+01 -0.37791410640E+02 -0.70437215919E+03  0.70544333581E+03  0.47000000000E+01 0. -1.
         -5    1    5    5    0  503 -0.34158656862E+02  0.46336358205E+02 -0.18715028887E+03  0.19586013519E+03  0.47000000000E+01 0. -1.
<mgrwt>
<rscale>  0 0.27743793E+03</rscale>
<asrwt>0</asrwt>
<pdfrwt beam="1">  1        2 0.39404255E+00 0.27743793E+03</pdfrwt>
<pdfrwt beam="2">  1       -2 0.11558510E-02 0.27743793E+03</pdfrwt>
<totfact> 0.64075953E+03</totfact>
</mgrwt>
</event>
<event>
 9    1  0.2024718E-002  0.2768026E+03  0.7818608E-02  0.1097448E+00
          1   -1    0    0  501    0  0.00000000000E+00  0.00000000000E+00  0.16497475816E+04  0.16497475816E+04  0.00000000000E+00 0.  1.
         -1   -1    0    0    0  501 -0.00000000000E+00 -0.00000000000E+00 -0.11610816735E+02  0.11610816735E+02  0.00000000000E+00 0.  1.
         36    2    1    2    0    0  0.00000000000E+00  0.71054273576E-14  0.16381367649E+04  0.16613583983E+04  0.27680257824E+03 0.  0.
         25    2    3    3    0    0  0.24396153396E+02  0.56284187394E+02  0.77968191403E+03  0.79165810766E+03  0.12270122374E+03 0.  0.
         25    2    3    3    0    0 -0.24396153396E+02 -0.56284187394E+02  0.85845485083E+03  0.86970029067E+03  0.12518299656E+03 0.  0.
          5    1    4    4  502    0  0.67546799425E+02  0.24613709579E+02  0.28095864969E+03  0.29004871599E+03  0.47000000000E+01 0.  1.
         -5    1    4    4    0  502 -0.43150646028E+02  0.31670477814E+02  0.49872326434E+03  0.50160939167E+03  0.47000000000E+01 0.  1.
          5    1    5    5  503    0  0.48305204410E+02 -0.32681085231E+01  0.34255495584E+03  0.34599141764E+03  0.47000000000E+01 0.  1.
         -5    1    5    5    0  503 -0.72701357807E+02 -0.53016078871E+02  0.51589989499E+03  0.52370887303E+03  0.47000000000E+01 0.  1.
<mgrwt>
<rscale>  0 0.27680258E+03</rscale>
<asrwt>0</asrwt>
<pdfrwt beam="1">  1        1 0.25380713E+00 0.27680258E+03</pdfrwt>
<pdfrwt beam="2">  1       -1 0.17862808E-02 0.27680258E+03</pdfrwt>
<totfact> 0.46130294E+03</totfact>
</mgrwt>
</event>
<event>
 9    1  0.2024718E-002  0.2754911E+03  0.7818608E-02  0.1098177E+00
          1   -1    0    0  501    0  0.00000000000E+00  0.00000000000E+00  0.77104433938E+03  0.77104433938E+03  0.00000000000E+00 0. -1.
         -1   -1    0    0    0  501 -0.00000000000E+00 -0.00000000000E+00 -0.24607969836E+02  0.24607969836E+02  0.00000000000E+00 0. -1.
         36    2    1    2    0    0  0.71054273576E-14  0.00000000000E+00  0.74643636954E+03  0.79565230922E+03  0.27549109492E+03 0.  0.
         25    2    3    3    0    0  0.39456805691E+02  0.13156170851E+02  0.32483951525E+03  0.35182534968E+03  0.12857076519E+03 0.  0.
         25    2    3    3    0    0 -0.39456805691E+02 -0.13156170851E+02  0.42159685430E+03  0.44382695954E+03  0.13231983266E+03 0.  0.
          5    1    4    4  502    0  0.71672515918E+02  0.45790018919E+02  0.24798407484E+03  0.26220577176E+03  0.47000000000E+01 0.  1.
         -5    1    4    4    0  502 -0.32215710227E+02 -0.32633848068E+02  0.76855440408E+02  0.89619577914E+02  0.47000000000E+01 0.  1.
          5    1    5    5  503    0 -0.52394955859E+02  0.50743168788E+02  0.23574251737E+03  0.24681313797E+03  0.47000000000E+01 0.  1.
         -5    1    5    5    0  503  0.12938150168E+02 -0.63899339639E+02  0.18585433693E+03  0.19701382157E+03  0.47000000000E+01 0.  1.
<mgrwt>
<rscale>  0 0.27549109E+03</rscale>
<asrwt>0</asrwt>
<pdfrwt beam="1">  1        1 0.11862219E+00 0.27549109E+03</pdfrwt>
<pdfrwt beam="2">  1       -1 0.37858421E-02 0.27549109E+03</pdfrwt>
<totfact> 0.64972822E+03</totfact>
</mgrwt>
</event>
<event>
 9    1  0.2024718E-002  0.2750844E+03  0.7818608E-02  0.1098404E+00
          2   -1    0    0  501    0  0.00000000000E+00  0.00000000000E+00  0.54145837342E+03  0.54145837342E+03  0.00000000000E+00 0.  1.
         -2   -1    0    0    0  501 -0.00000000000E+00 -0.00000000000E+00 -0.34938700365E+02  0.34938700365E+02  0.00000000000E+00 0.  1.
         36    2    1    2    0    0 -0.71054273576E-14  0.17763568394E-14  0.50651967305E+03  0.57639707378E+03  0.27508436429E+03 0.  0.
         25    2    3    3    0    0  0.42094822912E+02  0.41539617832E+01  0.34567553740E+03  0.36737317213E+03  0.11697111150E+03 0.  0.
         25    2    3    3    0    0 -0.42094822912E+02 -0.41539617832E+01  0.16084413565E+03  0.20902390165E+03  0.12661329305E+03 0.  0.
          5    1    4    4  502    0 -0.33747438508E+02 -0.12102085379E+02  0.18966809526E+03  0.19308398804E+03  0.47000000000E+01 0. -1.
         -5    1    4    4    0  502  0.75842261420E+02  0.16256047162E+02  0.15600744214E+03  0.17428918409E+03  0.47000000000E+01 0. -1.
          5    1    5    5  503    0 -0.28169675504E+02 -0.29600807441E+02 -0.42353106894E+01  0.41349320137E+02  0.47000000000E+01 0.  1.
         -5    1    5    5    0  503 -0.13925147409E+02  0.25446845658E+02  0.16507944634E+03  0.16767458152E+03  0.47000000000E+01 0.  1.
<mgrwt>
<rscale>  0 0.27508436E+03</rscale>
<asrwt>0</asrwt>
<pdfrwt beam="1">  1        2 0.83301282E-01 0.27508436E+03</pdfrwt>
<pdfrwt beam="2">  1       -2 0.53751851E-02 0.27508436E+03</pdfrwt>
<totfact> 0.99107872E+03</totfact>
</mgrwt>
</event>
<event>
 9    1  0.2024718E-002  0.2753403E+03  0.7818608E-02  0.1098262E+00
          2   -1    0    0  501    0  0.00000000000E+00  0.00000000000E+00  0.69436230366E+02  0.69436230366E+02  0.00000000000E+00 0.  1.
         -2   -1    0    0    0  501 -0.00000000000E+00 -0.00000000000E+00 -0.27295657025E+03  0.27295657025E+03  0.00000000000E+00 0.  1.
         36    2    1    2    0    0 -0.71054273576E-14 -0.14210854715E-13 -0.20352033988E+03  0.34239280061E+03  0.27534033698E+03 0.  0.
         25    2    3    3    0    0  0.47540389490E+02  0.31995297127E+02 -0.11368964166E+03  0.17828276536E+03  0.12480233224E+03 0.  0.
         25    2    3    3    0    0 -0.47540389490E+02 -0.31995297127E+02 -0.89830698217E+02  0.16411003525E+03  0.12481490959E+03 0.  0.
          5    1    4    4  502    0 -0.38988008087E+02 -0.61172267382E+01 -0.17838575407E+02  0.43563631737E+02  0.47000000000E+01 0. -1.
         -5    1    4    4    0  502  0.86528397577E+02  0.38112523865E+02 -0.95851066256E+02  0.13471913363E+03  0.47000000000E+01 0. -1.
          5    1    5    5  503    0 -0.36827199948E+02  0.35134498906E+02 -0.80465134424E+02  0.95327873821E+02  0.47000000000E+01 0.  1.
         -5    1    5    5    0  503 -0.10713189541E+02 -0.67129796032E+02 -0.93655637921E+01  0.68782161427E+02  0.47000000000E+01 0.  1.
<mgrwt>
<rscale>  0 0.27534034E+03</rscale>
<asrwt>0</asrwt>
<pdfrwt beam="1">  1        2 0.10682497E-01 0.27534034E+03</pdfrwt>
<pdfrwt beam="2">  1       -2 0.41993318E-01 0.27534034E+03</pdfrwt>
<totfact> 0.31863629E+03</totfact>
</mgrwt>
</event>
<event>
 9    1  0.2024718E-002  0.2746851E+03  0.7818608E-02  0.1098628E+00
         -1   -1    0    0    0  501 -0.00000000000E+00  0.00000000000E+00  0.15879175066E+02  0.15879175066E+02  0.00000000000E+00 0. -1.
          1   -1    0    0  501    0  0.00000000000E+00 -0.00000000000E+00 -0.11879062981E+04  0.11879062981E+04  0.00000000000E+00 0. -1.
         36    2    1    2    0    0 -0.71054273576E-14  0.00000000000E+00 -0.11720271230E+04  0.12037854731E+04  0.27468507109E+03 0.  0.
         25    2    3    3    0    0 -0.51610749719E+02 -0.26801684325E+02 -0.63531881993E+03  0.64952663903E+03  0.12195430326E+03 0.  0.
         25    2    3    3    0    0  0.51610749719E+02  0.26801684325E+02 -0.53670830306E+03  0.55425883409E+03  0.12555896155E+03 0.  0.
          5    1    4    4  502    0 -0.41753108098E+02 -0.74352330294E+02 -0.36676178980E+03  0.37657388586E+03  0.47000000000E+01 0.  1.
         -5    1    4    4    0  502 -0.98576416216E+01  0.47550645969E+02 -0.26855703013E+03  0.27295275317E+03  0.47000000000E+01 0.  1.
          5    1    5    5  503    0  0.70207747318E+02  0.63852883896E+02 -0.33132030915E+03  0.34467601573E+03  0.47000000000E+01 0.  1.
         -5    1    5    5    0  503 -0.18596997599E+02 -0.37051199571E+02 -0.20538799391E+03  0.20958281836E+03  0.47000000000E+01 0.  1.
<mgrwt>
<rscale>  0 0.27468507E+03</rscale>
<asrwt>0</asrwt>
<pdfrwt beam="1">  1        1 0.18275485E+00 0.27468507E+03</pdfrwt>
<pdfrwt beam="2">  1       -1 0.24429495E-02 0.27468507E+03</pdfrwt>
<totfact> 0.59648692E+03</totfact>
</mgrwt>
</event>
<event>
 9    1  0.2024718E-002  0.2749083E+03  0.7818608E-02  0.1098503E+00
         -3   -1    0    0    0  501 -0.00000000000E+00  0.00000000000E+00  0.63652172473E+02  0.63652172473E+02  0.00000000000E+00 0.  1.
          3   -1    0    0  501    0  0.00000000000E+00 -0.00000000000E+00 -0.29682643897E+03  0.29682643897E+03  0.00000000000E+00 0.  1.
         36    2    1    2    0    0  0.35527136788E-14  0.00000000000E+00 -0.23317426650E+03  0.36047861144E+03  0.27490833154E+03 0.  0.
         25    2    3    3    0    0  0.84110981104E+01 -0.27573357447E+02 -0.47396615748E+02  0.13391271158E+03  0.12188165787E+03 0.  0.
         25    2    3    3    0    0 -0.84110981104E+01  0.27573357447E+02 -0.18577765075E+03  0.22656589987E+03  0.12644261486E+03 0.  0.
          5    1    4    4  502    0  0.32693953115E+02  0.12924107474E+02  0.27752245122E+02  0.45035588523E+02  0.47000000000E+01 0.  1.
         -5    1    4    4    0  502 -0.24282855004E+02 -0.40497464921E+02 -0.75148860870E+02  0.88877123053E+02  0.47000000000E+01 0.  1.
          5    1    5    5  503    0  0.39984477333E+02 -0.30139179045E+02 -0.48251418068E+02  0.69695178360E+02  0.47000000000E+01 0.  1.
         -5    1    5    5    0  503 -0.48395575444E+02  0.57712536492E+02 -0.13752623268E+03  0.15687072151E+03  0.47000000000E+01 0.  1.
<mgrwt>
<rscale>  0 0.27490833E+03</rscale>
<asrwt>0</asrwt>
<pdfrwt beam="1">  1        3 0.45665605E-01 0.27490833E+03</pdfrwt>
<pdfrwt beam="2">  1       -3 0.97926420E-02 0.27490833E+03</pdfrwt>
<totfact> 0.93047518E+02</totfact>
</mgrwt>
</event>
<event>
 9    1  0.2024718E-002  0.2775492E+03  0.7818608E-02  0.1097035E+00
          1   -1    0    0  501    0  0.00000000000E+00  0.00000000000E+00  0.24665544264E+04  0.24665544264E+04  0.00000000000E+00 0. -1.
         -1   -1    0    0    0  501 -0.00000000000E+00 -0.00000000000E+00 -0.78078085751E+01  0.78078085751E+01  0.00000000000E+00 0. -1.
         36    2    1    2    0    0  0.00000000000E+00  0.00000000000E+00  0.24587466178E+04  0.24743622349E+04  0.27754916538E+03 0.  0.
         25    2    3    3    0    0  0.42175114237E+02  0.23062449711E+02  0.15603410695E+04  0.15665180788E+04  0.13039946801E+03 0.  0.
         25    2    3    3    0    0 -0.42175114237E+02 -0.23062449711E+02  0.89840554831E+03  0.90784415614E+03  0.12139961184E+03 0.  0.
          5    1    4    4  502    0  0.59053505868E+02 -0.38007109258E+02  0.10263971301E+04  0.10288075698E+04  0.47000000000E+01 0.  1.
         -5    1    4    4    0  502 -0.16878391631E+02  0.61069558968E+02  0.53394393934E+03  0.53771050900E+03  0.47000000000E+01 0.  1.
          5    1    5    5  503    0  0.14769877571E+02  0.40921350548E+02  0.25193161004E+03  0.25570360254E+03  0.47000000000E+01 0. -1.
         -5    1    5    5    0  503 -0.56944991808E+02 -0.63983800259E+02  0.64647393827E+03  0.65214055360E+03  0.47000000000E+01 0. -1.
<mgrwt>
<rscale>  0 0.27754917E+03</rscale>
<asrwt>0</asrwt>
<pdfrwt beam="1">  1        1 0.37946929E+00 0.27754917E+03</pdfrwt>
<pdfrwt beam="2">  1       -1 0.12012033E-02 0.27754917E+03</pdfrwt>
<totfact> 0.24061847E+03</totfact>
</mgrwt>
</event>
<event>
 9    1  0.2024718E-002  0.2749378E+03  0.7818608E-02  0.1098486E+00
         -2   -1    0    0    0  501 -0.00000000000E+00  0.00000000000E+00  0.12629501565E+02  0.12629501565E+02  0.00000000000E+00 0. -1.
          2   -1    0    0  501    0  0.00000000000E+00 -0.00000000000E+00 -0.14963134045E+04  0.14963134045E+04  0.00000000000E+00 0. -1.
         36    2    1    2    0    0  0.71054273576E-14  0.35527136788E-14 -0.14836839029E+04  0.15089429060E+04  0.27493775647E+03 0.  0.
         25    2    3    3    0    0  0.41512501760E+02  0.17522016901E+02 -0.10000605453E+04  0.10088810283E+04  0.12525783884E+03 0.  0.
         25    2    3    3    0    0 -0.41512501760E+02 -0.17522016901E+02 -0.48362335763E+03  0.50006187773E+03  0.11891181871E+03 0.  0.
          5    1    4    4  502    0  0.71962121192E+02 -0.27456317202E+02 -0.51147750724E+03  0.51726562485E+03  0.47000000000E+01 0. -1.
         -5    1    4    4    0  502 -0.30449619432E+02  0.44978334104E+02 -0.48858303802E+03  0.49161540345E+03  0.47000000000E+01 0. -1.
          5    1    5    5  503    0 -0.40921987368E+02 -0.66332811266E+02 -0.29084790254E+03  0.30114654790E+03  0.47000000000E+01 0. -1.
         -5    1    5    5    0  503 -0.59051439174E+00  0.48810794365E+02 -0.19277545509E+03  0.19891532983E+03  0.47000000000E+01 0. -1.
<mgrwt>
<rscale>  0 0.27493776E+03</rscale>
<asrwt>0</asrwt>
<pdfrwt beam="1">  1        2 0.23020190E+00 0.27493776E+03</pdfrwt>
<pdfrwt beam="2">  1       -2 0.19430016E-02 0.27493776E+03</pdfrwt>
<totfact> 0.11056688E+04</totfact>
</mgrwt>
</event>
<event>
 9    1  0.2024718E-002  0.2750828E+03  0.7818608E-02  0.1098405E+00
          3   -1    0    0  501    0  0.00000000000E+00  0.00000000000E+00  0.54481626262E+02  0.54481626262E+02  0.00000000000E+00 0.  1.
         -3   -1    0    0    0  501 -0.00000000000E+00 -0.00000000000E+00 -0.34722955440E+03  0.34722955440E+03  0.00000000000E+00 0.  1.
         36    2    1    2    0    0 -0.71054273576E-14  0.71054273576E-14 -0.29274792814E+03  0.40171118066E+03  0.27508275707E+03 0.  0.
         25    2    3    3    0    0 -0.33789579041E+02 -0.21212710264E+00 -0.21467296414E+03  0.24993259038E+03  0.12345054698E+03 0.  0.
         25    2    3    3    0    0  0.33789579041E+02  0.21212710264E+00 -0.78074963994E+02  0.15177859028E+03  0.12569510657E+03 0.  0.
          5    1    4    4  502    0  0.23704780854E+02  0.43638611468E+02 -0.53102413719E+02  0.72857404490E+02  0.47000000000E+01 0.  1.
         -5    1    4    4    0  502 -0.57494359894E+02 -0.43850738571E+02 -0.16157055042E+03  0.17707518589E+03  0.47000000000E+01 0.  1.
          5    1    5    5  503    0 -0.28808779503E+02 -0.41447637811E+02 -0.13273555704E+02  0.52403527912E+02  0.47000000000E+01 0. -1.
         -5    1    5    5    0  503  0.62598358544E+02  0.41659764914E+02 -0.64801408290E+02  0.99375062372E+02  0.47000000000E+01 0. -1.
<mgrwt>
<rscale>  0 0.27508276E+03</rscale>
<asrwt>0</asrwt>
<pdfrwt beam="1">  1        3 0.83817887E-02 0.27508276E+03</pdfrwt>
<pdfrwt beam="2">  1       -3 0.53419931E-01 0.27508276E+03</pdfrwt>
<totfact> 0.87780315E+02</totfact>
</mgrwt>
</event>
<event>
 9    1  0.2024718E-002  0.2760813E+03  0.7818608E-02  0.1097849E+00
          2   -1    0    0  501    0  0.00000000000E+00  0.00000000000E+00  0.27508324242E+04  0.27508324242E+04  0.00000000000E+00 0. -1.
         -2   -1    0    0    0  501 -0.00000000000E+00 -0.00000000000E+00 -0.69270755216E+01  0.69270755216E+01  0.00000000000E+00 0. -1.
         36    2    1    2    0    0  0.00000000000E+00 -0.71054273576E-14  0.27439053487E+04  0.27577594997E+04  0.27608132099E+03 0.  0.
         25    2    3    3    0    0 -0.14345079149E+02  0.54967916987E+02  0.12082139486E+04  0.12157083090E+04  0.12222313117E+03 0.  0.
         25    2    3    3    0    0  0.14345079149E+02 -0.54967916987E+02  0.15356914000E+04  0.15420511907E+04  0.12785360898E+03 0.  0.
          5    1    4    4  502    0  0.20311692520E+02 -0.24990177555E+02  0.64042361513E+03  0.64125000635E+03  0.47000000000E+01 0.  1.
         -5    1    4    4    0  502 -0.34656771669E+02  0.79958094542E+02  0.56779033350E+03  0.57445830268E+03  0.47000000000E+01 0.  1.
          5    1    5    5  503    0 -0.50475869211E+02 -0.14881272358E+02  0.94030669994E+03  0.94178980967E+03  0.47000000000E+01 0. -1.
         -5    1    5    5    0  503  0.64820948361E+02 -0.40086644629E+02  0.59538470010E+03  0.60026138102E+03  0.47000000000E+01 0. -1.
<mgrwt>
<rscale>  0 0.27608132E+03</rscale>
<asrwt>0</asrwt>
<pdfrwt beam="1">  1        2 0.42320412E+00 0.27608132E+03</pdfrwt>
<pdfrwt beam="2">  1       -2 0.10657061E-02 0.27608132E+03</pdfrwt>
<totfact> 0.56482215E+03</totfact>
</mgrwt>
</event>
<event>
 9    1  0.2024718E-002  0.2732820E+03  0.7818608E-02  0.1099416E+00
          2   -1    0    0  501    0  0.00000000000E+00  0.00000000000E+00  0.16049058901E+03  0.16049058901E+03  0.00000000000E+00 0. -1.
         -2   -1    0    0    0  501 -0.00000000000E+00 -0.00000000000E+00 -0.11633559607E+03  0.11633559607E+03  0.00000000000E+00 0. -1.
         36    2    1    2    0    0  0.71054273576E-14  0.35527136788E-14  0.44154992941E+02  0.27682618509E+03  0.27328203993E+03 0.  0.
         25    2    3    3    0    0 -0.39651185679E+02  0.29281814399E+02  0.55465615800E+02  0.13918473949E+03  0.11775532256E+03 0.  0.
         25    2    3    3    0    0  0.39651185679E+02 -0.29281814399E+02 -0.11310622859E+02  0.13764144560E+03  0.12801404679E+03 0.  0.
          5    1    4    4  502    0  0.44767274709E+01  0.52523692589E+01 -0.34790284252E+02  0.35778238498E+02  0.47000000000E+01 0.  1.
         -5    1    4    4    0  502 -0.44127913150E+02  0.24029445140E+02  0.90255900052E+02  0.10340650099E+03  0.47000000000E+01 0.  1.
          5    1    5    5  503    0  0.65330120138E+01 -0.75680614680E+02  0.96627097479E+01  0.76718274512E+02  0.47000000000E+01 0. -1.
         -5    1    5    5    0  503  0.33118173666E+02  0.46398800282E+02 -0.20973332607E+02  0.60923171086E+02  0.47000000000E+01 0. -1.
<mgrwt>
<rscale>  0 0.27328204E+03</rscale>
<asrwt>0</asrwt>
<pdfrwt beam="1">  1        2 0.24690860E-01 0.27328204E+03</pdfrwt>
<pdfrwt beam="2">  1       -2 0.17897784E-01 0.27328204E+03</pdfrwt>
<totfact> 0.55051913E+03</totfact>
</mgrwt>
</event>
<event>
 9    1  0.2024718E-002  0.2819608E+03  0.7818608E-02  0.1094623E+00
          1   -1    0    0  501    0  0.00000000000E+00  0.00000000000E+00  0.25971764535E+03  0.25971764535E+03  0.00000000000E+00 0. -1.
         -1   -1    0    0    0  501 -0.00000000000E+00 -0.00000000000E+00 -0.76527207714E+02  0.76527207714E+02  0.00000000000E+00 0. -1.
         36    2    1    2    0    0  0.71054273576E-14 -0.71054273576E-14  0.18319043763E+03  0.33624485306E+03  0.28196075041E+03 0.  0.
         25    2    3    3    0    0  0.52565240388E+02 -0.40784817217E+02  0.96245471049E+02  0.17068151092E+03  0.12426778206E+03 0.  0.
         25    2    3    3    0    0 -0.52565240388E+02  0.40784817217E+02  0.86944966585E+02  0.16556334215E+03  0.12419857985E+03 0.  0.
          5    1    4    4  502    0  0.47285837420E+02  0.27192547812E+02  0.85457894768E+02  0.10149151125E+03  0.47000000000E+01 0.  1.
         -5    1    4    4    0  502  0.52794029686E+01 -0.67977365029E+02  0.10787576281E+02  0.69189999668E+02  0.47000000000E+01 0.  1.
          5    1    5    5  503    0 -0.66330509204E+02 -0.50917469759E+01  0.95700446789E+02  0.11664616519E+03  0.47000000000E+01 0.  1.
         -5    1    5    5    0  503  0.13765268815E+02  0.45876564193E+02 -0.87554802037E+01  0.48917176955E+02  0.47000000000E+01 0.  1.
<mgrwt>
<rscale>  0 0.28196075E+03</rscale>
<asrwt>0</asrwt>
<pdfrwt beam="1">  1        1 0.39956560E-01 0.28196075E+03</pdfrwt>
<pdfrwt beam="2">  1       -1 0.11773417E-01 0.28196075E+03</pdfrwt>
<totfact> 0.49401936E+03</totfact>
</mgrwt>
</event>
<event>
 9    1  0.2024718E-002  0.2740590E+03  0.7818608E-02  0.1098979E+00
         -2   -1    0    0    0  501 -0.00000000000E+00  0.00000000000E+00  0.78015042915E+03  0.78015042915E+03  0.00000000000E+00 0. -1.
          2   -1    0    0  501    0  0.00000000000E+00 -0.00000000000E+00 -0.24068540046E+02  0.24068540046E+02  0.00000000000E+00 0. -1.
         36    2    1    2    0    0 -0.35527136788E-14  0.71054273576E-14  0.75608188911E+03  0.80421896920E+03  0.27405898523E+03 0.  0.
         25    2    3    3    0    0  0.68783838551E+01 -0.51174529668E+02  0.33420751937E+03  0.36132822438E+03  0.12726851565E+03 0.  0.
         25    2    3    3    0    0 -0.68783838551E+01  0.51174529668E+02  0.42187436973E+03  0.44289074482E+03  0.12453145530E+03 0.  0.
          5    1    4    4  502    0 -0.53693749200E+02 -0.52278216402E+02  0.15792409139E+03  0.17486606090E+03  0.47000000000E+01 0. -1.
         -5    1    4    4    0  502  0.60572133055E+02  0.11036867334E+01  0.17628342798E+03  0.18646216348E+03  0.47000000000E+01 0. -1.
          5    1    5    5  503    0 -0.37060339266E+01  0.92377062721E+02  0.27021038187E+03  0.28562737417E+03  0.47000000000E+01 0. -1.
         -5    1    5    5    0  503 -0.31723499285E+01 -0.41202533053E+02  0.15166398786E+03  0.15726337065E+03  0.47000000000E+01 0. -1.
<mgrwt>
<rscale>  0 0.27405899E+03</rscale>
<asrwt>0</asrwt>
<pdfrwt beam="1">  1        2 0.37028529E-02 0.27405899E+03</pdfrwt>
<pdfrwt beam="2">  1       -2 0.12002312E+00 0.27405899E+03</pdfrwt>
<totfact> 0.13054604E+03</totfact>
</mgrwt>
</event>
<event>
 9    1  0.2024718E-002  0.2750565E+03  0.7818608E-02  0.1098420E+00
         -2   -1    0    0    0  501 -0.00000000000E+00  0.00000000000E+00  0.28645639990E+02  0.28645639990E+02  0.00000000000E+00 0.  1.
          2   -1    0    0  501    0  0.00000000000E+00 -0.00000000000E+00 -0.66027572924E+03  0.66027572924E+03  0.00000000000E+00 0.  1.
         36    2    1    2    0    0  0.00000000000E+00  0.00000000000E+00 -0.63163008925E+03  0.68892136923E+03  0.27505650935E+03 0.  0.
         25    2    3    3    0    0 -0.11462147360E+01  0.16502653066E+02 -0.17658058196E+03  0.21618363484E+03  0.12361638517E+03 0.  0.
         25    2    3    3    0    0  0.11462147360E+01 -0.16502653066E+02 -0.45504950729E+03  0.47273773439E+03  0.12703251575E+03 0.  0.
          5    1    4    4  502    0  0.39655304206E+02  0.54830427637E+02 -0.10796360958E+03  0.12750352913E+03  0.47000000000E+01 0.  1.
         -5    1    4    4    0  502 -0.40801518942E+02 -0.38327774570E+02 -0.68616972374E+02  0.88680105713E+02  0.47000000000E+01 0.  1.
          5    1    5    5  503    0 -0.48389074371E+02  0.28365304218E+02 -0.27320720488E+03  0.27894508384E+03  0.47000000000E+01 0.  1.
         -5    1    5    5    0  503  0.49535289107E+02 -0.44867957284E+02 -0.18184230241E+03  0.19379265054E+03  0.47000000000E+01 0.  1.
<mgrwt>
<rscale>  0 0.27505651E+03</rscale>
<asrwt>0</asrwt>
<pdfrwt beam="1">  1        2 0.10158088E+00 0.27505651E+03</pdfrwt>
<pdfrwt beam="2">  1       -2 0.44070217E-02 0.27505651E+03</pdfrwt>
<totfact> 0.10639839E+04</totfact>
</mgrwt>
</event>
<event>
 9    1  0.2024718E-002  0.2754396E+03  0.7818608E-02  0.1098206E+00
          1   -1    0    0  501    0  0.00000000000E+00  0.00000000000E+00  0.32112517260E+03  0.32112517260E+03  0.00000000000E+00 0.  1.
         -1   -1    0    0    0  501 -0.00000000000E+00 -0.00000000000E+00 -0.59063400753E+02  0.59063400753E+02  0.00000000000E+00 0.  1.
         36    2    1    2    0    0  0.00000000000E+00  0.00000000000E+00  0.26206177184E+03  0.38018857335E+03  0.27543961052E+03 0.  0.
         25    2    3    3    0    0 -0.55734281267E+02  0.14898473277E+02  0.12846968241E+03  0.18776080439E+03  0.12418287222E+03 0.  0.
         25    2    3    3    0    0  0.55734281267E+02 -0.14898473277E+02  0.13359208944E+03  0.19242776896E+03  0.12590998885E+03 0.  0.
          5    1    4    4  502    0 -0.33531358586E+02 -0.48234843702E+02  0.24059493239E+02  0.63654547132E+02  0.47000000000E+01 0.  1.
         -5    1    4    4    0  502 -0.22202922680E+02  0.63133316979E+02  0.10441018917E+03  0.12410625726E+03  0.47000000000E+01 0.  1.
          5    1    5    5  503    0  0.45889074635E+02  0.52548434613E+02  0.61775805165E+02  0.93303189951E+02  0.47000000000E+01 0.  1.
         -5    1    5    5    0  503  0.98452066312E+01 -0.67446907890E+02  0.71816284272E+02  0.99124579011E+02  0.47000000000E+01 0.  1.
<mgrwt>
<rscale>  0 0.27543961E+03</rscale>
<asrwt>0</asrwt>
<pdfrwt beam="1">  1        1 0.49403872E-01 0.27543961E+03</pdfrwt>
<pdfrwt beam="2">  1       -1 0.90866772E-02 0.27543961E+03</pdfrwt>
<totfact> 0.56468382E+03</totfact>
</mgrwt>
</event>
<event>
 9    1  0.2024718E-002  0.2740168E+03  0.7818608E-02  0.1099002E+00
          2   -1    0    0  501    0  0.00000000000E+00  0.00000000000E+00  0.63394019051E+02  0.63394019051E+02  0.00000000000E+00 0.  1.
         -2   -1    0    0    0  501 -0.00000000000E+00 -0.00000000000E+00 -0.29610526979E+03  0.29610526979E+03  0.00000000000E+00 0.  1.
         36    2    1    2    0    0 -0.35527136788E-14 -0.71054273576E-14 -0.23271125073E+03  0.35949928884E+03  0.27401681054E+03 0.  0.
         25    2    3    3    0    0 -0.30659155079E+02  0.37758997146E+02 -0.11008571823E+03  0.17327104234E+03  0.12465256956E+03 0.  0.
         25    2    3    3    0    0  0.30659155079E+02 -0.37758997146E+02 -0.12262553251E+03  0.18622824650E+03  0.13144661623E+03 0.  0.
          5    1    4    4  502    0 -0.77795371733E+02  0.34410349098E+02 -0.81166655588E+02  0.11767033597E+03  0.47000000000E+01 0. -1.
         -5    1    4    4    0  502  0.47136216654E+02  0.33486480474E+01 -0.28919062640E+02  0.55600706364E+02  0.47000000000E+01 0. -1.
          5    1    5    5  503    0  0.37717589709E+02  0.14553873938E+02  0.11265303955E+02  0.42230662951E+02  0.47000000000E+01 0.  1.
         -5    1    5    5    0  503 -0.70584346306E+01 -0.52312871083E+02 -0.13389083646E+03  0.14399758355E+03  0.47000000000E+01 0.  1.
<mgrwt>
<rscale>  0 0.27401681E+03</rscale>
<asrwt>0</asrwt>
<pdfrwt beam="1">  1        2 0.97529260E-02 0.27401681E+03</pdfrwt>
<pdfrwt beam="2">  1       -2 0.45554657E-01 0.27401681E+03</pdfrwt>
<totfact> 0.30447816E+03</totfact>
</mgrwt>
</event>
<event>
 9    1  0.2024718E-002  0.2752557E+03  0.7818608E-02  0.1098309E+00
         -2   -1    0    0    0  501 -0.00000000000E+00  0.00000000000E+00  0.21843647633E+02  0.21843647633E+02  0.00000000000E+00 0. -1.
          2   -1    0    0  501    0  0.00000000000E+00 -0.00000000000E+00 -0.86713635702E+03  0.86713635702E+03  0.00000000000E+00 0. -1.
         36    2    1    2    0    0  0.00000000000E+00 -0.10658141036E-13 -0.84529270939E+03  0.88898000465E+03  0.27525567048E+03 0.  0.
         25    2    3    3    0    0  0.41028197129E+02 -0.31682881977E+02 -0.36641963614E+03  0.39095174113E+03  0.12606663386E+03 0.  0.
         25    2    3    3    0    0 -0.41028197129E+02  0.31682881977E+02 -0.47887307325E+03  0.49802826353E+03  0.12659231026E+03 0.  0.
          5    1    4    4  502    0  0.14050925794E+02 -0.79347948544E+02 -0.19940708447E+03  0.21512508173E+03  0.47000000000E+01 0. -1.
         -5    1    4    4    0  502  0.26977271335E+02  0.47665066567E+02 -0.16701255167E+03  0.17582665939E+03  0.47000000000E+01 0. -1.
          5    1    5    5  503    0 -0.19057229809E+02 -0.25297086903E+02 -0.26599842303E+02  0.41626460627E+02  0.47000000000E+01 0. -1.
         -5    1    5    5    0  503 -0.21970967320E+02  0.56979968880E+02 -0.45227323095E+03  0.45640180290E+03  0.47000000000E+01 0. -1.
<mgrwt>
<rscale>  0 0.27525567E+03</rscale>
<asrwt>0</asrwt>
<pdfrwt beam="1">  1        2 0.13340560E+00 0.27525567E+03</pdfrwt>
<pdfrwt beam="2">  1       -2 0.33605610E-02 0.27525567E+03</pdfrwt>
<totfact> 0.11375173E+04</totfact>
</mgrwt>
</event>
<event>
 9    1  0.2024718E-002  0.2755478E+03  0.7818608E-02  0.1098146E+00
          2   -1    0    0  501    0  0.00000000000E+00  0.00000000000E+00  0.25671112603E+04  0.25671112603E+04  0.00000000000E+00 0.  1.
         -2   -1    0    0    0  501 -0.00000000000E+00 -0.00000000000E+00 -0.73941653764E+01  0.73941653764E+01  0.00000000000E+00 0.  1.
         36    2    1    2    0    0  0.00000000000E+00  0.00000000000E+00  0.25597170949E+04  0.25745054257E+04  0.27554778314E+03 0.  0.
         25    2    3    3    0    0  0.36754039330E+02 -0.46246368563E+02  0.11628514616E+04  0.11708328016E+04  0.12302983983E+03 0.  0.
         25    2    3    3    0    0 -0.36754039330E+02  0.46246368563E+02  0.13968656333E+04  0.14036726241E+04  0.12479443928E+03 0.  0.
          5    1    4    4  502    0  0.12128619511E+02 -0.30609719134E+02  0.11082553804E+04  0.11087543175E+04  0.47000000000E+01 0. -1.
         -5    1    4    4    0  502  0.24625419819E+02 -0.15636649429E+02  0.54596081185E+02  0.62078484094E+02  0.47000000000E+01 0. -1.
          5    1    5    5  503    0  0.41972917881E+02 -0.38465718464E+01  0.56121351180E+03  0.56281366168E+03  0.47000000000E+01 0.  1.
         -5    1    5    5    0  503 -0.78726957211E+02  0.50092940409E+02  0.83565212155E+03  0.84085896245E+03  0.47000000000E+01 0.  1.
<mgrwt>
<rscale>  0 0.27554778E+03</rscale>
<asrwt>0</asrwt>
<pdfrwt beam="1">  1        2 0.39493948E+00 0.27554778E+03</pdfrwt>
<pdfrwt beam="2">  1       -2 0.11375660E-02 0.27554778E+03</pdfrwt>
<totfact> 0.65099816E+03</totfact>
</mgrwt>
</event>
<event>
 9    1  0.2024718E-002  0.2753026E+03  0.7818608E-02  0.1098283E+00
          1   -1    0    0  501    0  0.00000000000E+00  0.00000000000E+00  0.66255182325E+02  0.66255182325E+02  0.00000000000E+00 0. -1.
         -1   -1    0    0    0  501 -0.00000000000E+00 -0.00000000000E+00 -0.28598332779E+03  0.28598332779E+03  0.00000000000E+00 0. -1.
         36    2    1    2    0    0 -0.71054273576E-14  0.00000000000E+00 -0.21972814546E+03  0.35223851011E+03  0.27530257917E+03 0.  0.
         25    2    3    3    0    0 -0.48682284128E+02  0.21469167987E+02 -0.70936964092E+02  0.15195162934E+03  0.12339511669E+03 0.  0.
         25    2    3    3    0    0  0.48682284128E+02 -0.21469167987E+02 -0.14879118137E+03  0.20028688077E+03  0.12306554755E+03 0.  0.
          5    1    4    4  502    0  0.19290513425E+02 -0.15225419701E+02 -0.70237123493E+02  0.74560584961E+02  0.47000000000E+01 0.  1.
         -5    1    4    4    0  502 -0.67972797553E+02  0.36694587688E+02 -0.69984059940E+00  0.77391044376E+02  0.47000000000E+01 0.  1.
          5    1    5    5  503    0 -0.34351461623E+02  0.20952158249E+02 -0.40049325332E+02  0.56965378174E+02  0.47000000000E+01 0. -1.
         -5    1    5    5    0  503  0.83033745751E+02 -0.42421326235E+02 -0.10874185604E+03  0.14332150260E+03  0.47000000000E+01 0. -1.
<mgrwt>
<rscale>  0 0.27530258E+03</rscale>
<asrwt>0</asrwt>
<pdfrwt beam="1">  1        1 0.10193105E-01 0.27530258E+03</pdfrwt>
<pdfrwt beam="2">  1       -1 0.43997436E-01 0.27530258E+03</pdfrwt>
<totfact> 0.32367158E+03</totfact>
</mgrwt>
</event>
<event>
 9    1  0.2024718E-002  0.2753540E+03  0.7818608E-02  0.1098254E+00
          1   -1    0    0  501    0  0.00000000000E+00  0.00000000000E+00  0.19345302923E+04  0.19345302923E+04  0.00000000000E+00 0. -1.
         -1   -1    0    0    0  501 -0.00000000000E+00 -0.00000000000E+00 -0.97982210406E+01  0.97982210406E+01  0.00000000000E+00 0. -1.
         36    2    1    2    0    0  0.71054273576E-14  0.00000000000E+00  0.19247320712E+04  0.19443285133E+04  0.27535399335E+03 0.  0.
         25    2    3    3    0    0 -0.53436699425E+02 -0.24337344599E+02  0.82707284160E+03  0.83788509267E+03  0.12064060685E+03 0.  0.
         25    2    3    3    0    0  0.53436699425E+02  0.24337344599E+02  0.10976592297E+04  0.11064434207E+04  0.12614860878E+03 0.  0.
          5    1    4    4  502    0  0.27857817517E+01 -0.23019319088E+02  0.67916220881E+03  0.67957416484E+03  0.47000000000E+01 0. -1.
         -5    1    4    4    0  502 -0.56222481177E+02 -0.13180255108E+01  0.14791063278E+03  0.15831092783E+03  0.47000000000E+01 0. -1.
          5    1    5    5  503    0  0.84800373571E+02  0.38544047684E+02  0.95785262970E+03  0.96238271867E+03  0.47000000000E+01 0.  1.
         -5    1    5    5    0  503 -0.31363674146E+02 -0.14206703085E+02  0.13980659995E+03  0.14406070199E+03  0.47000000000E+01 0.  1.
<mgrwt>
<rscale>  0 0.27535399E+03</rscale>
<asrwt>0</asrwt>
<pdfrwt beam="1">  1        1 0.29761974E+00 0.27535399E+03</pdfrwt>
<pdfrwt beam="2">  1       -1 0.15074202E-02 0.27535399E+03</pdfrwt>
<totfact> 0.38556633E+03</totfact>
</mgrwt>
</event>
<event>
 9    1  0.2024718E-002  0.2751214E+03  0.7818608E-02  0.1098384E+00
          1   -1    0    0  501    0  0.00000000000E+00  0.00000000000E+00  0.43267152976E+02  0.43267152976E+02  0.00000000000E+00 0. -1.
         -1   -1    0    0    0  501 -0.00000000000E+00 -0.00000000000E+00 -0.43735117610E+03  0.43735117610E+03  0.00000000000E+00 0. -1.
         36    2    1    2    0    0 -0.35527136788E-14  0.17763568394E-14 -0.39408402313E+03  0.48061832908E+03  0.27512135679E+03 0.  0.
         25    2    3    3    0    0 -0.22545191925E+02  0.17386606111E+01 -0.33185062454E+03  0.35492765756E+03  0.12384464653E+03 0.  0.
         25    2    3    3    0    0  0.22545191925E+02 -0.17386606111E+01 -0.62233398582E+02  0.12569067151E+03  0.10683557641E+03 0.  0.
          5    1    4    4  502    0 -0.62686315991E+02  0.34840891953E+02 -0.16206826746E+03  0.17728980592E+03  0.47000000000E+01 0.  1.
         -5    1    4    4    0  502  0.40141124066E+02 -0.33102231342E+02 -0.16978235708E+03  0.17763785165E+03  0.47000000000E+01 0.  1.
          5    1    5    5  503    0  0.49573231914E+02  0.20132097502E+01  0.77440292830E+01  0.50434297115E+02  0.47000000000E+01 0. -1.
         -5    1    5    5    0  503 -0.27028039990E+02 -0.37518703614E+01 -0.69977427865E+02  0.75256374398E+02  0.47000000000E+01 0. -1.
<mgrwt>
<rscale>  0 0.27512136E+03</rscale>
<asrwt>0</asrwt>
<pdfrwt beam="1">  1        1 0.66564854E-02 0.27512136E+03</pdfrwt>
<pdfrwt beam="2">  1       -1 0.67284793E-01 0.27512136E+03</pdfrwt>
<totfact> 0.25912003E+03</totfact>
</mgrwt>
</event>
<event>
 9    1  0.2024718E-002  0.2726666E+03  0.7818608E-02  0.1099763E+00
          2   -1    0    0  501    0  0.00000000000E+00  0.00000000000E+00  0.42942328869E+02  0.42942328869E+02  0.00000000000E+00 0.  1.
         -2   -1    0    0    0  501 -0.00000000000E+00 -0.00000000000E+00 -0.43283079321E+03  0.43283079321E+03  0.00000000000E+00 0.  1.
         36    2    1    2    0    0 -0.14210854715E-13  0.35527136788E-14 -0.38988846434E+03  0.47577312207E+03  0.27266655289E+03 0.  0.
         25    2    3    3    0    0  0.46749166873E+02  0.14463598051E+02 -0.24694716062E+03  0.27944168935E+03  0.12128510766E+03 0.  0.
         25    2    3    3    0    0 -0.46749166873E+02 -0.14463598051E+02 -0.14294130372E+03  0.19633143272E+03  0.12537597415E+03 0.  0.
          5    1    4    4  502    0 -0.26165645521E+02  0.45879085044E+01 -0.62319683877E+01  0.27687855460E+02  0.47000000000E+01 0.  1.
         -5    1    4    4    0  502  0.72914812393E+02  0.98756895463E+01 -0.24071519223E+03  0.25175383389E+03  0.47000000000E+01 0.  1.
          5    1    5    5  503    0  0.17623395629E+02 -0.54699427073E+02 -0.50729660034E+02  0.76799738299E+02  0.47000000000E+01 0. -1.
         -5    1    5    5    0  503 -0.64372562502E+02  0.40235829022E+02 -0.92211643687E+02  0.11953169442E+03  0.47000000000E+01 0. -1.
<mgrwt>
<rscale>  0 0.27266655E+03</rscale>
<asrwt>0</asrwt>
<pdfrwt beam="1">  1        2 0.66065119E-02 0.27266655E+03</pdfrwt>
<pdfrwt beam="2">  1       -2 0.66589355E-01 0.27266655E+03</pdfrwt>
<totfact> 0.23054007E+03</totfact>
</mgrwt>
</event>
<event>
 9    1  0.2024718E-002  0.2748724E+03  0.7818608E-02  0.1098523E+00
         -1   -1    0    0    0  501 -0.00000000000E+00  0.00000000000E+00  0.63171222397E+02  0.63171222397E+02  0.00000000000E+00 0.  1.
          1   -1    0    0  501    0  0.00000000000E+00 -0.00000000000E+00 -0.29900808252E+03  0.29900808252E+03  0.00000000000E+00 0.  1.
         36    2    1    2    0    0  0.00000000000E+00  0.14210854715E-13 -0.23583686013E+03  0.36217930492E+03  0.27487237824E+03 0.  0.
         25    2    3    3    0    0 -0.19369285648E+02 -0.34865519914E+02 -0.71907674672E+02  0.15128942006E+03  0.12699213062E+03 0.  0.
         25    2    3    3    0    0  0.19369285648E+02  0.34865519914E+02 -0.16392918545E+03  0.21088988486E+03  0.12653454859E+03 0.  0.
          5    1    4    4  502    0  0.27513335520E+02 -0.46796093026E+02  0.10619153216E+02  0.55513190946E+02  0.47000000000E+01 0.  1.
         -5    1    4    4    0  502 -0.46882621168E+02  0.11930573112E+02 -0.82526827888E+02  0.95776229116E+02  0.47000000000E+01 0.  1.
          5    1    5    5  503    0 -0.13722135357E+02 -0.42334649970E+02 -0.82250501439E+02  0.93636288766E+02  0.47000000000E+01 0. -1.
         -5    1    5    5    0  503  0.33091421005E+02  0.77200169884E+02 -0.81678684014E+02  0.11725359609E+03  0.47000000000E+01 0. -1.
<mgrwt>
<rscale>  0 0.27487238E+03</rscale>
<asrwt>0</asrwt>
<pdfrwt beam="1">  1        1 0.46001244E-01 0.27487238E+03</pdfrwt>
<pdfrwt beam="2">  1       -1 0.97186495E-02 0.27487238E+03</pdfrwt>
<totfact> 0.55696499E+03</totfact>
</mgrwt>
</event>
<event>
 9    1  0.2024718E-002  0.2849132E+03  0.7818608E-02  0.1093035E+00
         -2   -1    0    0    0  501 -0.00000000000E+00  0.00000000000E+00  0.55260294531E+02  0.55260294531E+02  0.00000000000E+00 0.  1.
          2   -1    0    0  501    0  0.00000000000E+00 -0.00000000000E+00 -0.36724169766E+03  0.36724169766E+03  0.00000000000E+00 0.  1.
         36    2    1    2    0    0  0.00000000000E+00  0.71054273576E-14 -0.31198140313E+03  0.42250199219E+03  0.28491321048E+03 0.  0.
         25    2    3    3    0    0  0.58036618029E+02 -0.28955994017E+02 -0.95411003035E+02  0.16508225686E+03  0.11807706555E+03 0.  0.
         25    2    3    3    0    0 -0.58036618029E+02  0.28955994017E+02 -0.21657040009E+03  0.25741973532E+03  0.12310760869E+03 0.  0.
          5    1    4    4  502    0 -0.11468100503E+02  0.33857122536E+02 -0.47851344682E+02  0.59913798607E+02  0.47000000000E+01 0.  1.
         -5    1    4    4    0  502  0.69504718533E+02 -0.62813116553E+02 -0.47559658352E+02  0.10516845826E+03  0.47000000000E+01 0.  1.
          5    1    5    5  503    0 -0.51611625338E+02  0.70993605195E+02 -0.99434001961E+02  0.13271421399E+03  0.47000000000E+01 0. -1.
         -5    1    5    5    0  503 -0.64249926914E+01 -0.42037611178E+02 -0.11713639813E+03  0.12470552134E+03  0.47000000000E+01 0. -1.
<mgrwt>
<rscale>  0 0.28491321E+03</rscale>
<asrwt>0</asrwt>
<pdfrwt beam="1">  1        2 0.56498723E-01 0.28491321E+03</pdfrwt>
<pdfrwt beam="2">  1       -2 0.85015838E-02 0.28491321E+03</pdfrwt>
<totfact> 0.74949689E+03</totfact>
</mgrwt>
</event>
<event>
 9    1  0.2024718E-002  0.2750580E+03  0.7818608E-02  0.1098419E+00
         -1   -1    0    0    0  501 -0.00000000000E+00  0.00000000000E+00  0.10941724486E+02  0.10941724486E+02  0.00000000000E+00 0. -1.
          1   -1    0    0  501    0  0.00000000000E+00 -0.00000000000E+00 -0.17286335979E+04  0.17286335979E+04  0.00000000000E+00 0. -1.
         36    2    1    2    0    0  0.00000000000E+00  0.00000000000E+00 -0.17176918735E+04  0.17395753224E+04  0.27505804890E+03 0.  0.
         25    2    3    3    0    0  0.17228126054E+02 -0.53095486861E+02 -0.95535960582E+03  0.96510600415E+03  0.12490670023E+03 0.  0.
         25    2    3    3    0    0 -0.17228126054E+02  0.53095486861E+02 -0.76233226764E+03  0.77446931828E+03  0.12464469352E+03 0.  0.
          5    1    4    4  502    0  0.34668948589E+02 -0.48100888957E+02 -0.93694881765E+03  0.93883481423E+03  0.47000000000E+01 0.  1.
         -5    1    4    4    0  502 -0.17440822535E+02 -0.49945979047E+01 -0.18410788177E+02  0.26271189928E+02  0.47000000000E+01 0.  1.
          5    1    5    5  503    0  0.21483996041E+01  0.82821933207E+02 -0.67506990569E+03  0.68015112718E+03  0.47000000000E+01 0. -1.
         -5    1    5    5    0  503 -0.19376525658E+02 -0.29726446346E+02 -0.87262361951E+02  0.94318191099E+02  0.47000000000E+01 0. -1.
<mgrwt>
<rscale>  0 0.27505805E+03</rscale>
<asrwt>0</asrwt>
<pdfrwt beam="1">  1        1 0.26594350E+00 0.27505805E+03</pdfrwt>
<pdfrwt beam="2">  1       -1 0.16833430E-02 0.27505805E+03</pdfrwt>
<totfact> 0.44675218E+03</totfact>
</mgrwt>
</event>
<event>
 9    1  0.2024718E-002  0.2761803E+03  0.7818608E-02  0.1097794E+00
         -3   -1    0    0    0  501 -0.00000000000E+00  0.00000000000E+00  0.43885098177E+03  0.43885098177E+03  0.00000000000E+00 0.  1.
          3   -1    0    0  501    0  0.00000000000E+00 -0.00000000000E+00 -0.43451840821E+02  0.43451840821E+02  0.00000000000E+00 0.  1.
         36    2    1    2    0    0  0.00000000000E+00  0.53290705182E-14  0.39539914095E+03  0.48230282259E+03  0.27618025276E+03 0.  0.
         25    2    3    3    0    0 -0.49111608718E+02 -0.10688596120E+02  0.15414262376E+03  0.20569130361E+03  0.12658107175E+03 0.  0.
         25    2    3    3    0    0  0.49111608718E+02  0.10688596120E+02  0.24125651719E+03  0.27661151898E+03  0.12563052634E+03 0.  0.
          5    1    4    4  502    0 -0.27963706904E+02 -0.65140167499E+02  0.52400752118E+02  0.88278758193E+02  0.47000000000E+01 0.  1.
         -5    1    4    4    0  502 -0.21147901814E+02  0.54451571378E+02  0.10174187164E+03  0.11741254542E+03  0.47000000000E+01 0.  1.
          5    1    5    5  503    0  0.31971481643E+02 -0.85727933573E+01  0.24743607756E+03  0.24968454278E+03  0.47000000000E+01 0.  1.
         -5    1    5    5    0  503  0.17140127074E+02  0.19261389477E+02 -0.61795603739E+01  0.26926976197E+02  0.47000000000E+01 0.  1.
<mgrwt>
<rscale>  0 0.27618025E+03</rscale>
<asrwt>0</asrwt>
<pdfrwt beam="1">  1        3 0.66848989E-02 0.27618025E+03</pdfrwt>
<pdfrwt beam="2">  1       -3 0.67515533E-01 0.27618025E+03</pdfrwt>
<totfact> 0.78080546E+02</totfact>
</mgrwt>
</event>
<event>
 9    1  0.2024718E-002  0.2753231E+03  0.7818608E-02  0.1098271E+00
         -1   -1    0    0    0  501 -0.00000000000E+00  0.00000000000E+00  0.22455834841E+03  0.22455834841E+03  0.00000000000E+00 0.  1.
          1   -1    0    0  501    0  0.00000000000E+00 -0.00000000000E+00 -0.84390973896E+02  0.84390973896E+02  0.00000000000E+00 0.  1.
         36    2    1    2    0    0  0.00000000000E+00 -0.71054273576E-14  0.14016737452E+03  0.30894932231E+03  0.27532306637E+03 0.  0.
         25    2    3    3    0    0 -0.48472836562E+02  0.17743451292E+02  0.43221032042E+02  0.14149378853E+03  0.12445074783E+03 0.  0.
         25    2    3    3    0    0  0.48472836562E+02 -0.17743451292E+02  0.96946342474E+02  0.16745553378E+03  0.12640536589E+03 0.  0.
          5    1    4    4  502    0 -0.76793650607E+02 -0.26241223666E+02  0.18141693900E+02  0.83289120842E+02  0.47000000000E+01 0.  1.
         -5    1    4    4    0  502  0.28320814045E+02  0.43984674958E+02  0.25079338142E+02  0.58204667690E+02  0.47000000000E+01 0.  1.
          5    1    5    5  503    0 -0.36057268114E+02 -0.30567530630E+02  0.17424911500E+02  0.50598597346E+02  0.47000000000E+01 0.  1.
         -5    1    5    5    0  503  0.84530104676E+02  0.12824079338E+02  0.79521430973E+02  0.11685693643E+03  0.47000000000E+01 0.  1.
<mgrwt>
<rscale>  0 0.27532307E+03</rscale>
<asrwt>0</asrwt>
<pdfrwt beam="1">  1        1 0.12983227E-01 0.27532307E+03</pdfrwt>
<pdfrwt beam="2">  1       -1 0.34547438E-01 0.27532307E+03</pdfrwt>
<totfact> 0.35948880E+03</totfact>
</mgrwt>
</event>
<event>
 9    1  0.2024718E-002  0.2743037E+03  0.7818608E-02  0.1098841E+00
         -2   -1    0    0    0  501 -0.00000000000E+00  0.00000000000E+00  0.19525224339E+02  0.19525224339E+02  0.00000000000E+00 0. -1.
          2   -1    0    0  501    0  0.00000000000E+00 -0.00000000000E+00 -0.96340173328E+03  0.96340173328E+03  0.00000000000E+00 0. -1.
         36    2    1    2    0    0 -0.88817841970E-15  0.00000000000E+00 -0.94387650894E+03  0.98292695762E+03  0.27430373655E+03 0.  0.
         25    2    3    3    0    0  0.16857380448E+01  0.45651844220E+02 -0.67873266983E+03  0.69185531518E+03  0.12609047326E+03 0.  0.
         25    2    3    3    0    0 -0.16857380448E+01 -0.45651844220E+02 -0.26514383911E+03  0.29107164244E+03  0.11106085279E+03 0.  0.
          5    1    4    4  502    0 -0.55872508664E+01 -0.22658193244E+02 -0.49614236335E+03  0.49671314237E+03  0.47000000000E+01 0.  1.
         -5    1    4    4    0  502  0.72729889111E+01  0.68310037464E+02 -0.18259030648E+03  0.19514217281E+03  0.47000000000E+01 0.  1.
          5    1    5    5  503    0 -0.55184505281E+02 -0.13584086852E+02 -0.11307429496E+03  0.12664021170E+03  0.47000000000E+01 0.  1.
         -5    1    5    5    0  503  0.53498767236E+02 -0.32067757368E+02 -0.15206954415E+03  0.16443143074E+03  0.47000000000E+01 0.  1.
<mgrwt>
<rscale>  0 0.27430374E+03</rscale>
<asrwt>0</asrwt>
<pdfrwt beam="1">  1        2 0.14821565E+00 0.27430374E+03</pdfrwt>
<pdfrwt beam="2">  1       -2 0.30038806E-02 0.27430374E+03</pdfrwt>
<totfact> 0.11665442E+04</totfact>
</mgrwt>
</event>
<event>
 9    1  0.2024718E-002  0.2749879E+03  0.7818608E-02  0.1098458E+00
         -1   -1    0    0    0  501 -0.00000000000E+00  0.00000000000E+00  0.95026914743E+01  0.95026914743E+01  0.00000000000E+00 0. -1.
          1   -1    0    0  501    0  0.00000000000E+00 -0.00000000000E+00 -0.19893931844E+04  0.19893931844E+04  0.00000000000E+00 0. -1.
         36    2    1    2    0    0  0.71054273576E-14  0.00000000000E+00 -0.19798904930E+04  0.19988958759E+04  0.27498792448E+03 0.  0.
         25    2    3    3    0    0 -0.34156332945E+02  0.26496203277E+02 -0.12445068024E+04  0.12519369020E+04  0.12915154470E+03 0.  0.
         25    2    3    3    0    0  0.34156332945E+02 -0.26496203277E+02 -0.73538369062E+03  0.74695897397E+03  0.12365206224E+03 0.  0.
          5    1    4    4  502    0 -0.70703370975E+02  0.37467881912E+02 -0.49527210761E+03  0.50171641334E+03  0.47000000000E+01 0.  1.
         -5    1    4    4    0  502  0.36547038030E+02 -0.10971678634E+02 -0.74923469474E+03  0.75022048861E+03  0.47000000000E+01 0.  1.
          5    1    5    5  503    0  0.66817071737E+02 -0.27987039503E+02 -0.24666856370E+03  0.25712888942E+03  0.47000000000E+01 0.  1.
         -5    1    5    5    0  503 -0.32660738792E+02  0.14908362253E+01 -0.48871512692E+03  0.48983008455E+03  0.47000000000E+01 0.  1.
<mgrwt>
<rscale>  0 0.27498792E+03</rscale>
<asrwt>0</asrwt>
<pdfrwt beam="1">  1        1 0.30606059E+00 0.27498792E+03</pdfrwt>
<pdfrwt beam="2">  1       -1 0.14619521E-02 0.27498792E+03</pdfrwt>
<totfact> 0.37140127E+03</totfact>
</mgrwt>
</event>
<event>
 9    1  0.2024718E-002  0.2752244E+03  0.7818608E-02  0.1098326E+00
         -1   -1    0    0    0  501 -0.00000000000E+00  0.00000000000E+00  0.41018831357E+02  0.41018831357E+02  0.00000000000E+00 0. -1.
          1   -1    0    0  501    0  0.00000000000E+00 -0.00000000000E+00 -0.46166876280E+03  0.46166876280E+03  0.00000000000E+00 0. -1.
         36    2    1    2    0    0  0.14210854715E-13  0.00000000000E+00 -0.42064993144E+03  0.50268759416E+03  0.27522436756E+03 0.  0.
         25    2    3    3    0    0  0.28802242770E+02  0.91128411989E+01 -0.11591188979E+03  0.17233164803E+03  0.12389518819E+03 0.  0.
         25    2    3    3    0    0 -0.28802242770E+02 -0.91128411989E+01 -0.30473804165E+03  0.33035594612E+03  0.12392402530E+03 0.  0.
          5    1    4    4  502    0 -0.44016221524E+02  0.15612050914E+02 -0.74848815378E+02  0.88349301381E+02  0.47000000000E+01 0. -1.
         -5    1    4    4    0  502  0.72818464294E+02 -0.64992097151E+01 -0.41063074413E+02  0.83982346653E+02  0.47000000000E+01 0. -1.
          5    1    5    5  503    0 -0.11319848553E+02 -0.18083588014E+02 -0.30894688166E+03  0.30971829267E+03  0.47000000000E+01 0.  1.
         -5    1    5    5    0  503 -0.17482394217E+02  0.89707468155E+01  0.42088400060E+01  0.20637653456E+02  0.47000000000E+01 0.  1.
<mgrwt>
<rscale>  0 0.27522437E+03</rscale>
<asrwt>0</asrwt>
<pdfrwt beam="1">  1        1 0.71025965E-01 0.27522437E+03</pdfrwt>
<pdfrwt beam="2">  1       -1 0.63105893E-02 0.27522437E+03</pdfrwt>
<totfact> 0.61830557E+03</totfact>
</mgrwt>
</event>
<event>
 9    1  0.2024718E-002  0.2751062E+03  0.7818608E-02  0.1098392E+00
         -1   -1    0    0    0  501 -0.00000000000E+00  0.00000000000E+00  0.28384523500E+02  0.28384523500E+02  0.00000000000E+00 0.  1.
          1   -1    0    0  501    0  0.00000000000E+00 -0.00000000000E+00 -0.66659073004E+03  0.66659073004E+03  0.00000000000E+00 0.  1.
         36    2    1    2    0    0  0.00000000000E+00 -0.71054273576E-14 -0.63820620654E+03  0.69497525354E+03  0.27510623578E+03 0.  0.
         25    2    3    3    0    0  0.44362175847E+02  0.20956698675E+02 -0.22155981723E+03  0.25794905949E+03  0.12264492985E+03 0.  0.
         25    2    3    3    0    0 -0.44362175847E+02 -0.20956698675E+02 -0.41664638931E+03  0.43702619405E+03  0.12243567574E+03 0.  0.
          5    1    4    4  502    0 -0.33917356287E+02  0.23215027233E+02 -0.13467484059E+03  0.14088551109E+03  0.47000000000E+01 0. -1.
         -5    1    4    4    0  502  0.78279532134E+02 -0.22583285584E+01 -0.86884976639E+02  0.11706354840E+03  0.47000000000E+01 0. -1.
          5    1    5    5  503    0  0.89025189162E+01 -0.63048328517E+02 -0.20036499865E+03  0.21029162907E+03  0.47000000000E+01 0.  1.
         -5    1    5    5    0  503 -0.53264694764E+02  0.42091629842E+02 -0.21628139066E+03  0.22673456498E+03  0.47000000000E+01 0.  1.
<mgrwt>
<rscale>  0 0.27510624E+03</rscale>
<asrwt>0</asrwt>
<pdfrwt beam="1">  1        1 0.10255242E+00 0.27510624E+03</pdfrwt>
<pdfrwt beam="2">  1       -1 0.43668498E-02 0.27510624E+03</pdfrwt>
<totfact> 0.65100996E+03</totfact>
</mgrwt>
</event>
<event>
 9    1  0.2024718E-002  0.2749715E+03  0.7818608E-02  0.1098468E+00
         -1   -1    0    0    0  501 -0.00000000000E+00  0.00000000000E+00  0.26241096403E+02  0.26241096403E+02  0.00000000000E+00 0.  1.
          1   -1    0    0  501    0  0.00000000000E+00 -0.00000000000E+00 -0.72033321438E+03  0.72033321438E+03  0.00000000000E+00 0.  1.
         36    2    1    2    0    0  0.00000000000E+00  0.00000000000E+00 -0.69409211797E+03  0.74657431078E+03  0.27497151359E+03 0.  0.
         25    2    3    3    0    0 -0.53811468542E+01 -0.26590163267E+02 -0.21446549720E+03  0.25041662962E+03  0.12640033773E+03 0.  0.
         25    2    3    3    0    0  0.53811468542E+01  0.26590163267E+02 -0.47962662077E+03  0.49615768116E+03  0.12407560474E+03 0.  0.
          5    1    4    4  502    0 -0.63573387198E+02 -0.24007559948E+02 -0.14058007092E+03  0.15621390730E+03  0.47000000000E+01 0. -1.
         -5    1    4    4    0  502  0.58192240344E+02 -0.25826033182E+01 -0.73885426283E+02  0.94202722323E+02  0.47000000000E+01 0. -1.
          5    1    5    5  503    0 -0.43646167945E+02  0.50092561423E+02 -0.18753516374E+03  0.19901201050E+03  0.47000000000E+01 0. -1.
         -5    1    5    5    0  503  0.49027314800E+02 -0.23502398156E+02 -0.29209145703E+03  0.29714567065E+03  0.47000000000E+01 0. -1.
<mgrwt>
<rscale>  0 0.27497151E+03</rscale>
<asrwt>0</asrwt>
<pdfrwt beam="1">  1        1 0.11082049E+00 0.27497151E+03</pdfrwt>
<pdfrwt beam="2">  1       -1 0.40370920E-02 0.27497151E+03</pdfrwt>
<totfact> 0.65371610E+03</totfact>
</mgrwt>
</event>
<event>
 9    1  0.2024718E-002  0.2749283E+03  0.7818608E-02  0.1098492E+00
          2   -1    0    0  501    0  0.00000000000E+00  0.00000000000E+00  0.10961624795E+04  0.10961624795E+04  0.00000000000E+00 0.  1.
         -2   -1    0    0    0  501 -0.00000000000E+00 -0.00000000000E+00 -0.17238681532E+02  0.17238681532E+02  0.00000000000E+00 0.  1.
         36    2    1    2    0    0  0.00000000000E+00  0.00000000000E+00  0.10789237980E+04  0.11134011611E+04  0.27492832442E+03 0.  0.
         25    2    3    3    0    0 -0.56304267219E+01 -0.54092534197E+02  0.45544053625E+03  0.47652908829E+03  0.12921372206E+03 0.  0.
         25    2    3    3    0    0  0.56304267219E+01  0.54092534197E+02  0.62348326176E+03  0.63687207278E+03  0.11797014636E+03 0.  0.
          5    1    4    4  502    0 -0.35583922240E+02 -0.39252555384E+02  0.62193370064E+02  0.81835712901E+02  0.47000000000E+01 0. -1.
         -5    1    4    4    0  502  0.29953495518E+02 -0.14839978814E+02  0.39324716618E+03  0.39469337539E+03  0.47000000000E+01 0. -1.
          5    1    5    5  503    0  0.60640693863E+02  0.38634470714E+02  0.37502320204E+03  0.38188271517E+03  0.47000000000E+01 0.  1.
         -5    1    5    5    0  503 -0.55010267141E+02  0.15458063483E+02  0.24846005972E+03  0.25498935761E+03  0.47000000000E+01 0.  1.
<mgrwt>
<rscale>  0 0.27492832E+03</rscale>
<asrwt>0</asrwt>
<pdfrwt beam="1">  1        2 0.16864033E+00 0.27492832E+03</pdfrwt>
<pdfrwt beam="2">  1       -2 0.26521057E-02 0.27492832E+03</pdfrwt>
<totfact> 0.11667383E+04</totfact>
</mgrwt>
</event>
<event>
 9    1  0.2024718E-002  0.2741170E+03  0.7818608E-02  0.1098946E+00
          2   -1    0    0  501    0  0.00000000000E+00  0.00000000000E+00  0.17403513408E+03  0.17403513408E+03  0.00000000000E+00 0.  1.
         -2   -1    0    0    0  501 -0.00000000000E+00 -0.00000000000E+00 -0.10793817799E+03  0.10793817799E+03  0.00000000000E+00 0.  1.
         36    2    1    2    0    0  0.00000000000E+00  0.71054273576E-14  0.66096956090E+02  0.28197331206E+03  0.27411702084E+03 0.  0.
         25    2    3    3    0    0  0.51516042582E+01  0.43150649881E+02  0.85665148572E+02  0.15495526939E+03  0.12158988535E+03 0.  0.
         25    2    3    3    0    0 -0.51516042582E+01 -0.43150649881E+02 -0.19568192482E+02  0.12701804267E+03  0.11773763798E+03 0.  0.
          5    1    4    4  502    0 -0.33334244706E+02  0.70164122957E+02  0.71350993079E+02  0.10558044437E+03  0.47000000000E+01 0. -1.
         -5    1    4    4    0  502  0.38485848964E+02 -0.27013473076E+02  0.14314155493E+02  0.49374825018E+02  0.47000000000E+01 0. -1.
          5    1    5    5  503    0 -0.31266585958E+02 -0.67537662278E+02  0.16124340200E+02  0.76295606494E+02  0.47000000000E+01 0. -1.
         -5    1    5    5    0  503  0.26114981700E+02  0.24387012397E+02 -0.35692532682E+02  0.50722436181E+02  0.47000000000E+01 0. -1.
<mgrwt>
<rscale>  0 0.27411702E+03</rscale>
<asrwt>0</asrwt>
<pdfrwt beam="1">  1        2 0.26774636E-01 0.27411702E+03</pdfrwt>
<pdfrwt beam="2">  1       -2 0.16605874E-01 0.27411702E+03</pdfrwt>
<totfact> 0.57045017E+03</totfact>
</mgrwt>
</event>
<event>
 9    1  0.2024718E-002  0.2750536E+03  0.7818608E-02  0.1098422E+00
          2   -1    0    0  501    0  0.00000000000E+00  0.00000000000E+00  0.59959197708E+03  0.59959197708E+03  0.00000000000E+00 0.  1.
         -2   -1    0    0    0  501 -0.00000000000E+00 -0.00000000000E+00 -0.31544153653E+02  0.31544153653E+02  0.00000000000E+00 0.  1.
         36    2    1    2    0    0 -0.71054273576E-14 -0.71054273576E-14  0.56804782343E+03  0.63113613073E+03  0.27505360535E+03 0.  0.
         25    2    3    3    0    0  0.53347327246E+02 -0.15934927492E+02  0.31620939353E+03  0.34532675349E+03  0.12713114047E+03 0.  0.
         25    2    3    3    0    0 -0.53347327246E+02  0.15934927492E+02  0.25183842989E+03  0.28580937724E+03  0.12314441161E+03 0.  0.
          5    1    4    4  502    0  0.18304420570E+02  0.35808752044E+02  0.25334658816E+03  0.25656169291E+03  0.47000000000E+01 0. -1.
         -5    1    4    4    0  502  0.35042906677E+02 -0.51743679536E+02  0.62862805372E+02  0.88765060578E+02  0.47000000000E+01 0. -1.
          5    1    5    5  503    0 -0.30881091552E+02  0.69652847126E+02  0.15336674181E+03  0.17131435556E+03  0.47000000000E+01 0. -1.
         -5    1    5    5    0  503 -0.22466235694E+02 -0.53717919634E+02  0.98471688083E+02  0.11449502168E+03  0.47000000000E+01 0. -1.
<mgrwt>
<rscale>  0 0.27505361E+03</rscale>
<asrwt>0</asrwt>
<pdfrwt beam="1">  1        2 0.92244910E-01 0.27505361E+03</pdfrwt>
<pdfrwt beam="2">  1       -2 0.48529472E-02 0.27505361E+03</pdfrwt>
<totfact> 0.10299184E+04</totfact>
</mgrwt>
</event>
<event>
 9    1  0.2024718E-002  0.2751563E+03  0.7818608E-02  0.1098364E+00
         -1   -1    0    0    0  501 -0.00000000000E+00  0.00000000000E+00  0.42649070783E+02  0.42649070783E+02  0.00000000000E+00 0.  1.
          1   -1    0    0  501    0  0.00000000000E+00 -0.00000000000E+00 -0.44380199192E+03  0.44380199192E+03  0.00000000000E+00 0.  1.
         36    2    1    2    0    0 -0.71054273576E-14 -0.71054273576E-14 -0.40115292114E+03  0.48645106271E+03  0.27515626518E+03 0.  0.
         25    2    3    3    0    0 -0.42022854625E+02  0.19567051860E+02 -0.24730453956E+03  0.28168086196E+03  0.12663247167E+03 0.  0.
         25    2    3    3    0    0  0.42022854625E+02 -0.19567051860E+02 -0.15384838159E+03  0.20477020074E+03  0.12693589235E+03 0.  0.
          5    1    4    4  502    0  0.18008738051E+02 -0.18206179713E+02 -0.18057454252E+01  0.26098473949E+02  0.47000000000E+01 0. -1.
         -5    1    4    4    0  502 -0.60031592676E+02  0.37773231573E+02 -0.24549879413E+03  0.25558238801E+03  0.47000000000E+01 0. -1.
          5    1    5    5  503    0 -0.30401100611E+02  0.20041083191E+02 -0.98901822086E+02  0.10549659874E+03  0.47000000000E+01 0. -1.
         -5    1    5    5    0  503  0.72423955236E+02 -0.39608135051E+02 -0.54946559499E+02  0.99273602005E+02  0.47000000000E+01 0. -1.
<mgrwt>
<rscale>  0 0.27515627E+03</rscale>
<asrwt>0</asrwt>
<pdfrwt beam="1">  1        1 0.68277227E-01 0.27515627E+03</pdfrwt>
<pdfrwt beam="2">  1       -1 0.65613957E-02 0.27515627E+03</pdfrwt>
<totfact> 0.61370869E+03</totfact>
</mgrwt>
</event>
<event>
 9    1  0.2024718E-002  0.2765822E+03  0.7818608E-02  0.1097570E+00
         -4   -1    0    0    0  501 -0.00000000000E+00  0.00000000000E+00  0.17817457665E+03  0.17817457665E+03  0.00000000000E+00 0.  1.
          4   -1    0    0  501    0  0.00000000000E+00 -0.00000000000E+00 -0.10733532787E+03  0.10733532787E+03  0.00000000000E+00 0.  1.
         36    2    1    2    0    0 -0.88817841970E-15  0.71054273576E-14  0.70839248784E+02  0.28550990452E+03  0.27658218745E+03 0.  0.
         25    2    3    3    0    0 -0.34539795902E+01  0.47155488435E+02  0.68544405209E+02  0.15122841365E+03  0.12623837588E+03 0.  0.
         25    2    3    3    0    0  0.34539795902E+01 -0.47155488435E+02  0.22948435753E+01  0.13428149087E+03  0.12566098209E+03 0.  0.
          5    1    4    4  502    0  0.50529946215E+02  0.24361918844E+01 -0.30774963644E+01  0.50899621602E+02  0.47000000000E+01 0. -1.
         -5    1    4    4    0  502 -0.53983925805E+02  0.44719296551E+02  0.71621901574E+02  0.10032879205E+03  0.47000000000E+01 0. -1.
          5    1    5    5  503    0 -0.66276651304E+01 -0.19883842781E+02  0.63134036583E+02  0.66688002850E+02  0.47000000000E+01 0.  1.
         -5    1    5    5    0  503  0.10081644721E+02 -0.27271645655E+02 -0.60839193008E+02  0.67593488021E+02  0.47000000000E+01 0.  1.
<mgrwt>
<rscale>  0 0.27658219E+03</rscale>
<asrwt>0</asrwt>
<pdfrwt beam="1">  1        4 0.16513127E-01 0.27658219E+03</pdfrwt>
<pdfrwt beam="2">  1       -4 0.27411473E-01 0.27658219E+03</pdfrwt>
<totfact> 0.75290192E+02</totfact>
</mgrwt>
</event>
<event>
 9    1  0.2024718E-002  0.2752144E+03  0.7818608E-02  0.1098332E+00
          2   -1    0    0  501    0  0.00000000000E+00  0.00000000000E+00  0.62103685116E+03  0.62103685116E+03  0.00000000000E+00 0. -1.
         -2   -1    0    0    0  501 -0.00000000000E+00 -0.00000000000E+00 -0.30490527212E+02  0.30490527212E+02  0.00000000000E+00 0. -1.
         36    2    1    2    0    0 -0.71054273576E-14  0.00000000000E+00  0.59054632395E+03  0.65152737837E+03  0.27521439650E+03 0.  0.
         25    2    3    3    0    0 -0.16829986548E+02 -0.30375209863E+02  0.31263775852E+03  0.34480028445E+03  0.14120540460E+03 0.  0.
         25    2    3    3    0    0  0.16829986548E+02  0.30375209863E+02  0.27790856543E+03  0.30672709392E+03  0.12506973087E+03 0.  0.
          5    1    4    4  502    0  0.38851223319E+02 -0.66152732400E+02  0.13765055812E+03  0.15765585212E+03  0.47000000000E+01 0. -1.
         -5    1    4    4    0  502 -0.55681209867E+02  0.35777522537E+02  0.17498720040E+03  0.18714443233E+03  0.47000000000E+01 0. -1.
          5    1    5    5  503    0  0.64291979147E+02  0.22855500140E+02  0.91923521292E+02  0.11457685733E+03  0.47000000000E+01 0. -1.
         -5    1    5    5    0  503 -0.47461992599E+02  0.75197097229E+01  0.18598504414E+03  0.19215023659E+03  0.47000000000E+01 0. -1.
<mgrwt>
<rscale>  0 0.27521440E+03</rscale>
<asrwt>0</asrwt>
<pdfrwt beam="1">  1        2 0.95544121E-01 0.27521440E+03</pdfrwt>
<pdfrwt beam="2">  1       -2 0.46908508E-02 0.27521440E+03</pdfrwt>
<totfact> 0.10408300E+04</totfact>
</mgrwt>
</event>
<event>
 9    1  0.2024718E-002  0.2746098E+03  0.7818608E-02  0.1098670E+00
         -2   -1    0    0    0  501 -0.00000000000E+00  0.00000000000E+00  0.18434251079E+02  0.18434251079E+02  0.00000000000E+00 0.  1.
          2   -1    0    0  501    0  0.00000000000E+00 -0.00000000000E+00 -0.10226962197E+04  0.10226962197E+04  0.00000000000E+00 0.  1.
         36    2    1    2    0    0 -0.71054273576E-14  0.35527136788E-14 -0.10042619686E+04  0.10411304708E+04  0.27460982423E+03 0.  0.
         25    2    3    3    0    0 -0.34929071511E+02  0.31181986155E+02 -0.81963109218E+03  0.82759592329E+03  0.10453482047E+03 0.  0.
         25    2    3    3    0    0  0.34929071511E+02 -0.31181986155E+02 -0.18463087644E+03  0.21353454748E+03  0.96519874305E+02 0.  0.
          5    1    4    4  502    0 -0.71097911038E+02  0.26813438909E+02 -0.61495951227E+03  0.61965406897E+03  0.47000000000E+01 0. -1.
         -5    1    4    4    0  502  0.36168839527E+02  0.43685472457E+01 -0.20467157991E+03  0.20794185432E+03  0.47000000000E+01 0. -1.
          5    1    5    5  503    0  0.27917997701E+02  0.30240370744E+01 -0.17459462049E+03  0.17690090700E+03  0.47000000000E+01 0. -1.
         -5    1    5    5    0  503  0.70110738106E+01 -0.34206023229E+02 -0.10036255954E+02  0.36633640479E+02  0.47000000000E+01 0. -1.
<mgrwt>
<rscale>  0 0.27460982E+03</rscale>
<asrwt>0</asrwt>
<pdfrwt beam="1">  1        2 0.15733791E+00 0.27460982E+03</pdfrwt>
<pdfrwt beam="2">  1       -2 0.28360381E-02 0.27460982E+03</pdfrwt>
<totfact> 0.11684153E+04</totfact>
</mgrwt>
</event>
<event>
 9    1  0.2024718E-002  0.2752813E+03  0.7818608E-02  0.1098294E+00
         -1   -1    0    0    0  501 -0.00000000000E+00  0.00000000000E+00  0.20873128948E+03  0.20873128948E+03  0.00000000000E+00 0. -1.
          1   -1    0    0  501    0  0.00000000000E+00 -0.00000000000E+00 -0.90762403308E+02  0.90762403308E+02  0.00000000000E+00 0. -1.
         36    2    1    2    0    0 -0.35527136788E-14  0.00000000000E+00  0.11796888617E+03  0.29949369279E+03  0.27528133594E+03 0.  0.
         25    2    3    3    0    0 -0.40444461067E+01  0.32369027950E+02  0.87401846876E+01  0.12975115250E+03  0.12527912529E+03 0.  0.
         25    2    3    3    0    0  0.40444461067E+01 -0.32369027950E+02  0.10922870149E+03  0.16974254029E+03  0.12576767963E+03 0.  0.
          5    1    4    4  502    0 -0.44561553667E+02  0.47665633042E+02  0.39502450296E+02  0.76421713000E+02  0.47000000000E+01 0.  1.
         -5    1    4    4    0  502  0.40517107561E+02 -0.15296605092E+02 -0.30762265608E+02  0.53329439504E+02  0.47000000000E+01 0.  1.
          5    1    5    5  503    0  0.24174670700E+02  0.43113838742E+02  0.28250497612E+02  0.57126162219E+02  0.47000000000E+01 0. -1.
         -5    1    5    5    0  503 -0.20130224594E+02 -0.75482866692E+02  0.80978203874E+02  0.11261637807E+03  0.47000000000E+01 0. -1.
<mgrwt>
<rscale>  0 0.27528134E+03</rscale>
<asrwt>0</asrwt>
<pdfrwt beam="1">  1        1 0.13963447E-01 0.27528134E+03</pdfrwt>
<pdfrwt beam="2">  1       -1 0.32112506E-01 0.27528134E+03</pdfrwt>
<totfact> 0.37042579E+03</totfact>
</mgrwt>
</event>
<event>
 9    1  0.2024718E-002  0.2814623E+03  0.7818608E-02  0.1094893E+00
         -2   -1    0    0    0  501 -0.00000000000E+00  0.00000000000E+00  0.16642695064E+03  0.16642695064E+03  0.00000000000E+00 0. -1.
          2   -1    0    0  501    0  0.00000000000E+00 -0.00000000000E+00 -0.11900266808E+03  0.11900266808E+03  0.00000000000E+00 0. -1.
         36    2    1    2    0    0 -0.35527136788E-14  0.35527136788E-14  0.47424282560E+02  0.28542961871E+03  0.28146226152E+03 0.  0.
         25    2    3    3    0    0 -0.22442049575E+02  0.61807751454E+00  0.95000989318E+02  0.15799630155E+03  0.12423210424E+03 0.  0.
         25    2    3    3    0    0  0.22442049575E+02 -0.61807751454E+00 -0.47576706758E+02  0.12743331716E+03  0.11606756519E+03 0.  0.
          5    1    4    4  502    0  0.13502684394E+02 -0.28775973858E+02  0.10539348519E+03  0.11018282932E+03  0.47000000000E+01 0. -1.
         -5    1    4    4    0  502 -0.35944733969E+02  0.29394051373E+02 -0.10392495869E+02  0.47813472229E+02  0.47000000000E+01 0. -1.
          5    1    5    5  503    0  0.54187205556E+02  0.39043914286E+02 -0.31063851328E+02  0.73808762001E+02  0.47000000000E+01 0. -1.
         -5    1    5    5    0  503 -0.31745155981E+02 -0.39661991800E+02 -0.16512855429E+02  0.53624555162E+02  0.47000000000E+01 0. -1.
<mgrwt>
<rscale>  0 0.28146226E+03</rscale>
<asrwt>0</asrwt>
<pdfrwt beam="1">  1        2 0.18308103E-01 0.28146226E+03</pdfrwt>
<pdfrwt beam="2">  1       -2 0.25604146E-01 0.28146226E+03</pdfrwt>
<totfact> 0.41724224E+03</totfact>
</mgrwt>
</event>
<event>
 9    1  0.2024718E-002  0.2727035E+03  0.7818608E-02  0.1099742E+00
         -2   -1    0    0    0  501 -0.00000000000E+00  0.00000000000E+00  0.62964021034E+02  0.62964021034E+02  0.00000000000E+00 0. -1.
          2   -1    0    0  501    0  0.00000000000E+00 -0.00000000000E+00 -0.29527653101E+03  0.29527653101E+03  0.00000000000E+00 0. -1.
         36    2    1    2    0    0 -0.71054273576E-14  0.71054273576E-14 -0.23231250998E+03  0.35824055204E+03  0.27270348520E+03 0.  0.
         25    2    3    3    0    0  0.18017705668E+02 -0.52203071433E+02 -0.10475693510E+03  0.17226574249E+03  0.12510664330E+03 0.  0.
         25    2    3    3    0    0 -0.18017705668E+02  0.52203071433E+02 -0.12755557488E+03  0.18597480956E+03  0.12355730138E+03 0.  0.
          5    1    4    4  502    0 -0.35969590066E+02  0.23694712584E+02 -0.37230892949E+02  0.57126878119E+02  0.47000000000E+01 0.  1.
         -5    1    4    4    0  502  0.53987295734E+02 -0.75897784017E+02 -0.67526042150E+02  0.11513886437E+03  0.47000000000E+01 0.  1.
          5    1    5    5  503    0  0.18230242059E+02  0.79621526296E+02 -0.10985266945E+03  0.13697309283E+03  0.47000000000E+01 0. -1.
         -5    1    5    5    0  503 -0.36247947727E+02 -0.27418454862E+02 -0.17702905429E+02  0.49001716726E+02  0.47000000000E+01 0. -1.
<mgrwt>
<rscale>  0 0.27270349E+03</rscale>
<asrwt>0</asrwt>
<pdfrwt beam="1">  1        2 0.45427157E-01 0.27270349E+03</pdfrwt>
<pdfrwt beam="2">  1       -2 0.96867727E-02 0.27270349E+03</pdfrwt>
<totfact> 0.77049209E+03</totfact>
</mgrwt>
</event>
<event>
 9    1  0.2024718E-002  0.2738623E+03  0.7818608E-02  0.1099089E+00
          2   -1    0    0  501    0  0.00000000000E+00  0.00000000000E+00  0.80295091046E+03  0.80295091046E+03  0.00000000000E+00 0.  1.
         -2   -1    0    0    0  501 -0.00000000000E+00 -0.00000000000E+00 -0.23351531497E+02  0.23351531497E+02  0.00000000000E+00 0.  1.
         36    2    1    2    0    0  0.17763568394E-14  0.35527136788E-14  0.77959937896E+03  0.82630244196E+03  0.27386225352E+03 0.  0.
         25    2    3    3    0    0  0.59926929950E+01  0.25591945186E+02  0.23882867345E+03  0.27071206429E+03  0.12471979179E+03 0.  0.
         25    2    3    3    0    0 -0.59926929950E+01 -0.25591945186E+02  0.54077070552E+03  0.55559037767E+03  0.12472710925E+03 0.  0.
          5    1    4    4  502    0  0.67140173504E+01 -0.47853072237E+02  0.59013671264E+02  0.76417916404E+02  0.47000000000E+01 0. -1.
         -5    1    4    4    0  502 -0.72132435539E+00  0.73445017423E+02  0.17981500218E+03  0.19429414789E+03  0.47000000000E+01 0. -1.
          5    1    5    5  503    0 -0.29710270014E+02  0.25810438048E+02  0.42281993594E+03  0.42467360064E+03  0.47000000000E+01 0.  1.
         -5    1    5    5    0  503  0.23717577019E+02 -0.51402383235E+02  0.11795076958E+03  0.13091677702E+03  0.47000000000E+01 0.  1.
<mgrwt>
<rscale>  0 0.27386225E+03</rscale>
<asrwt>0</asrwt>
<pdfrwt beam="1">  1        2 0.12353089E+00 0.27386225E+03</pdfrwt>
<pdfrwt beam="2">  1       -2 0.35925439E-02 0.27386225E+03</pdfrwt>
<totfact> 0.11370175E+04</totfact>
</mgrwt>
</event>
<event>
 9    1  0.2024718E-002  0.2720272E+03  0.7818608E-02  0.1100125E+00
         -2   -1    0    0    0  501 -0.00000000000E+00  0.00000000000E+00  0.14205864203E+03  0.14205864203E+03  0.00000000000E+00 0.  1.
          2   -1    0    0  501    0  0.00000000000E+00 -0.00000000000E+00 -0.13022575946E+03  0.13022575946E+03  0.00000000000E+00 0.  1.
         36    2    1    2    0    0  0.00000000000E+00  0.00000000000E+00  0.11832882567E+02  0.27228440149E+03  0.27202716443E+03 0.  0.
         25    2    3    3    0    0  0.34161117227E+02 -0.30590150731E+02 -0.15414024880E+02  0.13792664021E+03  0.12916433976E+03 0.  0.
         25    2    3    3    0    0 -0.34161117227E+02  0.30590150731E+02  0.27246907447E+02  0.13435776128E+03  0.12331615790E+03 0.  0.
          5    1    4    4  502    0 -0.19275245705E+02  0.40200156096E+02  0.91924887448E+01  0.45762205983E+02  0.47000000000E+01 0.  1.
         -5    1    4    4    0  502  0.53436362933E+02 -0.70790306827E+02 -0.24606513625E+02  0.92164434230E+02  0.47000000000E+01 0.  1.
          5    1    5    5  503    0 -0.74659818581E+01  0.71412725528E+02  0.41831268553E+02  0.83231383992E+02  0.47000000000E+01 0.  1.
         -5    1    5    5    0  503 -0.26695135369E+02 -0.40822574797E+02 -0.14584361106E+02  0.51126377285E+02  0.47000000000E+01 0.  1.
<mgrwt>
<rscale>  0 0.27202716E+03</rscale>
<asrwt>0</asrwt>
<pdfrwt beam="1">  1        2 0.20034732E-01 0.27202716E+03</pdfrwt>
<pdfrwt beam="2">  1       -2 0.21855176E-01 0.27202716E+03</pdfrwt>
<totfact> 0.49568351E+03</totfact>
</mgrwt>
</event>
<event>
 9    1  0.2024718E-002  0.2755185E+03  0.7818608E-02  0.1098162E+00
          3   -1    0    0  501    0  0.00000000000E+00  0.00000000000E+00  0.36937505927E+03  0.36937505927E+03  0.00000000000E+00 0.  1.
         -3   -1    0    0    0  501 -0.00000000000E+00 -0.00000000000E+00 -0.51377631137E+02  0.51377631137E+02  0.00000000000E+00 0.  1.
         36    2    1    2    0    0 -0.71054273576E-14  0.00000000000E+00  0.31799742813E+03  0.42075269041E+03  0.27551853329E+03 0.  0.
         25    2    3    3    0    0 -0.45107907364E+02 -0.37141680050E+02  0.10288782790E+03  0.16743256640E+03  0.11846320718E+03 0.  0.
         25    2    3    3    0    0  0.45107907364E+02  0.37141680050E+02  0.21510960023E+03  0.25332012401E+03  0.12035247157E+03 0.  0.
          5    1    4    4  502    0 -0.63807777340E+02 -0.41068113983E+02  0.15158401645E+02  0.77523477577E+02  0.47000000000E+01 0. -1.
         -5    1    4    4    0  502  0.18699869976E+02  0.39264339334E+01  0.87729426259E+02  0.89909088819E+02  0.47000000000E+01 0. -1.
          5    1    5    5  503    0  0.72298475082E+02  0.62644024365E+02  0.14500378717E+03  0.17378012424E+03  0.47000000000E+01 0.  1.
         -5    1    5    5    0  503 -0.27190567717E+02 -0.25502344316E+02  0.70105813061E+02  0.79539999770E+02  0.47000000000E+01 0.  1.
<mgrwt>
<rscale>  0 0.27551853E+03</rscale>
<asrwt>0</asrwt>
<pdfrwt beam="1">  1        3 0.56826931E-01 0.27551853E+03</pdfrwt>
<pdfrwt beam="2">  1       -3 0.79042512E-02 0.27551853E+03</pdfrwt>
<totfact> 0.85237079E+02</totfact>
</mgrwt>
</event>
<event>
 9    1  0.2024718E-002  0.2781732E+03  0.7818608E-02  0.1096691E+00
         -2   -1    0    0    0  501 -0.00000000000E+00  0.00000000000E+00  0.45380207671E+02  0.45380207671E+02  0.00000000000E+00 0.  1.
          2   -1    0    0  501    0  0.00000000000E+00 -0.00000000000E+00 -0.42628890501E+03  0.42628890501E+03  0.00000000000E+00 0.  1.
         36    2    1    2    0    0  0.00000000000E+00 -0.35527136788E-14 -0.38090869733E+03  0.47166911268E+03  0.27817317654E+03 0.  0.
         25    2    3    3    0    0 -0.37741695865E+02 -0.22226694034E+00 -0.26308030420E+03  0.29217592347E+03  0.12137149084E+03 0.  0.
         25    2    3    3    0    0  0.37741695865E+02  0.22226694034E+00 -0.11782839313E+03  0.17949318921E+03  0.13003764737E+03 0.  0.
          5    1    4    4  502    0 -0.46022782727E+02  0.22545670798E+02 -0.33798390323E+02  0.61569675897E+02  0.47000000000E+01 0.  1.
         -5    1    4    4    0  502  0.82810868618E+01 -0.22767937739E+02 -0.22928191388E+03  0.23060624757E+03  0.47000000000E+01 0.  1.
          5    1    5    5  503    0  0.10455091597E+02  0.64449077466E+02 -0.56402909146E+02  0.86408163310E+02  0.47000000000E+01 0.  1.
         -5    1    5    5    0  503  0.27286604268E+02 -0.64226810526E+02 -0.61425483987E+02  0.93085025895E+02  0.47000000000E+01 0.  1.
<mgrwt>
<rscale>  0 0.27817318E+03</rscale>
<asrwt>0</asrwt>
<pdfrwt beam="1">  1        2 0.65582910E-01 0.27817318E+03</pdfrwt>
<pdfrwt beam="2">  1       -2 0.69815703E-02 0.27817318E+03</pdfrwt>
<totfact> 0.86572914E+03</totfact>
</mgrwt>
</event>
<event>
 9    1  0.2024718E-002  0.2747705E+03  0.7818608E-02  0.1098580E+00
         -2   -1    0    0    0  501 -0.00000000000E+00  0.00000000000E+00  0.26511011086E+02  0.26511011086E+02  0.00000000000E+00 0. -1.
          2   -1    0    0  501    0  0.00000000000E+00 -0.00000000000E+00 -0.71195713304E+03  0.71195713304E+03  0.00000000000E+00 0. -1.
         36    2    1    2    0    0  0.00000000000E+00  0.35527136788E-14 -0.68544612196E+03  0.73846814413E+03  0.27477047474E+03 0.  0.
         25    2    3    3    0    0 -0.51244387321E+02 -0.90355032175E+01 -0.38188261969E+03  0.40605189884E+03  0.12781307360E+03 0.  0.
         25    2    3    3    0    0  0.51244387321E+02  0.90355032175E+01 -0.30356350227E+03  0.33241624529E+03  0.12506851190E+03 0.  0.
          5    1    4    4  502    0  0.62563160524E+01  0.19884742902E+02 -0.30468070843E+03  0.30542915476E+03  0.47000000000E+01 0.  1.
         -5    1    4    4    0  502 -0.57500703374E+02 -0.28920246119E+02 -0.77201911259E+02  0.10062274408E+03  0.47000000000E+01 0.  1.
          5    1    5    5  503    0  0.73145013821E+02  0.12832853759E+02 -0.86224573286E+02  0.11389311753E+03  0.47000000000E+01 0. -1.
         -5    1    5    5    0  503 -0.21900626499E+02 -0.37973505413E+01 -0.21733892898E+03  0.21852312776E+03  0.47000000000E+01 0. -1.
<mgrwt>
<rscale>  0 0.27477047E+03</rscale>
<asrwt>0</asrwt>
<pdfrwt beam="1">  1        2 0.10953187E+00 0.27477047E+03</pdfrwt>
<pdfrwt beam="2">  1       -2 0.40786171E-02 0.27477047E+03</pdfrwt>
<totfact> 0.10918767E+04</totfact>
</mgrwt>
</event>
<event>
 9    1  0.2024718E-002  0.2752833E+03  0.7818608E-02  0.1098293E+00
          4   -1    0    0  501    0  0.00000000000E+00  0.00000000000E+00  0.36108199124E+02  0.36108199124E+02  0.00000000000E+00 0.  1.
         -4   -1    0    0    0  501 -0.00000000000E+00 -0.00000000000E+00 -0.52467940181E+03  0.52467940181E+03  0.00000000000E+00 0.  1.
         36    2    1    2    0    0 -0.35527136788E-14  0.00000000000E+00 -0.48857120269E+03  0.56078760094E+03  0.27528333271E+03 0.  0.
         25    2    3    3    0    0  0.14608828191E+02 -0.35032047082E+02 -0.34369866872E+03  0.36665407204E+03  0.12192527005E+03 0.  0.
         25    2    3    3    0    0 -0.14608828191E+02  0.35032047082E+02 -0.14487253397E+03  0.19413352890E+03  0.12352778538E+03 0.  0.
          5    1    4    4  502    0  0.26056914674E+02 -0.22463039751E+02 -0.34697966983E+03  0.34871267862E+03  0.47000000000E+01 0. -1.
         -5    1    4    4    0  502 -0.11448086482E+02 -0.12569007330E+02  0.32810011081E+01  0.17941393414E+02  0.47000000000E+01 0. -1.
          5    1    5    5  503    0 -0.63367919183E+02 -0.79716042146E+01 -0.71001506100E+02  0.95615602930E+02  0.47000000000E+01 0. -1.
         -5    1    5    5    0  503  0.48759090991E+02  0.43003651296E+02 -0.73871027868E+02  0.98517925970E+02  0.47000000000E+01 0. -1.
<mgrwt>
<rscale>  0 0.27528333E+03</rscale>
<asrwt>0</asrwt>
<pdfrwt beam="1">  1        4 0.55551074E-02 0.27528333E+03</pdfrwt>
<pdfrwt beam="2">  1       -4 0.80719911E-01 0.27528333E+03</pdfrwt>
<totfact> 0.52509007E+02</totfact>
</mgrwt>
</event>
<event>
 9    1  0.2024718E-002  0.2737160E+03  0.7818608E-02  0.1099171E+00
         -1   -1    0    0    0  501 -0.00000000000E+00  0.00000000000E+00  0.13277241954E+03  0.13277241954E+03  0.00000000000E+00 0. -1.
          1   -1    0    0  501    0  0.00000000000E+00 -0.00000000000E+00 -0.14106932236E+03  0.14106932236E+03  0.00000000000E+00 0. -1.
         36    2    1    2    0    0  0.00000000000E+00  0.71054273576E-14 -0.82969028246E+01  0.27384174190E+03  0.27371602256E+03 0.  0.
         25    2    3    3    0    0 -0.24999430007E+02 -0.46656820628E+02 -0.17577152075E+02  0.13825797388E+03  0.12650881651E+03 0.  0.
         25    2    3    3    0    0  0.24999430007E+02  0.46656820628E+02  0.92802492503E+01  0.13558376802E+03  0.12447893280E+03 0.  0.
          5    1    4    4  502    0 -0.31597379407E+02  0.30003244662E+02 -0.38551466726E+02  0.58368610249E+02  0.47000000000E+01 0.  1.
         -5    1    4    4    0  502  0.65979494006E+01 -0.76660065290E+02  0.20974314651E+02  0.79889363632E+02  0.47000000000E+01 0.  1.
          5    1    5    5  503    0  0.55079546485E+02  0.60039641505E+02 -0.27383402376E+02  0.86084003849E+02  0.47000000000E+01 0. -1.
         -5    1    5    5    0  503 -0.30080116478E+02 -0.13382820877E+02  0.36663651627E+02  0.49499764167E+02  0.47000000000E+01 0. -1.
<mgrwt>
<rscale>  0 0.27371602E+03</rscale>
<asrwt>0</asrwt>
<pdfrwt beam="1">  1        1 0.21702973E-01 0.27371602E+03</pdfrwt>
<pdfrwt beam="2">  1       -1 0.20426526E-01 0.27371602E+03</pdfrwt>
<totfact> 0.44432414E+03</totfact>
</mgrwt>
</event>
<event>
 9    1  0.2024718E-002  0.2753025E+03  0.7818608E-02  0.1098283E+00
          1   -1    0    0  501    0  0.00000000000E+00  0.00000000000E+00  0.17133360193E+04  0.17133360193E+04  0.00000000000E+00 0.  1.
         -1   -1    0    0    0  501 -0.00000000000E+00 -0.00000000000E+00 -0.11059047837E+02  0.11059047837E+02  0.00000000000E+00 0.  1.
         36    2    1    2    0    0  0.00000000000E+00  0.71054273576E-14  0.17022769715E+04  0.17243950671E+04  0.27530248817E+03 0.  0.
         25    2    3    3    0    0  0.22912053670E+02 -0.17970746007E+02  0.55711849956E+03  0.57211810587E+03  0.12684713083E+03 0.  0.
         25    2    3    3    0    0 -0.22912053670E+02  0.17970746007E+02  0.11451584719E+04  0.11522769613E+04  0.12452453483E+03 0.  0.
          5    1    4    4  502    0 -0.16989671338E+02  0.28983011652E+02  0.42400088949E+03  0.42535574309E+03  0.47000000000E+01 0. -1.
         -5    1    4    4    0  502  0.39901725007E+02 -0.46953757659E+02  0.13311761007E+03  0.14676236278E+03  0.47000000000E+01 0. -1.
          5    1    5    5  503    0 -0.61319973207E+02 -0.22349990624E+02  0.43143632797E+03  0.43637032012E+03  0.47000000000E+01 0. -1.
         -5    1    5    5    0  503  0.38407919538E+02  0.40320736631E+02  0.71372214394E+03  0.71590664115E+03  0.47000000000E+01 0. -1.
<mgrwt>
<rscale>  0 0.27530249E+03</rscale>
<asrwt>0</asrwt>
<pdfrwt beam="1">  1        1 0.26358995E+00 0.27530249E+03</pdfrwt>
<pdfrwt beam="2">  1       -1 0.17013933E-02 0.27530249E+03</pdfrwt>
<totfact> 0.45007664E+03</totfact>
</mgrwt>
</event>
<event>
 9    1  0.2024718E-002  0.2750412E+03  0.7818608E-02  0.1098429E+00
         -1   -1    0    0    0  501 -0.00000000000E+00  0.00000000000E+00  0.10572261595E+02  0.10572261595E+02  0.00000000000E+00 0. -1.
          1   -1    0    0  501    0  0.00000000000E+00 -0.00000000000E+00 -0.17888245452E+04  0.17888245452E+04  0.00000000000E+00 0. -1.
         36    2    1    2    0    0  0.35527136788E-14 -0.71054273576E-14 -0.17782522836E+04  0.17993968068E+04  0.27504124083E+03 0.  0.
         25    2    3    3    0    0 -0.14520255432E+01 -0.43887716953E+02 -0.63494679248E+03  0.64850109849E+03  0.12437043612E+03 0.  0.
         25    2    3    3    0    0  0.14520255432E+01  0.43887716953E+02 -0.11433054911E+04  0.11508957083E+04  0.12443972552E+03 0.  0.
          5    1    4    4  502    0 -0.29595684991E+02 -0.75897207659E+02 -0.30296275677E+03  0.31375916352E+03  0.47000000000E+01 0. -1.
         -5    1    4    4    0  502  0.28143659448E+02  0.32009490705E+02 -0.33198403571E+03  0.33474193497E+03  0.47000000000E+01 0. -1.
          5    1    5    5  503    0 -0.56690665230E+02  0.14019645700E+02 -0.73844829230E+03  0.74076875770E+03  0.47000000000E+01 0. -1.
         -5    1    5    5    0  503  0.58142690774E+02  0.29868071254E+02 -0.40485719883E+03  0.41012695061E+03  0.47000000000E+01 0. -1.
<mgrwt>
<rscale>  0 0.27504124E+03</rscale>
<asrwt>0</asrwt>
<pdfrwt beam="1">  1        1 0.27520364E+00 0.27504124E+03</pdfrwt>
<pdfrwt beam="2">  1       -1 0.16265026E-02 0.27504124E+03</pdfrwt>
<totfact> 0.42917315E+03</totfact>
</mgrwt>
</event>
<event>
 9    1  0.2024718E-002  0.2756013E+03  0.7818608E-02  0.1098116E+00
          1   -1    0    0  501    0  0.00000000000E+00  0.00000000000E+00  0.26784328910E+03  0.26784328910E+03  0.00000000000E+00 0.  1.
         -1   -1    0    0    0  501 -0.00000000000E+00 -0.00000000000E+00 -0.70895983998E+02  0.70895983998E+02  0.00000000000E+00 0.  1.
         36    2    1    2    0    0  0.00000000000E+00  0.00000000000E+00  0.19694730510E+03  0.33873927310E+03  0.27560125934E+03 0.  0.
         25    2    3    3    0    0 -0.43307755590E+02  0.73803227023E+01  0.56034442251E+02  0.14549078968E+03  0.12687663420E+03 0.  0.
         25    2    3    3    0    0  0.43307755590E+02 -0.73803227023E+01  0.14091286285E+03  0.19324848342E+03  0.12473375874E+03 0.  0.
          5    1    4    4  502    0  0.29403076388E+02 -0.35833541024E+02  0.34810981668E+02  0.58159075028E+02  0.47000000000E+01 0. -1.
         -5    1    4    4    0  502 -0.72710831978E+02  0.43213863727E+02  0.21223460583E+02  0.87331714653E+02  0.47000000000E+01 0. -1.
          5    1    5    5  503    0  0.47780456950E+02 -0.55639603140E+02  0.11897274154E+03  0.13984041166E+03  0.47000000000E+01 0. -1.
         -5    1    5    5    0  503 -0.44727013599E+01  0.48259280438E+02  0.21940121315E+02  0.53408071760E+02  0.47000000000E+01 0. -1.
<mgrwt>
<rscale>  0 0.27560126E+03</rscale>
<asrwt>0</asrwt>
<pdfrwt beam="1">  1        1 0.41206659E-01 0.27560126E+03</pdfrwt>
<pdfrwt beam="2">  1       -1 0.10907075E-01 0.27560126E+03</pdfrwt>
<totfact> 0.53497512E+03</totfact>
</mgrwt>
</event>
<event>
 9    1  0.2024718E-002  0.2750200E+03  0.7818608E-02  0.1098440E+00
          2   -1    0    0  501    0  0.00000000000E+00  0.00000000000E+00  0.34177336230E+03  0.34177336230E+03  0.00000000000E+00 0. -1.
         -2   -1    0    0    0  501 -0.00000000000E+00 -0.00000000000E+00 -0.55326135772E+02  0.55326135772E+02  0.00000000000E+00 0. -1.
         36    2    1    2    0    0  0.71054273576E-14  0.00000000000E+00  0.28644722653E+03  0.39709949808E+03  0.27501999524E+03 0.  0.
         25    2    3    3    0    0  0.19251884819E+02  0.19462518286E+02  0.22530525817E+03  0.25741500646E+03  0.12145205434E+03 0.  0.
         25    2    3    3    0    0 -0.19251884819E+02 -0.19462518286E+02  0.61141968360E+02  0.13968449162E+03  0.12257239582E+03 0.  0.
          5    1    4    4  502    0  0.61678298087E+02 -0.16588083200E+02  0.85244410711E+02  0.10662118231E+03  0.47000000000E+01 0.  1.
         -5    1    4    4    0  502 -0.42426413268E+02  0.36050601485E+02  0.14006084746E+03  0.15079382415E+03  0.47000000000E+01 0.  1.
          5    1    5    5  503    0 -0.54732175195E+02  0.83259324714E+01  0.74044052802E+02  0.92571831074E+02  0.47000000000E+01 0. -1.
         -5    1    5    5    0  503  0.35480290376E+02 -0.27788450757E+02 -0.12902084442E+02  0.47112660545E+02  0.47000000000E+01 0. -1.
<mgrwt>
<rscale>  0 0.27502000E+03</rscale>
<asrwt>0</asrwt>
<pdfrwt beam="1">  1        2 0.52580516E-01 0.27502000E+03</pdfrwt>
<pdfrwt beam="2">  1       -2 0.85117134E-02 0.27502000E+03</pdfrwt>
<totfact> 0.80748260E+03</totfact>
</mgrwt>
</event>
<event>
 9    1  0.2024718E-002  0.2787319E+03  0.7818608E-02  0.1096384E+00
          2   -1    0    0  501    0  0.00000000000E+00  0.00000000000E+00  0.12709845157E+03  0.12709845157E+03  0.00000000000E+00 0.  1.
         -2   -1    0    0    0  501 -0.00000000000E+00 -0.00000000000E+00 -0.15281745418E+03  0.15281745418E+03  0.00000000000E+00 0.  1.
         36    2    1    2    0    0  0.00000000000E+00 -0.35527136788E-14 -0.25719002603E+02  0.27991590575E+03  0.27873185537E+03 0.  0.
         25    2    3    3    0    0 -0.74550125145E+01  0.23528689036E+02  0.44377700955E+02  0.13401097911E+03  0.12401768326E+03 0.  0.
         25    2    3    3    0    0  0.74550125145E+01 -0.23528689036E+02 -0.70096703558E+02  0.14590492664E+03  0.12556083525E+03 0.  0.
          5    1    4    4  502    0 -0.61804006913E+02  0.17344018202E+02  0.15520834290E+01  0.64382056513E+02  0.47000000000E+01 0. -1.
         -5    1    4    4    0  502  0.54348994398E+02  0.61846708335E+01  0.42825617526E+02  0.69628922596E+02  0.47000000000E+01 0. -1.
          5    1    5    5  503    0 -0.55700545301E+02 -0.31306145739E+02 -0.37850077078E+02  0.74413331082E+02  0.47000000000E+01 0.  1.
         -5    1    5    5    0  503  0.63155557816E+02  0.77774567030E+01 -0.32246626480E+02  0.71491595556E+02  0.47000000000E+01 0.  1.
<mgrwt>
<rscale>  0 0.27873186E+03</rscale>
<asrwt>0</asrwt>
<pdfrwt beam="1">  1        2 0.19553608E-01 0.27873186E+03</pdfrwt>
<pdfrwt beam="2">  1       -2 0.23510377E-01 0.27873186E+03</pdfrwt>
<totfact> 0.44926831E+03</totfact>
</mgrwt>
</event>
<event>
 9    1  0.2024718E-002  0.2752441E+03  0.7818608E-02  0.1098315E+00
          2   -1    0    0  501    0  0.00000000000E+00  0.00000000000E+00  0.13237373592E+03  0.13237373592E+03  0.00000000000E+00 0.  1.
         -2   -1    0    0    0  501 -0.00000000000E+00 -0.00000000000E+00 -0.14307844289E+03  0.14307844289E+03  0.00000000000E+00 0.  1.
         36    2    1    2    0    0  0.00000000000E+00 -0.14210854715E-13 -0.10704706972E+02  0.27545217881E+03  0.27524409542E+03 0.  0.
         25    2    3    3    0    0  0.29232154840E+02 -0.49274633187E+02 -0.40368552610E+02  0.14409735036E+03  0.12590440020E+03 0.  0.
         25    2    3    3    0    0 -0.29232154840E+02  0.49274633187E+02  0.29663845638E+02  0.13135482845E+03  0.11441869982E+03 0.  0.
          5    1    4    4  502    0  0.13729121640E+02 -0.90332544592E+02 -0.40264719521E+02  0.99958966740E+02  0.47000000000E+01 0. -1.
         -5    1    4    4    0  502  0.15503033200E+02  0.41057911405E+02 -0.10383308894E+00  0.44138383621E+02  0.47000000000E+01 0. -1.
          5    1    5    5  503    0  0.23972734240E+02  0.51663509510E+02  0.48206961124E+02  0.74765040646E+02  0.47000000000E+01 0.  1.
         -5    1    5    5    0  503 -0.53204889081E+02 -0.23888763232E+01 -0.18543115486E+02  0.56589787808E+02  0.47000000000E+01 0.  1.
<mgrwt>
<rscale>  0 0.27524410E+03</rscale>
<asrwt>0</asrwt>
<pdfrwt beam="1">  1        2 0.20365190E-01 0.27524410E+03</pdfrwt>
<pdfrwt beam="2">  1       -2 0.22012068E-01 0.27524410E+03</pdfrwt>
<totfact> 0.48070346E+03</totfact>
</mgrwt>
</event>
<event>
 9    1  0.2024718E-002  0.2739203E+03  0.7818608E-02  0.1099057E+00
         -1   -1    0    0    0  501 -0.00000000000E+00  0.00000000000E+00  0.29212593119E+04  0.29212593119E+04  0.00000000000E+00 0.  1.
          1   -1    0    0  501    0  0.00000000000E+00 -0.00000000000E+00 -0.64212337674E+01  0.64212337674E+01  0.00000000000E+00 0.  1.
         36    2    1    2    0    0 -0.35527136788E-14 -0.17763568394E-14  0.29148380781E+04  0.29276805456E+04  0.27392034562E+03 0.  0.
         25    2    3    3    0    0 -0.27839445776E+02 -0.13492525241E+01  0.90590076439E+03  0.91455956530E+03  0.12241792491E+03 0.  0.
         25    2    3    3    0    0  0.27839445776E+02  0.13492525241E+01  0.20089373137E+04  0.20131209803E+04  0.12668897275E+03 0.  0.
          5    1    4    4  502    0 -0.72535748945E+02  0.11665407831E+02  0.41922078167E+03  0.42563560753E+03  0.47000000000E+01 0.  1.
         -5    1    4    4    0  502  0.44696303169E+02 -0.13014660355E+02  0.48667998272E+03  0.48892395777E+03  0.47000000000E+01 0.  1.
          5    1    5    5  503    0 -0.66658275323E+01  0.20276923867E+02  0.18171245869E+04  0.18172560198E+04  0.47000000000E+01 0. -1.
         -5    1    5    5    0  503  0.34505273308E+02 -0.18927671343E+02  0.19181272676E+03  0.19586496056E+03  0.47000000000E+01 0. -1.
<mgrwt>
<rscale>  0 0.27392035E+03</rscale>
<asrwt>0</asrwt>
<pdfrwt beam="1">  1        1 0.98788445E-03 0.27392035E+03</pdfrwt>
<pdfrwt beam="2">  1       -1 0.44942345E+00 0.27392035E+03</pdfrwt>
<totfact> 0.66887209E+01</totfact>
</mgrwt>
</event>
<event>
 9    1  0.2024718E-002  0.2731339E+03  0.7818608E-02  0.1099499E+00
         -2   -1    0    0    0  501 -0.00000000000E+00  0.00000000000E+00  0.36052581851E+02  0.36052581851E+02  0.00000000000E+00 0.  1.
          2   -1    0    0  501    0  0.00000000000E+00 -0.00000000000E+00 -0.51731482705E+03  0.51731482705E+03  0.00000000000E+00 0.  1.
         36    2    1    2    0    0 -0.35527136788E-14  0.00000000000E+00 -0.48126224520E+03  0.55336740890E+03  0.27313392426E+03 0.  0.
         25    2    3    3    0    0  0.20052453345E+02  0.67688275361E+01 -0.15404548204E+03  0.20045984781E+03  0.12651569917E+03 0.  0.
         25    2    3    3    0    0 -0.20052453345E+02 -0.67688275361E+01 -0.32721676316E+03  0.35290756109E+03  0.13047995505E+03 0.  0.
          5    1    4    4  502    0 -0.18898519358E+02  0.40532635724E+02 -0.13968254358E+03  0.14674246684E+03  0.47000000000E+01 0. -1.
         -5    1    4    4    0  502  0.38950972703E+02 -0.33763808188E+02 -0.14362938464E+02  0.53717380979E+02  0.47000000000E+01 0. -1.
          5    1    5    5  503    0 -0.16095832162E+02 -0.47290465532E+02 -0.29892374327E+03  0.30310552326E+03  0.47000000000E+01 0.  1.
         -5    1    5    5    0  503 -0.39566211829E+01  0.40521637996E+02 -0.28293019894E+02  0.49802037827E+02  0.47000000000E+01 0.  1.
<mgrwt>
<rscale>  0 0.27313392E+03</rscale>
<asrwt>0</asrwt>
<pdfrwt beam="1">  1        2 0.79586888E-01 0.27313392E+03</pdfrwt>
<pdfrwt beam="2">  1       -2 0.55465516E-02 0.27313392E+03</pdfrwt>
<totfact> 0.99443745E+03</totfact>
</mgrwt>
</event>
<event>
 9    1  0.2024718E-002  0.2714169E+03  0.7818608E-02  0.1100471E+00
          2   -1    0    0  501    0  0.00000000000E+00  0.00000000000E+00  0.19875437808E+04  0.19875437808E+04  0.00000000000E+00 0. -1.
         -2   -1    0    0    0  501 -0.00000000000E+00 -0.00000000000E+00 -0.92661040589E+01  0.92661040589E+01  0.00000000000E+00 0. -1.
         36    2    1    2    0    0  0.00000000000E+00  0.71054273576E-14  0.19782776767E+04  0.19968098848E+04  0.27141693016E+03 0.  0.
         25    2    3    3    0    0  0.40013000601E+02 -0.23605991461E+02  0.10840217945E+04  0.10910909281E+04  0.11496903639E+03 0.  0.
         25    2    3    3    0    0 -0.40013000601E+02  0.23605991461E+02  0.89425588217E+03  0.90571895671E+03  0.13592263499E+03 0.  0.
          5    1    4    4  502    0  0.14772079134E+02  0.22216789692E+02  0.61276714390E+02  0.66997953645E+02  0.47000000000E+01 0.  1.
         -5    1    4    4    0  502  0.25240921468E+02 -0.45822781153E+02  0.10227450801E+04  0.10240929745E+04  0.47000000000E+01 0.  1.
          5    1    5    5  503    0  0.41622984079E+02 -0.24909800447E+01  0.52251498863E+03  0.52419717772E+03  0.47000000000E+01 0.  1.
         -5    1    5    5    0  503 -0.81635984680E+02  0.26096971505E+02  0.37174089354E+03  0.38152177899E+03  0.47000000000E+01 0.  1.
<mgrwt>
<rscale>  0 0.27141693E+03</rscale>
<asrwt>0</asrwt>
<pdfrwt beam="1">  1        2 0.30577563E+00 0.27141693E+03</pdfrwt>
<pdfrwt beam="2">  1       -2 0.14255560E-02 0.27141693E+03</pdfrwt>
<totfact> 0.95852284E+03</totfact>
</mgrwt>
</event>
<event>
 9    1  0.2024718E-002  0.2746784E+03  0.7818608E-02  0.1098631E+00
          2   -1    0    0  501    0  0.00000000000E+00  0.00000000000E+00  0.57705174941E+03  0.57705174941E+03  0.00000000000E+00 0. -1.
         -2   -1    0    0    0  501 -0.00000000000E+00 -0.00000000000E+00 -0.32686942376E+02  0.32686942376E+02  0.00000000000E+00 0. -1.
         36    2    1    2    0    0  0.00000000000E+00  0.00000000000E+00  0.54436480704E+03  0.60973869179E+03  0.27467841037E+03 0.  0.
         25    2    3    3    0    0  0.29007675659E+02 -0.18427319271E+02  0.36703821458E+03  0.38976022843E+03  0.12655027996E+03 0.  0.
         25    2    3    3    0    0 -0.29007675659E+02  0.18427319271E+02  0.17732659246E+03  0.21997846336E+03  0.12555792531E+03 0.  0.
          5    1    4    4  502    0 -0.31583937994E+02 -0.10158283885E+02  0.23838243668E+02  0.41122837109E+02  0.47000000000E+01 0. -1.
         -5    1    4    4    0  502  0.60591613653E+02 -0.82690353861E+01  0.34319997092E+03  0.34863739132E+03  0.47000000000E+01 0. -1.
          5    1    5    5  503    0  0.46282070370E+02  0.26970647271E+02  0.64293416425E+02  0.83816342365E+02  0.47000000000E+01 0.  1.
         -5    1    5    5    0  503 -0.75289746029E+02 -0.85433279996E+01  0.11303317603E+03  0.13616212100E+03  0.47000000000E+01 0.  1.
<mgrwt>
<rscale>  0 0.27467841E+03</rscale>
<asrwt>0</asrwt>
<pdfrwt beam="1">  1        2 0.88777185E-01 0.27467841E+03</pdfrwt>
<pdfrwt beam="2">  1       -2 0.50287608E-02 0.27467841E+03</pdfrwt>
<totfact> 0.10198667E+04</totfact>
</mgrwt>
</event>
<event>
 9    1  0.2024718E-002  0.2755044E+03  0.7818608E-02  0.1098170E+00
          1   -1    0    0  501    0  0.00000000000E+00  0.00000000000E+00  0.33711706177E+03  0.33711706177E+03  0.00000000000E+00 0.  1.
         -1   -1    0    0    0  501 -0.00000000000E+00 -0.00000000000E+00 -0.56288060109E+02  0.56288060109E+02  0.00000000000E+00 0.  1.
         36    2    1    2    0    0  0.00000000000E+00  0.00000000000E+00  0.28082900166E+03  0.39340512188E+03  0.27550437700E+03 0.  0.
         25    2    3    3    0    0  0.50113968504E+02 -0.45683655015E+02  0.14643066875E+03  0.19767359125E+03  0.11416874245E+03 0.  0.
         25    2    3    3    0    0 -0.50113968504E+02  0.45683655015E+02  0.13439833291E+03  0.19573153063E+03  0.12509801764E+03 0.  0.
          5    1    4    4  502    0 -0.13807297474E+02 -0.28237916610E+02  0.12330867936E+03  0.12733868935E+03  0.47000000000E+01 0.  1.
         -5    1    4    4    0  502  0.63921265978E+02 -0.17445738405E+02  0.23121989388E+02  0.70334901905E+02  0.47000000000E+01 0.  1.
          5    1    5    5  503    0 -0.85727524456E+02  0.57210649906E+02  0.10995027138E+03  0.15077605608E+03  0.47000000000E+01 0. -1.
         -5    1    5    5    0  503  0.35613555952E+02 -0.11526994891E+02  0.24448061531E+02  0.44955474543E+02  0.47000000000E+01 0. -1.
<mgrwt>
<rscale>  0 0.27550438E+03</rscale>
<asrwt>0</asrwt>
<pdfrwt beam="1">  1        1 0.51864162E-01 0.27550438E+03</pdfrwt>
<pdfrwt beam="2">  1       -1 0.86597018E-02 0.27550438E+03</pdfrwt>
<totfact> 0.57179870E+03</totfact>
</mgrwt>
</event>
<event>
 9    1  0.2024718E-002  0.2768858E+03  0.7818608E-02  0.1097402E+00
         -2   -1    0    0    0  501 -0.00000000000E+00  0.00000000000E+00  0.31091541104E+02  0.31091541104E+02  0.00000000000E+00 0.  1.
          2   -1    0    0  501    0  0.00000000000E+00 -0.00000000000E+00 -0.61645199314E+03  0.61645199314E+03  0.00000000000E+00 0.  1.
         36    2    1    2    0    0  0.00000000000E+00  0.00000000000E+00 -0.58536045204E+03  0.64754353424E+03  0.27688584278E+03 0.  0.
         25    2    3    3    0    0  0.17031240314E+02 -0.26929551616E+02 -0.18471536268E+03  0.22626329881E+03  0.12672825763E+03 0.  0.
         25    2    3    3    0    0 -0.17031240314E+02  0.26929551616E+02 -0.40064508936E+03  0.42128023543E+03  0.12627464212E+03 0.  0.
          5    1    4    4  502    0  0.33407067738E+02 -0.25569774062E+02 -0.19933019768E+03  0.20377552166E+03  0.47000000000E+01 0.  1.
         -5    1    4    4    0  502 -0.16375827424E+02 -0.13597775545E+01  0.14614835005E+02  0.22487777148E+02  0.47000000000E+01 0.  1.
          5    1    5    5  503    0  0.35830484944E+02 -0.26470915352E+02 -0.77813628279E+02  0.89786322772E+02  0.47000000000E+01 0. -1.
         -5    1    5    5    0  503 -0.52861725258E+02  0.53400466968E+02 -0.32283146108E+03  0.33149391266E+03  0.47000000000E+01 0. -1.
<mgrwt>
<rscale>  0 0.27688584E+03</rscale>
<asrwt>0</asrwt>
<pdfrwt beam="1">  1        2 0.94838759E-01 0.27688584E+03</pdfrwt>
<pdfrwt beam="2">  1       -2 0.47833145E-02 0.27688584E+03</pdfrwt>
<totfact> 0.10195192E+04</totfact>
</mgrwt>
</event>
<event>
 9    1  0.2024718E-002  0.2750578E+03  0.7818608E-02  0.1098419E+00
          2   -1    0    0  501    0  0.00000000000E+00  0.00000000000E+00  0.37103037036E+03  0.37103037036E+03  0.00000000000E+00 0. -1.
         -2   -1    0    0    0  501 -0.00000000000E+00 -0.00000000000E+00 -0.50977496752E+02  0.50977496752E+02  0.00000000000E+00 0. -1.
         36    2    1    2    0    0  0.14210854715E-13  0.00000000000E+00  0.32005287361E+03  0.42200786711E+03  0.27505780847E+03 0.  0.
         25    2    3    3    0    0 -0.32462225846E+02  0.29808711895E+02  0.18901661882E+03  0.23295728490E+03  0.12883888771E+03 0.  0.
         25    2    3    3    0    0  0.32462225846E+02 -0.29808711895E+02  0.13103625479E+03  0.18905058221E+03  0.12894676092E+03 0.  0.
          5    1    4    4  502    0  0.44284555920E+02  0.18798823981E+00  0.11051430211E+03  0.11914973019E+03  0.47000000000E+01 0.  1.
         -5    1    4    4    0  502 -0.76746781767E+02  0.29620723656E+02  0.78502316701E+02  0.11380755471E+03  0.47000000000E+01 0.  1.
          5    1    5    5  503    0 -0.23807393270E+02  0.18954353662E+02  0.10595803669E+03  0.11034153812E+03  0.47000000000E+01 0. -1.
         -5    1    5    5    0  503  0.56269619117E+02 -0.48763065557E+02  0.25078218107E+02  0.78709044089E+02  0.47000000000E+01 0. -1.
<mgrwt>
<rscale>  0 0.27505781E+03</rscale>
<asrwt>0</asrwt>
<pdfrwt beam="1">  1        2 0.57081594E-01 0.27505781E+03</pdfrwt>
<pdfrwt beam="2">  1       -2 0.78426920E-02 0.27505781E+03</pdfrwt>
<totfact> 0.83988795E+03</totfact>
</mgrwt>
</event>
<event>
 9    1  0.2024718E-002  0.2732997E+03  0.7818608E-02  0.1099406E+00
         -2   -1    0    0    0  501 -0.00000000000E+00  0.00000000000E+00  0.15045373829E+02  0.15045373829E+02  0.00000000000E+00 0. -1.
          2   -1    0    0  501    0  0.00000000000E+00 -0.00000000000E+00 -0.12411247875E+04  0.12411247875E+04  0.00000000000E+00 0. -1.
         36    2    1    2    0    0  0.14210854715E-13 -0.35527136788E-14 -0.12260794137E+04  0.12561701613E+04  0.27329973580E+03 0.  0.
         25    2    3    3    0    0 -0.43087796523E+02 -0.18090692724E+02 -0.72856445603E+03  0.74015193799E+03  0.12179857697E+03 0.  0.
         25    2    3    3    0    0  0.43087796523E+02  0.18090692724E+02 -0.49751495765E+03  0.51601822334E+03  0.12872389975E+03 0.  0.
          5    1    4    4  502    0 -0.84891685027E+02 -0.21727536788E+02 -0.46130501782E+03  0.46957756922E+03  0.47000000000E+01 0.  1.
         -5    1    4    4    0  502  0.41803888504E+02  0.36368440637E+01 -0.26725943821E+03  0.27057436878E+03  0.47000000000E+01 0.  1.
          5    1    5    5  503    0  0.28600837703E+02 -0.16030149674E+02 -0.46588994396E+03  0.46706584492E+03  0.47000000000E+01 0. -1.
         -5    1    5    5    0  503  0.14486958819E+02  0.34120842398E+02 -0.31625013691E+02  0.48952378418E+02  0.47000000000E+01 0. -1.
<mgrwt>
<rscale>  0 0.27329974E+03</rscale>
<asrwt>0</asrwt>
<pdfrwt beam="1">  1        2 0.19094229E+00 0.27329974E+03</pdfrwt>
<pdfrwt beam="2">  1       -2 0.23146727E-02 0.27329974E+03</pdfrwt>
<totfact> 0.11779255E+04</totfact>
</mgrwt>
</event>
<event>
 9    1  0.2024718E-002  0.2774741E+03  0.7818608E-02  0.1097077E+00
          1   -1    0    0  501    0  0.00000000000E+00  0.00000000000E+00  0.66100700143E+03  0.66100700143E+03  0.00000000000E+00 0.  1.
         -1   -1    0    0    0  501 -0.00000000000E+00 -0.00000000000E+00 -0.29119153107E+02  0.29119153107E+02  0.00000000000E+00 0.  1.
         36    2    1    2    0    0  0.71054273576E-14  0.35527136788E-14  0.63188784832E+03  0.69012615453E+03  0.27747406422E+03 0.  0.
         25    2    3    3    0    0 -0.60462396028E+02 -0.35766354673E+01  0.29564803194E+03  0.32679832898E+03  0.12538299478E+03 0.  0.
         25    2    3    3    0    0  0.60462396028E+02  0.35766354673E+01  0.33623981638E+03  0.36332782555E+03  0.12361796410E+03 0.  0.
          5    1    4    4  502    0 -0.96243510903E+02 -0.21213659225E+02  0.19833831128E+03  0.22152428411E+03  0.47000000000E+01 0. -1.
         -5    1    4    4    0  502  0.35781114875E+02  0.17637023758E+02  0.97309720667E+02  0.10527404488E+03  0.47000000000E+01 0. -1.
          5    1    5    5  503    0  0.37918901945E+02  0.61724328894E+02  0.14563944775E+03  0.16272883777E+03  0.47000000000E+01 0. -1.
         -5    1    5    5    0  503  0.22543494084E+02 -0.58147693427E+02  0.19060036863E+03  0.20059898778E+03  0.47000000000E+01 0. -1.
<mgrwt>
<rscale>  0 0.27747406E+03</rscale>
<asrwt>0</asrwt>
<pdfrwt beam="1">  1        1 0.10169337E+00 0.27747406E+03</pdfrwt>
<pdfrwt beam="2">  1       -1 0.44798702E-02 0.27747406E+03</pdfrwt>
<totfact> 0.63440660E+03</totfact>
</mgrwt>
</event>
<event>
 9    1  0.2024718E-002  0.2745329E+03  0.7818608E-02  0.1098713E+00
          2   -1    0    0  501    0  0.00000000000E+00  0.00000000000E+00  0.22199139499E+03  0.22199139499E+03  0.00000000000E+00 0. -1.
         -2   -1    0    0    0  501 -0.00000000000E+00 -0.00000000000E+00 -0.84877541711E+02  0.84877541711E+02  0.00000000000E+00 0. -1.
         36    2    1    2    0    0  0.00000000000E+00 -0.71054273576E-14  0.13711385328E+03  0.30686893670E+03  0.27453294074E+03 0.  0.
         25    2    3    3    0    0  0.47938910435E+02  0.17817211329E+02  0.10154876062E+03  0.17468678924E+03  0.13261874452E+03 0.  0.
         25    2    3    3    0    0 -0.47938910435E+02 -0.17817211329E+02  0.35565092662E+02  0.13218214746E+03  0.11658324124E+03 0.  0.
          5    1    4    4  502    0 -0.73603419731E+01  0.23217979101E+02  0.11473676722E+03  0.11738766946E+03  0.47000000000E+01 0. -1.
         -5    1    4    4    0  502  0.55299252408E+02 -0.54007677718E+01 -0.13188006607E+02  0.57299119781E+02  0.47000000000E+01 0. -1.
          5    1    5    5  503    0 -0.59036571189E+01 -0.59938718047E+02  0.39792101962E+02  0.72339508341E+02  0.47000000000E+01 0.  1.
         -5    1    5    5    0  503 -0.42035253316E+02  0.42121506718E+02 -0.42270092996E+01  0.59842639123E+02  0.47000000000E+01 0.  1.
<mgrwt>
<rscale>  0 0.27453294E+03</rscale>
<asrwt>0</asrwt>
<pdfrwt beam="1">  1        2 0.34152522E-01 0.27453294E+03</pdfrwt>
<pdfrwt beam="2">  1       -2 0.13058083E-01 0.27453294E+03</pdfrwt>
<totfact> 0.64922841E+03</totfact>
</mgrwt>
</event>
<event>
 9    1  0.2024718E-002  0.2743280E+03  0.7818608E-02  0.1098828E+00
         -1   -1    0    0    0  501 -0.00000000000E+00  0.00000000000E+00  0.11664895074E+02  0.11664895074E+02  0.00000000000E+00 0. -1.
          1   -1    0    0  501    0  0.00000000000E+00 -0.00000000000E+00 -0.16128699216E+04  0.16128699216E+04  0.00000000000E+00 0. -1.
         36    2    1    2    0    0  0.00000000000E+00 -0.35527136788E-14 -0.16012050266E+04  0.16245348167E+04  0.27432796726E+03 0.  0.
         25    2    3    3    0    0  0.20006344017E+02  0.15985930546E+01 -0.11787465695E+04  0.11854208432E+04  0.12400117414E+03 0.  0.
         25    2    3    3    0    0 -0.20006344017E+02 -0.15985930546E+01 -0.42245845707E+03  0.43911397348E+03  0.11809794431E+03 0.  0.
          5    1    4    4  502    0 -0.86385826270E+01 -0.32267922894E+02 -0.10191564620E+04  0.10197145817E+04  0.47000000000E+01 0. -1.
         -5    1    4    4    0  502  0.28644926644E+02  0.33866515949E+02 -0.15959010747E+03  0.16570626158E+03  0.47000000000E+01 0. -1.
          5    1    5    5  503    0 -0.55323531060E+02  0.24052309380E+02 -0.13016226928E+03  0.14353923860E+03  0.47000000000E+01 0.  1.
         -5    1    5    5    0  503  0.35317187042E+02 -0.25650902435E+02 -0.29229618780E+03  0.29557473488E+03  0.47000000000E+01 0.  1.
<mgrwt>
<rscale>  0 0.27432797E+03</rscale>
<asrwt>0</asrwt>
<pdfrwt beam="1">  1        1 0.24813377E+00 0.27432797E+03</pdfrwt>
<pdfrwt beam="2">  1       -1 0.17945997E-02 0.27432797E+03</pdfrwt>
<totfact> 0.48437836E+03</totfact>
</mgrwt>
</event>
<event>
 9    1  0.2024718E-002  0.2878615E+03  0.7818608E-02  0.1091471E+00
          2   -1    0    0  501    0  0.00000000000E+00  0.00000000000E+00  0.30204096069E+02  0.30204096069E+02  0.00000000000E+00 0.  1.
         -2   -1    0    0    0  501 -0.00000000000E+00 -0.00000000000E+00 -0.68586931108E+03  0.68586931108E+03  0.00000000000E+00 0.  1.
         36    2    1    2    0    0  0.00000000000E+00  0.00000000000E+00 -0.65566521501E+03  0.71607340715E+03  0.28786151228E+03 0.  0.
         25    2    3    3    0    0  0.63080481040E-01  0.61133662254E+02 -0.24658196944E+03  0.28402165987E+03  0.12699727155E+03 0.  0.
         25    2    3    3    0    0 -0.63080481040E-01 -0.61133662254E+02 -0.40908324557E+03  0.43205174728E+03  0.12482901058E+03 0.  0.
          5    1    4    4  502    0 -0.20706071042E+02  0.93537044880E+02 -0.13281488678E+03  0.16382858204E+03  0.47000000000E+01 0. -1.
         -5    1    4    4    0  502  0.20769151523E+02 -0.32403382626E+02 -0.11376708266E+03  0.12019307783E+03  0.47000000000E+01 0. -1.
          5    1    5    5  503    0 -0.61819410787E+02 -0.31110761583E+02 -0.18216806571E+03  0.19492771276E+03  0.47000000000E+01 0.  1.
         -5    1    5    5    0  503  0.61756330306E+02 -0.30022900671E+02 -0.22691517986E+03  0.23712403452E+03  0.47000000000E+01 0.  1.
<mgrwt>
<rscale>  0 0.28786151E+03</rscale>
<asrwt>0</asrwt>
<pdfrwt beam="1">  1        2 0.46467840E-02 0.28786151E+03</pdfrwt>
<pdfrwt beam="2">  1       -2 0.10551836E+00 0.28786151E+03</pdfrwt>
<totfact> 0.13114109E+03</totfact>
</mgrwt>
</event>
<event>
 9    1  0.2024718E-002  0.2754687E+03  0.7818608E-02  0.1098190E+00
          4   -1    0    0  501    0  0.00000000000E+00  0.00000000000E+00  0.33659392333E+03  0.33659392333E+03  0.00000000000E+00 0.  1.
         -4   -1    0    0    0  501 -0.00000000000E+00 -0.00000000000E+00 -0.56360931364E+02  0.56360931364E+02  0.00000000000E+00 0.  1.
         36    2    1    2    0    0  0.00000000000E+00  0.00000000000E+00  0.28023299197E+03  0.39295485470E+03  0.27546866980E+03 0.  0.
         25    2    3    3    0    0  0.47316988716E+01 -0.18313553988E+02  0.78713336900E+02  0.15550299727E+03  0.13276903825E+03 0.  0.
         25    2    3    3    0    0 -0.47316988716E+01  0.18313553988E+02  0.20151965507E+03  0.23745185743E+03  0.12415892229E+03 0.  0.
          5    1    4    4  502    0 -0.32248828798E+02  0.28302642645E+02 -0.13878045566E+02  0.45340012002E+02  0.47000000000E+01 0.  1.
         -5    1    4    4    0  502  0.36980527670E+02 -0.46616196634E+02  0.92591382466E+02  0.11016298526E+03  0.47000000000E+01 0.  1.
          5    1    5    5  503    0 -0.33473710058E+02  0.46658219969E+02  0.38145393994E+02  0.69098768720E+02  0.47000000000E+01 0. -1.
         -5    1    5    5    0  503  0.28742011186E+02 -0.28344665980E+02  0.16337426107E+03  0.16835308871E+03  0.47000000000E+01 0. -1.
<mgrwt>
<rscale>  0 0.27546867E+03</rscale>
<asrwt>0</asrwt>
<pdfrwt beam="1">  1        4 0.51783679E-01 0.27546867E+03</pdfrwt>
<pdfrwt beam="2">  1       -4 0.86709127E-02 0.27546867E+03</pdfrwt>
<totfact> 0.65297265E+02</totfact>
</mgrwt>
</event>
<event>
 9    1  0.2024718E-002  0.2753656E+03  0.7818608E-02  0.1098247E+00
         -2   -1    0    0    0  501 -0.00000000000E+00  0.00000000000E+00  0.11829417405E+03  0.11829417405E+03  0.00000000000E+00 0. -1.
          2   -1    0    0  501    0  0.00000000000E+00 -0.00000000000E+00 -0.16024927473E+03  0.16024927473E+03  0.00000000000E+00 0. -1.
         36    2    1    2    0    0  0.00000000000E+00 -0.71054273576E-14 -0.41955100681E+02  0.27854344879E+03  0.27536561584E+03 0.  0.
         25    2    3    3    0    0 -0.40948346670E+02  0.13532458249E+02  0.61160162071E+01  0.13794680511E+03  0.13088934588E+03 0.  0.
         25    2    3    3    0    0  0.40948346670E+02 -0.13532458249E+02 -0.48071116888E+02  0.14059664367E+03  0.12488670631E+03 0.  0.
          5    1    4    4  502    0  0.25513202768E+02 -0.37596963515E+02  0.24701929384E+02  0.51930053884E+02  0.47000000000E+01 0. -1.
         -5    1    4    4    0  502 -0.66461549438E+02  0.51129421764E+02 -0.18585913177E+02  0.86016751230E+02  0.47000000000E+01 0. -1.
          5    1    5    5  503    0  0.57504653774E+02 -0.59567904464E+02 -0.28365242993E+02  0.87645863895E+02  0.47000000000E+01 0.  1.
         -5    1    5    5    0  503 -0.16556307104E+02  0.46035446215E+02 -0.19705873896E+02  0.52950779778E+02  0.47000000000E+01 0.  1.
<mgrwt>
<rscale>  0 0.27536562E+03</rscale>
<asrwt>0</asrwt>
<pdfrwt beam="1">  1        2 0.24653734E-01 0.27536562E+03</pdfrwt>
<pdfrwt beam="2">  1       -2 0.18199104E-01 0.27536562E+03</pdfrwt>
<totfact> 0.53627238E+03</totfact>
</mgrwt>
</event>
<event>
 9    1  0.2024718E-002  0.2666954E+03  0.7818608E-02  0.1103186E+00
          2   -1    0    0  501    0  0.00000000000E+00  0.00000000000E+00  0.33351580128E+02  0.33351580128E+02  0.00000000000E+00 0. -1.
         -2   -1    0    0    0  501 -0.00000000000E+00 -0.00000000000E+00 -0.53315641660E+03  0.53315641660E+03  0.00000000000E+00 0. -1.
         36    2    1    2    0    0 -0.35527136788E-14  0.00000000000E+00 -0.49980483647E+03  0.56650799673E+03  0.26669539890E+03 0.  0.
         25    2    3    3    0    0 -0.20376693501E+02  0.39802958340E+02 -0.28250177072E+03  0.31265877998E+03  0.12628846782E+03 0.  0.
         25    2    3    3    0    0  0.20376693501E+02 -0.39802958340E+02 -0.21730306575E+03  0.25384921675E+03  0.12336659730E+03 0.  0.
          5    1    4    4  502    0 -0.29061053642E+02  0.39046086294E+02 -0.24914806970E+02  0.54881502349E+02  0.47000000000E+01 0.  1.
         -5    1    4    4    0  502  0.86843601403E+01  0.75687204560E+00 -0.25758696375E+03  0.25777727763E+03  0.47000000000E+01 0.  1.
          5    1    5    5  503    0  0.57778260690E+02 -0.63788205530E+02 -0.15168804559E+03  0.17446666085E+03  0.47000000000E+01 0.  1.
         -5    1    5    5    0  503 -0.37401567188E+02  0.23985247190E+02 -0.65615020155E+02  0.79382555898E+02  0.47000000000E+01 0.  1.
<mgrwt>
<rscale>  0 0.26669540E+03</rscale>
<asrwt>0</asrwt>
<pdfrwt beam="1">  1        2 0.51310124E-02 0.26669540E+03</pdfrwt>
<pdfrwt beam="2">  1       -2 0.82024063E-01 0.26669540E+03</pdfrwt>
<totfact> 0.20401600E+03</totfact>
</mgrwt>
</event>
<event>
 9    1  0.2024718E-002  0.2737693E+03  0.7818608E-02  0.1099142E+00
         -1   -1    0    0    0  501 -0.00000000000E+00  0.00000000000E+00  0.12434616089E+02  0.12434616089E+02  0.00000000000E+00 0.  1.
          1   -1    0    0  501    0  0.00000000000E+00 -0.00000000000E+00 -0.15068748165E+04  0.15068748165E+04  0.00000000000E+00 0.  1.
         36    2    1    2    0    0 -0.35527136788E-14 -0.17763568394E-14 -0.14944402004E+04  0.15193094326E+04  0.27376931777E+03 0.  0.
         25    2    3    3    0    0 -0.26847722382E+02  0.10802411212E+02 -0.50987536492E+03  0.52609211400E+03  0.12634291583E+03 0.  0.
         25    2    3    3    0    0  0.26847722382E+02 -0.10802411212E+02 -0.98456483553E+03  0.99321731862E+03  0.12757442676E+03 0.  0.
          5    1    4    4  502    0 -0.75953416002E+02  0.36338741666E+01 -0.36543432267E+03  0.37329138837E+03  0.47000000000E+01 0.  1.
         -5    1    4    4    0  502  0.49105693621E+02  0.71685370450E+01 -0.14444104225E+03  0.15280072564E+03  0.47000000000E+01 0.  1.
          5    1    5    5  503    0 -0.64674751058E+01 -0.27054191961E+02 -0.90366909618E+03  0.90410933129E+03  0.47000000000E+01 0.  1.
         -5    1    5    5    0  503  0.33315197488E+02  0.16251780749E+02 -0.80895739346E+02  0.89107987327E+02  0.47000000000E+01 0.  1.
<mgrwt>
<rscale>  0 0.27376932E+03</rscale>
<asrwt>0</asrwt>
<pdfrwt beam="1">  1        1 0.23182673E+00 0.27376932E+03</pdfrwt>
<pdfrwt beam="2">  1       -1 0.19130192E-02 0.27376932E+03</pdfrwt>
<totfact> 0.51821028E+03</totfact>
</mgrwt>
</event>
<event>
 9    1  0.2024718E-002  0.2764503E+03  0.7818608E-02  0.1097644E+00
          1   -1    0    0  501    0  0.00000000000E+00  0.00000000000E+00  0.27757010561E+03  0.27757010561E+03  0.00000000000E+00 0.  1.
         -1   -1    0    0    0  501 -0.00000000000E+00 -0.00000000000E+00 -0.68833772669E+02  0.68833772669E+02  0.00000000000E+00 0.  1.
         36    2    1    2    0    0  0.00000000000E+00  0.00000000000E+00  0.20873633294E+03  0.34640387828E+03  0.27645033948E+03 0.  0.
         25    2    3    3    0    0 -0.37103360664E+02 -0.34928490596E+02  0.84476211337E+02  0.16017682738E+03  0.12618925041E+03 0.  0.
         25    2    3    3    0    0  0.37103360664E+02  0.34928490596E+02  0.12426012160E+03  0.18622705090E+03  0.12900882853E+03 0.  0.
          5    1    4    4  502    0  0.15571529268E+02  0.26454878527E+02 -0.12789709780E+02  0.33585708238E+02  0.47000000000E+01 0.  1.
         -5    1    4    4    0  502 -0.52674889932E+02 -0.61383369122E+02  0.97265921116E+02  0.12659111914E+03  0.47000000000E+01 0.  1.
          5    1    5    5  503    0  0.31755152779E+02  0.71557672833E+02  0.12650607304E+03  0.14884477413E+03  0.47000000000E+01 0. -1.
         -5    1    5    5    0  503  0.53482078850E+01 -0.36629182238E+02 -0.22459514348E+01  0.37382276774E+02  0.47000000000E+01 0. -1.
<mgrwt>
<rscale>  0 0.27645034E+03</rscale>
<asrwt>0</asrwt>
<pdfrwt beam="1">  1        1 0.42703093E-01 0.27645034E+03</pdfrwt>
<pdfrwt beam="2">  1       -1 0.10589811E-01 0.27645034E+03</pdfrwt>
<totfact> 0.53558882E+03</totfact>
</mgrwt>
</event>
<event>
 9    1  0.2024718E-002  0.2767034E+03  0.7818608E-02  0.1097503E+00
         -2   -1    0    0    0  501 -0.00000000000E+00  0.00000000000E+00  0.26371825299E+02  0.26371825299E+02  0.00000000000E+00 0. -1.
          2   -1    0    0  501    0  0.00000000000E+00 -0.00000000000E+00 -0.72581986452E+03  0.72581986452E+03  0.00000000000E+00 0. -1.
         36    2    1    2    0    0  0.00000000000E+00  0.00000000000E+00 -0.69944803922E+03  0.75219168982E+03  0.27670341281E+03 0.  0.
         25    2    3    3    0    0  0.19132727204E+01 -0.19135535562E+02 -0.50213391386E+03  0.51822018027E+03  0.12666435352E+03 0.  0.
         25    2    3    3    0    0 -0.19132727204E+01  0.19135535562E+02 -0.19731412536E+03  0.23397150955E+03  0.12425769144E+03 0.  0.
          5    1    4    4  502    0 -0.20998754672E+02 -0.56553693276E+02 -0.42557244228E+03  0.42985260445E+03  0.47000000000E+01 0.  1.
         -5    1    4    4    0  502  0.22912027393E+02  0.37418157714E+02 -0.76561471581E+02  0.88367575822E+02  0.47000000000E+01 0.  1.
          5    1    5    5  503    0 -0.20064879288E+02 -0.35064873861E+02 -0.16107252565E+03  0.16612824347E+03  0.47000000000E+01 0.  1.
         -5    1    5    5    0  503  0.18151606567E+02  0.54200409423E+02 -0.36241599707E+02  0.67843266077E+02  0.47000000000E+01 0.  1.
<mgrwt>
<rscale>  0 0.27670341E+03</rscale>
<asrwt>0</asrwt>
<pdfrwt beam="1">  1        2 0.11166460E+00 0.27670341E+03</pdfrwt>
<pdfrwt beam="2">  1       -2 0.40572037E-02 0.27670341E+03</pdfrwt>
<totfact> 0.10751564E+04</totfact>
</mgrwt>
</event>
<event>
 9    1  0.2024718E-002  0.2749519E+03  0.7818608E-02  0.1098478E+00
         -1   -1    0    0    0  501 -0.00000000000E+00  0.00000000000E+00  0.51275409943E+02  0.51275409943E+02  0.00000000000E+00 0. -1.
          1   -1    0    0  501    0  0.00000000000E+00 -0.00000000000E+00 -0.36859061000E+03  0.36859061000E+03  0.00000000000E+00 0. -1.
         36    2    1    2    0    0  0.00000000000E+00  0.00000000000E+00 -0.31731520006E+03  0.41986601994E+03  0.27495188400E+03 0.  0.
         25    2    3    3    0    0  0.54408129044E+02 -0.70530871230E+01 -0.14519411240E+03  0.20007789227E+03  0.12625308771E+03 0.  0.
         25    2    3    3    0    0 -0.54408129044E+02  0.70530871230E+01 -0.17212108766E+03  0.21978812768E+03  0.12518451065E+03 0.  0.
          5    1    4    4  502    0  0.47810402337E+02 -0.64054561713E+02 -0.85964339936E+02  0.11747671764E+03  0.47000000000E+01 0.  1.
         -5    1    4    4    0  502  0.65977267062E+01  0.57001474590E+02 -0.59229772461E+02  0.82601174622E+02  0.47000000000E+01 0.  1.
          5    1    5    5  503    0 -0.45288845434E+02  0.43123284726E+02 -0.24252170890E+02  0.67238047259E+02  0.47000000000E+01 0. -1.
         -5    1    5    5    0  503 -0.91192836093E+01 -0.36070197603E+02 -0.14786891677E+03  0.15255008042E+03  0.47000000000E+01 0. -1.
<mgrwt>
<rscale>  0 0.27495188E+03</rscale>
<asrwt>0</asrwt>
<pdfrwt beam="1">  1        1 0.56706249E-01 0.27495188E+03</pdfrwt>
<pdfrwt beam="2">  1       -1 0.78885244E-02 0.27495188E+03</pdfrwt>
<totfact> 0.58883812E+03</totfact>
</mgrwt>
</event>
<event>
 9    1  0.2024718E-002  0.2720517E+03  0.7818608E-02  0.1100111E+00
          2   -1    0    0  501    0  0.00000000000E+00  0.00000000000E+00  0.11355579181E+04  0.11355579181E+04  0.00000000000E+00 0.  1.
         -2   -1    0    0    0  501 -0.00000000000E+00 -0.00000000000E+00 -0.16294225839E+02  0.16294225839E+02  0.00000000000E+00 0.  1.
         36    2    1    2    0    0  0.00000000000E+00  0.00000000000E+00  0.11192636923E+04  0.11518521440E+04  0.27205173898E+03 0.  0.
         25    2    3    3    0    0  0.40177263164E+02 -0.12702170696E+02  0.45426016366E+03  0.47385988099E+03  0.12812233570E+03 0.  0.
         25    2    3    3    0    0 -0.40177263164E+02  0.12702170696E+02  0.66500352861E+03  0.67799226297E+03  0.12517291223E+03 0.  0.
          5    1    4    4  502    0 -0.34092680390E+02  0.32399097461E+02  0.18160912621E+03  0.18765920467E+03  0.47000000000E+01 0. -1.
         -5    1    4    4    0  502  0.74269943554E+02 -0.45101268157E+02  0.27265103745E+03  0.28620067632E+03  0.47000000000E+01 0. -1.
          5    1    5    5  503    0 -0.32418053850E+02  0.67721293034E+02  0.42400234788E+03  0.43062418041E+03  0.47000000000E+01 0. -1.
         -5    1    5    5    0  503 -0.77592093135E+01 -0.55019122338E+02  0.24100118073E+03  0.24736808256E+03  0.47000000000E+01 0. -1.
<mgrwt>
<rscale>  0 0.27205174E+03</rscale>
<asrwt>0</asrwt>
<pdfrwt beam="1">  1        2 0.17470116E+00 0.27205174E+03</pdfrwt>
<pdfrwt beam="2">  1       -2 0.25068049E-02 0.27205174E+03</pdfrwt>
<totfact> 0.12024718E+04</totfact>
</mgrwt>
</event>
<event>
 9    1  0.2024718E-002  0.2746611E+03  0.7818608E-02  0.1098641E+00
         -1   -1    0    0    0  501 -0.00000000000E+00  0.00000000000E+00  0.25070753810E+02  0.25070753810E+02  0.00000000000E+00 0. -1.
          1   -1    0    0  501    0  0.00000000000E+00 -0.00000000000E+00 -0.75225799731E+03  0.75225799731E+03  0.00000000000E+00 0. -1.
         36    2    1    2    0    0 -0.14210854715E-13  0.35527136788E-14 -0.72718724350E+03  0.77732875112E+03  0.27466106424E+03 0.  0.
         25    2    3    3    0    0  0.42978866350E+02 -0.17372515838E+02 -0.29105551946E+03  0.32057451694E+03  0.12611787440E+03 0.  0.
         25    2    3    3    0    0 -0.42978866350E+02  0.17372515838E+02 -0.43613172404E+03  0.45675423418E+03  0.12753259375E+03 0.  0.
          5    1    4    4  502    0 -0.22194029794E+02  0.89156113057E+01 -0.21703560869E+03  0.21840011109E+03  0.47000000000E+01 0.  1.
         -5    1    4    4    0  502  0.65172896144E+02 -0.26288127144E+02 -0.74019910770E+02  0.10217440585E+03  0.47000000000E+01 0.  1.
          5    1    5    5  503    0  0.38392669856E+02  0.16416773569E+02 -0.69870155234E+02  0.81531810636E+02  0.47000000000E+01 0. -1.
         -5    1    5    5    0  503 -0.81371536206E+02  0.95574226981E+00 -0.36626156880E+03  0.37522242354E+03  0.47000000000E+01 0. -1.
<mgrwt>
<rscale>  0 0.27466106E+03</rscale>
<asrwt>0</asrwt>
<pdfrwt beam="1">  1        1 0.11573201E+00 0.27466106E+03</pdfrwt>
<pdfrwt beam="2">  1       -1 0.38570388E-02 0.27466106E+03</pdfrwt>
<totfact> 0.65588261E+03</totfact>
</mgrwt>
</event>
<event>
 9    1  0.2024718E-002  0.2751451E+03  0.7818608E-02  0.1098371E+00
         -2   -1    0    0    0  501 -0.00000000000E+00  0.00000000000E+00  0.31709586405E+02  0.31709586405E+02  0.00000000000E+00 0.  1.
          2   -1    0    0  501    0  0.00000000000E+00 -0.00000000000E+00 -0.59686072264E+03  0.59686072264E+03  0.00000000000E+00 0.  1.
         36    2    1    2    0    0  0.00000000000E+00  0.00000000000E+00 -0.56515113624E+03  0.62857030905E+03  0.27514510104E+03 0.  0.
         25    2    3    3    0    0  0.21056550545E+02  0.32864650497E+02 -0.26713663634E+03  0.29652895703E+03  0.12265388828E+03 0.  0.
         25    2    3    3    0    0 -0.21056550545E+02 -0.32864650497E+02 -0.29801449990E+03  0.33204135202E+03  0.14112176914E+03 0.  0.
          5    1    4    4  502    0  0.62741393677E+02  0.94969415118E+01 -0.74389649245E+02  0.97890675212E+02  0.47000000000E+01 0. -1.
         -5    1    4    4    0  502 -0.41684843132E+02  0.23367708985E+02 -0.19274698709E+03  0.19863828182E+03  0.47000000000E+01 0. -1.
          5    1    5    5  503    0 -0.41659327358E+02  0.46596064170E+02 -0.10569968495E+03  0.12288696493E+03  0.47000000000E+01 0.  1.
         -5    1    5    5    0  503  0.20602776813E+02 -0.79460714667E+02 -0.19231481495E+03  0.20915438708E+03  0.47000000000E+01 0.  1.
<mgrwt>
<rscale>  0 0.27514510E+03</rscale>
<asrwt>0</asrwt>
<pdfrwt beam="1">  1        2 0.91824723E-01 0.27514510E+03</pdfrwt>
<pdfrwt beam="2">  1       -2 0.48783981E-02 0.27514510E+03</pdfrwt>
<totfact> 0.10272167E+04</totfact>
</mgrwt>
</event>
<event>
 9    1  0.2024718E-002  0.2749455E+03  0.7818608E-02  0.1098482E+00
          2   -1    0    0  501    0  0.00000000000E+00  0.00000000000E+00  0.13885450752E+04  0.13885450752E+04  0.00000000000E+00 0.  1.
         -2   -1    0    0    0  501 -0.00000000000E+00 -0.00000000000E+00 -0.13610474009E+02  0.13610474009E+02  0.00000000000E+00 0.  1.
         36    2    1    2    0    0 -0.17763568394E-14  0.00000000000E+00  0.13749346012E+04  0.14021555492E+04  0.27494549755E+03 0.  0.
         25    2    3    3    0    0 -0.13103824111E+02  0.50152014993E+02  0.73044079768E+03  0.74271791131E+03  0.12409352137E+03 0.  0.
         25    2    3    3    0    0  0.13103824111E+02 -0.50152014993E+02  0.64449380349E+03  0.65943763788E+03  0.12961018749E+03 0.  0.
          5    1    4    4  502    0 -0.21653848919E+02  0.19838471911E+02  0.32513213147E+02  0.44064193739E+02  0.47000000000E+01 0.  1.
         -5    1    4    4    0  502  0.85500248082E+01  0.30313543082E+02  0.69792758453E+03  0.69865371757E+03  0.47000000000E+01 0.  1.
          5    1    5    5  503    0 -0.21432388454E+02 -0.31974267004E+02  0.59486011379E+03  0.59612276085E+03  0.47000000000E+01 0. -1.
         -5    1    5    5    0  503  0.34536212565E+02 -0.18177747988E+02  0.49633689704E+02  0.63314877034E+02  0.47000000000E+01 0. -1.
<mgrwt>
<rscale>  0 0.27494550E+03</rscale>
<asrwt>0</asrwt>
<pdfrwt beam="1">  1        2 0.21362221E+00 0.27494550E+03</pdfrwt>
<pdfrwt beam="2">  1       -2 0.20939202E-02 0.27494550E+03</pdfrwt>
<totfact> 0.11323103E+04</totfact>
</mgrwt>
</event>
<event>
 9    1  0.2024718E-002  0.2752783E+03  0.7818608E-02  0.1098296E+00
          1   -1    0    0  501    0  0.00000000000E+00  0.00000000000E+00  0.11133978987E+04  0.11133978987E+04  0.00000000000E+00 0.  1.
         -1   -1    0    0    0  501 -0.00000000000E+00 -0.00000000000E+00 -0.17015068124E+02  0.17015068124E+02  0.00000000000E+00 0.  1.
         36    2    1    2    0    0  0.00000000000E+00  0.00000000000E+00  0.10963828306E+04  0.11304129669E+04  0.27527833984E+03 0.  0.
         25    2    3    3    0    0 -0.60726351815E+01 -0.43782221250E+02  0.42570454405E+03  0.44718506939E+03  0.12960080120E+03 0.  0.
         25    2    3    3    0    0  0.60726351815E+01  0.43782221250E+02  0.67067828658E+03  0.68322789748E+03  0.12262640829E+03 0.  0.
          5    1    4    4  502    0 -0.22727279395E+02 -0.72674035609E+02  0.39266179479E+03  0.40000427468E+03  0.47000000000E+01 0. -1.
         -5    1    4    4    0  502  0.16654644213E+02  0.28891814359E+02  0.33042749260E+02  0.47180794711E+02  0.47000000000E+01 0. -1.
          5    1    5    5  503    0 -0.27771155121E+02  0.75036804351E+02  0.33977150440E+03  0.34909672623E+03  0.47000000000E+01 0.  1.
         -5    1    5    5    0  503  0.33843790302E+02 -0.31254583101E+02  0.33090678218E+03  0.33413117125E+03  0.47000000000E+01 0.  1.
<mgrwt>
<rscale>  0 0.27527834E+03</rscale>
<asrwt>0</asrwt>
<pdfrwt beam="1">  1        1 0.17129193E+00 0.27527834E+03</pdfrwt>
<pdfrwt beam="2">  1       -1 0.26177037E-02 0.27527834E+03</pdfrwt>
<totfact> 0.60868265E+03</totfact>
</mgrwt>
</event>
<event>
 9    1  0.2024718E-002  0.2748137E+03  0.7818608E-02  0.1098556E+00
          2   -1    0    0  501    0  0.00000000000E+00  0.00000000000E+00  0.24178866907E+04  0.24178866907E+04  0.00000000000E+00 0.  1.
         -2   -1    0    0    0  501 -0.00000000000E+00 -0.00000000000E+00 -0.78087370406E+01  0.78087370406E+01  0.00000000000E+00 0.  1.
         36    2    1    2    0    0  0.00000000000E+00 -0.35527136788E-14  0.24100779537E+04  0.24256954277E+04  0.27481369225E+03 0.  0.
         25    2    3    3    0    0 -0.40060426509E+02  0.19544065171E+02  0.87112869710E+03  0.88119606884E+03  0.12511793069E+03 0.  0.
         25    2    3    3    0    0  0.40060426509E+02 -0.19544065171E+02  0.15389492566E+04  0.15444993589E+04  0.12299043505E+03 0.  0.
          5    1    4    4  502    0 -0.29850172664E+01 -0.29500167278E+02  0.54324421601E+02  0.62067728972E+02  0.47000000000E+01 0. -1.
         -5    1    4    4    0  502 -0.37075409242E+02  0.49044232449E+02  0.81680427550E+03  0.81912833987E+03  0.47000000000E+01 0. -1.
          5    1    5    5  503    0  0.48663744578E+01 -0.37453667487E+02  0.14283273579E+03  0.14781657290E+03  0.47000000000E+01 0. -1.
         -5    1    5    5    0  503  0.35194052051E+02  0.17909602315E+02  0.13961165208E+04  0.13966827860E+04  0.47000000000E+01 0. -1.
<mgrwt>
<rscale>  0 0.27481369E+03</rscale>
<asrwt>0</asrwt>
<pdfrwt beam="1">  1        2 0.37198197E+00 0.27481369E+03</pdfrwt>
<pdfrwt beam="2">  1       -2 0.12013461E-02 0.27481369E+03</pdfrwt>
<totfact> 0.72578067E+03</totfact>
</mgrwt>
</event>
<event>
 9    1  0.2024718E-002  0.2762292E+03  0.7818608E-02  0.1097767E+00
         -2   -1    0    0    0  501 -0.00000000000E+00  0.00000000000E+00  0.42918915668E+02  0.42918915668E+02  0.00000000000E+00 0.  1.
          2   -1    0    0  501    0  0.00000000000E+00 -0.00000000000E+00 -0.44445755140E+03  0.44445755140E+03  0.00000000000E+00 0.  1.
         36    2    1    2    0    0 -0.71054273576E-14  0.00000000000E+00 -0.40153863573E+03  0.48737646707E+03  0.27622915246E+03 0.  0.
         25    2    3    3    0    0  0.54557012673E+02 -0.10088880972E+02 -0.22484072958E+03  0.26308660623E+03  0.12483170890E+03 0.  0.
         25    2    3    3    0    0 -0.54557012673E+02  0.10088880972E+02 -0.17669790615E+03  0.22428986084E+03  0.12651299730E+03 0.  0.
          5    1    4    4  502    0  0.35790848536E+02  0.25598176950E+02 -0.11233823425E+02  0.45656766102E+02  0.47000000000E+01 0.  1.
         -5    1    4    4    0  502  0.18766164137E+02 -0.35687057922E+02 -0.21360690616E+03  0.21742984012E+03  0.47000000000E+01 0.  1.
          5    1    5    5  503    0  0.17151276052E+02  0.48720947540E+02 -0.98282986603E+02  0.11112845025E+03  0.47000000000E+01 0.  1.
         -5    1    5    5    0  503 -0.71708288725E+02 -0.38632066568E+02 -0.78414919551E+02  0.11316141059E+03  0.47000000000E+01 0.  1.
<mgrwt>
<rscale>  0 0.27622915E+03</rscale>
<asrwt>0</asrwt>
<pdfrwt beam="1">  1        2 0.68378085E-01 0.27622915E+03</pdfrwt>
<pdfrwt beam="2">  1       -2 0.66029101E-02 0.27622915E+03</pdfrwt>
<totfact> 0.90120479E+03</totfact>
</mgrwt>
</event>
<event>
 8    1  0.2024718E-002  0.3004470E+03  0.7818608E-02  0.1085017E+00
         -2   -1    0    0    0  501 -0.00000000000E+00  0.00000000000E+00  0.17956084510E+02  0.17956084510E+02  0.00000000000E+00 0. -1.
          2   -1    0    0  501    0  0.00000000000E+00 -0.00000000000E+00 -0.12567943802E+04  0.12567943802E+04  0.00000000000E+00 0. -1.
         25    2    1    2    0    0 -0.26021251638E+02  0.12956881000E+02 -0.90493301464E+03  0.91605418338E+03  0.13930728480E+03 0.  0.
         25    2    1    2    0    0  0.26021251638E+02 -0.12956881000E+02 -0.33390528107E+03  0.35869628135E+03  0.12777049435E+03 0.  0.
          5    1    3    3  502    0 -0.62791218819E+02 -0.13686566489E+02 -0.78637905163E+03  0.78901467801E+03  0.47000000000E+01 0.  1.
         -5    1    3    3    0  502  0.36769967181E+02  0.26643447488E+02 -0.11855396300E+03  0.12703950537E+03  0.47000000000E+01 0.  1.
          5    1    4    4  503    0  0.10429088446E+02 -0.69891278222E+02 -0.20361456902E+03  0.21557954303E+03  0.47000000000E+01 0. -1.
         -5    1    4    4    0  503  0.15592163191E+02  0.56934397222E+02 -0.13029071205E+03  0.14311673832E+03  0.47000000000E+01 0. -1.
<mgrwt>
<rscale>  0 0.30044704E+03</rscale>
<asrwt>0</asrwt>
<pdfrwt beam="1">  1        2 0.19335297E+00 0.30044704E+03</pdfrwt>
<pdfrwt beam="2">  1       -2 0.27624747E-02 0.30044704E+03</pdfrwt>
<totfact> 0.89006499E+03</totfact>
</mgrwt>
</event>
<event>
 9    1  0.2024718E-002  0.2748620E+03  0.7818608E-02  0.1098529E+00
         -2   -1    0    0    0  501 -0.00000000000E+00  0.00000000000E+00  0.14433353230E+02  0.14433353230E+02  0.00000000000E+00 0. -1.
          2   -1    0    0  501    0  0.00000000000E+00 -0.00000000000E+00 -0.13085858513E+04  0.13085858513E+04  0.00000000000E+00 0. -1.
         36    2    1    2    0    0 -0.35527136788E-14 -0.88817841970E-15 -0.12941524980E+04  0.13230192045E+04  0.27486201501E+03 0.  0.
         25    2    3    3    0    0  0.54072973400E+01  0.65694129525E+01 -0.91094721414E+03  0.91954853183E+03  0.12518897475E+03 0.  0.
         25    2    3    3    0    0 -0.54072973400E+01 -0.65694129525E+01 -0.38320528390E+03  0.40347067267E+03  0.12597578355E+03 0.  0.
          5    1    4    4  502    0  0.64472359702E+02  0.12027315625E+02 -0.45079436032E+03  0.45556447050E+03  0.47000000000E+01 0. -1.
         -5    1    4    4    0  502 -0.59065062362E+02 -0.54579026722E+01 -0.46015285382E+03  0.46398406133E+03  0.47000000000E+01 0. -1.
          5    1    5    5  503    0 -0.27190922436E+02  0.17879978512E+02 -0.19426025888E+02  0.38190317834E+02  0.47000000000E+01 0.  1.
         -5    1    5    5    0  503  0.21783625096E+02 -0.24449391465E+02 -0.36377925802E+03  0.36528035483E+03  0.47000000000E+01 0.  1.
<mgrwt>
<rscale>  0 0.27486202E+03</rscale>
<asrwt>0</asrwt>
<pdfrwt beam="1">  1        2 0.20132095E+00 0.27486202E+03</pdfrwt>
<pdfrwt beam="2">  1       -2 0.22205154E-02 0.27486202E+03</pdfrwt>
<totfact> 0.11487384E+04</totfact>
</mgrwt>
</event>
<event>
 9    1  0.2024718E-002  0.2742495E+03  0.7818608E-02  0.1098872E+00
          3   -1    0    0  501    0  0.00000000000E+00  0.00000000000E+00  0.22113741805E+03  0.22113741805E+03  0.00000000000E+00 0. -1.
         -3   -1    0    0    0  501 -0.00000000000E+00 -0.00000000000E+00 -0.85029491630E+02  0.85029491630E+02  0.00000000000E+00 0. -1.
         36    2    1    2    0    0  0.00000000000E+00  0.17763568394E-14  0.13610792642E+03  0.30616690968E+03  0.27424953774E+03 0.  0.
         25    2    3    3    0    0 -0.64748229474E+02 -0.17843692215E+01  0.60199393635E+02  0.15332387042E+03  0.12525464085E+03 0.  0.
         25    2    3    3    0    0  0.64748229474E+02  0.17843692215E+01  0.75908532784E+02  0.15284303926E+03  0.11577293339E+03 0.  0.
          5    1    4    4  502    0 -0.89291067648E+02 -0.32538697816E+01  0.14739925825E+01  0.89486004964E+02  0.47000000000E+01 0.  1.
         -5    1    4    4    0  502  0.24542838173E+02  0.14695005601E+01  0.58725401053E+02  0.63837865459E+02  0.47000000000E+01 0.  1.
          5    1    5    5  503    0  0.39126523837E+02 -0.31908708582E+02  0.93816381340E+02  0.10664264606E+03  0.47000000000E+01 0.  1.
         -5    1    5    5    0  503  0.25621705638E+02  0.33693077803E+02 -0.17907848556E+02  0.46200393197E+02  0.47000000000E+01 0.  1.
<mgrwt>
<rscale>  0 0.27424954E+03</rscale>
<asrwt>0</asrwt>
<pdfrwt beam="1">  1        3 0.34021141E-01 0.27424954E+03</pdfrwt>
<pdfrwt beam="2">  1       -3 0.13081460E-01 0.27424954E+03</pdfrwt>
<totfact> 0.10112674E+03</totfact>
</mgrwt>
</event>
<event>
 9    1  0.2024718E-002  0.2836504E+03  0.7818608E-02  0.1093712E+00
         -2   -1    0    0    0  501 -0.00000000000E+00  0.00000000000E+00  0.21659587756E+03  0.21659587756E+03  0.00000000000E+00 0.  1.
          2   -1    0    0  501    0  0.00000000000E+00 -0.00000000000E+00 -0.92865956799E+02  0.92865956799E+02  0.00000000000E+00 0.  1.
         36    2    1    2    0    0  0.17763568394E-14 -0.14210854715E-13  0.12372992076E+03  0.30946183436E+03  0.28365037217E+03 0.  0.
         25    2    3    3    0    0  0.12613445648E+02 -0.42667254438E+02  0.12605034349E+02  0.13626004783E+03  0.12817300860E+03 0.  0.
         25    2    3    3    0    0 -0.12613445648E+02  0.42667254438E+02  0.11112488641E+03  0.17320178652E+03  0.12518196700E+03 0.  0.
          5    1    4    4  502    0 -0.19759940707E+01 -0.86905243204E+02  0.18718664942E+02  0.89044394917E+02  0.47000000000E+01 0.  1.
         -5    1    4    4    0  502  0.14589439719E+02  0.44237988766E+02 -0.61136305924E+01  0.47215652918E+02  0.47000000000E+01 0.  1.
          5    1    5    5  503    0 -0.19512117427E+02  0.85115534037E+02  0.59136317925E+02  0.10556785002E+03  0.47000000000E+01 0. -1.
         -5    1    5    5    0  503  0.68986717783E+01 -0.42448279600E+02  0.51988568487E+02  0.67633936501E+02  0.47000000000E+01 0. -1.
<mgrwt>
<rscale>  0 0.28365037E+03</rscale>
<asrwt>0</asrwt>
<pdfrwt beam="1">  1        2 0.14287070E-01 0.28365037E+03</pdfrwt>
<pdfrwt beam="2">  1       -2 0.33322442E-01 0.28365037E+03</pdfrwt>
<totfact> 0.34676516E+03</totfact>
</mgrwt>
</event>
<event>
 9    1  0.2024718E-002  0.2786952E+03  0.7818608E-02  0.1096404E+00
         -2   -1    0    0    0  501 -0.00000000000E+00  0.00000000000E+00  0.78251949140E+01  0.78251949140E+01  0.00000000000E+00 0.  1.
          2   -1    0    0  501    0  0.00000000000E+00 -0.00000000000E+00 -0.24814397128E+04  0.24814397128E+04  0.00000000000E+00 0.  1.
         36    2    1    2    0    0  0.71054273576E-14  0.71054273576E-14 -0.24736145179E+04  0.24892649077E+04  0.27869516982E+03 0.  0.
         25    2    3    3    0    0 -0.24739274909E+02 -0.36142295961E+02 -0.12272533393E+04  0.12358350864E+04  0.13863370705E+03 0.  0.
         25    2    3    3    0    0  0.24739274909E+02  0.36142295961E+02 -0.12463611787E+04  0.12534298214E+04  0.12550630317E+03 0.  0.
          5    1    4    4  502    0 -0.79846098733E+02 -0.39965546491E+02 -0.80801559761E+03  0.81294768612E+03  0.47000000000E+01 0. -1.
         -5    1    4    4    0  502  0.55106823824E+02  0.38232505298E+01 -0.41923774165E+03  0.42288740026E+03  0.47000000000E+01 0. -1.
          5    1    5    5  503    0 -0.27674508342E+02  0.16120583280E+02 -0.89069173972E+02  0.94768978940E+02  0.47000000000E+01 0.  1.
         -5    1    5    5    0  503  0.52413783251E+02  0.20021712681E+02 -0.11572920047E+04  0.11586608424E+04  0.47000000000E+01 0.  1.
<mgrwt>
<rscale>  0 0.27869517E+03</rscale>
<asrwt>0</asrwt>
<pdfrwt beam="1">  1        2 0.38176062E+00 0.27869517E+03</pdfrwt>
<pdfrwt beam="2">  1       -2 0.12038741E-02 0.27869517E+03</pdfrwt>
<totfact> 0.66805655E+03</totfact>
</mgrwt>
</event>
<event>
 9    1  0.2024718E-002  0.2751500E+03  0.7818608E-02  0.1098368E+00
          4   -1    0    0  501    0  0.00000000000E+00  0.00000000000E+00  0.53563319121E+03  0.53563319121E+03  0.00000000000E+00 0. -1.
         -4   -1    0    0    0  501 -0.00000000000E+00 -0.00000000000E+00 -0.35335523239E+02  0.35335523239E+02  0.00000000000E+00 0. -1.
         36    2    1    2    0    0  0.35527136788E-14  0.00000000000E+00  0.50029766797E+03  0.57096871445E+03  0.27514998874E+03 0.  0.
         25    2    3    3    0    0  0.15752443024E+01  0.29534675046E+02  0.34514201517E+03  0.36930896524E+03  0.12802860127E+03 0.  0.
         25    2    3    3    0    0 -0.15752443024E+01 -0.29534675046E+02  0.15515565279E+03  0.20165974921E+03  0.12537383871E+03 0.  0.
          5    1    4    4  502    0  0.53042540148E+02 -0.10968598290E+02  0.84162569215E+02  0.10019605417E+03  0.47000000000E+01 0.  1.
         -5    1    4    4    0  502 -0.51467295846E+02  0.40503273335E+02  0.26097944596E+03  0.26911291107E+03  0.47000000000E+01 0.  1.
          5    1    5    5  503    0 -0.28593194128E+02 -0.60222303211E+02  0.14440965376E+03  0.15912427424E+03  0.47000000000E+01 0. -1.
         -5    1    5    5    0  503  0.27017949825E+02  0.30687628165E+02  0.10745999034E+02  0.42535474964E+02  0.47000000000E+01 0. -1.
<mgrwt>
<rscale>  0 0.27514999E+03</rscale>
<asrwt>0</asrwt>
<pdfrwt beam="1">  1        4 0.82405101E-01 0.27514999E+03</pdfrwt>
<pdfrwt beam="2">  1       -4 0.54362347E-02 0.27514999E+03</pdfrwt>
<totfact> 0.51926027E+02</totfact>
</mgrwt>
</event>
<event>
 9    1  0.2024718E-002  0.2743022E+03  0.7818608E-02  0.1098842E+00
          2   -1    0    0  501    0  0.00000000000E+00  0.00000000000E+00  0.64602984955E+02  0.64602984955E+02  0.00000000000E+00 0. -1.
         -2   -1    0    0    0  501 -0.00000000000E+00 -0.00000000000E+00 -0.29116959043E+03  0.29116959043E+03  0.00000000000E+00 0. -1.
         36    2    1    2    0    0 -0.17763568394E-14 -0.71054273576E-14 -0.22656660548E+03  0.35577257539E+03  0.27430220320E+03 0.  0.
         25    2    3    3    0    0 -0.40933204768E+01 -0.41245226280E+02 -0.84660721424E+02  0.16211690754E+03  0.13189590590E+03 0.  0.
         25    2    3    3    0    0  0.40933204768E+01  0.41245226280E+02 -0.14190588405E+03  0.19365566785E+03  0.12508922335E+03 0.  0.
          5    1    4    4  502    0 -0.16085827817E+02 -0.17695496978E+02 -0.11733014622E+03  0.11983462639E+03  0.47000000000E+01 0.  1.
         -5    1    4    4    0  502  0.11992507340E+02 -0.23549729302E+02  0.32669424797E+02  0.42282281148E+02  0.47000000000E+01 0.  1.
          5    1    5    5  503    0  0.27915728484E+01  0.77196730170E+02 -0.43506497257E+02  0.88780816236E+02  0.47000000000E+01 0.  1.
         -5    1    5    5    0  503  0.13017476284E+01 -0.35951503891E+02 -0.98399386795E+02  0.10487485161E+03  0.47000000000E+01 0.  1.
<mgrwt>
<rscale>  0 0.27430220E+03</rscale>
<asrwt>0</asrwt>
<pdfrwt beam="1">  1        2 0.99389209E-02 0.27430220E+03</pdfrwt>
<pdfrwt beam="2">  1       -2 0.44795321E-01 0.27430220E+03</pdfrwt>
<totfact> 0.30734945E+03</totfact>
</mgrwt>
</event>
<event>
 9    1  0.2024718E-002  0.2754715E+03  0.7818608E-02  0.1098188E+00
         -1   -1    0    0    0  501 -0.00000000000E+00  0.00000000000E+00  0.12697481053E+03  0.12697481053E+03  0.00000000000E+00 0.  1.
          1   -1    0    0  501    0  0.00000000000E+00 -0.00000000000E+00 -0.14940866957E+03  0.14940866957E+03  0.00000000000E+00 0.  1.
         36    2    1    2    0    0  0.00000000000E+00  0.71054273576E-14 -0.22433859044E+02  0.27638348010E+03  0.27547150495E+03 0.  0.
         25    2    3    3    0    0 -0.48346234405E+02  0.19299629009E+02 -0.24955249816E+02  0.13959799856E+03  0.12710233140E+03 0.  0.
         25    2    3    3    0    0  0.48346234405E+02 -0.19299629009E+02  0.25213907721E+01  0.13678548154E+03  0.12646768950E+03 0.  0.
          5    1    4    4  502    0  0.22069928443E+01 -0.49619003598E+02  0.17728272264E+01  0.49921430787E+02  0.47000000000E+01 0. -1.
         -5    1    4    4    0  502 -0.50553227249E+02  0.68918632607E+02 -0.26728077042E+02  0.89676567776E+02  0.47000000000E+01 0. -1.
          5    1    5    5  503    0 -0.15573806497E+02  0.38215191550E+02  0.24084865024E+02  0.48011613566E+02  0.47000000000E+01 0. -1.
         -5    1    5    5    0  503  0.63920040902E+02 -0.57514820559E+02 -0.21563474252E+02  0.88773867972E+02  0.47000000000E+01 0. -1.
<mgrwt>
<rscale>  0 0.27547150E+03</rscale>
<asrwt>0</asrwt>
<pdfrwt beam="1">  1        1 0.22985949E-01 0.27547150E+03</pdfrwt>
<pdfrwt beam="2">  1       -1 0.19534586E-01 0.27547150E+03</pdfrwt>
<totfact> 0.44398689E+03</totfact>
</mgrwt>
</event>
<event>
 9    1  0.2024718E-002  0.2756061E+03  0.7818608E-02  0.1098113E+00
          1   -1    0    0  501    0  0.00000000000E+00  0.00000000000E+00  0.22043340008E+03  0.22043340008E+03  0.00000000000E+00 0. -1.
         -1   -1    0    0    0  501 -0.00000000000E+00 -0.00000000000E+00 -0.86146996568E+02  0.86146996568E+02  0.00000000000E+00 0. -1.
         36    2    1    2    0    0  0.71054273576E-14  0.00000000000E+00  0.13428640351E+03  0.30658039665E+03  0.27560606206E+03 0.  0.
         25    2    3    3    0    0 -0.35028061320E+02 -0.45608088700E+02  0.56389602406E+02  0.14652829687E+03  0.12240789064E+03 0.  0.
         25    2    3    3    0    0  0.35028061320E+02  0.45608088700E+02  0.77896801109E+02  0.16005209978E+03  0.12744292913E+03 0.  0.
          5    1    4    4  502    0  0.20830182551E+02  0.32119192575E+02  0.23724308020E+02  0.45282135858E+02  0.47000000000E+01 0. -1.
         -5    1    4    4    0  502 -0.55858243871E+02 -0.77727281275E+02  0.32665294385E+02  0.10124616101E+03  0.47000000000E+01 0. -1.
          5    1    5    5  503    0  0.16284452061E+02 -0.46270372605E+01 -0.32662096355E+02  0.37087671685E+02  0.47000000000E+01 0. -1.
         -5    1    5    5    0  503  0.18743609259E+02  0.50235125960E+02  0.11055889746E+03  0.12296442810E+03  0.47000000000E+01 0. -1.
<mgrwt>
<rscale>  0 0.27560606E+03</rscale>
<asrwt>0</asrwt>
<pdfrwt beam="1">  1        1 0.33912831E-01 0.27560606E+03</pdfrwt>
<pdfrwt beam="2">  1       -1 0.13253384E-01 0.27560606E+03</pdfrwt>
<totfact> 0.50391356E+03</totfact>
</mgrwt>
</event>
<event>
 9    1  0.2024718E-002  0.2747930E+03  0.7818608E-02  0.1098567E+00
          1   -1    0    0  501    0  0.00000000000E+00  0.00000000000E+00  0.65343326786E+03  0.65343326786E+03  0.00000000000E+00 0. -1.
         -1   -1    0    0    0  501 -0.00000000000E+00 -0.00000000000E+00 -0.28890178518E+02  0.28890178518E+02  0.00000000000E+00 0. -1.
         36    2    1    2    0    0  0.00000000000E+00  0.00000000000E+00  0.62454308934E+03  0.68232344638E+03  0.27479304036E+03 0.  0.
         25    2    3    3    0    0 -0.44223164823E+02  0.48753126553E+01  0.40206543742E+03  0.42329338780E+03  0.12466442640E+03 0.  0.
         25    2    3    3    0    0  0.44223164823E+02 -0.48753126553E+01  0.22247765193E+03  0.25903005858E+03  0.12498323352E+03 0.  0.
          5    1    4    4  502    0  0.24620791222E+02  0.45076692339E+02  0.13393681848E+03  0.14352439827E+03  0.47000000000E+01 0.  1.
         -5    1    4    4    0  502 -0.68843956045E+02 -0.40201379683E+02  0.26812861894E+03  0.27976898954E+03  0.47000000000E+01 0.  1.
          5    1    5    5  503    0 -0.51158921181E+01  0.39022976799E+02  0.16962698204E+02  0.43113666056E+02  0.47000000000E+01 0.  1.
         -5    1    5    5    0  503  0.49339056941E+02 -0.43898289455E+02  0.20551495372E+03  0.21591639252E+03  0.47000000000E+01 0.  1.
<mgrwt>
<rscale>  0 0.27479304E+03</rscale>
<asrwt>0</asrwt>
<pdfrwt beam="1">  1        1 0.10052818E+00 0.27479304E+03</pdfrwt>
<pdfrwt beam="2">  1       -1 0.44446433E-02 0.27479304E+03</pdfrwt>
<totfact> 0.65240834E+03</totfact>
</mgrwt>
</event>
<event>
 9    1  0.2024718E-002  0.2750022E+03  0.7818608E-02  0.1098450E+00
         -2   -1    0    0    0  501 -0.00000000000E+00  0.00000000000E+00  0.60909020135E+02  0.60909020135E+02  0.00000000000E+00 0. -1.
          2   -1    0    0  501    0  0.00000000000E+00 -0.00000000000E+00 -0.31040653465E+03  0.31040653465E+03  0.00000000000E+00 0. -1.
         36    2    1    2    0    0 -0.35527136788E-14  0.71054273576E-14 -0.24949751451E+03  0.37131555478E+03  0.27500223904E+03 0.  0.
         25    2    3    3    0    0  0.27199570173E+02  0.17541591241E+02 -0.66263073292E+02  0.14639089955E+03  0.12645938696E+03 0.  0.
         25    2    3    3    0    0 -0.27199570173E+02 -0.17541591241E+02 -0.18323444122E+03  0.22492465523E+03  0.12636738519E+03 0.  0.
          5    1    4    4  502    0 -0.13646169326E+02 -0.36936157781E+02 -0.67319207163E+02  0.78131065153E+02  0.47000000000E+01 0.  1.
         -5    1    4    4    0  502  0.40845739499E+02  0.54477749022E+02  0.10561338702E+01  0.68259834401E+02  0.47000000000E+01 0.  1.
          5    1    5    5  503    0  0.52418322382E+01 -0.65971041688E+02 -0.64307045461E+02  0.92396651685E+02  0.47000000000E+01 0.  1.
         -5    1    5    5    0  503 -0.32441402412E+02  0.48429450447E+02 -0.11892739576E+03  0.13252800354E+03  0.47000000000E+01 0.  1.
<mgrwt>
<rscale>  0 0.27500224E+03</rscale>
<asrwt>0</asrwt>
<pdfrwt beam="1">  1        2 0.47754852E-01 0.27500224E+03</pdfrwt>
<pdfrwt beam="2">  1       -2 0.93706184E-02 0.27500224E+03</pdfrwt>
<totfact> 0.76981504E+03</totfact>
</mgrwt>
</event>
<event>
 9    1  0.2024718E-002  0.2802697E+03  0.7818608E-02  0.1095542E+00
         -2   -1    0    0    0  501 -0.00000000000E+00  0.00000000000E+00  0.12866471097E+03  0.12866471097E+03  0.00000000000E+00 0. -1.
          2   -1    0    0  501    0  0.00000000000E+00 -0.00000000000E+00 -0.15262755247E+03  0.15262755247E+03  0.00000000000E+00 0. -1.
         36    2    1    2    0    0 -0.35527136788E-14  0.71054273576E-14 -0.23962841506E+02  0.28129226344E+03  0.28026972669E+03 0.  0.
         25    2    3    3    0    0  0.12596445735E+02 -0.36054123675E+02 -0.72164828584E+02  0.15202156502E+03  0.12823503214E+03 0.  0.
         25    2    3    3    0    0 -0.12596445735E+02  0.36054123675E+02  0.48201987079E+02  0.12927069842E+03  0.11370537205E+03 0.  0.
          5    1    4    4  502    0  0.48808875379E+02 -0.24135366471E+02  0.15080064119E+02  0.56694978298E+02  0.47000000000E+01 0.  1.
         -5    1    4    4    0  502 -0.36212429644E+02 -0.11918757204E+02 -0.87244892703E+02  0.95326586726E+02  0.47000000000E+01 0.  1.
          5    1    5    5  503    0 -0.24259471838E+02 -0.36070621535E+02  0.32276726234E+02  0.54346009680E+02  0.47000000000E+01 0. -1.
         -5    1    5    5    0  503  0.11663026103E+02  0.72124745209E+02  0.15925260845E+02  0.74924688737E+02  0.47000000000E+01 0. -1.
<mgrwt>
<rscale>  0 0.28026973E+03</rscale>
<asrwt>0</asrwt>
<pdfrwt beam="1">  1        2 0.23481162E-01 0.28026973E+03</pdfrwt>
<pdfrwt beam="2">  1       -2 0.19794571E-01 0.28026973E+03</pdfrwt>
<totfact> 0.49134478E+03</totfact>
</mgrwt>
</event>
<event>
 9    1  0.2024718E-002  0.2764527E+03  0.7818608E-02  0.1097642E+00
          1   -1    0    0  501    0  0.00000000000E+00  0.00000000000E+00  0.15350555792E+03  0.15350555792E+03  0.00000000000E+00 0. -1.
         -1   -1    0    0    0  501 -0.00000000000E+00 -0.00000000000E+00 -0.12446794919E+03  0.12446794919E+03  0.00000000000E+00 0. -1.
         36    2    1    2    0    0  0.00000000000E+00  0.00000000000E+00  0.29037608728E+02  0.27797350710E+03  0.27645268660E+03 0.  0.
         25    2    3    3    0    0 -0.25304119180E+01 -0.61429031585E+02  0.13036407238E+02  0.14028128760E+03  0.12541516189E+03 0.  0.
         25    2    3    3    0    0  0.25304119180E+01  0.61429031585E+02  0.16001201490E+02  0.13769221950E+03  0.12216046806E+03 0.  0.
          5    1    4    4  502    0  0.50705278726E+02 -0.85903646307E+01 -0.23475945260E+02  0.56727679848E+02  0.47000000000E+01 0. -1.
         -5    1    4    4    0  502 -0.53235690644E+02 -0.52838666954E+02  0.36512352497E+02  0.83553607754E+02  0.47000000000E+01 0. -1.
          5    1    5    5  503    0  0.65571319364E+01 -0.36233885693E+02 -0.54242700986E+01  0.37515372286E+02  0.47000000000E+01 0.  1.
         -5    1    5    5    0  503 -0.40267200184E+01  0.97662917277E+02  0.21425471589E+02  0.10017684722E+03  0.47000000000E+01 0.  1.
<mgrwt>
<rscale>  0 0.27645269E+03</rscale>
<asrwt>0</asrwt>
<pdfrwt beam="1">  1        1 0.23616240E-01 0.27645269E+03</pdfrwt>
<pdfrwt beam="2">  1       -1 0.19148915E-01 0.27645269E+03</pdfrwt>
<totfact> 0.44304270E+03</totfact>
</mgrwt>
</event>
<event>
 9    1  0.2024718E-002  0.2747132E+03  0.7818608E-02  0.1098612E+00
          2   -1    0    0  501    0  0.00000000000E+00  0.00000000000E+00  0.27156364060E+03  0.27156364060E+03  0.00000000000E+00 0.  1.
         -2   -1    0    0    0  501 -0.00000000000E+00 -0.00000000000E+00 -0.69474811517E+02  0.69474811517E+02  0.00000000000E+00 0.  1.
         36    2    1    2    0    0  0.00000000000E+00  0.00000000000E+00  0.20208882908E+03  0.34103845211E+03  0.27471317948E+03 0.  0.
         25    2    3    3    0    0  0.51597537829E+02 -0.25502129381E+02  0.10131012196E+03  0.17079606809E+03  0.12487950813E+03 0.  0.
         25    2    3    3    0    0 -0.51597537829E+02  0.25502129381E+02  0.10077870712E+03  0.17024238402E+03  0.12455302885E+03 0.  0.
          5    1    4    4  502    0  0.86655998022E+01 -0.48709882026E+02  0.11027315095E+03  0.12095454951E+03  0.47000000000E+01 0. -1.
         -5    1    4    4    0  502  0.42931938027E+02  0.23207752645E+02 -0.89630289916E+01  0.49841518579E+02  0.47000000000E+01 0. -1.
          5    1    5    5  503    0 -0.35414538336E+02 -0.46011756048E+02  0.21347230584E+02  0.62040837146E+02  0.47000000000E+01 0. -1.
         -5    1    5    5    0  503 -0.16182999493E+02  0.71513885428E+02  0.79431476535E+02  0.10820154688E+03  0.47000000000E+01 0. -1.
<mgrwt>
<rscale>  0 0.27471318E+03</rscale>
<asrwt>0</asrwt>
<pdfrwt beam="1">  1        2 0.41779021E-01 0.27471318E+03</pdfrwt>
<pdfrwt beam="2">  1       -2 0.10688433E-01 0.27471318E+03</pdfrwt>
<totfact> 0.72107354E+03</totfact>
</mgrwt>
</event>
<event>
 9    1  0.2024718E-002  0.2755926E+03  0.7818608E-02  0.1098121E+00
         -2   -1    0    0    0  501 -0.00000000000E+00  0.00000000000E+00  0.54594244778E+02  0.54594244778E+02  0.00000000000E+00 0.  1.
          2   -1    0    0  501    0  0.00000000000E+00 -0.00000000000E+00 -0.34779895360E+03  0.34779895360E+03  0.00000000000E+00 0.  1.
         36    2    1    2    0    0  0.71054273576E-14 -0.71054273576E-14 -0.29320470882E+03  0.40239319838E+03  0.27559260662E+03 0.  0.
         25    2    3    3    0    0  0.19438260784E+02 -0.54861832804E+02 -0.16160943539E+03  0.21244677576E+03  0.12501342425E+03 0.  0.
         25    2    3    3    0    0 -0.19438260784E+02  0.54861832804E+02 -0.13159527343E+03  0.18994642261E+03  0.12399459986E+03 0.  0.
          5    1    4    4  502    0  0.47618208225E+02  0.24200579944E+02 -0.57258202357E+02  0.78445863890E+02  0.47000000000E+01 0. -1.
         -5    1    4    4    0  502 -0.28179947441E+02 -0.79062412748E+02 -0.10435123303E+03  0.13400091187E+03  0.47000000000E+01 0. -1.
          5    1    5    5  503    0  0.22152791598E+02 -0.32268824002E+02 -0.28656115879E+02  0.48736907527E+02  0.47000000000E+01 0.  1.
         -5    1    5    5    0  503 -0.41591052382E+02  0.87130656806E+02 -0.10293915755E+03  0.14120951509E+03  0.47000000000E+01 0.  1.
<mgrwt>
<rscale>  0 0.27559261E+03</rscale>
<asrwt>0</asrwt>
<pdfrwt beam="1">  1        2 0.53507532E-01 0.27559261E+03</pdfrwt>
<pdfrwt beam="2">  1       -2 0.83991145E-02 0.27559261E+03</pdfrwt>
<totfact> 0.80919147E+03</totfact>
</mgrwt>
</event>
<event>
 9    1  0.2024718E-002  0.2752093E+03  0.7818608E-02  0.1098335E+00
         -2   -1    0    0    0  501 -0.00000000000E+00  0.00000000000E+00  0.10996860602E+04  0.10996860602E+04  0.00000000000E+00 0. -1.
          2   -1    0    0  501    0  0.00000000000E+00 -0.00000000000E+00 -0.17218580515E+02  0.17218580515E+02  0.00000000000E+00 0. -1.
         36    2    1    2    0    0  0.35527136788E-14  0.71054273576E-14  0.10824674797E+04  0.11169046407E+04  0.27520925107E+03 0.  0.
         25    2    3    3    0    0 -0.13892683396E+02 -0.54353535897E+02  0.58082050933E+03  0.59704321558E+03  0.12633615357E+03 0.  0.
         25    2    3    3    0    0  0.13892683396E+02  0.54353535897E+02  0.50164697034E+03  0.51986142512E+03  0.12433384478E+03 0.  0.
          5    1    4    4  502    0  0.24400373010E+02 -0.82255964568E+02  0.29407822153E+03  0.30637479055E+03  0.47000000000E+01 0. -1.
         -5    1    4    4    0  502 -0.38293056406E+02  0.27902428670E+02  0.28674228781E+03  0.29066842503E+03  0.47000000000E+01 0. -1.
          5    1    5    5  503    0 -0.15456823088E+02 -0.14803317552E+02  0.34876773134E+03  0.34945539346E+03  0.47000000000E+01 0.  1.
         -5    1    5    5    0  503  0.29349506484E+02  0.69156853449E+02  0.15287923900E+03  0.17040603166E+03  0.47000000000E+01 0.  1.
<mgrwt>
<rscale>  0 0.27520925E+03</rscale>
<asrwt>0</asrwt>
<pdfrwt beam="1">  1        2 0.26490132E-02 0.27520925E+03</pdfrwt>
<pdfrwt beam="2">  1       -2 0.16918242E+00 0.27520925E+03</pdfrwt>
<totfact> 0.85700401E+02</totfact>
</mgrwt>
</event>
<event>
 9    1  0.2024718E-002  0.2766306E+03  0.7818608E-02  0.1097544E+00
         -2   -1    0    0    0  501 -0.00000000000E+00  0.00000000000E+00  0.13779202687E+02  0.13779202687E+02  0.00000000000E+00 0. -1.
          2   -1    0    0  501    0  0.00000000000E+00 -0.00000000000E+00 -0.13884051686E+04  0.13884051686E+04  0.00000000000E+00 0. -1.
         36    2    1    2    0    0 -0.35527136788E-14  0.17763568394E-14 -0.13746259659E+04  0.14021843713E+04  0.27663055674E+03 0.  0.
         25    2    3    3    0    0  0.16659367348E+02  0.15102966342E+02 -0.91150844795E+03  0.92137149104E+03  0.13255994764E+03 0.  0.
         25    2    3    3    0    0 -0.16659367348E+02 -0.15102966342E+02 -0.46311751798E+03  0.48081288026E+03  0.12726962029E+03 0.  0.
          5    1    4    4  502    0 -0.29645866057E+02  0.38080570318E+02 -0.14076317185E+03  0.14888038071E+03  0.47000000000E+01 0.  1.
         -5    1    4    4    0  502  0.46305233406E+02 -0.22977603976E+02 -0.77074527609E+03  0.77249111033E+03  0.47000000000E+01 0.  1.
          5    1    5    5  503    0 -0.29409797712E+02  0.14101445008E+02 -0.43983633496E+03  0.44106901784E+03  0.47000000000E+01 0.  1.
         -5    1    5    5    0  503  0.12750430364E+02 -0.29204411350E+02 -0.23281183026E+02  0.39743862417E+02  0.47000000000E+01 0.  1.
<mgrwt>
<rscale>  0 0.27663056E+03</rscale>
<asrwt>0</asrwt>
<pdfrwt beam="1">  1        2 0.21360094E+00 0.27663056E+03</pdfrwt>
<pdfrwt beam="2">  1       -2 0.21198759E-02 0.27663056E+03</pdfrwt>
<totfact> 0.11122932E+04</totfact>
</mgrwt>
</event>
<event>
 9    1  0.2024718E-002  0.2734745E+03  0.7818608E-02  0.1099307E+00
         -4   -1    0    0    0  501 -0.00000000000E+00  0.00000000000E+00  0.16109881609E+03  0.16109881609E+03  0.00000000000E+00 0.  1.
          4   -1    0    0  501    0  0.00000000000E+00 -0.00000000000E+00 -0.11605963832E+03  0.11605963832E+03  0.00000000000E+00 0.  1.
         36    2    1    2    0    0  0.00000000000E+00 -0.71054273576E-14  0.45039177768E+02  0.27715845442E+03  0.27347446192E+03 0.  0.
         25    2    3    3    0    0  0.11819567433E+02  0.45933508793E+02  0.19783018162E+02  0.14534859126E+03  0.13596049341E+03 0.  0.
         25    2    3    3    0    0 -0.11819567433E+02 -0.45933508793E+02  0.25256159606E+02  0.13180986316E+03  0.12035936617E+03 0.  0.
          5    1    4    4  502    0  0.66348611431E+02 -0.79290073061E+01  0.52093290029E+01  0.67188053286E+02  0.47000000000E+01 0. -1.
         -5    1    4    4    0  502 -0.54529043998E+02  0.53862516100E+02  0.14573689159E+02  0.78160537969E+02  0.47000000000E+01 0. -1.
          5    1    5    5  503    0 -0.47502388660E+02 -0.31065245460E+02 -0.29874966550E+02  0.64312751692E+02  0.47000000000E+01 0.  1.
         -5    1    5    5    0  503  0.35682821227E+02 -0.14868263334E+02  0.55131126156E+02  0.67497111468E+02  0.47000000000E+01 0.  1.
<mgrwt>
<rscale>  0 0.27347446E+03</rscale>
<asrwt>0</asrwt>
<pdfrwt beam="1">  1        4 0.17855329E-01 0.27347446E+03</pdfrwt>
<pdfrwt beam="2">  1       -4 0.24784433E-01 0.27347446E+03</pdfrwt>
<totfact> 0.78957274E+02</totfact>
</mgrwt>
</event>
<event>
 9    1  0.2024718E-002  0.2741179E+03  0.7818608E-02  0.1098946E+00
          1   -1    0    0  501    0  0.00000000000E+00  0.00000000000E+00  0.11860763075E+03  0.11860763075E+03  0.00000000000E+00 0.  1.
         -1   -1    0    0    0  501 -0.00000000000E+00 -0.00000000000E+00 -0.15838063915E+03  0.15838063915E+03  0.00000000000E+00 0.  1.
         36    2    1    2    0    0  0.00000000000E+00  0.00000000000E+00 -0.39773008400E+02  0.27698826990E+03  0.27411787513E+03 0.  0.
         25    2    3    3    0    0 -0.65619762047E+02 -0.29507193567E+02 -0.28051172076E+02  0.14734569347E+03  0.12548807707E+03 0.  0.
         25    2    3    3    0    0  0.65619762047E+02  0.29507193567E+02 -0.11721836324E+02  0.12964257643E+03  0.10720619634E+03 0.  0.
          5    1    4    4  502    0 -0.49080141714E+02 -0.60937699655E+02 -0.60492695453E+02  0.99013735175E+02  0.47000000000E+01 0. -1.
         -5    1    4    4    0  502 -0.16539620332E+02  0.31430506089E+02  0.32441523377E+02  0.48331958296E+02  0.47000000000E+01 0. -1.
          5    1    5    5  503    0  0.76752187047E+02  0.17347121776E+02  0.30149832235E+02  0.84397412485E+02  0.47000000000E+01 0.  1.
         -5    1    5    5    0  503 -0.11132425000E+02  0.12160071790E+02 -0.41871668559E+02  0.45245163943E+02  0.47000000000E+01 0.  1.
<mgrwt>
<rscale>  0 0.27411788E+03</rscale>
<asrwt>0</asrwt>
<pdfrwt beam="1">  1        1 0.18247328E-01 0.27411788E+03</pdfrwt>
<pdfrwt beam="2">  1       -1 0.24366252E-01 0.27411788E+03</pdfrwt>
<totfact> 0.41585156E+03</totfact>
</mgrwt>
</event>
<event>
 9    1  0.2024718E-002  0.2743032E+03  0.7818608E-02  0.1098842E+00
         -1   -1    0    0    0  501 -0.00000000000E+00  0.00000000000E+00  0.57064036536E+03  0.57064036536E+03  0.00000000000E+00 0. -1.
          1   -1    0    0  501    0  0.00000000000E+00 -0.00000000000E+00 -0.32963951154E+02  0.32963951154E+02  0.00000000000E+00 0. -1.
         36    2    1    2    0    0  0.17763568394E-14  0.71054273576E-14  0.53767641421E+03  0.60360431652E+03  0.27430319816E+03 0.  0.
         25    2    3    3    0    0  0.13228496819E+02  0.40704068219E+02  0.30440330190E+03  0.33599285936E+03  0.13563929016E+03 0.  0.
         25    2    3    3    0    0 -0.13228496819E+02 -0.40704068219E+02  0.23327311231E+03  0.26761145716E+03  0.12396665995E+03 0.  0.
          5    1    4    4  502    0  0.96190666456E+01 -0.99566662148E+01  0.27832123192E+03  0.27870496907E+03  0.47000000000E+01 0.  1.
         -5    1    4    4    0  502  0.36094301732E+01  0.50660734433E+02  0.26082069979E+02  0.57287890290E+02  0.47000000000E+01 0.  1.
          5    1    5    5  503    0  0.48641608950E+02  0.11319334589E+02  0.91087756303E+02  0.10398655108E+03  0.47000000000E+01 0.  1.
         -5    1    5    5    0  503 -0.61870105769E+02 -0.52023402807E+02  0.14218535601E+03  0.16362490608E+03  0.47000000000E+01 0.  1.
<mgrwt>
<rscale>  0 0.27430320E+03</rscale>
<asrwt>0</asrwt>
<pdfrwt beam="1">  1        1 0.50713775E-02 0.27430320E+03</pdfrwt>
<pdfrwt beam="2">  1       -1 0.87790818E-01 0.27430320E+03</pdfrwt>
<totfact> 0.21839640E+03</totfact>
</mgrwt>
</event>
<event>
 9    1  0.2024718E-002  0.2760278E+03  0.7818608E-02  0.1097878E+00
          1   -1    0    0  501    0  0.00000000000E+00  0.00000000000E+00  0.10059379035E+03  0.10059379035E+03  0.00000000000E+00 0. -1.
         -1   -1    0    0    0  501 -0.00000000000E+00 -0.00000000000E+00 -0.18935394729E+03  0.18935394729E+03  0.00000000000E+00 0. -1.
         36    2    1    2    0    0 -0.71054273576E-14  0.35527136788E-14 -0.88760156937E+02  0.28994773764E+03  0.27602776147E+03 0.  0.
         25    2    3    3    0    0  0.16781542747E+02  0.63059419890E+01  0.17735865698E+02  0.12922244721E+03  0.12673789824E+03 0.  0.
         25    2    3    3    0    0 -0.16781542747E+02 -0.63059419890E+01 -0.10649602264E+03  0.16072529043E+03  0.11903709953E+03 0.  0.
          5    1    4    4  502    0 -0.38196373623E+02 -0.38176562346E+02 -0.58563896561E+01  0.54523391038E+02  0.47000000000E+01 0. -1.
         -5    1    4    4    0  502  0.54977916370E+02  0.44482504335E+02  0.23592255354E+02  0.74699056172E+02  0.47000000000E+01 0. -1.
          5    1    5    5  503    0 -0.58156632557E+02 -0.30182079525E+02 -0.34510811074E+02  0.74204028973E+02  0.47000000000E+01 0.  1.
         -5    1    5    5    0  503  0.41375089810E+02  0.23876137536E+02 -0.71985211562E+02  0.86521261456E+02  0.47000000000E+01 0.  1.
<mgrwt>
<rscale>  0 0.27602776E+03</rscale>
<asrwt>0</asrwt>
<pdfrwt beam="1">  1        1 0.15475968E-01 0.27602776E+03</pdfrwt>
<pdfrwt beam="2">  1       -1 0.29131376E-01 0.27602776E+03</pdfrwt>
<totfact> 0.38214082E+03</totfact>
</mgrwt>
</event>
<event>
 9    1  0.2024718E-002  0.2766434E+03  0.7818608E-02  0.1097536E+00
         -1   -1    0    0    0  501 -0.00000000000E+00  0.00000000000E+00  0.15892153417E+03  0.15892153417E+03  0.00000000000E+00 0. -1.
          1   -1    0    0  501    0  0.00000000000E+00 -0.00000000000E+00 -0.12039209973E+03  0.12039209973E+03  0.00000000000E+00 0. -1.
         36    2    1    2    0    0  0.71054273576E-14 -0.35527136788E-14  0.38529434436E+02  0.27931363390E+03  0.27664343253E+03 0.  0.
         25    2    3    3    0    0  0.42185894994E+02 -0.26426485099E+02  0.26794213898E+02  0.14175582525E+03  0.12999528931E+03 0.  0.
         25    2    3    3    0    0 -0.42185894994E+02  0.26426485099E+02  0.11735220538E+02  0.13755780865E+03  0.12769661886E+03 0.  0.
          5    1    4    4  502    0 -0.40556420493E+02 -0.37684494644E+02  0.11117344280E+02  0.56662418970E+02  0.47000000000E+01 0. -1.
         -5    1    4    4    0  502  0.82742315487E+02  0.11258009545E+02  0.15676869618E+02  0.85093406279E+02  0.47000000000E+01 0. -1.
          5    1    5    5  503    0 -0.20348688864E+02  0.43442314599E+02 -0.50175255057E+02  0.69576936238E+02  0.47000000000E+01 0.  1.
         -5    1    5    5    0  503 -0.21837206131E+02 -0.17015829500E+02  0.61910475595E+02  0.67980872410E+02  0.47000000000E+01 0.  1.
<mgrwt>
<rscale>  0 0.27664343E+03</rscale>
<asrwt>0</asrwt>
<pdfrwt beam="1">  1        1 0.18521862E-01 0.27664343E+03</pdfrwt>
<pdfrwt beam="2">  1       -1 0.24449467E-01 0.27664343E+03</pdfrwt>
<totfact> 0.40569382E+03</totfact>
</mgrwt>
</event>
<event>
 9    1  0.2024718E-002  0.2752172E+03  0.7818608E-02  0.1098330E+00
         -1   -1    0    0    0  501 -0.00000000000E+00  0.00000000000E+00  0.53585918021E+02  0.53585918021E+02  0.00000000000E+00 0. -1.
          1   -1    0    0  501    0  0.00000000000E+00 -0.00000000000E+00 -0.35337867567E+03  0.35337867567E+03  0.00000000000E+00 0. -1.
         36    2    1    2    0    0 -0.71054273576E-14 -0.71054273576E-14 -0.29979275765E+03  0.40696459369E+03  0.27521715604E+03 0.  0.
         25    2    3    3    0    0 -0.40601922096E+02 -0.91122139662E+01 -0.19671802981E+03  0.23760913913E+03  0.12660399372E+03 0.  0.
         25    2    3    3    0    0  0.40601922096E+02  0.91122139662E+01 -0.10307472784E+03  0.16935545456E+03  0.12777058327E+03 0.  0.
          5    1    4    4  502    0 -0.20342235126E+02  0.47201016291E+02 -0.15789941225E+03  0.16612060937E+03  0.47000000000E+01 0.  1.
         -5    1    4    4    0  502 -0.20259686970E+02 -0.56313230257E+02 -0.38818617556E+02  0.71488529759E+02  0.47000000000E+01 0.  1.
          5    1    5    5  503    0  0.40885745675E+02 -0.42365521551E+02 -0.10174449503E+03  0.11764571342E+03  0.47000000000E+01 0.  1.
         -5    1    5    5    0  503 -0.28382357890E+00  0.51477735517E+02 -0.13302328071E+01  0.51709741143E+02  0.47000000000E+01 0.  1.
<mgrwt>
<rscale>  0 0.27521716E+03</rscale>
<asrwt>0</asrwt>
<pdfrwt beam="1">  1        1 0.54365949E-01 0.27521716E+03</pdfrwt>
<pdfrwt beam="2">  1       -1 0.82439875E-02 0.27521716E+03</pdfrwt>
<totfact> 0.58080361E+03</totfact>
</mgrwt>
</event>
<event>
 9    1  0.2024718E-002  0.2759616E+03  0.7818608E-02  0.1097915E+00
          2   -1    0    0  501    0  0.00000000000E+00  0.00000000000E+00  0.13433277678E+04  0.13433277678E+04  0.00000000000E+00 0. -1.
         -2   -1    0    0    0  501 -0.00000000000E+00 -0.00000000000E+00 -0.14172786856E+02  0.14172786856E+02  0.00000000000E+00 0. -1.
         36    2    1    2    0    0  0.00000000000E+00  0.00000000000E+00  0.13291549809E+04  0.13575005546E+04  0.27596157798E+03 0.  0.
         25    2    3    3    0    0 -0.47645556738E+02 -0.93581574379E+01  0.86721448948E+03  0.87787410125E+03  0.12745309998E+03 0.  0.
         25    2    3    3    0    0  0.47645556738E+02  0.93581574379E+01  0.46194049143E+03  0.47962645337E+03  0.11956104284E+03 0.  0.
          5    1    4    4  502    0 -0.57294130817E+02  0.26760246698E+02  0.78360698513E+03  0.78616838233E+03  0.47000000000E+01 0.  1.
         -5    1    4    4    0  502  0.96485740787E+01 -0.36118404136E+02  0.83607504344E+02  0.91705718915E+02  0.47000000000E+01 0.  1.
          5    1    5    5  503    0 -0.73745364849E+00 -0.22877757831E+02  0.12661508525E+02  0.26577047228E+02  0.47000000000E+01 0. -1.
         -5    1    5    5    0  503  0.48383010386E+02  0.32235915269E+02  0.44927898291E+03  0.45304940615E+03  0.47000000000E+01 0. -1.
<mgrwt>
<rscale>  0 0.27596158E+03</rscale>
<asrwt>0</asrwt>
<pdfrwt beam="1">  1        2 0.20666571E+00 0.27596158E+03</pdfrwt>
<pdfrwt beam="2">  1       -2 0.21804298E-02 0.27596158E+03</pdfrwt>
<totfact> 0.11292725E+04</totfact>
</mgrwt>
</event>
<event>
 9    1  0.2024718E-002  0.2745194E+03  0.7818608E-02  0.1098721E+00
          2   -1    0    0  501    0  0.00000000000E+00  0.00000000000E+00  0.11772125938E+04  0.11772125938E+04  0.00000000000E+00 0.  1.
         -2   -1    0    0    0  501 -0.00000000000E+00 -0.00000000000E+00 -0.16004101142E+02  0.16004101142E+02  0.00000000000E+00 0.  1.
         36    2    1    2    0    0  0.14210854715E-13  0.00000000000E+00  0.11612084926E+04  0.11932166949E+04  0.27451943039E+03 0.  0.
         25    2    3    3    0    0 -0.22417609607E+02 -0.46041230480E+02  0.68516060417E+03  0.69805491287E+03  0.12334205999E+03 0.  0.
         25    2    3    3    0    0  0.22417609607E+02  0.46041230480E+02  0.47604788846E+03  0.49516178203E+03  0.12625867953E+03 0.  0.
          5    1    4    4  502    0  0.49847212146E+02 -0.30712795199E+02  0.26593772877E+03  0.27234717904E+03  0.47000000000E+01 0.  1.
         -5    1    4    4    0  502 -0.72264821753E+02 -0.15328435281E+02  0.41922287540E+03  0.42570773383E+03  0.47000000000E+01 0.  1.
          5    1    5    5  503    0 -0.51996784527E+02  0.27228239720E+02  0.22694682754E+03  0.23446107389E+03  0.47000000000E+01 0.  1.
         -5    1    5    5    0  503  0.74414394134E+02  0.18812990759E+02  0.24910106092E+03  0.26070070814E+03  0.47000000000E+01 0.  1.
<mgrwt>
<rscale>  0 0.27451943E+03</rscale>
<asrwt>0</asrwt>
<pdfrwt beam="1">  1        2 0.18110956E+00 0.27451943E+03</pdfrwt>
<pdfrwt beam="2">  1       -2 0.24621703E-02 0.27451943E+03</pdfrwt>
<totfact> 0.11688145E+04</totfact>
</mgrwt>
</event>
<event>
 9    1  0.2024718E-002  0.2749199E+03  0.7818608E-02  0.1098496E+00
         -3   -1    0    0    0  501 -0.00000000000E+00  0.00000000000E+00  0.20727911268E+02  0.20727911268E+02  0.00000000000E+00 0.  1.
          3   -1    0    0  501    0  0.00000000000E+00 -0.00000000000E+00 -0.91158446424E+03  0.91158446424E+03  0.00000000000E+00 0.  1.
         36    2    1    2    0    0 -0.35527136788E-14  0.00000000000E+00 -0.89085655297E+03  0.93231237551E+03  0.27491992935E+03 0.  0.
         25    2    3    3    0    0  0.59027284344E+00 -0.58022914994E+02 -0.53095600920E+03  0.54824674813E+03  0.12366570277E+03 0.  0.
         25    2    3    3    0    0 -0.59027284344E+00  0.58022914994E+02 -0.35990054377E+03  0.38406562738E+03  0.12087595973E+03 0.  0.
          5    1    4    4  502    0  0.56372818994E+02 -0.27314653601E+02 -0.36624471237E+03  0.37159287448E+03  0.47000000000E+01 0.  1.
         -5    1    4    4    0  502 -0.55782546150E+02 -0.30708261393E+02 -0.16471129683E+03  0.17665387365E+03  0.47000000000E+01 0.  1.
          5    1    5    5  503    0 -0.24446698512E+02 -0.19854971433E+01 -0.79490914309E+01  0.26208039255E+02  0.47000000000E+01 0. -1.
         -5    1    5    5    0  503  0.23856425668E+02  0.60008412137E+02 -0.35195145234E+03  0.35785758812E+03  0.47000000000E+01 0. -1.
<mgrwt>
<rscale>  0 0.27491993E+03</rscale>
<asrwt>0</asrwt>
<pdfrwt beam="1">  1        3 0.14024376E+00 0.27491993E+03</pdfrwt>
<pdfrwt beam="2">  1       -3 0.31889096E-02 0.27491993E+03</pdfrwt>
<totfact> 0.47699913E+02</totfact>
</mgrwt>
</event>
<event>
 9    1  0.2024718E-002  0.2750668E+03  0.7818608E-02  0.1098414E+00
         -2   -1    0    0    0  501 -0.00000000000E+00  0.00000000000E+00  0.29497672704E+03  0.29497672704E+03  0.00000000000E+00 0.  1.
          2   -1    0    0  501    0  0.00000000000E+00 -0.00000000000E+00 -0.64125198014E+02  0.64125198014E+02  0.00000000000E+00 0.  1.
         36    2    1    2    0    0  0.53290705182E-14  0.00000000000E+00  0.23085152903E+03  0.35910192506E+03  0.27506683574E+03 0.  0.
         25    2    3    3    0    0 -0.13129589505E+02 -0.38899081422E+02  0.67692631715E+02  0.14946637874E+03  0.12677689588E+03 0.  0.
         25    2    3    3    0    0  0.13129589505E+02  0.38899081422E+02  0.16315889732E+03  0.20963554632E+03  0.12506283161E+03 0.  0.
          5    1    4    4  502    0  0.38445178361E+02 -0.64667175643E+02  0.39996479074E+02  0.85332781996E+02  0.47000000000E+01 0. -1.
         -5    1    4    4    0  502 -0.51574767866E+02  0.25768094221E+02  0.27696152642E+02  0.64133596744E+02  0.47000000000E+01 0. -1.
          5    1    5    5  503    0  0.19054042435E+02  0.77025014467E+01 -0.16724379696E+02  0.26910591555E+02  0.47000000000E+01 0.  1.
         -5    1    5    5    0  503 -0.59244529300E+01  0.31196579975E+02  0.17988327701E+03  0.18272495476E+03  0.47000000000E+01 0.  1.
<mgrwt>
<rscale>  0 0.27506684E+03</rscale>
<asrwt>0</asrwt>
<pdfrwt beam="1">  1        2 0.98654152E-02 0.27506684E+03</pdfrwt>
<pdfrwt beam="2">  1       -2 0.45381034E-01 0.27506684E+03</pdfrwt>
<totfact> 0.30244943E+03</totfact>
</mgrwt>
</event>
<event>
 9    1  0.2024718E-002  0.2752527E+03  0.7818608E-02  0.1098310E+00
         -2   -1    0    0    0  501 -0.00000000000E+00  0.00000000000E+00  0.14658787750E+02  0.14658787750E+02  0.00000000000E+00 0. -1.
          2   -1    0    0  501    0  0.00000000000E+00 -0.00000000000E+00 -0.12921271951E+04  0.12921271951E+04  0.00000000000E+00 0. -1.
         36    2    1    2    0    0  0.71054273576E-14 -0.71054273576E-14 -0.12774684073E+04  0.13067859828E+04  0.27525274421E+03 0.  0.
         25    2    3    3    0    0  0.19414302296E+02 -0.24368545303E+02 -0.36810379568E+03  0.38830194839E+03  0.11961294911E+03 0.  0.
         25    2    3    3    0    0 -0.19414302296E+02  0.24368545303E+02 -0.90936461165E+03  0.91848403444E+03  0.12529239188E+03 0.  0.
          5    1    4    4  502    0  0.33285876600E+02 -0.34939308572E+02 -0.36701821172E+03  0.37020691862E+03  0.47000000000E+01 0. -1.
         -5    1    4    4    0  502 -0.13871574303E+02  0.10570763269E+02 -0.10855839628E+01  0.18095029767E+02  0.47000000000E+01 0. -1.
          5    1    5    5  503    0 -0.28206676753E+02 -0.10990693562E+02 -0.52149193169E+02  0.60481735314E+02  0.47000000000E+01 0.  1.
         -5    1    5    5    0  503  0.87923744565E+01  0.35359238865E+02 -0.85721541849E+03  0.85800229913E+03  0.47000000000E+01 0.  1.
<mgrwt>
<rscale>  0 0.27525274E+03</rscale>
<asrwt>0</asrwt>
<pdfrwt beam="1">  1        2 0.19878876E+00 0.27525274E+03</pdfrwt>
<pdfrwt beam="2">  1       -2 0.22551986E-02 0.27525274E+03</pdfrwt>
<totfact> 0.11466214E+04</totfact>
</mgrwt>
</event>
<event>
 9    1  0.2024718E-002  0.2766358E+03  0.7818608E-02  0.1097541E+00
         -1   -1    0    0    0  501 -0.00000000000E+00  0.00000000000E+00  0.14953902372E+02  0.14953902372E+02  0.00000000000E+00 0. -1.
          1   -1    0    0  501    0  0.00000000000E+00 -0.00000000000E+00 -0.12793880071E+04  0.12793880071E+04  0.00000000000E+00 0. -1.
         36    2    1    2    0    0 -0.71054273576E-14  0.71054273576E-14 -0.12644341047E+04  0.12943419095E+04  0.27663581369E+03 0.  0.
         25    2    3    3    0    0  0.32898451122E+02  0.37394969673E+02 -0.46771904088E+03  0.48651066530E+03  0.12430138535E+03 0.  0.
         25    2    3    3    0    0 -0.32898451122E+02 -0.37394969673E+02 -0.79671506384E+03  0.80783124417E+03  0.12391825638E+03 0.  0.
          5    1    4    4  502    0 -0.40813675317E+02 -0.12314634180E+02 -0.19367307880E+03  0.19836521308E+03  0.47000000000E+01 0. -1.
         -5    1    4    4    0  502  0.73712126439E+02  0.49709603854E+02 -0.27404596208E+03  0.28814545222E+03  0.47000000000E+01 0. -1.
          5    1    5    5  503    0 -0.68987769455E+02 -0.47482552775E+02 -0.36718816027E+03  0.37664723574E+03  0.47000000000E+01 0.  1.
         -5    1    5    5    0  503  0.36089318332E+02  0.10087583102E+02 -0.42952690357E+03  0.43118400843E+03  0.47000000000E+01 0.  1.
<mgrwt>
<rscale>  0 0.27663581E+03</rscale>
<asrwt>0</asrwt>
<pdfrwt beam="1">  1        1 0.19682899E+00 0.27663581E+03</pdfrwt>
<pdfrwt beam="2">  1       -1 0.23005995E-02 0.27663581E+03</pdfrwt>
<totfact> 0.56287971E+03</totfact>
</mgrwt>
</event>
<event>
 9    1  0.2024718E-002  0.2749299E+03  0.7818608E-02  0.1098491E+00
         -4   -1    0    0    0  501 -0.00000000000E+00  0.00000000000E+00  0.20206052251E+03  0.20206052251E+03  0.00000000000E+00 0.  1.
          4   -1    0    0  501    0  0.00000000000E+00 -0.00000000000E+00 -0.93519592715E+02  0.93519592715E+02  0.00000000000E+00 0.  1.
         36    2    1    2    0    0 -0.35527136788E-14 -0.35527136788E-14  0.10854092979E+03  0.29558011522E+03  0.27492993848E+03 0.  0.
         25    2    3    3    0    0  0.28940526669E+02  0.87172051833E+01  0.97961736555E+02  0.16731175322E+03  0.13222396600E+03 0.  0.
         25    2    3    3    0    0 -0.28940526669E+02 -0.87172051833E+01  0.10579193236E+02  0.12826836200E+03  0.12420672128E+03 0.  0.
          5    1    4    4  502    0  0.70750414902E+02 -0.21858834567E+02  0.86664563611E+02  0.11408885328E+03  0.47000000000E+01 0.  1.
         -5    1    4    4    0  502 -0.41809888233E+02  0.30576039750E+02  0.11297172944E+02  0.53222899934E+02  0.47000000000E+01 0.  1.
          5    1    5    5  503    0  0.16653069065E+02 -0.43864874382E+02  0.41444363146E+02  0.62778795388E+02  0.47000000000E+01 0. -1.
         -5    1    5    5    0  503 -0.45593595733E+02  0.35147669199E+02 -0.30865169910E+02  0.65489566616E+02  0.47000000000E+01 0. -1.
<mgrwt>
<rscale>  0 0.27492994E+03</rscale>
<asrwt>0</asrwt>
<pdfrwt beam="1">  1        4 0.14387630E-01 0.27492994E+03</pdfrwt>
<pdfrwt beam="2">  1       -4 0.31086234E-01 0.27492994E+03</pdfrwt>
<totfact> 0.75548871E+02</totfact>
</mgrwt>
</event>
<event>
 9    1  0.2024718E-002  0.2755332E+03  0.7818608E-02  0.1098154E+00
          2   -1    0    0  501    0  0.00000000000E+00  0.00000000000E+00  0.53930083726E+02  0.53930083726E+02  0.00000000000E+00 0.  1.
         -2   -1    0    0    0  501 -0.00000000000E+00 -0.00000000000E+00 -0.35193047535E+03  0.35193047535E+03  0.00000000000E+00 0.  1.
         36    2    1    2    0    0  0.71054273576E-14  0.35527136788E-14 -0.29800039162E+03  0.40586055907E+03  0.27553322850E+03 0.  0.
         25    2    3    3    0    0  0.38513461770E+02 -0.34067155696E+00 -0.92528285361E+02  0.16045812641E+03  0.12530731800E+03 0.  0.
         25    2    3    3    0    0 -0.38513461770E+02  0.34067155696E+00 -0.20547210626E+03  0.24540243266E+03  0.12853079285E+03 0.  0.
          5    1    4    4  502    0 -0.41059714704E+02 -0.15861960001E+02 -0.56076351642E+02  0.71443328311E+02  0.47000000000E+01 0.  1.
         -5    1    4    4    0  502  0.79573176474E+02  0.15521288444E+02 -0.36451933719E+02  0.89014798101E+02  0.47000000000E+01 0.  1.
          5    1    5    5  503    0 -0.77815808162E+02 -0.30511287329E+02 -0.13597111684E+03  0.15967615122E+03  0.47000000000E+01 0. -1.
         -5    1    5    5    0  503  0.39302346393E+02  0.30851958886E+02 -0.69500989423E+02  0.85726281442E+02  0.47000000000E+01 0. -1.
<mgrwt>
<rscale>  0 0.27553323E+03</rscale>
<asrwt>0</asrwt>
<pdfrwt beam="1">  1        2 0.82969362E-02 0.27553323E+03</pdfrwt>
<pdfrwt beam="2">  1       -2 0.54143148E-01 0.27553323E+03</pdfrwt>
<totfact> 0.26447054E+03</totfact>
</mgrwt>
</event>
<event>
 9    1  0.2024718E-002  0.2741783E+03  0.7818608E-02  0.1098912E+00
          3   -1    0    0  501    0  0.00000000000E+00  0.00000000000E+00  0.40155643983E+03  0.40155643983E+03  0.00000000000E+00 0. -1.
         -3   -1    0    0    0  501 -0.00000000000E+00 -0.00000000000E+00 -0.46801484035E+02  0.46801484035E+02  0.00000000000E+00 0. -1.
         36    2    1    2    0    0  0.35527136788E-14  0.14210854715E-13  0.35475495580E+03  0.44835792387E+03  0.27417831649E+03 0.  0.
         25    2    3    3    0    0  0.95442789775E+01  0.52272903822E+02  0.15745756642E+03  0.20928408912E+03  0.12721397330E+03 0.  0.
         25    2    3    3    0    0 -0.95442789775E+01 -0.52272903822E+02  0.19729738938E+03  0.23907383475E+03  0.12412287810E+03 0.  0.
          5    1    4    4  502    0  0.22009725167E+02  0.28628280905E+02 -0.11478594614E+02  0.38181862236E+02  0.47000000000E+01 0. -1.
         -5    1    4    4    0  502 -0.12465446190E+02  0.23644622917E+02  0.16893616103E+03  0.17110222688E+03  0.47000000000E+01 0. -1.
          5    1    5    5  503    0 -0.54379489138E+02 -0.62440906223E+02  0.90759378832E+02  0.12294450152E+03  0.47000000000E+01 0.  1.
         -5    1    5    5    0  503  0.44835210160E+02  0.10168002401E+02  0.10653801055E+03  0.11612933323E+03  0.47000000000E+01 0.  1.
<mgrwt>
<rscale>  0 0.27417832E+03</rscale>
<asrwt>0</asrwt>
<pdfrwt beam="1">  1        3 0.61777911E-01 0.27417832E+03</pdfrwt>
<pdfrwt beam="2">  1       -3 0.72002286E-02 0.27417832E+03</pdfrwt>
<totfact> 0.83450126E+02</totfact>
</mgrwt>
</event>
<event>
 9    1  0.2024718E-002  0.2748992E+03  0.7818608E-02  0.1098508E+00
         -2   -1    0    0    0  501 -0.00000000000E+00  0.00000000000E+00  0.20333411473E+02  0.20333411473E+02  0.00000000000E+00 0. -1.
          2   -1    0    0  501    0  0.00000000000E+00 -0.00000000000E+00 -0.92913040073E+03  0.92913040073E+03  0.00000000000E+00 0. -1.
         36    2    1    2    0    0  0.00000000000E+00  0.00000000000E+00 -0.90879698925E+03  0.94946381220E+03  0.27489918697E+03 0.  0.
         25    2    3    3    0    0 -0.47805154565E+02  0.21852948160E+02 -0.55960308654E+03  0.57527818114E+03  0.12258257252E+03 0.  0.
         25    2    3    3    0    0  0.47805154565E+02 -0.21852948160E+02 -0.34919390272E+03  0.37418563106E+03  0.12375629540E+03 0.  0.
          5    1    4    4  502    0  0.60115932515E+01  0.63056239177E+02 -0.22206055951E+03  0.23096582138E+03  0.47000000000E+01 0.  1.
         -5    1    4    4    0  502 -0.53816747816E+02 -0.41203291017E+02 -0.33754252702E+03  0.34431235976E+03  0.47000000000E+01 0.  1.
          5    1    5    5  503    0  0.52672032307E+02  0.49435380379E+01 -0.34134918108E+03  0.34545641546E+03  0.47000000000E+01 0.  1.
         -5    1    5    5    0  503 -0.48668777422E+01 -0.26796486198E+02 -0.78447216331E+01  0.28729215600E+02  0.47000000000E+01 0.  1.
<mgrwt>
<rscale>  0 0.27489919E+03</rscale>
<asrwt>0</asrwt>
<pdfrwt beam="1">  1        2 0.14294314E+00 0.27489919E+03</pdfrwt>
<pdfrwt beam="2">  1       -2 0.31282171E-02 0.27489919E+03</pdfrwt>
<totfact> 0.11541612E+04</totfact>
</mgrwt>
</event>
<event>
 9    1  0.2024718E-002  0.2749113E+03  0.7818608E-02  0.1098501E+00
          2   -1    0    0  501    0  0.00000000000E+00  0.00000000000E+00  0.53260859342E+02  0.53260859342E+02  0.00000000000E+00 0.  1.
         -2   -1    0    0    0  501 -0.00000000000E+00 -0.00000000000E+00 -0.35474559080E+03  0.35474559080E+03  0.00000000000E+00 0.  1.
         36    2    1    2    0    0 -0.14210854715E-13 -0.35527136788E-14 -0.30148473146E+03  0.40800645014E+03  0.27491129489E+03 0.  0.
         25    2    3    3    0    0 -0.66931672297E+02  0.89032387575E+01 -0.16762433150E+03  0.21270237994E+03  0.11218408757E+03 0.  0.
         25    2    3    3    0    0  0.66931672297E+02 -0.89032387575E+01 -0.13386039996E+03  0.19530407020E+03  0.12516371976E+03 0.  0.
          5    1    4    4  502    0  0.38734961075E+01  0.44859495797E+02 -0.31893989641E+02  0.55377747430E+02  0.47000000000E+01 0.  1.
         -5    1    4    4    0  502 -0.70805168405E+02 -0.35956257039E+02 -0.13573034186E+03  0.15732463251E+03  0.47000000000E+01 0.  1.
          5    1    5    5  503    0  0.74563248774E+02  0.86242704775E+01 -0.17403167504E+02  0.77194665284E+02  0.47000000000E+01 0.  1.
         -5    1    5    5    0  503 -0.76315764771E+01 -0.17527509235E+02 -0.11645723245E+03  0.11810940492E+03  0.47000000000E+01 0.  1.
<mgrwt>
<rscale>  0 0.27491129E+03</rscale>
<asrwt>0</asrwt>
<pdfrwt beam="1">  1        2 0.81939782E-02 0.27491129E+03</pdfrwt>
<pdfrwt beam="2">  1       -2 0.54576246E-01 0.27491129E+03</pdfrwt>
<totfact> 0.26436216E+03</totfact>
</mgrwt>
</event>
<event>
 9    1  0.2024718E-002  0.2749167E+03  0.7818608E-02  0.1098498E+00
         -3   -1    0    0    0  501 -0.00000000000E+00  0.00000000000E+00  0.64622095712E+02  0.64622095712E+02  0.00000000000E+00 0. -1.
          3   -1    0    0  501    0  0.00000000000E+00 -0.00000000000E+00 -0.29238906125E+03  0.29238906125E+03  0.00000000000E+00 0. -1.
         36    2    1    2    0    0 -0.71054273576E-14  0.71054273576E-14 -0.22776696554E+03  0.35701115696E+03  0.27491667029E+03 0.  0.
         25    2    3    3    0    0 -0.37478368533E+02  0.17248401979E+02 -0.16655364937E+03  0.21292609773E+03  0.12607644306E+03 0.  0.
         25    2    3    3    0    0  0.37478368533E+02 -0.17248401979E+02 -0.61213316165E+02  0.14408505923E+03  0.12373883279E+03 0.  0.
          5    1    4    4  502    0 -0.72302601672E+02 -0.11331831941E+02 -0.52452843842E+02  0.90163559439E+02  0.47000000000E+01 0.  1.
         -5    1    4    4    0  502  0.34824233138E+02  0.28580233920E+02 -0.11410080553E+03  0.12276253829E+03  0.47000000000E+01 0.  1.
          5    1    5    5  503    0 -0.13529530264E+02  0.40936275674E+02  0.29299630143E+01  0.43468397008E+02  0.47000000000E+01 0. -1.
         -5    1    5    5    0  503  0.51007898797E+02 -0.58184677653E+02 -0.64143279180E+02  0.10061666222E+03  0.47000000000E+01 0. -1.
<mgrwt>
<rscale>  0 0.27491667E+03</rscale>
<asrwt>0</asrwt>
<pdfrwt beam="1">  1        3 0.44982932E-01 0.27491667E+03</pdfrwt>
<pdfrwt beam="2">  1       -3 0.99418610E-02 0.27491667E+03</pdfrwt>
<totfact> 0.93482542E+02</totfact>
</mgrwt>
</event>
<event>
 8    1  0.2024718E-002  0.2552105E+03  0.7818608E-02  0.1110056E+00
         -2   -1    0    0    0  501 -0.00000000000E+00  0.00000000000E+00  0.21580002599E+02  0.21580002599E+02  0.00000000000E+00 0.  1.
          2   -1    0    0  501    0  0.00000000000E+00 -0.00000000000E+00 -0.75454555919E+03  0.75454555919E+03  0.00000000000E+00 0.  1.
         25    2    1    2    0    0 -0.42623099772E+01  0.26695111444E+02 -0.49495268904E+03  0.51091337408E+03  0.12378818670E+03 0.  0.
         25    2    1    2    0    0  0.42623099772E+01 -0.26695111444E+02 -0.23801286755E+03  0.26521218771E+03  0.11382698769E+03 0.  0.
          5    1    3    3  502    0 -0.52016768810E+01  0.67406769547E+02 -0.42045857017E+03  0.42588523014E+03  0.47000000000E+01 0.  1.
         -5    1    3    3    0  502  0.93936690376E+00 -0.40711658103E+02 -0.74494118870E+02  0.85028143941E+02  0.47000000000E+01 0.  1.
          5    1    4    4  503    0 -0.10393477975E+02 -0.57704674401E+02 -0.21673904039E+03  0.22457906283E+03  0.47000000000E+01 0. -1.
         -5    1    4    4    0  503  0.14655787953E+02  0.31009562957E+02 -0.21273827162E+02  0.40633124879E+02  0.47000000000E+01 0. -1.
<mgrwt>
<rscale>  0 0.25521046E+03</rscale>
<asrwt>0</asrwt>
<pdfrwt beam="1">  1        2 0.11608394E+00 0.25521046E+03</pdfrwt>
<pdfrwt beam="2">  1       -2 0.33200003E-02 0.25521046E+03</pdfrwt>
<totfact> 0.13795975E+04</totfact>
</mgrwt>
</event>
<event>
 9    1  0.2024718E-002  0.2746071E+03  0.7818608E-02  0.1098671E+00
         -2   -1    0    0    0  501 -0.00000000000E+00  0.00000000000E+00  0.22558782320E+02  0.22558782320E+02  0.00000000000E+00 0.  1.
          2   -1    0    0  501    0  0.00000000000E+00 -0.00000000000E+00 -0.83569527231E+03  0.83569527231E+03  0.00000000000E+00 0.  1.
         36    2    1    2    0    0 -0.71054273576E-14  0.71054273576E-14 -0.81313648999E+03  0.85825405463E+03  0.27460712106E+03 0.  0.
         25    2    3    3    0    0 -0.44011433481E+02  0.30675656867E+02 -0.49523113009E+03  0.51337846254E+03  0.12419972379E+03 0.  0.
         25    2    3    3    0    0  0.44011433481E+02 -0.30675656867E+02 -0.31790535990E+03  0.34487559209E+03  0.12246368427E+03 0.  0.
          5    1    4    4  502    0 -0.70119250300E+02 -0.12243039716E+02 -0.39245448188E+03  0.39888496040E+03  0.47000000000E+01 0.  1.
         -5    1    4    4    0  502  0.26107816819E+02  0.42918696583E+02 -0.10277664821E+03  0.11449350214E+03  0.47000000000E+01 0.  1.
          5    1    5    5  503    0 -0.10946580999E+02 -0.53256553597E+02 -0.64186502006E+02  0.84250134578E+02  0.47000000000E+01 0.  1.
         -5    1    5    5    0  503  0.54958014480E+02  0.22580896730E+02 -0.25371885789E+03  0.26062545751E+03  0.47000000000E+01 0.  1.
<mgrwt>
<rscale>  0 0.27460712E+03</rscale>
<asrwt>0</asrwt>
<pdfrwt beam="1">  1        2 0.12856849E+00 0.27460712E+03</pdfrwt>
<pdfrwt beam="2">  1       -2 0.34705823E-02 0.27460712E+03</pdfrwt>
<totfact> 0.11375050E+04</totfact>
</mgrwt>
</event>
<event>
 9    1  0.2024718E-002  0.2760202E+03  0.7818608E-02  0.1097883E+00
         -2   -1    0    0    0  501 -0.00000000000E+00  0.00000000000E+00  0.45733015475E+02  0.45733015475E+02  0.00000000000E+00 0.  1.
          2   -1    0    0  501    0  0.00000000000E+00 -0.00000000000E+00 -0.41647788971E+03  0.41647788971E+03  0.00000000000E+00 0.  1.
         36    2    1    2    0    0 -0.35527136788E-14  0.35527136788E-14 -0.37074487424E+03  0.46221090519E+03  0.27602021502E+03 0.  0.
         25    2    3    3    0    0 -0.75251139924E+01 -0.25579665085E+02 -0.18458473235E+03  0.23754469402E+03  0.14712243755E+03 0.  0.
         25    2    3    3    0    0  0.75251139924E+01  0.25579665085E+02 -0.18616014189E+03  0.22466621117E+03  0.12291607465E+03 0.  0.
          5    1    4    4  502    0 -0.90765371594E+01 -0.37529591014E+02  0.11867821842E+02  0.40666803707E+02  0.47000000000E+01 0.  1.
         -5    1    4    4    0  502  0.15514231670E+01  0.11949925929E+02 -0.19645255419E+03  0.19687789031E+03  0.47000000000E+01 0.  1.
          5    1    5    5  503    0  0.53731116394E+02 -0.55736165691E+01 -0.37753783061E+02  0.66072204489E+02  0.47000000000E+01 0. -1.
         -5    1    5    5    0  503 -0.46206002401E+02  0.31153281654E+02 -0.14840635882E+03  0.15859400668E+03  0.47000000000E+01 0. -1.
<mgrwt>
<rscale>  0 0.27602022E+03</rscale>
<asrwt>0</asrwt>
<pdfrwt beam="1">  1        2 0.64073522E-01 0.27602022E+03</pdfrwt>
<pdfrwt beam="2">  1       -2 0.70358485E-02 0.27602022E+03</pdfrwt>
<totfact> 0.87719077E+03</totfact>
</mgrwt>
</event>
<event>
 9    1  0.2024718E-002  0.2718116E+03  0.7818608E-02  0.1100247E+00
          1   -1    0    0  501    0  0.00000000000E+00  0.00000000000E+00  0.25735182345E+02  0.25735182345E+02  0.00000000000E+00 0.  1.
         -1   -1    0    0    0  501 -0.00000000000E+00 -0.00000000000E+00 -0.71770945220E+03  0.71770945220E+03  0.00000000000E+00 0.  1.
         36    2    1    2    0    0  0.00000000000E+00  0.35527136788E-14 -0.69197426986E+03  0.74344463455E+03  0.27181157903E+03 0.  0.
         25    2    3    3    0    0  0.49766263562E+02  0.11459786725E+02 -0.30841571437E+03  0.33656823881E+03  0.12469931355E+03 0.  0.
         25    2    3    3    0    0 -0.49766263562E+02 -0.11459786725E+02 -0.38355855549E+03  0.40687639574E+03  0.12579041388E+03 0.  0.
          5    1    4    4  502    0 -0.29911492390E+02  0.18415000808E+02 -0.28693995803E+02  0.45598739313E+02  0.47000000000E+01 0. -1.
         -5    1    4    4    0  502  0.79677755952E+02 -0.69552140827E+01 -0.27972171857E+03  0.29096949949E+03  0.47000000000E+01 0. -1.
          5    1    5    5  503    0 -0.72389877806E+02  0.26059937205E+02 -0.32246689416E+03  0.33155150816E+03  0.47000000000E+01 0.  1.
         -5    1    5    5    0  503  0.22623614245E+02 -0.37519723930E+02 -0.61091661327E+02  0.75324887580E+02  0.47000000000E+01 0.  1.
<mgrwt>
<rscale>  0 0.27181158E+03</rscale>
<asrwt>0</asrwt>
<pdfrwt beam="1">  1        1 0.39592592E-02 0.27181158E+03</pdfrwt>
<pdfrwt beam="2">  1       -1 0.11041683E+00 0.27181158E+03</pdfrwt>
<totfact> 0.18529651E+03</totfact>
</mgrwt>
</event>
<event>
 9    1  0.2024718E-002  0.2751452E+03  0.7818608E-02  0.1098370E+00
          2   -1    0    0  501    0  0.00000000000E+00  0.00000000000E+00  0.14771673941E+03  0.14771673941E+03  0.00000000000E+00 0.  1.
         -2   -1    0    0    0  501 -0.00000000000E+00 -0.00000000000E+00 -0.12812505071E+03  0.12812505071E+03  0.00000000000E+00 0.  1.
         36    2    1    2    0    0  0.35527136788E-14  0.00000000000E+00  0.19591688695E+02  0.27584179012E+03  0.27514515971E+03 0.  0.
         25    2    3    3    0    0  0.28676717007E+02 -0.40764127273E+02  0.37254625547E+02  0.13650982921E+03  0.12150291427E+03 0.  0.
         25    2    3    3    0    0 -0.28676717007E+02  0.40764127273E+02 -0.17662936852E+02  0.13933196090E+03  0.12890829229E+03 0.  0.
          5    1    4    4  502    0  0.23652988524E+02 -0.14367926576E+02  0.80570444514E+02  0.85320499937E+02  0.47000000000E+01 0.  1.
         -5    1    4    4    0  502  0.50237284835E+01 -0.26396200697E+02 -0.43315818967E+02  0.51189329278E+02  0.47000000000E+01 0.  1.
          5    1    5    5  503    0 -0.38485767986E+02  0.22485153066E+02  0.50738602435E+02  0.67699573285E+02  0.47000000000E+01 0. -1.
         -5    1    5    5    0  503  0.98090509789E+01  0.18278974208E+02 -0.68401539287E+02  0.71632387620E+02  0.47000000000E+01 0. -1.
<mgrwt>
<rscale>  0 0.27514516E+03</rscale>
<asrwt>0</asrwt>
<pdfrwt beam="1">  1        2 0.22725652E-01 0.27514516E+03</pdfrwt>
<pdfrwt beam="2">  1       -2 0.19711546E-01 0.27514516E+03</pdfrwt>
<totfact> 0.51314048E+03</totfact>
</mgrwt>
</event>
<event>
 9    1  0.2024718E-002  0.2762192E+03  0.7818608E-02  0.1097772E+00
         -2   -1    0    0    0  501 -0.00000000000E+00  0.00000000000E+00  0.90056570190E+01  0.90056570190E+01  0.00000000000E+00 0.  1.
          2   -1    0    0  501    0  0.00000000000E+00 -0.00000000000E+00 -0.21180311009E+04  0.21180311009E+04  0.00000000000E+00 0.  1.
         36    2    1    2    0    0  0.71054273576E-14  0.00000000000E+00 -0.21090254439E+04  0.21270367579E+04  0.27621920028E+03 0.  0.
         25    2    3    3    0    0  0.24490260677E+02 -0.56197732441E+02 -0.99012399184E+03  0.10000454279E+04  0.12644121399E+03 0.  0.
         25    2    3    3    0    0 -0.24490260677E+02  0.56197732441E+02 -0.11189014521E+04  0.11269913301E+04  0.12004599376E+03 0.  0.
          5    1    4    4  502    0  0.70561860958E+02 -0.61706072699E+02 -0.67048631614E+03  0.67702334211E+03  0.47000000000E+01 0. -1.
         -5    1    4    4    0  502 -0.46071600282E+02  0.55083402587E+01 -0.31963767570E+03  0.32302208577E+03  0.47000000000E+01 0. -1.
          5    1    5    5  503    0 -0.13668897748E+02 -0.14613616732E+02 -0.34090109118E+02  0.39807312134E+02  0.47000000000E+01 0. -1.
         -5    1    5    5    0  503 -0.10821362929E+02  0.70811349173E+02 -0.10848113429E+04  0.10871840179E+04  0.47000000000E+01 0. -1.
<mgrwt>
<rscale>  0 0.27621920E+03</rscale>
<asrwt>0</asrwt>
<pdfrwt beam="1">  1        2 0.32585084E+00 0.27621920E+03</pdfrwt>
<pdfrwt beam="2">  1       -2 0.13854861E-02 0.27621920E+03</pdfrwt>
<totfact> 0.85301423E+03</totfact>
</mgrwt>
</event>
<event>
 9    1  0.2024718E-002  0.2769674E+03  0.7818608E-02  0.1097357E+00
          1   -1    0    0  501    0  0.00000000000E+00  0.00000000000E+00  0.56028687844E+02  0.56028687844E+02  0.00000000000E+00 0. -1.
         -1   -1    0    0    0  501 -0.00000000000E+00 -0.00000000000E+00 -0.34228409553E+03  0.34228409553E+03  0.00000000000E+00 0. -1.
         36    2    1    2    0    0  0.00000000000E+00  0.00000000000E+00 -0.28625540769E+03  0.39831278338E+03  0.27696735362E+03 0.  0.
         25    2    3    3    0    0 -0.58196779637E+02  0.59402874027E+01 -0.12599789839E+03  0.18607913238E+03  0.12380557715E+03 0.  0.
         25    2    3    3    0    0  0.58196779637E+02 -0.59402874027E+01 -0.16025750930E+03  0.21223365100E+03  0.12624777683E+03 0.  0.
          5    1    4    4  502    0 -0.20856572425E+02 -0.47476419754E+02 -0.10541137082E+03  0.11756978414E+03  0.47000000000E+01 0.  1.
         -5    1    4    4    0  502 -0.37340207212E+02  0.53416707157E+02 -0.20586527572E+02  0.68509348235E+02  0.47000000000E+01 0.  1.
          5    1    5    5  503    0  0.41175797237E+02  0.52936809163E+02 -0.42894559553E+02  0.79748261936E+02  0.47000000000E+01 0. -1.
         -5    1    5    5    0  503  0.17020982400E+02 -0.58877096566E+02 -0.11736294975E+03  0.13248538906E+03  0.47000000000E+01 0. -1.
<mgrwt>
<rscale>  0 0.27696735E+03</rscale>
<asrwt>0</asrwt>
<pdfrwt beam="1">  1        1 0.86197983E-02 0.27696735E+03</pdfrwt>
<pdfrwt beam="2">  1       -1 0.52659091E-01 0.27696735E+03</pdfrwt>
<totfact> 0.29180710E+03</totfact>
</mgrwt>
</event>
<event>
 9    1  0.2024718E-002  0.2741430E+03  0.7818608E-02  0.1098932E+00
          2   -1    0    0  501    0  0.00000000000E+00  0.00000000000E+00  0.17116335656E+03  0.17116335656E+03  0.00000000000E+00 0. -1.
         -2   -1    0    0    0  501 -0.00000000000E+00 -0.00000000000E+00 -0.10976994399E+03  0.10976994399E+03  0.00000000000E+00 0. -1.
         36    2    1    2    0    0 -0.71054273576E-14 -0.71054273576E-14  0.61393412571E+02  0.28093330056E+03  0.27414297046E+03 0.  0.
         25    2    3    3    0    0  0.47692181921E+02 -0.55285938893E+02  0.75725106608E+02  0.13626630357E+03  0.86620635319E+02 0.  0.
         25    2    3    3    0    0 -0.47692181921E+02  0.55285938893E+02 -0.14331694037E+02  0.14466699698E+03  0.12406475449E+03 0.  0.
          5    1    4    4  502    0  0.40075889168E+01 -0.44469915421E+02 -0.34969409530E+01  0.45032796299E+02  0.47000000000E+01 0.  1.
         -5    1    4    4    0  502  0.43684593004E+02 -0.10816023471E+02  0.79222047561E+02  0.91233507274E+02  0.47000000000E+01 0.  1.
          5    1    5    5  503    0 -0.77784228456E+02  0.65729940415E+02 -0.33362133085E+02  0.10726571301E+03  0.47000000000E+01 0. -1.
         -5    1    5    5    0  503  0.30092046535E+02 -0.10444001522E+02  0.19030439047E+02  0.37401283973E+02  0.47000000000E+01 0. -1.
<mgrwt>
<rscale>  0 0.27414297E+03</rscale>
<asrwt>0</asrwt>
<pdfrwt beam="1">  1        2 0.26332824E-01 0.27414297E+03</pdfrwt>
<pdfrwt beam="2">  1       -2 0.16887684E-01 0.27414297E+03</pdfrwt>
<totfact> 0.56496589E+03</totfact>
</mgrwt>
</event>
<event>
 9    1  0.2024718E-002  0.2751822E+03  0.7818608E-02  0.1098350E+00
          2   -1    0    0  501    0  0.00000000000E+00  0.00000000000E+00  0.31407428951E+02  0.31407428951E+02  0.00000000000E+00 0.  1.
         -2   -1    0    0    0  501 -0.00000000000E+00 -0.00000000000E+00 -0.60276553146E+03  0.60276553146E+03  0.00000000000E+00 0.  1.
         36    2    1    2    0    0  0.00000000000E+00  0.00000000000E+00 -0.57135810251E+03  0.63417296041E+03  0.27518223492E+03 0.  0.
         25    2    3    3    0    0 -0.28510042993E+02  0.36064059761E+02 -0.36133238970E+03  0.38580732950E+03  0.12717216949E+03 0.  0.
         25    2    3    3    0    0  0.28510042993E+02 -0.36064059761E+02 -0.21002571280E+03  0.24836563090E+03  0.12434326527E+03 0.  0.
          5    1    4    4  502    0 -0.33394016366E+02  0.78273351485E+02 -0.29352814699E+03  0.30565133887E+03  0.47000000000E+01 0.  1.
         -5    1    4    4    0  502  0.48839733730E+01 -0.42209291724E+02 -0.67804242718E+02  0.80155990633E+02  0.47000000000E+01 0.  1.
          5    1    5    5  503    0  0.67149946875E+02 -0.87262164060E+01 -0.58694450522E+02  0.89735114310E+02  0.47000000000E+01 0. -1.
         -5    1    5    5    0  503 -0.38639903882E+02 -0.27337843355E+02 -0.15133126228E+03  0.15863051659E+03  0.47000000000E+01 0. -1.
<mgrwt>
<rscale>  0 0.27518223E+03</rscale>
<asrwt>0</asrwt>
<pdfrwt beam="1">  1        2 0.48319127E-02 0.27518223E+03</pdfrwt>
<pdfrwt beam="2">  1       -2 0.92733149E-01 0.27518223E+03</pdfrwt>
<totfact> 0.16779944E+03</totfact>
</mgrwt>
</event>
<event>
 9    1  0.2024718E-002  0.2712052E+03  0.7818608E-02  0.1100592E+00
         -2   -1    0    0    0  501 -0.00000000000E+00  0.00000000000E+00  0.35524303577E+02  0.35524303577E+02  0.00000000000E+00 0.  1.
          2   -1    0    0  501    0  0.00000000000E+00 -0.00000000000E+00 -0.51761946369E+03  0.51761946369E+03  0.00000000000E+00 0.  1.
         36    2    1    2    0    0 -0.17763568394E-14  0.00000000000E+00 -0.48209516012E+03  0.55314376727E+03  0.27120524306E+03 0.  0.
         25    2    3    3    0    0 -0.10719853495E+02 -0.19656831970E+02 -0.33786306776E+03  0.36084352055E+03  0.12472083811E+03 0.  0.
         25    2    3    3    0    0  0.10719853495E+02  0.19656831970E+02 -0.14423209235E+03  0.19230024672E+03  0.12520056758E+03 0.  0.
          5    1    4    4  502    0  0.41768266033E+01 -0.71862754385E+02 -0.19896498225E+03  0.21163850196E+03  0.47000000000E+01 0. -1.
         -5    1    4    4    0  502 -0.14896680099E+02  0.52205922415E+02 -0.13889808551E+03  0.14920501859E+03  0.47000000000E+01 0. -1.
          5    1    5    5  503    0  0.46766833809E+01 -0.52761519535E+02 -0.48124967642E+02  0.71719954139E+02  0.47000000000E+01 0.  1.
         -5    1    5    5    0  503  0.60431701145E+01  0.72418351505E+02 -0.96107124708E+02  0.12058029258E+03  0.47000000000E+01 0.  1.
<mgrwt>
<rscale>  0 0.27120524E+03</rscale>
<asrwt>0</asrwt>
<pdfrwt beam="1">  1        2 0.79633760E-01 0.27120524E+03</pdfrwt>
<pdfrwt beam="2">  1       -2 0.54652777E-02 0.27120524E+03</pdfrwt>
<totfact> 0.10161461E+04</totfact>
</mgrwt>
</event>
<event>
 9    1  0.2024718E-002  0.2759570E+03  0.7818608E-02  0.1097918E+00
          2   -1    0    0  501    0  0.00000000000E+00  0.00000000000E+00  0.12340255099E+03  0.12340255099E+03  0.00000000000E+00 0.  1.
         -2   -1    0    0    0  501 -0.00000000000E+00 -0.00000000000E+00 -0.15427614802E+03  0.15427614802E+03  0.00000000000E+00 0.  1.
         36    2    1    2    0    0  0.71054273576E-14  0.71054273576E-14 -0.30873597036E+02  0.27767869901E+03  0.27595702725E+03 0.  0.
         25    2    3    3    0    0 -0.62290011306E+02  0.22027953772E+01 -0.10187771004E+02  0.14043879059E+03  0.12543669882E+03 0.  0.
         25    2    3    3    0    0  0.62290011306E+02 -0.22027953772E+01 -0.20685826032E+02  0.13723990841E+03  0.12050722487E+03 0.  0.
          5    1    4    4  502    0 -0.18068612620E+02  0.61510760013E+02 -0.15486926243E+02  0.66120974311E+02  0.47000000000E+01 0. -1.
         -5    1    4    4    0  502 -0.44221398686E+02 -0.59307964636E+02  0.52991552383E+01  0.74317816284E+02  0.47000000000E+01 0. -1.
          5    1    5    5  503    0 -0.67027680078E+01 -0.47448781649E+02  0.98358113067E+01  0.49144146783E+02  0.47000000000E+01 0. -1.
         -5    1    5    5    0  503  0.68992779314E+02  0.45245986272E+02 -0.30521637339E+02  0.88095761629E+02  0.47000000000E+01 0. -1.
<mgrwt>
<rscale>  0 0.27595703E+03</rscale>
<asrwt>0</asrwt>
<pdfrwt beam="1">  1        2 0.18985008E-01 0.27595703E+03</pdfrwt>
<pdfrwt beam="2">  1       -2 0.23734792E-01 0.27595703E+03</pdfrwt>
<totfact> 0.45696294E+03</totfact>
</mgrwt>
</event>
<event>
 9    1  0.2024718E-002  0.2754109E+03  0.7818608E-02  0.1098222E+00
         -1   -1    0    0    0  501 -0.00000000000E+00  0.00000000000E+00  0.16578716189E+02  0.16578716189E+02  0.00000000000E+00 0.  1.
          1   -1    0    0  501    0  0.00000000000E+00 -0.00000000000E+00 -0.11438035939E+04  0.11438035939E+04  0.00000000000E+00 0.  1.
         36    2    1    2    0    0  0.00000000000E+00 -0.14210854715E-13 -0.11272248777E+04  0.11603823101E+04  0.27541093049E+03 0.  0.
         25    2    3    3    0    0 -0.33390119841E+02 -0.58625009464E+02 -0.65118202902E+03  0.66351315257E+03  0.10798090977E+03 0.  0.
         25    2    3    3    0    0  0.33390119841E+02  0.58625009464E+02 -0.47604284871E+03  0.49686915754E+03  0.12534103106E+03 0.  0.
          5    1    4    4  502    0  0.12813443203E+02  0.26784899329E+02 -0.16127761366E+03  0.16405539865E+03  0.47000000000E+01 0.  1.
         -5    1    4    4    0  502 -0.46203563044E+02 -0.85409908793E+02 -0.48990441536E+03  0.49945775391E+03  0.47000000000E+01 0.  1.
          5    1    5    5  503    0 -0.24455228083E+02  0.36070322217E+01 -0.15759347101E+02  0.29690333158E+02  0.47000000000E+01 0. -1.
         -5    1    5    5    0  503  0.57845347923E+02  0.55017977242E+02 -0.46028350161E+03  0.46717882438E+03  0.47000000000E+01 0. -1.
<mgrwt>
<rscale>  0 0.27541093E+03</rscale>
<asrwt>0</asrwt>
<pdfrwt beam="1">  1        1 0.17596989E+00 0.27541093E+03</pdfrwt>
<pdfrwt beam="2">  1       -1 0.25505702E-02 0.27541093E+03</pdfrwt>
<totfact> 0.60154242E+03</totfact>
</mgrwt>
</event>
<event>
 9    1  0.2024718E-002  0.2748292E+03  0.7818608E-02  0.1098547E+00
          1   -1    0    0  501    0  0.00000000000E+00  0.00000000000E+00  0.35526846654E+02  0.35526846654E+02  0.00000000000E+00 0. -1.
         -1   -1    0    0    0  501 -0.00000000000E+00 -0.00000000000E+00 -0.53150719243E+03  0.53150719243E+03  0.00000000000E+00 0. -1.
         36    2    1    2    0    0  0.00000000000E+00 -0.35527136788E-14 -0.49598034578E+03  0.56703403908E+03  0.27482921621E+03 0.  0.
         25    2    3    3    0    0 -0.49526539696E+02  0.26198485871E+02 -0.30036579556E+03  0.33005403078E+03  0.12480710434E+03 0.  0.
         25    2    3    3    0    0  0.49526539696E+02 -0.26198485871E+02 -0.19561455022E+03  0.23698000831E+03  0.12147112119E+03 0.  0.
          5    1    4    4  502    0 -0.63558143169E+02 -0.35767719858E+02 -0.15799565164E+03  0.17407953149E+03  0.47000000000E+01 0.  1.
         -5    1    4    4    0  502  0.14031603472E+02  0.61966205729E+02 -0.14237014392E+03  0.15597449929E+03  0.47000000000E+01 0.  1.
          5    1    5    5  503    0 -0.18364396473E+02 -0.30910021181E+02 -0.77022662978E+01  0.37068792445E+02  0.47000000000E+01 0. -1.
         -5    1    5    5    0  503  0.67890936169E+02  0.47115353102E+01 -0.18791228392E+03  0.19991121586E+03  0.47000000000E+01 0. -1.
<mgrwt>
<rscale>  0 0.27482922E+03</rscale>
<asrwt>0</asrwt>
<pdfrwt beam="1">  1        1 0.54656688E-02 0.27482922E+03</pdfrwt>
<pdfrwt beam="2">  1       -1 0.81770337E-01 0.27482922E+03</pdfrwt>
<totfact> 0.22874993E+03</totfact>
</mgrwt>
</event>
<event>
 9    1  0.2024718E-002  0.2748958E+03  0.7818608E-02  0.1098510E+00
         -2   -1    0    0    0  501 -0.00000000000E+00  0.00000000000E+00  0.56603865622E+02  0.56603865622E+02  0.00000000000E+00 0.  1.
          2   -1    0    0  501    0  0.00000000000E+00 -0.00000000000E+00 -0.33375687645E+03  0.33375687645E+03  0.00000000000E+00 0.  1.
         36    2    1    2    0    0 -0.17763568394E-14 -0.71054273576E-14 -0.27715301083E+03  0.39036074207E+03  0.27489583034E+03 0.  0.
         25    2    3    3    0    0 -0.10380950003E+02  0.39875434820E+02 -0.63083566004E+02  0.14602466748E+03  0.12508338334E+03 0.  0.
         25    2    3    3    0    0  0.10380950003E+02 -0.39875434820E+02 -0.21406944482E+03  0.24433607460E+03  0.11034752248E+03 0.  0.
          5    1    4    4  502    0  0.27010540432E+02  0.14089674355E+02  0.29579455219E+02  0.42721451157E+02  0.47000000000E+01 0.  1.
         -5    1    4    4    0  502 -0.37391490435E+02  0.25785760465E+02 -0.92663021223E+02  0.10330321632E+03  0.47000000000E+01 0.  1.
          5    1    5    5  503    0 -0.65320133525E+01 -0.47754020806E+02 -0.25392758637E+02  0.54680854902E+02  0.47000000000E+01 0. -1.
         -5    1    5    5    0  503  0.16912963355E+02  0.78785859860E+01 -0.18867668619E+03  0.18965521969E+03  0.47000000000E+01 0. -1.
<mgrwt>
<rscale>  0 0.27489583E+03</rscale>
<asrwt>0</asrwt>
<pdfrwt beam="1">  1        2 0.51347211E-01 0.27489583E+03</pdfrwt>
<pdfrwt beam="2">  1       -2 0.87082872E-02 0.27489583E+03</pdfrwt>
<totfact> 0.79921505E+03</totfact>
</mgrwt>
</event>
<event>
 9    1  0.2024718E-002  0.2773649E+03  0.7818608E-02  0.1097137E+00
          2   -1    0    0  501    0  0.00000000000E+00  0.00000000000E+00  0.19182621917E+03  0.19182621917E+03  0.00000000000E+00 0.  1.
         -2   -1    0    0    0  501 -0.00000000000E+00 -0.00000000000E+00 -0.10026167200E+03  0.10026167200E+03  0.00000000000E+00 0.  1.
         36    2    1    2    0    0  0.00000000000E+00 -0.14210854715E-13  0.91564547161E+02  0.29208789117E+03  0.27736486777E+03 0.  0.
         25    2    3    3    0    0  0.16255095655E+02  0.51508138056E+02  0.76590636562E+02  0.15607351031E+03  0.12480183729E+03 0.  0.
         25    2    3    3    0    0 -0.16255095655E+02 -0.51508138056E+02  0.14973910599E+02  0.13601438086E+03  0.12392892068E+03 0.  0.
          5    1    4    4  502    0 -0.16307703113E+02 -0.37382032255E+02  0.19807420480E+02  0.45582687749E+02  0.47000000000E+01 0.  1.
         -5    1    4    4    0  502  0.32562798768E+02  0.88890170311E+02  0.56783216082E+02  0.11049082256E+03  0.47000000000E+01 0.  1.
          5    1    5    5  503    0  0.14713059918E+02 -0.86701296216E+02  0.10453966192E+02  0.88684633995E+02  0.47000000000E+01 0.  1.
         -5    1    5    5    0  503 -0.30968155573E+02  0.35193158160E+02  0.45199444068E+01  0.47329746865E+02  0.47000000000E+01 0.  1.
<mgrwt>
<rscale>  0 0.27736487E+03</rscale>
<asrwt>0</asrwt>
<pdfrwt beam="1">  1        2 0.29511726E-01 0.27736487E+03</pdfrwt>
<pdfrwt beam="2">  1       -2 0.15424873E-01 0.27736487E+03</pdfrwt>
<totfact> 0.57949796E+03</totfact>
</mgrwt>
</event>
<event>
 9    1  0.2024718E-002  0.2747154E+03  0.7818608E-02  0.1098611E+00
          3   -1    0    0  501    0  0.00000000000E+00  0.00000000000E+00  0.10128937063E+03  0.10128937063E+03  0.00000000000E+00 0. -1.
         -3   -1    0    0    0  501 -0.00000000000E+00 -0.00000000000E+00 -0.18626964557E+03  0.18626964557E+03  0.00000000000E+00 0. -1.
         36    2    1    2    0    0  0.00000000000E+00  0.14210854715E-13 -0.84980274939E+02  0.28755901619E+03  0.27471538119E+03 0.  0.
         25    2    3    3    0    0  0.81550566333E+02 -0.35380814846E+02 -0.52533910236E+02  0.13073662190E+03  0.80187004258E+02 0.  0.
         25    2    3    3    0    0 -0.81550566333E+02  0.35380814846E+02 -0.32446364703E+02  0.15682239429E+03  0.12505278822E+03 0.  0.
          5    1    4    4  502    0  0.60532196357E+02  0.16980904345E+02 -0.29653447574E+02  0.69670042782E+02  0.47000000000E+01 0.  1.
         -5    1    4    4    0  502  0.21018369976E+02 -0.52361719192E+02 -0.22880462662E+02  0.61066579115E+02  0.47000000000E+01 0.  1.
          5    1    5    5  503    0  0.32414494725E+02 -0.35165929533E+00 -0.15004911167E+02  0.36028606574E+02  0.47000000000E+01 0. -1.
         -5    1    5    5    0  503 -0.11396506106E+03  0.35732474142E+02 -0.17441453536E+02  0.12079378772E+03  0.47000000000E+01 0. -1.
<mgrwt>
<rscale>  0 0.27471538E+03</rscale>
<asrwt>0</asrwt>
<pdfrwt beam="1">  1        3 0.15582980E-01 0.27471538E+03</pdfrwt>
<pdfrwt beam="2">  1       -3 0.28656868E-01 0.27471538E+03</pdfrwt>
<totfact> 0.10331227E+03</totfact>
</mgrwt>
</event>
<event>
 9    1  0.2024718E-002  0.2737307E+03  0.7818608E-02  0.1099163E+00
         -2   -1    0    0    0  501 -0.00000000000E+00  0.00000000000E+00  0.11451143196E+03  0.11451143196E+03  0.00000000000E+00 0. -1.
          2   -1    0    0  501    0  0.00000000000E+00 -0.00000000000E+00 -0.16358302614E+03  0.16358302614E+03  0.00000000000E+00 0. -1.
         36    2    1    2    0    0  0.00000000000E+00 -0.71054273576E-14 -0.49071594188E+02  0.27809445810E+03  0.27373071854E+03 0.  0.
         25    2    3    3    0    0  0.20507136961E+02 -0.35345353059E+02 -0.24503345970E+02  0.13292849485E+03  0.12409566523E+03 0.  0.
         25    2    3    3    0    0 -0.20507136961E+02  0.35345353059E+02 -0.24568248218E+02  0.14516596325E+03  0.13711207612E+03 0.  0.
          5    1    4    4  502    0  0.34161454186E+01 -0.73768482304E+02 -0.44265713791E+02  0.86226460256E+02  0.47000000000E+01 0.  1.
         -5    1    4    4    0  502  0.17090991542E+02  0.38423129245E+02  0.19762367821E+02  0.46702034589E+02  0.47000000000E+01 0.  1.
          5    1    5    5  503    0 -0.33671764951E+02 -0.36335601493E+02 -0.47324590305E+02  0.68671468153E+02  0.47000000000E+01 0. -1.
         -5    1    5    5    0  503  0.13164627990E+02  0.71680954552E+02  0.22756342087E+02  0.76494495101E+02  0.47000000000E+01 0. -1.
<mgrwt>
<rscale>  0 0.27373072E+03</rscale>
<asrwt>0</asrwt>
<pdfrwt beam="1">  1        2 0.25166620E-01 0.27373072E+03</pdfrwt>
<pdfrwt beam="2">  1       -2 0.17617143E-01 0.27373072E+03</pdfrwt>
<totfact> 0.55346891E+03</totfact>
</mgrwt>
</event>
<event>
 9    1  0.2024718E-002  0.2752955E+03  0.7818608E-02  0.1098287E+00
          2   -1    0    0  501    0  0.00000000000E+00  0.00000000000E+00  0.77561578773E+03  0.77561578773E+03  0.00000000000E+00 0.  1.
         -2   -1    0    0    0  501 -0.00000000000E+00 -0.00000000000E+00 -0.24428208892E+02  0.24428208892E+02  0.00000000000E+00 0.  1.
         36    2    1    2    0    0  0.71054273576E-14  0.71054273576E-14  0.75118757884E+03  0.80004399662E+03  0.27529551019E+03 0.  0.
         25    2    3    3    0    0 -0.70869115806E+01 -0.27667543374E+02  0.37623173478E+03  0.40066514262E+03  0.13478323704E+03 0.  0.
         25    2    3    3    0    0  0.70869115806E+01  0.27667543374E+02  0.37495584406E+03  0.39937885400E+03  0.13452087851E+03 0.  0.
          5    1    4    4  502    0  0.23882496478E+02 -0.53279864471E+02  0.67837028359E+02  0.89627395436E+02  0.47000000000E+01 0. -1.
         -5    1    4    4    0  502 -0.30969408058E+02  0.25612321097E+02  0.30839470642E+03  0.31103774719E+03  0.47000000000E+01 0. -1.
          5    1    5    5  503    0  0.61288151636E+02  0.43944580246E+02  0.26584609530E+03  0.27637583116E+03  0.47000000000E+01 0. -1.
         -5    1    5    5    0  503 -0.54201240056E+02 -0.16277036872E+02  0.10910974876E+03  0.12300302284E+03  0.47000000000E+01 0. -1.
<mgrwt>
<rscale>  0 0.27529551E+03</rscale>
<asrwt>0</asrwt>
<pdfrwt beam="1">  1        2 0.11932549E+00 0.27529551E+03</pdfrwt>
<pdfrwt beam="2">  1       -2 0.37581866E-02 0.27529551E+03</pdfrwt>
<totfact> 0.11105740E+04</totfact>
</mgrwt>
</event>
<event>
 9    1  0.2024718E-002  0.2728034E+03  0.7818608E-02  0.1099686E+00
         -1   -1    0    0    0  501 -0.00000000000E+00  0.00000000000E+00  0.35699141764E+02  0.35699141764E+02  0.00000000000E+00 0.  1.
          1   -1    0    0  501    0  0.00000000000E+00 -0.00000000000E+00 -0.52117273851E+03  0.52117273851E+03  0.00000000000E+00 0.  1.
         36    2    1    2    0    0 -0.14210854715E-13  0.00000000000E+00 -0.48547359675E+03  0.55687188028E+03  0.27280336857E+03 0.  0.
         25    2    3    3    0    0 -0.49223785255E+02 -0.20098731669E+02 -0.16354939709E+03  0.20744419434E+03  0.11600753608E+03 0.  0.
         25    2    3    3    0    0  0.49223785255E+02  0.20098731669E+02 -0.32192419966E+03  0.34942768594E+03  0.12505029917E+03 0.  0.
          5    1    4    4  502    0 -0.82182532420E+02 -0.35617498974E+02 -0.12824278249E+03  0.15649561057E+03  0.47000000000E+01 0.  1.
         -5    1    4    4    0  502  0.32958747165E+02  0.15518767305E+02 -0.35306614600E+02  0.50948583767E+02  0.47000000000E+01 0.  1.
          5    1    5    5  503    0 -0.67075747262E+01 -0.43561301037E+02 -0.16697260416E+03  0.17275566285E+03  0.47000000000E+01 0.  1.
         -5    1    5    5    0  503  0.55931359981E+02  0.63660032706E+02 -0.15495159550E+03  0.17667202309E+03  0.47000000000E+01 0.  1.
<mgrwt>
<rscale>  0 0.27280337E+03</rscale>
<asrwt>0</asrwt>
<pdfrwt beam="1">  1        1 0.80180419E-01 0.27280337E+03</pdfrwt>
<pdfrwt beam="2">  1       -1 0.54921758E-02 0.27280337E+03</pdfrwt>
<totfact> 0.64908096E+03</totfact>
</mgrwt>
</event>
<event>
 9    1  0.2024718E-002  0.2752716E+03  0.7818608E-02  0.1098300E+00
         -3   -1    0    0    0  501 -0.00000000000E+00  0.00000000000E+00  0.10352941352E+03  0.10352941352E+03  0.00000000000E+00 0.  1.
          3   -1    0    0  501    0  0.00000000000E+00 -0.00000000000E+00 -0.18297805911E+03  0.18297805911E+03  0.00000000000E+00 0.  1.
         36    2    1    2    0    0  0.00000000000E+00  0.71054273576E-14 -0.79448645590E+02  0.28650747264E+03  0.27527158333E+03 0.  0.
         25    2    3    3    0    0 -0.94130801879E+00  0.35116986379E+00  0.18258339757E+02  0.12867796248E+03  0.12737206003E+03 0.  0.
         25    2    3    3    0    0  0.94130801879E+00 -0.35116986379E+00 -0.97706985348E+02  0.15782951016E+03  0.12394551186E+03 0.  0.
          5    1    4    4  502    0  0.41014452913E+02  0.42124823809E+02 -0.14656748030E+02  0.60774965170E+02  0.47000000000E+01 0. -1.
         -5    1    4    4    0  502 -0.41955760931E+02 -0.41773653945E+02  0.32915087787E+02  0.67902997307E+02  0.47000000000E+01 0. -1.
          5    1    5    5  503    0  0.44641983902E+02 -0.43336329993E+02 -0.46428732443E+02  0.77773140738E+02  0.47000000000E+01 0.  1.
         -5    1    5    5    0  503 -0.43700675883E+02  0.42985160130E+02 -0.51278252904E+02  0.80056369421E+02  0.47000000000E+01 0.  1.
<mgrwt>
<rscale>  0 0.27527158E+03</rscale>
<asrwt>0</asrwt>
<pdfrwt beam="1">  1        3 0.28150471E-01 0.27527158E+03</pdfrwt>
<pdfrwt beam="2">  1       -3 0.15927602E-01 0.27527158E+03</pdfrwt>
<totfact> 0.10284295E+03</totfact>
</mgrwt>
</event>
<event>
 9    1  0.2024718E-002  0.2749506E+03  0.7818608E-02  0.1098479E+00
          2   -1    0    0  501    0  0.00000000000E+00  0.00000000000E+00  0.89977883699E+03  0.89977883699E+03  0.00000000000E+00 0. -1.
         -2   -1    0    0    0  501 -0.00000000000E+00 -0.00000000000E+00 -0.21004552261E+02  0.21004552261E+02  0.00000000000E+00 0. -1.
         36    2    1    2    0    0  0.00000000000E+00  0.35527136788E-14  0.87877428473E+03  0.92078338925E+03  0.27495055268E+03 0.  0.
         25    2    3    3    0    0 -0.53384139889E+02  0.64796741711E+01  0.43904458172E+03  0.46000191673E+03  0.12629238336E+03 0.  0.
         25    2    3    3    0    0  0.53384139889E+02 -0.64796741711E+01  0.43972970301E+03  0.46078147252E+03  0.12674975793E+03 0.  0.
          5    1    4    4  502    0 -0.29728927469E+01 -0.17815616732E+02  0.13421004683E+01  0.18711641416E+02  0.47000000000E+01 0. -1.
         -5    1    4    4    0  502 -0.50411247142E+02  0.24295290903E+02  0.43770248125E+03  0.44129027532E+03  0.47000000000E+01 0. -1.
          5    1    5    5  503    0  0.12167852846E+02 -0.40777269597E+02  0.43940459553E+02  0.61348971829E+02  0.47000000000E+01 0.  1.
         -5    1    5    5    0  503  0.41216287043E+02  0.34297595426E+02  0.39578924346E+03  0.39943250069E+03  0.47000000000E+01 0.  1.
<mgrwt>
<rscale>  0 0.27495055E+03</rscale>
<asrwt>0</asrwt>
<pdfrwt beam="1">  1        2 0.13842748E+00 0.27495055E+03</pdfrwt>
<pdfrwt beam="2">  1       -2 0.32314703E-02 0.27495055E+03</pdfrwt>
<totfact> 0.11482597E+04</totfact>
</mgrwt>
</event>
<event>
 9    1  0.2024718E-002  0.2750432E+03  0.7818608E-02  0.1098427E+00
         -1   -1    0    0    0  501 -0.00000000000E+00  0.00000000000E+00  0.19193649195E+02  0.19193649195E+02  0.00000000000E+00 0. -1.
          1   -1    0    0  501    0  0.00000000000E+00 -0.00000000000E+00 -0.98533592700E+03  0.98533592700E+03  0.00000000000E+00 0. -1.
         36    2    1    2    0    0  0.35527136788E-14  0.00000000000E+00 -0.96614227781E+03  0.10045295762E+04  0.27504321204E+03 0.  0.
         25    2    3    3    0    0  0.82472597292E+01 -0.40602316494E+02 -0.58478154951E+03  0.60093638867E+03  0.13205497788E+03 0.  0.
         25    2    3    3    0    0 -0.82472597292E+01  0.40602316494E+02 -0.38136072830E+03  0.40359318753E+03  0.12543879197E+03 0.  0.
          5    1    4    4  502    0  0.37489331931E+02 -0.28922150717E+02 -0.66999286671E+02  0.82176244896E+02  0.47000000000E+01 0.  1.
         -5    1    4    4    0  502 -0.29242072202E+02 -0.11680165777E+02 -0.51778226284E+03  0.51876014378E+03  0.47000000000E+01 0.  1.
          5    1    5    5  503    0  0.40222690723E+02  0.40485148987E+02 -0.32085517142E+03  0.32592490418E+03  0.47000000000E+01 0. -1.
         -5    1    5    5    0  503 -0.48469950452E+02  0.11716750674E+00 -0.60505556883E+02  0.77668283352E+02  0.47000000000E+01 0. -1.
<mgrwt>
<rscale>  0 0.27504321E+03</rscale>
<asrwt>0</asrwt>
<pdfrwt beam="1">  1        1 0.15159019E+00 0.27504321E+03</pdfrwt>
<pdfrwt beam="2">  1       -1 0.29528682E-02 0.27504321E+03</pdfrwt>
<totfact> 0.63296974E+03</totfact>
</mgrwt>
</event>
<event>
 9    1  0.2024718E-002  0.2694776E+03  0.7818608E-02  0.1101579E+00
          2   -1    0    0  501    0  0.00000000000E+00  0.00000000000E+00  0.31493669399E+02  0.31493669399E+02  0.00000000000E+00 0. -1.
         -2   -1    0    0    0  501 -0.00000000000E+00 -0.00000000000E+00 -0.57645068308E+03  0.57645068308E+03  0.00000000000E+00 0. -1.
         36    2    1    2    0    0  0.00000000000E+00  0.00000000000E+00 -0.54495701368E+03  0.60794435248E+03  0.26947762236E+03 0.  0.
         25    2    3    3    0    0 -0.49149816098E+02  0.64981235301E+01 -0.32677399112E+03  0.35398887774E+03  0.12676337902E+03 0.  0.
         25    2    3    3    0    0  0.49149816098E+02 -0.64981235301E+01 -0.21818302256E+03  0.25395547474E+03  0.12013168518E+03 0.  0.
          5    1    4    4  502    0 -0.39236276778E+01 -0.28815194068E+01  0.11067528857E+02  0.12972208881E+02  0.47000000000E+01 0.  1.
         -5    1    4    4    0  502 -0.45226188420E+02  0.93796429369E+01 -0.33784151998E+03  0.34101666886E+03  0.47000000000E+01 0.  1.
          5    1    5    5  503    0 -0.36261351673E+02  0.18095122584E+02 -0.74469448044E+02  0.84912353509E+02  0.47000000000E+01 0. -1.
         -5    1    5    5    0  503  0.85411167771E+02 -0.24593246114E+02 -0.14371357452E+03  0.16904312123E+03  0.47000000000E+01 0. -1.
<mgrwt>
<rscale>  0 0.26947762E+03</rscale>
<asrwt>0</asrwt>
<pdfrwt beam="1">  1        2 0.48451802E-02 0.26947762E+03</pdfrwt>
<pdfrwt beam="2">  1       -2 0.88684715E-01 0.26947762E+03</pdfrwt>
<totfact> 0.18488779E+03</totfact>
</mgrwt>
</event>
<event>
 9    1  0.2024718E-002  0.2753256E+03  0.7818608E-02  0.1098270E+00
         -1   -1    0    0    0  501 -0.00000000000E+00  0.00000000000E+00  0.42977576684E+03  0.42977576684E+03  0.00000000000E+00 0. -1.
          1   -1    0    0  501    0  0.00000000000E+00 -0.00000000000E+00 -0.44095202715E+02  0.44095202715E+02  0.00000000000E+00 0. -1.
         36    2    1    2    0    0  0.00000000000E+00  0.00000000000E+00  0.38568056412E+03  0.47387096955E+03  0.27532562220E+03 0.  0.
         25    2    3    3    0    0  0.52234363567E+02 -0.12856788970E+02  0.22459801232E+03  0.26217109016E+03  0.12407936017E+03 0.  0.
         25    2    3    3    0    0 -0.52234363567E+02  0.12856788970E+02  0.16108255180E+03  0.21169987939E+03  0.12639432217E+03 0.  0.
          5    1    4    4  502    0  0.70237053534E+02  0.51296930585E+01  0.22548894083E+03  0.23627718865E+03  0.47000000000E+01 0.  1.
         -5    1    4    4    0  502 -0.18002689967E+02 -0.17986482028E+02 -0.89092851405E+00  0.25893901510E+02  0.47000000000E+01 0.  1.
          5    1    5    5  503    0 -0.74274366799E+02 -0.35836720456E+02  0.84259271409E+02  0.11799435120E+03  0.47000000000E+01 0. -1.
         -5    1    5    5    0  503  0.22040003232E+02  0.48693509425E+02  0.76823280395E+02  0.93705528190E+02  0.47000000000E+01 0. -1.
<mgrwt>
<rscale>  0 0.27532562E+03</rscale>
<asrwt>0</asrwt>
<pdfrwt beam="1">  1        1 0.67838777E-02 0.27532562E+03</pdfrwt>
<pdfrwt beam="2">  1       -1 0.66119346E-01 0.27532562E+03</pdfrwt>
<totfact> 0.26134023E+03</totfact>
</mgrwt>
</event>
<event>
 9    1  0.2024718E-002  0.2745134E+03  0.7818608E-02  0.1098724E+00
         -1   -1    0    0    0  501 -0.00000000000E+00  0.00000000000E+00  0.82182456032E+02  0.82182456032E+02  0.00000000000E+00 0.  1.
          1   -1    0    0  501    0  0.00000000000E+00 -0.00000000000E+00 -0.22923876735E+03  0.22923876735E+03  0.00000000000E+00 0.  1.
         36    2    1    2    0    0  0.26645352591E-14  0.00000000000E+00 -0.14705631132E+03  0.31142122338E+03  0.27451342349E+03 0.  0.
         25    2    3    3    0    0 -0.46531872050E+01  0.92647786762E+01 -0.15048732626E+03  0.19747077320E+03  0.12743932921E+03 0.  0.
         25    2    3    3    0    0  0.46531872050E+01 -0.92647786762E+01  0.34310149430E+01  0.11395045018E+03  0.11342594481E+03 0.  0.
          5    1    4    4  502    0 -0.87221797516E+01 -0.21645280716E+02  0.15571254165E+02  0.28445536612E+02  0.47000000000E+01 0. -1.
         -5    1    4    4    0  502  0.40689925465E+01  0.30910059392E+02 -0.16605858043E+03  0.16902523659E+03  0.47000000000E+01 0. -1.
          5    1    5    5  503    0 -0.45540993279E+02  0.11197246539E+02  0.27376456553E+02  0.54506153527E+02  0.47000000000E+01 0. -1.
         -5    1    5    5    0  503  0.50194180484E+02 -0.20462025215E+02 -0.23945441610E+02  0.59444296651E+02  0.47000000000E+01 0. -1.
<mgrwt>
<rscale>  0 0.27451342E+03</rscale>
<asrwt>0</asrwt>
<pdfrwt beam="1">  1        1 0.35267502E-01 0.27451342E+03</pdfrwt>
<pdfrwt beam="2">  1       -1 0.12643455E-01 0.27451342E+03</pdfrwt>
<totfact> 0.51646791E+03</totfact>
</mgrwt>
</event>
<event>
 9    1  0.2024718E-002  0.2751294E+03  0.7818608E-02  0.1098379E+00
          3   -1    0    0  501    0  0.00000000000E+00  0.00000000000E+00  0.21432396324E+02  0.21432396324E+02  0.00000000000E+00 0. -1.
         -3   -1    0    0    0  501 -0.00000000000E+00 -0.00000000000E+00 -0.88296459840E+03  0.88296459840E+03  0.00000000000E+00 0. -1.
         36    2    1    2    0    0  0.00000000000E+00  0.71054273576E-14 -0.86153220207E+03  0.90439699472E+03  0.27512940383E+03 0.  0.
         25    2    3    3    0    0 -0.29191992024E+02 -0.29298100163E+02 -0.57907765698E+03  0.59395026984E+03  0.12544097877E+03 0.  0.
         25    2    3    3    0    0  0.29191992024E+02  0.29298100163E+02 -0.28245454509E+03  0.31044672488E+03  0.12200839264E+03 0.  0.
          5    1    4    4  502    0  0.48427845027E+02 -0.46052685790E+01 -0.17375123258E+03  0.18049389324E+03  0.47000000000E+01 0. -1.
         -5    1    4    4    0  502 -0.77619837051E+02 -0.24692831584E+02 -0.40532642440E+03  0.41345637660E+03  0.47000000000E+01 0. -1.
          5    1    5    5  503    0 -0.33915795571E+02 -0.26200748086E+02 -0.11945430971E+03  0.12699678145E+03  0.47000000000E+01 0.  1.
         -5    1    5    5    0  503  0.63107787595E+02  0.55498848249E+02 -0.16300023538E+03  0.18344994343E+03  0.47000000000E+01 0.  1.
<mgrwt>
<rscale>  0 0.27512940E+03</rscale>
<asrwt>0</asrwt>
<pdfrwt beam="1">  1        3 0.32972917E-02 0.27512940E+03</pdfrwt>
<pdfrwt beam="2">  1       -3 0.13584071E+00 0.27512940E+03</pdfrwt>
<totfact> 0.48817833E+02</totfact>
</mgrwt>
</event>
<event>
 9    1  0.2024718E-002  0.2732767E+03  0.7818608E-02  0.1099419E+00
         -1   -1    0    0    0  501 -0.00000000000E+00  0.00000000000E+00  0.25660952179E+02  0.25660952179E+02  0.00000000000E+00 0. -1.
          1   -1    0    0  501    0  0.00000000000E+00 -0.00000000000E+00 -0.72756611802E+03  0.72756611802E+03  0.00000000000E+00 0. -1.
         36    2    1    2    0    0  0.17763568394E-14  0.00000000000E+00 -0.70190516585E+03  0.75322707020E+03  0.27327670491E+03 0.  0.
         25    2    3    3    0    0 -0.24235921464E+01  0.69039406796E+02 -0.33945667356E+03  0.36380741819E+03  0.11114265972E+03 0.  0.
         25    2    3    3    0    0  0.24235921464E+01 -0.69039406796E+02 -0.36244849228E+03  0.38941965202E+03  0.12452486632E+03 0.  0.
          5    1    4    4  502    0  0.35249192647E+02  0.23822002885E+02 -0.39993949754E+02  0.58579855076E+02  0.47000000000E+01 0. -1.
         -5    1    4    4    0  502 -0.37672784794E+02  0.45217403910E+02 -0.29946272381E+03  0.30522756311E+03  0.47000000000E+01 0. -1.
          5    1    5    5  503    0 -0.12071631824E+02 -0.83677181632E+02 -0.35793397016E+03  0.36781301230E+03  0.47000000000E+01 0. -1.
         -5    1    5    5    0  503  0.14495223970E+02  0.14637774837E+02 -0.45145221238E+01  0.21606639723E+02  0.47000000000E+01 0. -1.
<mgrwt>
<rscale>  0 0.27327670E+03</rscale>
<asrwt>0</asrwt>
<pdfrwt beam="1">  1        1 0.11193325E+00 0.27327670E+03</pdfrwt>
<pdfrwt beam="2">  1       -1 0.39478388E-02 0.27327670E+03</pdfrwt>
<totfact> 0.66579889E+03</totfact>
</mgrwt>
</event>
<event>
 9    1  0.2024718E-002  0.2774719E+03  0.7818608E-02  0.1097078E+00
         -1   -1    0    0    0  501 -0.00000000000E+00  0.00000000000E+00  0.37805070782E+02  0.37805070782E+02  0.00000000000E+00 0.  1.
          1   -1    0    0  501    0  0.00000000000E+00 -0.00000000000E+00 -0.50912903802E+03  0.50912903802E+03  0.00000000000E+00 0.  1.
         36    2    1    2    0    0  0.00000000000E+00 -0.35527136788E-14 -0.47132396724E+03  0.54693410880E+03  0.27747186754E+03 0.  0.
         25    2    3    3    0    0  0.10117597856E+02  0.13436310909E+02 -0.34958272132E+03  0.37170738793E+03  0.12520144951E+03 0.  0.
         25    2    3    3    0    0 -0.10117597856E+02 -0.13436310909E+02 -0.12174124592E+03  0.17522672087E+03  0.12490225183E+03 0.  0.
          5    1    4    4  502    0  0.49416606441E+01 -0.54672358293E+02 -0.19514078303E+03  0.20276957852E+03  0.47000000000E+01 0.  1.
         -5    1    4    4    0  502  0.51759372114E+01  0.68108669201E+02 -0.15444193829E+03  0.16893780942E+03  0.47000000000E+01 0.  1.
          5    1    5    5  503    0 -0.83070247933E+01  0.25240729200E+02  0.16472233928E+02  0.31615274189E+02  0.47000000000E+01 0. -1.
         -5    1    5    5    0  503 -0.18105730622E+01 -0.38677040109E+02 -0.13821347984E+03  0.14361144668E+03  0.47000000000E+01 0. -1.
<mgrwt>
<rscale>  0 0.27747187E+03</rscale>
<asrwt>0</asrwt>
<pdfrwt beam="1">  1        1 0.78327542E-01 0.27747187E+03</pdfrwt>
<pdfrwt beam="2">  1       -1 0.58161649E-02 0.27747187E+03</pdfrwt>
<totfact> 0.61466659E+03</totfact>
</mgrwt>
</event>
<event>
 9    1  0.2024718E-002  0.2747740E+03  0.7818608E-02  0.1098578E+00
          2   -1    0    0  501    0  0.00000000000E+00  0.00000000000E+00  0.10373309048E+03  0.10373309048E+03  0.00000000000E+00 0. -1.
         -2   -1    0    0    0  501 -0.00000000000E+00 -0.00000000000E+00 -0.18195920969E+03  0.18195920969E+03  0.00000000000E+00 0. -1.
         36    2    1    2    0    0 -0.71054273576E-14 -0.35527136788E-14 -0.78226119208E+02  0.28569230017E+03  0.27477402470E+03 0.  0.
         25    2    3    3    0    0  0.49312718080E+02 -0.30677568620E+02 -0.32819063500E+02  0.13872828284E+03  0.12163711666E+03 0.  0.
         25    2    3    3    0    0 -0.49312718080E+02  0.30677568620E+02 -0.45407055708E+02  0.14696401733E+03  0.12713679365E+03 0.  0.
          5    1    4    4  502    0  0.35562234058E+02  0.10608251949E+02  0.39369770156E+02  0.54307239875E+02  0.47000000000E+01 0.  1.
         -5    1    4    4    0  502  0.13750484022E+02 -0.41285820569E+02 -0.72188833656E+02  0.84421042966E+02  0.47000000000E+01 0.  1.
          5    1    5    5  503    0 -0.56857020886E+02  0.27778585736E+02  0.30555709629E+02  0.70428062876E+02  0.47000000000E+01 0. -1.
         -5    1    5    5    0  503  0.75443028053E+01  0.28989828843E+01 -0.75962765337E+02  0.76535954454E+02  0.47000000000E+01 0. -1.
<mgrwt>
<rscale>  0 0.27477402E+03</rscale>
<asrwt>0</asrwt>
<pdfrwt beam="1">  1        2 0.15958937E-01 0.27477402E+03</pdfrwt>
<pdfrwt beam="2">  1       -2 0.27993724E-01 0.27477402E+03</pdfrwt>
<totfact> 0.41741525E+03</totfact>
</mgrwt>
</event>
<event>
 9    1  0.2024718E-002  0.2801265E+03  0.7818608E-02  0.1095620E+00
         -1   -1    0    0    0  501 -0.00000000000E+00  0.00000000000E+00  0.19732697141E+02  0.19732697141E+02  0.00000000000E+00 0.  1.
          1   -1    0    0  501    0  0.00000000000E+00 -0.00000000000E+00 -0.99417307852E+03  0.99417307852E+03  0.00000000000E+00 0.  1.
         36    2    1    2    0    0  0.00000000000E+00  0.71054273576E-14 -0.97444038138E+03  0.10139057757E+04  0.28012651616E+03 0.  0.
         25    2    3    3    0    0  0.41137783943E+02  0.26873028004E+02 -0.44204867333E+03  0.46164906458E+03  0.12368650829E+03 0.  0.
         25    2    3    3    0    0 -0.41137783943E+02 -0.26873028004E+02 -0.53239170805E+03  0.55225671108E+03  0.13831871613E+03 0.  0.
          5    1    4    4  502    0  0.37018982318E+02 -0.41225406071E+02 -0.28474789454E+03  0.29012651137E+03  0.47000000000E+01 0.  1.
         -5    1    4    4    0  502  0.41188016245E+01  0.68098434075E+02 -0.15730077879E+03  0.17152255321E+03  0.47000000000E+01 0.  1.
          5    1    5    5  503    0 -0.71208137830E+02  0.32652560672E+02 -0.32570964069E+03  0.33503081746E+03  0.47000000000E+01 0.  1.
         -5    1    5    5    0  503  0.30070353887E+02 -0.59525588676E+02 -0.20668206736E+03  0.21722589362E+03  0.47000000000E+01 0.  1.
<mgrwt>
<rscale>  0 0.28012652E+03</rscale>
<asrwt>0</asrwt>
<pdfrwt beam="1">  1        1 0.15294976E+00 0.28012652E+03</pdfrwt>
<pdfrwt beam="2">  1       -1 0.30357985E-02 0.28012652E+03</pdfrwt>
<totfact> 0.59861161E+03</totfact>
</mgrwt>
</event>
<event>
 9    1  0.2024718E-002  0.2767790E+03  0.7818608E-02  0.1097461E+00
          4   -1    0    0  501    0  0.00000000000E+00  0.00000000000E+00  0.39889679701E+02  0.39889679701E+02  0.00000000000E+00 0.  1.
         -4   -1    0    0    0  501 -0.00000000000E+00 -0.00000000000E+00 -0.48011557745E+03  0.48011557745E+03  0.00000000000E+00 0.  1.
         36    2    1    2    0    0  0.35527136788E-14  0.14210854715E-13 -0.44022589775E+03  0.52000525715E+03  0.27677902091E+03 0.  0.
         25    2    3    3    0    0  0.72367234462E+01  0.41169119487E+02 -0.15031241345E+03  0.20011740271E+03  0.12532312902E+03 0.  0.
         25    2    3    3    0    0 -0.72367234462E+01 -0.41169119487E+02 -0.28991348430E+03  0.31988785444E+03  0.12857349833E+03 0.  0.
          5    1    4    4  502    0  0.16623742885E+02  0.71933505729E+02 -0.15040147417E+03  0.16761107215E+03  0.47000000000E+01 0.  1.
         -5    1    4    4    0  502 -0.93870194385E+01 -0.30764386242E+02  0.89060725534E-01  0.32506330562E+02  0.47000000000E+01 0.  1.
          5    1    5    5  503    0 -0.65980278268E+02 -0.14618143625E+02 -0.18069555036E+03  0.19297683582E+03  0.47000000000E+01 0. -1.
         -5    1    5    5    0  503  0.58743554822E+02 -0.26550975863E+02 -0.10921793394E+03  0.12691101862E+03  0.47000000000E+01 0. -1.
<mgrwt>
<rscale>  0 0.27677902E+03</rscale>
<asrwt>0</asrwt>
<pdfrwt beam="1">  1        4 0.61368741E-02 0.27677902E+03</pdfrwt>
<pdfrwt beam="2">  1       -4 0.73863931E-01 0.27677902E+03</pdfrwt>
<totfact> 0.54372540E+02</totfact>
</mgrwt>
</event>
<event>
 9    1  0.2024718E-002  0.2740839E+03  0.7818608E-02  0.1098965E+00
         -2   -1    0    0    0  501 -0.00000000000E+00  0.00000000000E+00  0.10949608449E+03  0.10949608449E+03  0.00000000000E+00 0. -1.
          2   -1    0    0  501    0  0.00000000000E+00 -0.00000000000E+00 -0.17151752236E+03  0.17151752236E+03  0.00000000000E+00 0. -1.
         36    2    1    2    0    0  0.35527136788E-14  0.71054273576E-14 -0.62021437868E+02  0.28101360684E+03  0.27408390773E+03 0.  0.
         25    2    3    3    0    0 -0.24597272458E+02 -0.28516908815E+02 -0.55710305921E+01  0.13536464145E+03  0.12990115423E+03 0.  0.
         25    2    3    3    0    0  0.24597272458E+02  0.28516908815E+02 -0.56450407276E+02  0.14564896540E+03  0.12887487241E+03 0.  0.
          5    1    4    4  502    0 -0.23275340925E+02  0.11901304280E+02 -0.61034282964E+02  0.66563174772E+02  0.47000000000E+01 0. -1.
         -5    1    4    4    0  502 -0.13219315332E+01 -0.40418213096E+02  0.55463252372E+02  0.68801466674E+02  0.47000000000E+01 0. -1.
          5    1    5    5  503    0  0.17538674456E+02 -0.50629197341E+02 -0.14671427497E+02  0.55751784813E+02  0.47000000000E+01 0.  1.
         -5    1    5    5    0  503  0.70585980025E+01  0.79146106156E+02 -0.41778979779E+02  0.89897180583E+02  0.47000000000E+01 0.  1.
<mgrwt>
<rscale>  0 0.27408391E+03</rscale>
<asrwt>0</asrwt>
<pdfrwt beam="1">  1        2 0.26387311E-01 0.27408391E+03</pdfrwt>
<pdfrwt beam="2">  1       -2 0.16845552E-01 0.27408391E+03</pdfrwt>
<totfact> 0.56602678E+03</totfact>
</mgrwt>
</event>
<event>
 9    1  0.2024718E-002  0.2757055E+03  0.7818608E-02  0.1098058E+00
          2   -1    0    0  501    0  0.00000000000E+00  0.00000000000E+00  0.18779565643E+03  0.18779565643E+03  0.00000000000E+00 0. -1.
         -2   -1    0    0    0  501 -0.00000000000E+00 -0.00000000000E+00 -0.10119182232E+03  0.10119182232E+03  0.00000000000E+00 0. -1.
         36    2    1    2    0    0  0.00000000000E+00 -0.35527136788E-14  0.86603834113E+02  0.28898747875E+03  0.27570552913E+03 0.  0.
         25    2    3    3    0    0 -0.43366744824E+02 -0.26382691271E+02  0.63314511757E+02  0.14441992672E+03  0.11946408197E+03 0.  0.
         25    2    3    3    0    0  0.43366744824E+02  0.26382691271E+02  0.23289322357E+02  0.14456755203E+03  0.13334415476E+03 0.  0.
          5    1    4    4  502    0 -0.76935759186E+02 -0.31910418406E+02  0.14407310319E+02  0.84658410303E+02  0.47000000000E+01 0.  1.
         -5    1    4    4    0  502  0.33569014362E+02  0.55277271347E+01  0.48907201437E+02  0.59761516421E+02  0.47000000000E+01 0.  1.
          5    1    5    5  503    0  0.21597634466E+02  0.64653244256E+02  0.56948433030E+02  0.88947815217E+02  0.47000000000E+01 0. -1.
         -5    1    5    5    0  503  0.21769110358E+02 -0.38270552985E+02 -0.33659110674E+02  0.55619736810E+02  0.47000000000E+01 0. -1.
<mgrwt>
<rscale>  0 0.27570553E+03</rscale>
<asrwt>0</asrwt>
<pdfrwt beam="1">  1        2 0.28891640E-01 0.27570553E+03</pdfrwt>
<pdfrwt beam="2">  1       -2 0.15567973E-01 0.27570553E+03</pdfrwt>
<totfact> 0.58405583E+03</totfact>
</mgrwt>
</event>
<event>
 9    1  0.2024718E-002  0.2750684E+03  0.7818608E-02  0.1098413E+00
          1   -1    0    0  501    0  0.00000000000E+00  0.00000000000E+00  0.49891614829E+03  0.49891614829E+03  0.00000000000E+00 0. -1.
         -1   -1    0    0    0  501 -0.00000000000E+00 -0.00000000000E+00 -0.37913487784E+02  0.37913487784E+02  0.00000000000E+00 0. -1.
         36    2    1    2    0    0 -0.35527136788E-14  0.71054273576E-14  0.46100266051E+03  0.53682963608E+03  0.27506836454E+03 0.  0.
         25    2    3    3    0    0  0.11493500941E+02 -0.52825461675E+02  0.26249282119E+03  0.29655352392E+03  0.12696015677E+03 0.  0.
         25    2    3    3    0    0 -0.11493500941E+02  0.52825461675E+02  0.19850983932E+03  0.24027611216E+03  0.12411214204E+03 0.  0.
          5    1    4    4  502    0  0.48504028946E+02 -0.68395794905E+02  0.10771999224E+03  0.13658811190E+03  0.47000000000E+01 0. -1.
         -5    1    4    4    0  502 -0.37010528005E+02  0.15570333230E+02  0.15477282895E+03  0.15996541202E+03  0.47000000000E+01 0. -1.
          5    1    5    5  503    0  0.18670387276E+02 -0.32592894109E+02  0.97092577701E+02  0.10421102990E+03  0.47000000000E+01 0. -1.
         -5    1    5    5    0  503 -0.30163888217E+02  0.85418355783E+02  0.10141726162E+03  0.13606508226E+03  0.47000000000E+01 0. -1.
<mgrwt>
<rscale>  0 0.27506836E+03</rscale>
<asrwt>0</asrwt>
<pdfrwt beam="1">  1        1 0.76756326E-01 0.27506836E+03</pdfrwt>
<pdfrwt beam="2">  1       -1 0.58328446E-02 0.27506836E+03</pdfrwt>
<totfact> 0.62858605E+03</totfact>
</mgrwt>
</event>
<event>
 9    1  0.2024718E-002  0.2749264E+03  0.7818608E-02  0.1098493E+00
          2   -1    0    0  501    0  0.00000000000E+00  0.00000000000E+00  0.88950901464E+03  0.88950901464E+03  0.00000000000E+00 0.  1.
         -2   -1    0    0    0  501 -0.00000000000E+00 -0.00000000000E+00 -0.21243334260E+02  0.21243334260E+02  0.00000000000E+00 0.  1.
         36    2    1    2    0    0  0.14210854715E-13  0.00000000000E+00  0.86826568038E+03  0.91075234890E+03  0.27492644344E+03 0.  0.
         25    2    3    3    0    0 -0.47408206229E+02  0.10574940092E+00  0.56749376928E+03  0.58214694433E+03  0.12082357969E+03 0.  0.
         25    2    3    3    0    0  0.47408206229E+02 -0.10574940092E+00  0.30077191109E+03  0.32860540457E+03  0.12357273247E+03 0.  0.
          5    1    4    4  502    0 -0.68686563301E+02 -0.15336810402E+02  0.17407178202E+03  0.18781942665E+03  0.47000000000E+01 0. -1.
         -5    1    4    4    0  502  0.21278357072E+02  0.15442559803E+02  0.39342198727E+03  0.39432751768E+03  0.47000000000E+01 0. -1.
          5    1    5    5  503    0 -0.18267816456E+02 -0.23841309475E+01 -0.16556100395E+01  0.19084764684E+02  0.47000000000E+01 0.  1.
         -5    1    5    5    0  503  0.65676022685E+02  0.22783815466E+01  0.30242752113E+03  0.30952063989E+03  0.47000000000E+01 0.  1.
<mgrwt>
<rscale>  0 0.27492644E+03</rscale>
<asrwt>0</asrwt>
<pdfrwt beam="1">  1        2 0.13684751E+00 0.27492644E+03</pdfrwt>
<pdfrwt beam="2">  1       -2 0.32682060E-02 0.27492644E+03</pdfrwt>
<totfact> 0.11464845E+04</totfact>
</mgrwt>
</event>
<event>
 9    1  0.2024718E-002  0.2716757E+03  0.7818608E-02  0.1100324E+00
          1   -1    0    0  501    0  0.00000000000E+00  0.00000000000E+00  0.37133591885E+03  0.37133591885E+03  0.00000000000E+00 0. -1.
         -1   -1    0    0    0  501 -0.00000000000E+00 -0.00000000000E+00 -0.49690638860E+02  0.49690638860E+02  0.00000000000E+00 0. -1.
         36    2    1    2    0    0 -0.44408920985E-15 -0.71054273576E-14  0.32164527999E+03  0.42102655771E+03  0.27167568194E+03 0.  0.
         25    2    3    3    0    0  0.38862510868E+01 -0.44894047912E+02  0.17106186044E+03  0.21819881178E+03  0.12774186032E+03 0.  0.
         25    2    3    3    0    0 -0.38862510868E+01  0.44894047912E+02  0.15058341955E+03  0.20282774593E+03  0.12819184760E+03 0.  0.
          5    1    4    4  502    0  0.65089748706E+01 -0.69945295068E+02  0.32955903794E+02  0.77736044734E+02  0.47000000000E+01 0. -1.
         -5    1    4    4    0  502 -0.26227237838E+01  0.25051247156E+02  0.13810595665E+03  0.14046276705E+03  0.47000000000E+01 0. -1.
          5    1    5    5  503    0 -0.12729360464E+00  0.78053845602E+02  0.14995735066E+03  0.16912041874E+03  0.47000000000E+01 0. -1.
         -5    1    5    5    0  503 -0.37589574822E+01 -0.33159797690E+02  0.62606888629E+00  0.33707327193E+02  0.47000000000E+01 0. -1.
<mgrwt>
<rscale>  0 0.27167568E+03</rscale>
<asrwt>0</asrwt>
<pdfrwt beam="1">  1        1 0.57128601E-01 0.27167568E+03</pdfrwt>
<pdfrwt beam="2">  1       -1 0.76447139E-02 0.27167568E+03</pdfrwt>
<totfact> 0.61166711E+03</totfact>
</mgrwt>
</event>
<event>
 9    1  0.2024718E-002  0.2814294E+03  0.7818608E-02  0.1094911E+00
         -1   -1    0    0    0  501 -0.00000000000E+00  0.00000000000E+00  0.39903475268E+03  0.39903475268E+03  0.00000000000E+00 0.  1.
          1   -1    0    0  501    0  0.00000000000E+00 -0.00000000000E+00 -0.49621298964E+02  0.49621298964E+02  0.00000000000E+00 0.  1.
         36    2    1    2    0    0 -0.71054273576E-14 -0.35527136788E-14  0.34941345372E+03  0.44865605164E+03  0.28142937132E+03 0.  0.
         25    2    3    3    0    0 -0.48027749647E+02 -0.25528142188E+02  0.13257563504E+03  0.19231107572E+03  0.12825326530E+03 0.  0.
         25    2    3    3    0    0  0.48027749647E+02  0.25528142188E+02  0.21683781868E+03  0.25634497593E+03  0.12544224285E+03 0.  0.
          5    1    4    4  502    0  0.17250357072E+02  0.75089679657E+01  0.11539364725E+03  0.11701172268E+03  0.47000000000E+01 0. -1.
         -5    1    4    4    0  502 -0.65278106719E+02 -0.33037110154E+02  0.17181987789E+02  0.75299353041E+02  0.47000000000E+01 0. -1.
          5    1    5    5  503    0  0.27464679867E+02  0.43610801285E+02  0.16835062698E+02  0.54421686532E+02  0.47000000000E+01 0. -1.
         -5    1    5    5    0  503  0.20563069780E+02 -0.18082659097E+02  0.20000275598E+03  0.20192328939E+03  0.47000000000E+01 0. -1.
<mgrwt>
<rscale>  0 0.28142937E+03</rscale>
<asrwt>0</asrwt>
<pdfrwt beam="1">  1        1 0.76340463E-02 0.28142937E+03</pdfrwt>
<pdfrwt beam="2">  1       -1 0.61389960E-01 0.28142937E+03</pdfrwt>
<totfact> 0.25720746E+03</totfact>
</mgrwt>
</event>
<event>
 9    1  0.2024718E-002  0.2755914E+03  0.7818608E-02  0.1098121E+00
          1   -1    0    0  501    0  0.00000000000E+00  0.00000000000E+00  0.54876083473E+02  0.54876083473E+02  0.00000000000E+00 0. -1.
         -1   -1    0    0    0  501 -0.00000000000E+00 -0.00000000000E+00 -0.34600967820E+03  0.34600967820E+03  0.00000000000E+00 0. -1.
         36    2    1    2    0    0  0.71054273576E-14  0.00000000000E+00 -0.29113359472E+03  0.40088576167E+03  0.27559140758E+03 0.  0.
         25    2    3    3    0    0  0.44881336862E+02  0.13002578615E+02 -0.20998893019E+03  0.24585061837E+03  0.11901165617E+03 0.  0.
         25    2    3    3    0    0 -0.44881336862E+02 -0.13002578615E+02 -0.81144664536E+02  0.15503514330E+03  0.12356390098E+03 0.  0.
          5    1    4    4  502    0  0.77327973867E+02  0.29910821004E+01 -0.19216270493E+03  0.20721283088E+03  0.47000000000E+01 0.  1.
         -5    1    4    4    0  502 -0.32446637006E+02  0.10011496515E+02 -0.17826225254E+02  0.38637787492E+02  0.47000000000E+01 0.  1.
          5    1    5    5  503    0 -0.49076633913E+02  0.59673526418E+01  0.18808091873E+02  0.53103291929E+02  0.47000000000E+01 0. -1.
         -5    1    5    5    0  503  0.41952970514E+01 -0.18969931257E+02 -0.99952756409E+02  0.10193185137E+03  0.47000000000E+01 0. -1.
<mgrwt>
<rscale>  0 0.27559141E+03</rscale>
<asrwt>0</asrwt>
<pdfrwt beam="1">  1        1 0.84424744E-02 0.27559141E+03</pdfrwt>
<pdfrwt beam="2">  1       -1 0.53232258E-01 0.27559141E+03</pdfrwt>
<totfact> 0.29409082E+03</totfact>
</mgrwt>
</event>
<event>
 9    1  0.2024718E-002  0.2769720E+03  0.7818608E-02  0.1097354E+00
         -2   -1    0    0    0  501 -0.00000000000E+00  0.00000000000E+00  0.15641269178E+04  0.15641269178E+04  0.00000000000E+00 0. -1.
          2   -1    0    0  501    0  0.00000000000E+00 -0.00000000000E+00 -0.12261390912E+02  0.12261390912E+02  0.00000000000E+00 0. -1.
         36    2    1    2    0    0 -0.71054273576E-14  0.00000000000E+00  0.15518655268E+04  0.15763883087E+04  0.27697199552E+03 0.  0.
         25    2    3    3    0    0  0.23475658734E+02  0.50026813750E+02  0.10326335397E+04  0.10398973580E+04  0.10954770251E+03 0.  0.
         25    2    3    3    0    0 -0.23475658734E+02 -0.50026813750E+02  0.51923198714E+03  0.53649095071E+03  0.12315394868E+03 0.  0.
          5    1    4    4  502    0  0.29084551998E+02  0.29529090908E+02  0.99878217262E+03  0.99965283810E+03  0.47000000000E+01 0. -1.
         -5    1    4    4    0  502 -0.56088932641E+01  0.20497722842E+02  0.33851367077E+02  0.40244519854E+02  0.47000000000E+01 0. -1.
          5    1    5    5  503    0 -0.48791257503E+02  0.10996015511E+02  0.98426762842E+02  0.11050527955E+03  0.47000000000E+01 0.  1.
         -5    1    5    5    0  503  0.25315598769E+02 -0.61022829261E+02  0.42080522430E+03  0.42598567116E+03  0.47000000000E+01 0.  1.
<mgrwt>
<rscale>  0 0.27697200E+03</rscale>
<asrwt>0</asrwt>
<pdfrwt beam="1">  1        2 0.18863691E-02 0.27697200E+03</pdfrwt>
<pdfrwt beam="2">  1       -2 0.24063475E+00 0.27697200E+03</pdfrwt>
<totfact> 0.48394673E+02</totfact>
</mgrwt>
</event>
<event>
 9    1  0.2024718E-002  0.2750885E+03  0.7818608E-02  0.1098402E+00
          2   -1    0    0  501    0  0.00000000000E+00  0.00000000000E+00  0.78913249478E+03  0.78913249478E+03  0.00000000000E+00 0. -1.
         -2   -1    0    0    0  501 -0.00000000000E+00 -0.00000000000E+00 -0.23973701260E+02  0.23973701260E+02  0.00000000000E+00 0. -1.
         36    2    1    2    0    0 -0.88817841970E-15  0.00000000000E+00  0.76515879352E+03  0.81310619604E+03  0.27508854345E+03 0.  0.
         25    2    3    3    0    0  0.34289756640E+01 -0.65598346995E+02  0.48851965575E+03  0.50324748943E+03  0.10144792043E+03 0.  0.
         25    2    3    3    0    0 -0.34289756640E+01  0.65598346995E+02  0.27663913777E+03  0.30985870661E+03  0.12315967081E+03 0.  0.
          5    1    4    4  502    0  0.96000755310E+01 -0.44733968119E+02  0.67734311969E+02  0.81873783178E+02  0.47000000000E+01 0.  1.
         -5    1    4    4    0  502 -0.61710998670E+01 -0.20864378876E+02  0.42078534378E+03  0.42137370626E+03  0.47000000000E+01 0.  1.
          5    1    5    5  503    0 -0.15891304295E+02  0.35886170990E+02  0.93826824258E+01  0.40626045217E+02  0.47000000000E+01 0. -1.
         -5    1    5    5    0  503  0.12462328631E+02  0.29712176005E+02  0.26725645534E+03  0.26923266139E+03  0.47000000000E+01 0. -1.
<mgrwt>
<rscale>  0 0.27508854E+03</rscale>
<asrwt>0</asrwt>
<pdfrwt beam="1">  1        2 0.12140498E+00 0.27508854E+03</pdfrwt>
<pdfrwt beam="2">  1       -2 0.36882623E-02 0.27508854E+03</pdfrwt>
<totfact> 0.11176363E+04</totfact>
</mgrwt>
</event>
<event>
 9    1  0.2024718E-002  0.2745271E+03  0.7818608E-02  0.1098716E+00
         -2   -1    0    0    0  501 -0.00000000000E+00  0.00000000000E+00  0.41292768736E+02  0.41292768736E+02  0.00000000000E+00 0.  1.
          2   -1    0    0  501    0  0.00000000000E+00 -0.00000000000E+00 -0.45628530492E+03  0.45628530492E+03  0.00000000000E+00 0.  1.
         36    2    1    2    0    0  0.00000000000E+00  0.00000000000E+00 -0.41499253618E+03  0.49757807365E+03  0.27452711031E+03 0.  0.
         25    2    3    3    0    0  0.36826746716E+02 -0.39051590101E+02 -0.18848494516E+03  0.23348559128E+03  0.12691615666E+03 0.  0.
         25    2    3    3    0    0 -0.36826746716E+02  0.39051590101E+02 -0.22650759102E+03  0.26409248237E+03  0.12473136931E+03 0.  0.
          5    1    4    4  502    0 -0.75073741354E+01 -0.19331572843E+02 -0.18322351962E+03  0.18445329630E+03  0.47000000000E+01 0. -1.
         -5    1    4    4    0  502  0.44334120851E+02 -0.19720017258E+02 -0.52614255388E+01  0.49032294980E+02  0.47000000000E+01 0. -1.
          5    1    5    5  503    0 -0.30451815097E+02 -0.23871513721E+00  0.31405381483E+01  0.30972939923E+02  0.47000000000E+01 0.  1.
         -5    1    5    5    0  503 -0.63749316182E+01  0.39290305239E+02 -0.22964812917E+03  0.23311954245E+03  0.47000000000E+01 0.  1.
<mgrwt>
<rscale>  0 0.27452711E+03</rscale>
<asrwt>0</asrwt>
<pdfrwt beam="1">  1        2 0.70197740E-01 0.27452711E+03</pdfrwt>
<pdfrwt beam="2">  1       -2 0.63527335E-02 0.27452711E+03</pdfrwt>
<totfact> 0.92899578E+03</totfact>
</mgrwt>
</event>
<event>
 8    1  0.2024718E-002  0.2911911E+03  0.7818608E-02  0.1089729E+00
          2   -1    0    0  501    0  0.00000000000E+00  0.00000000000E+00  0.13419111225E+04  0.13419111225E+04  0.00000000000E+00 0.  1.
         -2   -1    0    0    0  501 -0.00000000000E+00 -0.00000000000E+00 -0.15796923503E+02  0.15796923503E+02  0.00000000000E+00 0.  1.
         25    2    1    2    0    0  0.54066584579E+02 -0.51063221839E+02  0.67524144965E+03  0.69055238061E+03  0.12401986476E+03 0.  0.
         25    2    1    2    0    0 -0.54066584579E+02  0.51063221839E+02  0.65087274939E+03  0.66715566543E+03  0.12621686822E+03 0.  0.
          5    1    3    3  502    0  0.44560114257E+02 -0.91993921051E+02  0.47845976760E+03  0.48927939309E+03  0.47000000000E+01 0.  1.
         -5    1    3    3    0  502  0.95064703224E+01  0.40930699212E+02  0.19678168204E+03  0.20127298752E+03  0.47000000000E+01 0.  1.
          5    1    4    4  503    0 -0.59725914255E+02 -0.66432153758E+01  0.13295346304E+03  0.14597955500E+03  0.47000000000E+01 0. -1.
         -5    1    4    4    0  503  0.56593296758E+01  0.57706437215E+02  0.51791928635E+03  0.52117611043E+03  0.47000000000E+01 0. -1.
<mgrwt>
<rscale>  0 0.29119112E+03</rscale>
<asrwt>0</asrwt>
<pdfrwt beam="1">  1        2 0.20644778E+00 0.29119112E+03</pdfrwt>
<pdfrwt beam="2">  1       -2 0.24302970E-02 0.29119112E+03</pdfrwt>
<totfact> 0.96483595E+03</totfact>
</mgrwt>
</event>
<event>
 9    1  0.2024718E-002  0.2732711E+03  0.7818608E-02  0.1099422E+00
          1   -1    0    0  501    0  0.00000000000E+00  0.00000000000E+00  0.11685233795E+03  0.11685233795E+03  0.00000000000E+00 0. -1.
         -1   -1    0    0    0  501 -0.00000000000E+00 -0.00000000000E+00 -0.15976808000E+03  0.15976808000E+03  0.00000000000E+00 0. -1.
         36    2    1    2    0    0  0.00000000000E+00  0.00000000000E+00 -0.42915742045E+02  0.27662041795E+03  0.27327110113E+03 0.  0.
         25    2    3    3    0    0 -0.44513413302E+01  0.16858862016E+02 -0.74500761024E+02  0.14485143628E+03  0.12299406299E+03 0.  0.
         25    2    3    3    0    0  0.44513413302E+01 -0.16858862016E+02  0.31585018980E+02  0.13176898167E+03  0.12673363973E+03 0.  0.
          5    1    4    4  502    0  0.41768724341E+02  0.10953679832E+02 -0.86248162115E+02  0.96568343173E+02  0.47000000000E+01 0.  1.
         -5    1    4    4    0  502 -0.46220065671E+02  0.59051821848E+01  0.11747401091E+02  0.48283093104E+02  0.47000000000E+01 0.  1.
          5    1    5    5  503    0 -0.31115015250E+02 -0.44504487600E+02 -0.24433236173E+02  0.59731621612E+02  0.47000000000E+01 0. -1.
         -5    1    5    5    0  503  0.35566356580E+02  0.27645625584E+02  0.56018255153E+02  0.72037360062E+02  0.47000000000E+01 0. -1.
<mgrwt>
<rscale>  0 0.27327110E+03</rscale>
<asrwt>0</asrwt>
<pdfrwt beam="1">  1        1 0.17977283E-01 0.27327110E+03</pdfrwt>
<pdfrwt beam="2">  1       -1 0.24579704E-01 0.27327110E+03</pdfrwt>
<totfact> 0.41783897E+03</totfact>
</mgrwt>
</event>
<event>
 9    1  0.2024718E-002  0.2753305E+03  0.7818608E-02  0.1098267E+00
          1   -1    0    0  501    0  0.00000000000E+00  0.00000000000E+00  0.12342892985E+04  0.12342892985E+04  0.00000000000E+00 0. -1.
         -1   -1    0    0    0  501 -0.00000000000E+00 -0.00000000000E+00 -0.15354360965E+02  0.15354360965E+02  0.00000000000E+00 0. -1.
         36    2    1    2    0    0 -0.71054273576E-14  0.00000000000E+00  0.12189349375E+04  0.12496436594E+04  0.27533051719E+03 0.  0.
         25    2    3    3    0    0  0.46601208270E+02 -0.10079791691E+02  0.39618549840E+03  0.41585855688E+03  0.11705603516E+03 0.  0.
         25    2    3    3    0    0 -0.46601208270E+02  0.10079791691E+02  0.82274943910E+03  0.83378510256E+03  0.12652147207E+03 0.  0.
          5    1    4    4  502    0  0.35827360599E+02 -0.55161500724E+02  0.13154128408E+03  0.14714479382E+03  0.47000000000E+01 0.  1.
         -5    1    4    4    0  502  0.10773847670E+02  0.45081709033E+02  0.26464421432E+03  0.26871376306E+03  0.47000000000E+01 0.  1.
          5    1    5    5  503    0 -0.50383667951E+02 -0.13544494929E+02  0.12400479605E+03  0.13461518036E+03  0.47000000000E+01 0. -1.
         -5    1    5    5    0  503  0.37824596808E+01  0.23624286620E+02  0.69874464305E+03  0.69916992220E+03  0.47000000000E+01 0. -1.
<mgrwt>
<rscale>  0 0.27533052E+03</rscale>
<asrwt>0</asrwt>
<pdfrwt beam="1">  1        1 0.18989058E+00 0.27533052E+03</pdfrwt>
<pdfrwt beam="2">  1       -1 0.23622103E-02 0.27533052E+03</pdfrwt>
<totfact> 0.58167033E+03</totfact>
</mgrwt>
</event>
<event>
 9    1  0.2024718E-002  0.2656209E+03  0.7818608E-02  0.1103812E+00
         -2   -1    0    0    0  501 -0.00000000000E+00  0.00000000000E+00  0.37289158728E+02  0.37289158728E+02  0.00000000000E+00 0. -1.
          2   -1    0    0  501    0  0.00000000000E+00 -0.00000000000E+00 -0.47302260401E+03  0.47302260401E+03  0.00000000000E+00 0. -1.
         36    2    1    2    0    0  0.35527136788E-14  0.14210854715E-13 -0.43573344529E+03  0.51031176274E+03  0.26562089498E+03 0.  0.
         25    2    3    3    0    0  0.25718278137E+02 -0.43946544386E+02 -0.22925894013E+03  0.26631268469E+03  0.12557888279E+03 0.  0.
         25    2    3    3    0    0 -0.25718278137E+02  0.43946544386E+02 -0.20647450516E+03  0.24399907806E+03  0.11962901077E+03 0.  0.
          5    1    4    4  502    0 -0.48249831072E+02 -0.28425479460E+02 -0.12866470237E+03  0.14040210012E+03  0.47000000000E+01 0. -1.
         -5    1    4    4    0  502  0.73968109209E+02 -0.15521064927E+02 -0.10059423776E+03  0.12591058457E+03  0.47000000000E+01 0. -1.
          5    1    5    5  503    0 -0.11155477522E+01 -0.41065434822E+02 -0.62856151822E+02  0.75236960370E+02  0.47000000000E+01 0.  1.
         -5    1    5    5    0  503 -0.24602730385E+02  0.85011979208E+02 -0.14361835333E+03  0.16876211769E+03  0.47000000000E+01 0.  1.
<mgrwt>
<rscale>  0 0.26562089E+03</rscale>
<asrwt>0</asrwt>
<pdfrwt beam="1">  1        2 0.72772707E-01 0.26562089E+03</pdfrwt>
<pdfrwt beam="2">  1       -2 0.57367937E-02 0.26562089E+03</pdfrwt>
<totfact> 0.10425521E+04</totfact>
</mgrwt>
</event>
<event>
 9    1  0.2024718E-002  0.2743474E+03  0.7818608E-02  0.1098817E+00
          3   -1    0    0  501    0  0.00000000000E+00  0.00000000000E+00  0.94786694595E+02  0.94786694595E+02  0.00000000000E+00 0. -1.
         -3   -1    0    0    0  501 -0.00000000000E+00 -0.00000000000E+00 -0.19851544116E+03  0.19851544116E+03  0.00000000000E+00 0. -1.
         36    2    1    2    0    0  0.35527136788E-14  0.71054273576E-14 -0.10372874657E+03  0.29330213576E+03  0.27434738923E+03 0.  0.
         25    2    3    3    0    0  0.30621980313E+02  0.51515699015E+02 -0.19902940258E+02  0.12928146340E+03  0.11280955999E+03 0.  0.
         25    2    3    3    0    0 -0.30621980313E+02 -0.51515699015E+02 -0.83825806311E+02  0.16402067236E+03  0.12761050989E+03 0.  0.
          5    1    4    4  502    0  0.74642376520E+01  0.39097720257E+02 -0.65299040143E+02  0.76618543556E+02  0.47000000000E+01 0. -1.
         -5    1    4    4    0  502  0.23157742661E+02  0.12417978758E+02  0.45396099885E+02  0.52662919843E+02  0.47000000000E+01 0. -1.
          5    1    5    5  503    0 -0.15798817327E+02 -0.84740754605E+02 -0.17291754643E+02  0.88043698801E+02  0.47000000000E+01 0.  1.
         -5    1    5    5    0  503 -0.14823162986E+02  0.33225055590E+02 -0.66534051668E+02  0.75976973559E+02  0.47000000000E+01 0.  1.
<mgrwt>
<rscale>  0 0.27434739E+03</rscale>
<asrwt>0</asrwt>
<pdfrwt beam="1">  1        3 0.14582569E-01 0.27434739E+03</pdfrwt>
<pdfrwt beam="2">  1       -3 0.30540837E-01 0.27434739E+03</pdfrwt>
<totfact> 0.10287770E+03</totfact>
</mgrwt>
</event>
<event>
 9    1  0.2024718E-002  0.2866118E+03  0.7818608E-02  0.1092132E+00
         -4   -1    0    0    0  501 -0.00000000000E+00  0.00000000000E+00  0.93322516928E+02  0.93322516928E+02  0.00000000000E+00 0.  1.
          4   -1    0    0  501    0  0.00000000000E+00 -0.00000000000E+00 -0.22006023213E+03  0.22006023213E+03  0.00000000000E+00 0.  1.
         36    2    1    2    0    0 -0.14210854715E-13 -0.35527136788E-14 -0.12673771520E+03  0.31338274906E+03  0.28661175648E+03 0.  0.
         25    2    3    3    0    0 -0.61052516262E+02 -0.29620169519E+01 -0.22283179508E+02  0.13794938786E+03  0.12164419525E+03 0.  0.
         25    2    3    3    0    0  0.61052516262E+02  0.29620169519E+01 -0.10445453570E+03  0.17543336120E+03  0.12700366493E+03 0.  0.
          5    1    4    4  502    0  0.20963743545E+02 -0.39013511802E+02  0.32992275729E+01  0.44659909864E+02  0.47000000000E+01 0.  1.
         -5    1    4    4    0  502 -0.82016259807E+02  0.36051494850E+02 -0.25582407081E+02  0.93289478001E+02  0.47000000000E+01 0.  1.
          5    1    5    5  503    0  0.64393480954E+02 -0.74517921207E+01  0.51380772068E+01  0.65196161180E+02  0.47000000000E+01 0.  1.
         -5    1    5    5    0  503 -0.33409646924E+01  0.10413809073E+02 -0.10959261290E+03  0.11023720002E+03  0.47000000000E+01 0.  1.
<mgrwt>
<rscale>  0 0.28661176E+03</rscale>
<asrwt>0</asrwt>
<pdfrwt beam="1">  1        4 0.33855420E-01 0.28661176E+03</pdfrwt>
<pdfrwt beam="2">  1       -4 0.14357310E-01 0.28661176E+03</pdfrwt>
<totfact> 0.64684283E+02</totfact>
</mgrwt>
</event>
<event>
 9    1  0.2024718E-002  0.2751344E+03  0.7818608E-02  0.1098377E+00
         -2   -1    0    0    0  501 -0.00000000000E+00  0.00000000000E+00  0.58037957111E+02  0.58037957111E+02  0.00000000000E+00 0. -1.
          2   -1    0    0  501    0  0.00000000000E+00 -0.00000000000E+00 -0.32607506973E+03  0.32607506973E+03  0.00000000000E+00 0. -1.
         36    2    1    2    0    0  0.71054273576E-14  0.00000000000E+00 -0.26803711261E+03  0.38411302684E+03  0.27513437380E+03 0.  0.
         25    2    3    3    0    0  0.48859421328E+02  0.26358546349E+02 -0.14453272117E+03  0.19897088111E+03  0.12497074867E+03 0.  0.
         25    2    3    3    0    0 -0.48859421328E+02 -0.26358546349E+02 -0.12350439145E+03  0.18514214572E+03  0.12626267619E+03 0.  0.
          5    1    4    4  502    0  0.54533670766E+02 -0.37954165050E+02 -0.10091147602E+03  0.12091176901E+03  0.47000000000E+01 0.  1.
         -5    1    4    4    0  502 -0.56742494379E+01  0.64312711399E+02 -0.43621245147E+02  0.78059112103E+02  0.47000000000E+01 0.  1.
          5    1    5    5  503    0  0.28118772703E+02 -0.20824640231E+02 -0.97292687890E+02  0.10350018423E+03  0.47000000000E+01 0. -1.
         -5    1    5    5    0  503 -0.76978194031E+02 -0.55339061179E+01 -0.26211703557E+02  0.81641961494E+02  0.47000000000E+01 0. -1.
<mgrwt>
<rscale>  0 0.27513437E+03</rscale>
<asrwt>0</asrwt>
<pdfrwt beam="1">  1        2 0.50165395E-01 0.27513437E+03</pdfrwt>
<pdfrwt beam="2">  1       -2 0.89289165E-02 0.27513437E+03</pdfrwt>
<totfact> 0.78790517E+03</totfact>
</mgrwt>
</event>
<event>
 9    1  0.2024718E-002  0.2738188E+03  0.7818608E-02  0.1099114E+00
         -1   -1    0    0    0  501 -0.00000000000E+00  0.00000000000E+00  0.99435800022E+01  0.99435800022E+01  0.00000000000E+00 0.  1.
          1   -1    0    0  501    0  0.00000000000E+00 -0.00000000000E+00 -0.18850533488E+04  0.18850533488E+04  0.00000000000E+00 0.  1.
         36    2    1    2    0    0  0.00000000000E+00  0.00000000000E+00 -0.18751097688E+04  0.18949969288E+04  0.27381876329E+03 0.  0.
         25    2    3    3    0    0 -0.17891837402E+02 -0.25774639123E+02 -0.73043311565E+03  0.74285649486E+03  0.13160085732E+03 0.  0.
         25    2    3    3    0    0  0.17891837402E+02  0.25774639123E+02 -0.11446766532E+04  0.11521404340E+04  0.12711604698E+03 0.  0.
          5    1    4    4  502    0 -0.62267208723E+02 -0.50520018658E+02 -0.52889752558E+03  0.53496183053E+03  0.47000000000E+01 0. -1.
         -5    1    4    4    0  502  0.44375371322E+02  0.24745379535E+02 -0.20153559008E+03  0.20789466433E+03  0.47000000000E+01 0. -1.
          5    1    5    5  503    0  0.25117888636E+02 -0.31658855866E+02 -0.88984583116E+03  0.89077544011E+03  0.47000000000E+01 0.  1.
         -5    1    5    5    0  503 -0.72260512341E+01  0.57433494989E+02 -0.25483082201E+03  0.26136499385E+03  0.47000000000E+01 0.  1.
<mgrwt>
<rscale>  0 0.27381876E+03</rscale>
<asrwt>0</asrwt>
<pdfrwt beam="1">  1        1 0.29000831E+00 0.27381876E+03</pdfrwt>
<pdfrwt beam="2">  1       -1 0.15297810E-02 0.27381876E+03</pdfrwt>
<totfact> 0.40635411E+03</totfact>
</mgrwt>
</event>
<event>
 9    1  0.2024718E-002  0.2745518E+03  0.7818608E-02  0.1098702E+00
         -1   -1    0    0    0  501 -0.00000000000E+00  0.00000000000E+00  0.30575602711E+03  0.30575602711E+03  0.00000000000E+00 0. -1.
          1   -1    0    0  501    0  0.00000000000E+00 -0.00000000000E+00 -0.61633019084E+02  0.61633019084E+02  0.00000000000E+00 0. -1.
         36    2    1    2    0    0  0.00000000000E+00  0.00000000000E+00  0.24412300803E+03  0.36738904620E+03  0.27455175872E+03 0.  0.
         25    2    3    3    0    0  0.12258758214E+02  0.11675774121E+02  0.18482664924E+03  0.22431959774E+03  0.12598329576E+03 0.  0.
         25    2    3    3    0    0 -0.12258758214E+02 -0.11675774121E+02  0.59296358791E+02  0.14306944845E+03  0.12909766869E+03 0.  0.
          5    1    4    4  502    0  0.42519209778E+02  0.10662315971E+02  0.79367512366E+01  0.44795649367E+02  0.47000000000E+01 0.  1.
         -5    1    4    4    0  502 -0.30260451564E+02  0.10134581501E+01  0.17688989800E+03  0.17952394838E+03  0.47000000000E+01 0.  1.
          5    1    5    5  503    0 -0.37565017038E+02 -0.24804421114E+02  0.90103880305E+02  0.10083248017E+03  0.47000000000E+01 0. -1.
         -5    1    5    5    0  503  0.25306258824E+02  0.13128646993E+02 -0.30807521514E+02  0.42236968279E+02  0.47000000000E+01 0. -1.
<mgrwt>
<rscale>  0 0.27455176E+03</rscale>
<asrwt>0</asrwt>
<pdfrwt beam="1">  1        1 0.94820031E-02 0.27455176E+03</pdfrwt>
<pdfrwt beam="2">  1       -1 0.47039388E-01 0.27455176E+03</pdfrwt>
<totfact> 0.31593423E+03</totfact>
</mgrwt>
</event>
<event>
 9    1  0.2024718E-002  0.2751175E+03  0.7818608E-02  0.1098386E+00
         -1   -1    0    0    0  501 -0.00000000000E+00  0.00000000000E+00  0.34053731738E+02  0.34053731738E+02  0.00000000000E+00 0.  1.
          1   -1    0    0  501    0  0.00000000000E+00 -0.00000000000E+00 -0.55566349365E+03  0.55566349365E+03  0.00000000000E+00 0.  1.
         36    2    1    2    0    0  0.00000000000E+00  0.00000000000E+00 -0.52160976191E+03  0.58971722538E+03  0.27511754251E+03 0.  0.
         25    2    3    3    0    0  0.26042791662E+02 -0.37861546879E+02 -0.22483494745E+03  0.26147771474E+03  0.12533203095E+03 0.  0.
         25    2    3    3    0    0 -0.26042791662E+02  0.37861546879E+02 -0.29677481446E+03  0.32823951064E+03  0.13249212098E+03 0.  0.
          5    1    4    4  502    0  0.19029136815E+02  0.40004002037E+02 -0.36795864863E+02  0.57779355292E+02  0.47000000000E+01 0. -1.
         -5    1    4    4    0  502  0.70136548474E+01 -0.77865548916E+02 -0.18803908259E+03  0.20369835945E+03  0.47000000000E+01 0. -1.
          5    1    5    5  503    0 -0.70310650542E+02  0.57977687374E+02 -0.19998570305E+03  0.21982122563E+03  0.47000000000E+01 0. -1.
         -5    1    5    5    0  503  0.44267858879E+02 -0.20116140495E+02 -0.96789111411E+02  0.10841828502E+03  0.47000000000E+01 0. -1.
<mgrwt>
<rscale>  0 0.27511754E+03</rscale>
<asrwt>0</asrwt>
<pdfrwt beam="1">  1        1 0.85486691E-01 0.27511754E+03</pdfrwt>
<pdfrwt beam="2">  1       -1 0.52390357E-02 0.27511754E+03</pdfrwt>
<totfact> 0.63915910E+03</totfact>
</mgrwt>
</event>
<event>
 9    1  0.2024718E-002  0.2749695E+03  0.7818608E-02  0.1098469E+00
          1   -1    0    0  501    0  0.00000000000E+00  0.00000000000E+00  0.20772906174E+04  0.20772906174E+04  0.00000000000E+00 0. -1.
         -1   -1    0    0    0  501 -0.00000000000E+00 -0.00000000000E+00 -0.90993813465E+01  0.90993813465E+01  0.00000000000E+00 0. -1.
         36    2    1    2    0    0 -0.71054273576E-14  0.71054273576E-14  0.20681912360E+04  0.20863899987E+04  0.27496952191E+03 0.  0.
         25    2    3    3    0    0  0.42187749420E+02  0.52222172493E+01  0.69483943166E+03  0.70678139467E+03  0.12219257883E+03 0.  0.
         25    2    3    3    0    0 -0.42187749420E+02 -0.52222172493E+01  0.13733518044E+04  0.13796086041E+04  0.12416780594E+03 0.  0.
          5    1    4    4  502    0  0.56039761274E+02 -0.48121016597E+02  0.38803418400E+03  0.39503000523E+03  0.47000000000E+01 0. -1.
         -5    1    4    4    0  502 -0.13852011854E+02  0.53343233846E+02  0.30680524766E+03  0.31175138944E+03  0.47000000000E+01 0. -1.
          5    1    5    5  503    0  0.26919975749E+02 -0.42097208043E+02  0.40864103072E+03  0.41171160052E+03  0.47000000000E+01 0. -1.
         -5    1    5    5    0  503 -0.69107725169E+02  0.36874990794E+02  0.96471077367E+03  0.96789700354E+03  0.47000000000E+01 0. -1.
<mgrwt>
<rscale>  0 0.27496952E+03</rscale>
<asrwt>0</asrwt>
<pdfrwt beam="1">  1        1 0.31958279E+00 0.27496952E+03</pdfrwt>
<pdfrwt beam="2">  1       -1 0.13999065E-02 0.27496952E+03</pdfrwt>
<totfact> 0.34684193E+03</totfact>
</mgrwt>
</event>
<event>
 9    1  0.2024718E-002  0.2747800E+03  0.7818608E-02  0.1098575E+00
          2   -1    0    0  501    0  0.00000000000E+00  0.00000000000E+00  0.76339765530E+03  0.76339765530E+03  0.00000000000E+00 0. -1.
         -2   -1    0    0    0  501 -0.00000000000E+00 -0.00000000000E+00 -0.24726324610E+02  0.24726324610E+02  0.00000000000E+00 0. -1.
         36    2    1    2    0    0  0.00000000000E+00  0.00000000000E+00  0.73867133069E+03  0.78812397991E+03  0.27478004463E+03 0.  0.
         25    2    3    3    0    0 -0.51566762394E+01  0.48661937378E+02  0.36516395379E+03  0.38945116373E+03  0.12622567218E+03 0.  0.
         25    2    3    3    0    0  0.51566762394E+01 -0.48661937378E+02  0.37350737689E+03  0.39867281618E+03  0.13052845785E+03 0.  0.
          5    1    4    4  502    0  0.10488795567E+02  0.14626713270E+02  0.34710217597E+03  0.34760029652E+03  0.47000000000E+01 0.  1.
         -5    1    4    4    0  502 -0.15645471806E+02  0.34035224108E+02  0.18061777821E+02  0.41850867209E+02  0.47000000000E+01 0.  1.
          5    1    5    5  503    0  0.67175316363E+00 -0.41904883350E+02  0.38301014743E+03  0.38532497134E+03  0.47000000000E+01 0. -1.
         -5    1    5    5    0  503  0.44849230757E+01 -0.67570540279E+01 -0.95027705370E+01  0.13347844845E+02  0.47000000000E+01 0. -1.
<mgrwt>
<rscale>  0 0.27478004E+03</rscale>
<asrwt>0</asrwt>
<pdfrwt beam="1">  1        2 0.11744578E+00 0.27478004E+03</pdfrwt>
<pdfrwt beam="2">  1       -2 0.38040505E-02 0.27478004E+03</pdfrwt>
<totfact> 0.11123975E+04</totfact>
</mgrwt>
</event>
<event>
 9    1  0.2024718E-002  0.2751214E+03  0.7818608E-02  0.1098384E+00
         -2   -1    0    0    0  501 -0.00000000000E+00  0.00000000000E+00  0.71990172886E+01  0.71990172886E+01  0.00000000000E+00 0. -1.
          2   -1    0    0  501    0  0.00000000000E+00 -0.00000000000E+00 -0.26285457375E+04  0.26285457375E+04  0.00000000000E+00 0. -1.
         36    2    1    2    0    0  0.00000000000E+00 -0.71054273576E-14 -0.26213467202E+04  0.26357447548E+04  0.27512140017E+03 0.  0.
         25    2    3    3    0    0  0.42871346322E+02  0.70358659993E+01 -0.86497807199E+03  0.87429442742E+03  0.11965042854E+03 0.  0.
         25    2    3    3    0    0 -0.42871346322E+02 -0.70358659993E+01 -0.17563686482E+04  0.17614503274E+04  0.12644750525E+03 0.  0.
          5    1    4    4  502    0  0.52840037425E+02  0.55333503661E+02 -0.46779784505E+03  0.47403668636E+03  0.47000000000E+01 0. -1.
         -5    1    4    4    0  502 -0.99686911038E+01 -0.48297637662E+02 -0.39718022693E+03  0.40025774105E+03  0.47000000000E+01 0. -1.
          5    1    5    5  503    0 -0.22829135852E+02  0.38461676767E+02 -0.14749343115E+04  0.14756197964E+04  0.47000000000E+01 0.  1.
         -5    1    5    5    0  503 -0.20042210470E+02 -0.45497542767E+02 -0.28143433666E+03  0.28583053100E+03  0.47000000000E+01 0.  1.
<mgrwt>
<rscale>  0 0.27512140E+03</rscale>
<asrwt>0</asrwt>
<pdfrwt beam="1">  1        2 0.40439137E+00 0.27512140E+03</pdfrwt>
<pdfrwt beam="2">  1       -2 0.11075419E-02 0.27512140E+03</pdfrwt>
<totfact> 0.62573229E+03</totfact>
</mgrwt>
</event>
<event>
 9    1  0.2024718E-002  0.2748316E+03  0.7818608E-02  0.1098546E+00
         -2   -1    0    0    0  501 -0.00000000000E+00  0.00000000000E+00  0.16627767734E+02  0.16627767734E+02  0.00000000000E+00 0.  1.
          2   -1    0    0  501    0  0.00000000000E+00 -0.00000000000E+00 -0.11356368885E+04  0.11356368885E+04  0.00000000000E+00 0.  1.
         36    2    1    2    0    0 -0.14210854715E-13 -0.53290705182E-14 -0.11190091207E+04  0.11522646562E+04  0.27483163146E+03 0.  0.
         25    2    3    3    0    0  0.54808313576E+02  0.11529397714E+02 -0.70142432924E+03  0.71392075004E+03  0.12062283964E+03 0.  0.
         25    2    3    3    0    0 -0.54808313576E+02 -0.11529397714E+02 -0.41758479150E+03  0.43834390617E+03  0.12096050484E+03 0.  0.
          5    1    4    4  502    0  0.24868599338E+02 -0.81546068782E+00 -0.21525238038E+02  0.33234591644E+02  0.47000000000E+01 0. -1.
         -5    1    4    4    0  502  0.29939714238E+02  0.12344858401E+02 -0.67989909120E+03  0.68068615840E+03  0.47000000000E+01 0. -1.
          5    1    5    5  503    0 -0.90089565786E+02  0.11276436981E+02 -0.27658341369E+03  0.29114216909E+03  0.47000000000E+01 0.  1.
         -5    1    5    5    0  503  0.35281252210E+02 -0.22805834694E+02 -0.14100137781E+03  0.14720173707E+03  0.47000000000E+01 0.  1.
<mgrwt>
<rscale>  0 0.27483163E+03</rscale>
<asrwt>0</asrwt>
<pdfrwt beam="1">  1        2 0.17471336E+00 0.27483163E+03</pdfrwt>
<pdfrwt beam="2">  1       -2 0.25581182E-02 0.27483163E+03</pdfrwt>
<totfact> 0.11671660E+04</totfact>
</mgrwt>
</event>
<event>
 9    1  0.2024718E-002  0.2756634E+03  0.7818608E-02  0.1098081E+00
         -2   -1    0    0    0  501 -0.00000000000E+00  0.00000000000E+00  0.29282210586E+02  0.29282210586E+02  0.00000000000E+00 0. -1.
          2   -1    0    0  501    0  0.00000000000E+00 -0.00000000000E+00 -0.64877521199E+03  0.64877521199E+03  0.00000000000E+00 0. -1.
         36    2    1    2    0    0 -0.35527136788E-14  0.00000000000E+00 -0.61949300140E+03  0.67805742257E+03  0.27566336268E+03 0.  0.
         25    2    3    3    0    0 -0.12036862177E+02  0.54479781782E+02 -0.28379386197E+03  0.31511822134E+03  0.12509038594E+03 0.  0.
         25    2    3    3    0    0  0.12036862177E+02 -0.54479781782E+02 -0.33569913944E+03  0.36293920124E+03  0.12616663149E+03 0.  0.
          5    1    4    4  502    0  0.35737768725E+02  0.34349019477E+02 -0.34813919577E+02  0.60754771407E+02  0.47000000000E+01 0.  1.
         -5    1    4    4    0  502 -0.47774630902E+02  0.20130762305E+02 -0.24897994239E+03  0.25436344993E+03  0.47000000000E+01 0.  1.
          5    1    5    5  503    0  0.23928451799E+02 -0.53783983734E+02 -0.34310249380E+03  0.34814752471E+03  0.47000000000E+01 0. -1.
         -5    1    5    5    0  503 -0.11891589621E+02 -0.69579804862E+00  0.74033543610E+01  0.14791676526E+02  0.47000000000E+01 0. -1.
<mgrwt>
<rscale>  0 0.27566336E+03</rscale>
<asrwt>0</asrwt>
<pdfrwt beam="1">  1        2 0.99811563E-01 0.27566336E+03</pdfrwt>
<pdfrwt beam="2">  1       -2 0.45049558E-02 0.27566336E+03</pdfrwt>
<totfact> 0.10510332E+04</totfact>
</mgrwt>
</event>
<event>
 9    1  0.2024718E-002  0.2740138E+03  0.7818608E-02  0.1099004E+00
         -2   -1    0    0    0  501 -0.00000000000E+00  0.00000000000E+00  0.36943988399E+02  0.36943988399E+02  0.00000000000E+00 0.  1.
          2   -1    0    0  501    0  0.00000000000E+00 -0.00000000000E+00 -0.50809045242E+03  0.50809045242E+03  0.00000000000E+00 0.  1.
         36    2    1    2    0    0 -0.53290705182E-14  0.71054273576E-14 -0.47114646402E+03  0.54503444082E+03  0.27401377907E+03 0.  0.
         25    2    3    3    0    0  0.51397795048E+00 -0.58099486904E+02 -0.22130193472E+03  0.25974359418E+03  0.12294866350E+03 0.  0.
         25    2    3    3    0    0 -0.51397795048E+00  0.58099486904E+02 -0.24984452930E+03  0.28529084664E+03  0.12487098863E+03 0.  0.
          5    1    4    4  502    0  0.11376106054E+02  0.22981076866E+02 -0.14648091014E+03  0.14878270302E+03  0.47000000000E+01 0.  1.
         -5    1    4    4    0  502 -0.10862128103E+02 -0.81080563770E+02 -0.74821024578E+02  0.11096089116E+03  0.47000000000E+01 0.  1.
          5    1    5    5  503    0  0.44602865598E+02  0.18672215977E+02 -0.20398881703E+03  0.20969405032E+03  0.47000000000E+01 0.  1.
         -5    1    5    5    0  503 -0.45116843548E+02  0.39427270926E+02 -0.45855712275E+02  0.75596796312E+02  0.47000000000E+01 0.  1.
<mgrwt>
<rscale>  0 0.27401378E+03</rscale>
<asrwt>0</asrwt>
<pdfrwt beam="1">  1        2 0.78167759E-01 0.27401378E+03</pdfrwt>
<pdfrwt beam="2">  1       -2 0.56836908E-02 0.27401378E+03</pdfrwt>
<totfact> 0.97768411E+03</totfact>
</mgrwt>
</event>
<event>
 9    1  0.2024718E-002  0.2762763E+03  0.7818608E-02  0.1097740E+00
          1   -1    0    0  501    0  0.00000000000E+00  0.00000000000E+00  0.14435703842E+03  0.14435703842E+03  0.00000000000E+00 0. -1.
         -1   -1    0    0    0  501 -0.00000000000E+00 -0.00000000000E+00 -0.13218720553E+03  0.13218720553E+03  0.00000000000E+00 0. -1.
         36    2    1    2    0    0  0.00000000000E+00 -0.71054273576E-14  0.12169832889E+02  0.27654424394E+03  0.27627633635E+03 0.  0.
         25    2    3    3    0    0 -0.34006236854E+02 -0.24857178065E+02 -0.32174220046E+02  0.13729421531E+03  0.12664998096E+03 0.  0.
         25    2    3    3    0    0  0.34006236854E+02  0.24857178065E+02  0.44344052935E+02  0.13925002863E+03  0.12509944843E+03 0.  0.
          5    1    4    4  502    0 -0.37595263504E+02 -0.65213586764E+02 -0.52331169227E+02  0.91797913971E+02  0.47000000000E+01 0.  1.
         -5    1    4    4    0  502  0.35890266505E+01  0.40356408700E+02  0.20156949181E+02  0.45496301341E+02  0.47000000000E+01 0.  1.
          5    1    5    5  503    0 -0.17648111066E+02  0.50953472315E+02  0.58279888366E+02  0.79538340146E+02  0.47000000000E+01 0. -1.
         -5    1    5    5    0  503  0.51654347920E+02 -0.26096294250E+02 -0.13935835432E+02  0.59711688485E+02  0.47000000000E+01 0. -1.
<mgrwt>
<rscale>  0 0.27627634E+03</rscale>
<asrwt>0</asrwt>
<pdfrwt beam="1">  1        1 0.22208775E-01 0.27627634E+03</pdfrwt>
<pdfrwt beam="2">  1       -1 0.20336493E-01 0.27627634E+03</pdfrwt>
<totfact> 0.43463646E+03</totfact>
</mgrwt>
</event>
<event>
 9    1  0.2024718E-002  0.2754568E+03  0.7818608E-02  0.1098197E+00
         -1   -1    0    0    0  501 -0.00000000000E+00  0.00000000000E+00  0.19250677394E+02  0.19250677394E+02  0.00000000000E+00 0. -1.
          1   -1    0    0  501    0  0.00000000000E+00 -0.00000000000E+00 -0.98537389552E+03  0.98537389552E+03  0.00000000000E+00 0. -1.
         36    2    1    2    0    0  0.00000000000E+00  0.00000000000E+00 -0.96612321813E+03  0.10046245729E+04  0.27545682039E+03 0.  0.
         25    2    3    3    0    0 -0.42396418286E+02  0.17777914311E+02 -0.55169587096E+03  0.56768016774E+03  0.12561420418E+03 0.  0.
         25    2    3    3    0    0  0.42396418286E+02 -0.17777914311E+02 -0.41442734717E+03  0.43694440518E+03  0.13060197782E+03 0.  0.
          5    1    4    4  502    0 -0.42175791881E+02  0.35347984780E+02 -0.89790462866E+02  0.10541676655E+03  0.47000000000E+01 0.  1.
         -5    1    4    4    0  502 -0.22062640552E+00 -0.17570070469E+02 -0.46190540809E+03  0.46226340119E+03  0.47000000000E+01 0.  1.
          5    1    5    5  503    0 -0.31553931445E+02 -0.42797590134E+02 -0.10504375360E+03  0.11782853849E+03  0.47000000000E+01 0. -1.
         -5    1    5    5    0  503  0.73950349732E+02  0.25019675824E+02 -0.30938359357E+03  0.31911586669E+03  0.47000000000E+01 0. -1.
<mgrwt>
<rscale>  0 0.27545682E+03</rscale>
<asrwt>0</asrwt>
<pdfrwt beam="1">  1        1 0.15159599E+00 0.27545682E+03</pdfrwt>
<pdfrwt beam="2">  1       -1 0.29616426E-02 0.27545682E+03</pdfrwt>
<totfact> 0.63018423E+03</totfact>
</mgrwt>
</event>
<event>
 9    1  0.2024718E-002  0.2751464E+03  0.7818608E-02  0.1098370E+00
          2   -1    0    0  501    0  0.00000000000E+00  0.00000000000E+00  0.38382344917E+03  0.38382344917E+03  0.00000000000E+00 0. -1.
         -2   -1    0    0    0  501 -0.00000000000E+00 -0.00000000000E+00 -0.49310147013E+02  0.49310147013E+02  0.00000000000E+00 0. -1.
         36    2    1    2    0    0  0.00000000000E+00  0.00000000000E+00  0.33451330216E+03  0.43313359619E+03  0.27514643887E+03 0.  0.
         25    2    3    3    0    0 -0.22836351405E+02 -0.48012411294E+02  0.22716306610E+03  0.26404609251E+03  0.12365512438E+03 0.  0.
         25    2    3    3    0    0  0.22836351405E+02  0.48012411294E+02  0.10735023606E+03  0.16908750368E+03  0.11933071748E+03 0.  0.
          5    1    4    4  502    0 -0.65859457192E+02  0.36554662121E+01  0.95879536522E+02  0.11647234032E+03  0.47000000000E+01 0. -1.
         -5    1    4    4    0  502  0.43023105787E+02 -0.51667877506E+02  0.13128352958E+03  0.14757375219E+03  0.47000000000E+01 0. -1.
          5    1    5    5  503    0  0.62217788747E+02  0.82685968186E+01  0.21509103121E+02  0.66514317609E+02  0.47000000000E+01 0. -1.
         -5    1    5    5    0  503 -0.39381437342E+02  0.39743814476E+02  0.85841132940E+02  0.10257318607E+03  0.47000000000E+01 0. -1.
<mgrwt>
<rscale>  0 0.27514644E+03</rscale>
<asrwt>0</asrwt>
<pdfrwt beam="1">  1        2 0.59049760E-01 0.27514644E+03</pdfrwt>
<pdfrwt beam="2">  1       -2 0.75861767E-02 0.27514644E+03</pdfrwt>
<totfact> 0.85270887E+03</totfact>
</mgrwt>
</event>
<event>
 9    1  0.2024718E-002  0.2737678E+03  0.7818608E-02  0.1099142E+00
         -2   -1    0    0    0  501 -0.00000000000E+00  0.00000000000E+00  0.23247754278E+03  0.23247754278E+03  0.00000000000E+00 0. -1.
          2   -1    0    0  501    0  0.00000000000E+00 -0.00000000000E+00 -0.80597913514E+02  0.80597913514E+02  0.00000000000E+00 0. -1.
         36    2    1    2    0    0  0.71054273576E-14 -0.71054273576E-14  0.15187962926E+03  0.31307545629E+03  0.27376782051E+03 0.  0.
         25    2    3    3    0    0  0.34932630911E+02  0.61716365409E+01  0.12045732148E+03  0.17724888499E+03  0.12509525624E+03 0.  0.
         25    2    3    3    0    0 -0.34932630911E+02 -0.61716365409E+01  0.31422307786E+02  0.13582657130E+03  0.12729146964E+03 0.  0.
          5    1    4    4  502    0  0.48737363555E+02  0.57428109157E+02  0.82572259857E+02  0.11186414272E+03  0.47000000000E+01 0.  1.
         -5    1    4    4    0  502 -0.13804732644E+02 -0.51256472616E+02  0.37885061619E+02  0.65384742274E+02  0.47000000000E+01 0.  1.
          5    1    5    5  503    0 -0.52237263332E+00  0.47393015162E+02 -0.22113357386E+02  0.52511535248E+02  0.47000000000E+01 0.  1.
         -5    1    5    5    0  503 -0.34410258278E+02 -0.53564651702E+02  0.53535665172E+02  0.83315036051E+02  0.47000000000E+01 0.  1.
<mgrwt>
<rscale>  0 0.27376782E+03</rscale>
<asrwt>0</asrwt>
<pdfrwt beam="1">  1        2 0.12399679E-01 0.27376782E+03</pdfrwt>
<pdfrwt beam="2">  1       -2 0.35765776E-01 0.27376782E+03</pdfrwt>
<totfact> 0.36009788E+03</totfact>
</mgrwt>
</event>
<event>
 9    1  0.2024718E-002  0.2746238E+03  0.7818608E-02  0.1098662E+00
         -2   -1    0    0    0  501 -0.00000000000E+00  0.00000000000E+00  0.10351934417E+03  0.10351934417E+03  0.00000000000E+00 0. -1.
          2   -1    0    0  501    0  0.00000000000E+00 -0.00000000000E+00 -0.18213562238E+03  0.18213562238E+03  0.00000000000E+00 0. -1.
         36    2    1    2    0    0  0.17763568394E-14  0.35527136788E-14 -0.78616278210E+02  0.28565496655E+03  0.27462381673E+03 0.  0.
         25    2    3    3    0    0  0.12959211192E+01 -0.31565586851E+02  0.27127020114E+02  0.11734644011E+03  0.10970982682E+03 0.  0.
         25    2    3    3    0    0 -0.12959211192E+01  0.31565586851E+02 -0.10574329832E+03  0.16830852644E+03  0.12707497491E+03 0.  0.
          5    1    4    4  502    0 -0.40222434513E+02 -0.24778054723E+02  0.50234734364E+02  0.69118845264E+02  0.47000000000E+01 0. -1.
         -5    1    4    4    0  502  0.41518355632E+02 -0.67875321279E+01 -0.23107714250E+02  0.48227594846E+02  0.47000000000E+01 0. -1.
          5    1    5    5  503    0  0.11783757282E+02  0.30212175675E+02 -0.13337901074E+03  0.13734512369E+03  0.47000000000E+01 0. -1.
         -5    1    5    5    0  503 -0.13079678401E+02  0.13534111757E+01  0.27635712420E+02  0.30963402750E+02  0.47000000000E+01 0. -1.
<mgrwt>
<rscale>  0 0.27462382E+03</rscale>
<asrwt>0</asrwt>
<pdfrwt beam="1">  1        2 0.28020865E-01 0.27462382E+03</pdfrwt>
<pdfrwt beam="2">  1       -2 0.15926053E-01 0.27462382E+03</pdfrwt>
<totfact> 0.58162322E+03</totfact>
</mgrwt>
</event>
<event>
 9    1  0.2024718E-002  0.2758483E+03  0.7818608E-02  0.1097978E+00
          1   -1    0    0  501    0  0.00000000000E+00  0.00000000000E+00  0.14314712180E+04  0.14314712180E+04  0.00000000000E+00 0. -1.
         -1   -1    0    0    0  501 -0.00000000000E+00 -0.00000000000E+00 -0.13289174399E+02  0.13289174399E+02  0.00000000000E+00 0. -1.
         36    2    1    2    0    0  0.00000000000E+00  0.35527136788E-14  0.14181820437E+04  0.14447603924E+04  0.27584829645E+03 0.  0.
         25    2    3    3    0    0 -0.36054759287E+02 -0.11381016827E+02  0.55208101173E+03  0.56899548120E+03  0.13241201193E+03 0.  0.
         25    2    3    3    0    0  0.36054759287E+02  0.11381016827E+02  0.86610103192E+03  0.87576491125E+03  0.12411167981E+03 0.  0.
          5    1    4    4  502    0 -0.38546619659E+01 -0.23246523195E+02  0.52360397351E+03  0.52415500602E+03  0.47000000000E+01 0.  1.
         -5    1    4    4    0  502 -0.32200097321E+02  0.11865506368E+02  0.28477038222E+02  0.44840475184E+02  0.47000000000E+01 0.  1.
          5    1    5    5  503    0  0.37845950829E+01 -0.40724026065E+02  0.11489196685E+03  0.12204516994E+03  0.47000000000E+01 0.  1.
         -5    1    5    5    0  503  0.32270164204E+02  0.52105042892E+02  0.75120906507E+03  0.75371974131E+03  0.47000000000E+01 0.  1.
<mgrwt>
<rscale>  0 0.27584830E+03</rscale>
<asrwt>0</asrwt>
<pdfrwt beam="1">  1        1 0.22022622E+00 0.27584830E+03</pdfrwt>
<pdfrwt beam="2">  1       -1 0.20444895E-02 0.27584830E+03</pdfrwt>
<totfact> 0.52785088E+03</totfact>
</mgrwt>
</event>
<event>
 9    1  0.2024718E-002  0.2748446E+03  0.7818608E-02  0.1098539E+00
          2   -1    0    0  501    0  0.00000000000E+00  0.00000000000E+00  0.67067756488E+03  0.67067756488E+03  0.00000000000E+00 0. -1.
         -2   -1    0    0    0  501 -0.00000000000E+00 -0.00000000000E+00 -0.28157915593E+02  0.28157915593E+02  0.00000000000E+00 0. -1.
         36    2    1    2    0    0  0.35527136788E-14  0.00000000000E+00  0.64251964929E+03  0.69883548047E+03  0.27484455434E+03 0.  0.
         25    2    3    3    0    0  0.67292827485E+01  0.20536918881E+02  0.19681294385E+03  0.23524197844E+03  0.12702915126E+03 0.  0.
         25    2    3    3    0    0 -0.67292827485E+01 -0.20536918881E+02  0.44570670544E+03  0.46359350203E+03  0.12568778608E+03 0.  0.
          5    1    4    4  502    0 -0.29820711197E+02  0.61291533519E+02  0.74106983191E+02  0.10079614008E+03  0.47000000000E+01 0. -1.
         -5    1    4    4    0  502  0.36549993945E+02 -0.40754614638E+02  0.12270596066E+03  0.13444583836E+03  0.47000000000E+01 0. -1.
          5    1    5    5  503    0 -0.40124560452E+02 -0.18736869046E+02  0.41670416683E+03  0.41907696580E+03  0.47000000000E+01 0.  1.
         -5    1    5    5    0  503  0.33395277703E+02 -0.18000498346E+01  0.29002538615E+02  0.44516536235E+02  0.47000000000E+01 0.  1.
<mgrwt>
<rscale>  0 0.27484455E+03</rscale>
<asrwt>0</asrwt>
<pdfrwt beam="1">  1        2 0.10318115E+00 0.27484455E+03</pdfrwt>
<pdfrwt beam="2">  1       -2 0.43319875E-02 0.27484455E+03</pdfrwt>
<totfact> 0.10717038E+04</totfact>
</mgrwt>
</event>
<event>
 9    1  0.2024718E-002  0.2756776E+03  0.7818608E-02  0.1098073E+00
          2   -1    0    0  501    0  0.00000000000E+00  0.00000000000E+00  0.64239786115E+03  0.64239786115E+03  0.00000000000E+00 0.  1.
         -2   -1    0    0    0  501 -0.00000000000E+00 -0.00000000000E+00 -0.29575969786E+02  0.29575969786E+02  0.00000000000E+00 0.  1.
         36    2    1    2    0    0  0.71054273576E-14  0.71054273576E-14  0.61282189137E+03  0.67197383094E+03  0.27567763589E+03 0.  0.
         25    2    3    3    0    0 -0.35003097834E+02 -0.38215860203E+02  0.23703949775E+03  0.27141313003E+03  0.12162111177E+03 0.  0.
         25    2    3    3    0    0  0.35003097834E+02  0.38215860203E+02  0.37578239362E+03  0.40056070091E+03  0.12864990841E+03 0.  0.
          5    1    4    4  502    0  0.31350508783E+02 -0.51711776290E+02  0.80513338824E+02  0.10080401746E+03  0.47000000000E+01 0.  1.
         -5    1    4    4    0  502 -0.66353606616E+02  0.13495916087E+02  0.15652615893E+03  0.17060911256E+03  0.47000000000E+01 0.  1.
          5    1    5    5  503    0  0.55517784485E+02  0.15145154972E+02  0.60112371578E+02  0.83349789022E+02  0.47000000000E+01 0. -1.
         -5    1    5    5    0  503 -0.20514686652E+02  0.23070705232E+02  0.31567002204E+03  0.31721091189E+03  0.47000000000E+01 0. -1.
<mgrwt>
<rscale>  0 0.27567764E+03</rscale>
<asrwt>0</asrwt>
<pdfrwt beam="1">  1        2 0.98830430E-01 0.27567764E+03</pdfrwt>
<pdfrwt beam="2">  1       -2 0.45501497E-02 0.27567764E+03</pdfrwt>
<totfact> 0.10474689E+04</totfact>
</mgrwt>
</event>
<event>
 9    1  0.2024718E-002  0.2751389E+03  0.7818608E-02  0.1098374E+00
          2   -1    0    0  501    0  0.00000000000E+00  0.00000000000E+00  0.11005824110E+04  0.11005824110E+04  0.00000000000E+00 0. -1.
         -2   -1    0    0    0  501 -0.00000000000E+00 -0.00000000000E+00 -0.17195765145E+02  0.17195765145E+02  0.00000000000E+00 0. -1.
         36    2    1    2    0    0 -0.71054273576E-14  0.00000000000E+00  0.10833866459E+04  0.11177781761E+04  0.27513892246E+03 0.  0.
         25    2    3    3    0    0 -0.40928552590E+02 -0.23430061610E+02  0.38183125829E+03  0.40433647566E+03  0.12437347603E+03 0.  0.
         25    2    3    3    0    0  0.40928552590E+02  0.23430061610E+02  0.70155538757E+03  0.71344170049E+03  0.12080970145E+03 0.  0.
          5    1    4    4  502    0  0.28105779029E+02 -0.50913289370E+02  0.17928737777E+03  0.18854217479E+03  0.47000000000E+01 0.  1.
         -5    1    4    4    0  502 -0.69034331619E+02  0.27483227760E+02  0.20254388052E+03  0.21579430087E+03  0.47000000000E+01 0.  1.
          5    1    5    5  503    0 -0.17411608702E+02  0.55811900216E+02  0.23992445550E+03  0.24698981086E+03  0.47000000000E+01 0. -1.
         -5    1    5    5    0  503  0.58340161292E+02 -0.32381838606E+02  0.46163093207E+03  0.46645188962E+03  0.47000000000E+01 0. -1.
<mgrwt>
<rscale>  0 0.27513892E+03</rscale>
<asrwt>0</asrwt>
<pdfrwt beam="1">  1        2 0.16932032E+00 0.27513892E+03</pdfrwt>
<pdfrwt beam="2">  1       -2 0.26455032E-02 0.27513892E+03</pdfrwt>
<totfact> 0.11640999E+04</totfact>
</mgrwt>
</event>
<event>
 9    1  0.2024718E-002  0.2755099E+03  0.7818608E-02  0.1098167E+00
          1   -1    0    0  501    0  0.00000000000E+00  0.00000000000E+00  0.10201463552E+03  0.10201463552E+03  0.00000000000E+00 0. -1.
         -1   -1    0    0    0  501 -0.00000000000E+00 -0.00000000000E+00 -0.18601675683E+03  0.18601675683E+03  0.00000000000E+00 0. -1.
         36    2    1    2    0    0  0.00000000000E+00  0.00000000000E+00 -0.84002121312E+02  0.28803139234E+03  0.27550993919E+03 0.  0.
         25    2    3    3    0    0 -0.20799359688E+02 -0.29812114335E+02  0.45467633924E+01  0.13011962982E+03  0.12485619521E+03 0.  0.
         25    2    3    3    0    0  0.20799359688E+02  0.29812114335E+02 -0.88548884705E+02  0.15791176252E+03  0.12559396576E+03 0.  0.
          5    1    4    4  502    0 -0.39919940272E+02 -0.50707001893E+02  0.46216766133E+02  0.79516546354E+02  0.47000000000E+01 0.  1.
         -5    1    4    4    0  502  0.19120580584E+02  0.20894887558E+02 -0.41670002740E+02  0.50603083466E+02  0.47000000000E+01 0.  1.
          5    1    5    5  503    0  0.45236402289E+01  0.46759583312E+02  0.16616296612E+02  0.50051106537E+02  0.47000000000E+01 0. -1.
         -5    1    5    5    0  503  0.16275719459E+02 -0.16947468977E+02 -0.10516518132E+03  0.10786065599E+03  0.47000000000E+01 0. -1.
<mgrwt>
<rscale>  0 0.27550994E+03</rscale>
<asrwt>0</asrwt>
<pdfrwt beam="1">  1        1 0.15694559E-01 0.27550994E+03</pdfrwt>
<pdfrwt beam="2">  1       -1 0.28617962E-01 0.27550994E+03</pdfrwt>
<totfact> 0.38663286E+03</totfact>
</mgrwt>
</event>
<event>
 9    1  0.2024718E-002  0.2719158E+03  0.7818608E-02  0.1100188E+00
          1   -1    0    0  501    0  0.00000000000E+00  0.00000000000E+00  0.31357104244E+03  0.31357104244E+03  0.00000000000E+00 0. -1.
         -1   -1    0    0    0  501 -0.00000000000E+00 -0.00000000000E+00 -0.58948532007E+02  0.58948532007E+02  0.00000000000E+00 0. -1.
         36    2    1    2    0    0  0.71054273576E-14  0.00000000000E+00  0.25462251043E+03  0.37251957445E+03  0.27191581515E+03 0.  0.
         25    2    3    3    0    0  0.42856352852E+02 -0.24602403600E+02  0.15697830390E+03  0.20638601043E+03  0.12454337462E+03 0.  0.
         25    2    3    3    0    0 -0.42856352852E+02  0.24602403600E+02  0.97644206529E+02  0.16613356402E+03  0.12499609907E+03 0.  0.
          5    1    4    4  502    0  0.12139864374E+02  0.55366787086E+01 -0.19828123675E+02  0.24357249570E+02  0.47000000000E+01 0.  1.
         -5    1    4    4    0  502  0.30716488478E+02 -0.30139082309E+02  0.17680642758E+03  0.18202876086E+03  0.47000000000E+01 0.  1.
          5    1    5    5  503    0 -0.74698703646E+02  0.15484991553E+02  0.10690925422E+03  0.13142054607E+03  0.47000000000E+01 0. -1.
         -5    1    5    5    0  503  0.31842350795E+02  0.91174120471E+01 -0.92650476941E+01  0.34713017952E+02  0.47000000000E+01 0. -1.
<mgrwt>
<rscale>  0 0.27191582E+03</rscale>
<asrwt>0</asrwt>
<pdfrwt beam="1">  1        1 0.48241698E-01 0.27191582E+03</pdfrwt>
<pdfrwt beam="2">  1       -1 0.90690051E-02 0.27191582E+03</pdfrwt>
<totfact> 0.58338010E+03</totfact>
</mgrwt>
</event>
<event>
 8    1  0.2024718E-002  0.2910810E+03  0.7818608E-02  0.1089786E+00
         -2   -1    0    0    0  501 -0.00000000000E+00  0.00000000000E+00  0.14312895179E+02  0.14312895179E+02  0.00000000000E+00 0.  1.
          2   -1    0    0  501    0  0.00000000000E+00 -0.00000000000E+00 -0.14799272178E+04  0.14799272178E+04  0.00000000000E+00 0.  1.
         25    2    1    2    0    0  0.36106580187E+02  0.15828801003E+02 -0.39245530398E+03  0.41380263993E+03  0.12512882607E+03 0.  0.
         25    2    1    2    0    0 -0.36106580187E+02 -0.15828801003E+02 -0.10731590187E+04  0.10804374731E+04  0.11883020581E+03 0.  0.
          5    1    3    3  502    0  0.69761185472E+02 -0.25350403842E+02 -0.18039760816E+03  0.19512727386E+03  0.47000000000E+01 0.  1.
         -5    1    3    3    0  502 -0.33654605285E+02  0.41179204845E+02 -0.21205769583E+03  0.21867536607E+03  0.47000000000E+01 0.  1.
          5    1    4    4  503    0  0.56456300994E+00 -0.53604892722E+02 -0.82288250539E+03  0.82464023121E+03  0.47000000000E+01 0.  1.
         -5    1    4    4    0  503 -0.36671143197E+02  0.37776091720E+02 -0.25027651329E+03  0.25579724188E+03  0.47000000000E+01 0.  1.
<mgrwt>
<rscale>  0 0.29108104E+03</rscale>
<asrwt>0</asrwt>
<pdfrwt beam="1">  1        2 0.22768109E+00 0.29108104E+03</pdfrwt>
<pdfrwt beam="2">  1       -2 0.22019841E-02 0.29108104E+03</pdfrwt>
<totfact> 0.93929270E+03</totfact>
</mgrwt>
</event>
<event>
 9    1  0.2024718E-002  0.2750516E+03  0.7818608E-02  0.1098423E+00
          2   -1    0    0  501    0  0.00000000000E+00  0.00000000000E+00  0.62579528777E+02  0.62579528777E+02  0.00000000000E+00 0. -1.
         -2   -1    0    0    0  501 -0.00000000000E+00 -0.00000000000E+00 -0.30222888456E+03  0.30222888456E+03  0.00000000000E+00 0. -1.
         36    2    1    2    0    0  0.00000000000E+00  0.00000000000E+00 -0.23964935579E+03  0.36480841334E+03  0.27505156738E+03 0.  0.
         25    2    3    3    0    0 -0.38852607988E+02  0.36610737433E+02 -0.14105541475E+03  0.19577630697E+03  0.12482732512E+03 0.  0.
         25    2    3    3    0    0  0.38852607988E+02 -0.36610737433E+02 -0.98593941039E+02  0.16903210637E+03  0.12649591508E+03 0.  0.
          5    1    4    4  502    0  0.36573574874E+02  0.31048755868E+02 -0.96502266802E+02  0.10787228151E+03  0.47000000000E+01 0. -1.
         -5    1    4    4    0  502 -0.75426182863E+02  0.55619815650E+01 -0.44553147945E+02  0.87904025460E+02  0.47000000000E+01 0. -1.
          5    1    5    5  503    0 -0.96931979670E+01 -0.34461433023E+02  0.19649650757E+02  0.41106535097E+02  0.47000000000E+01 0. -1.
         -5    1    5    5    0  503  0.48545805955E+02 -0.21493044105E+01 -0.11824359180E+03  0.12792557128E+03  0.47000000000E+01 0. -1.
<mgrwt>
<rscale>  0 0.27505157E+03</rscale>
<asrwt>0</asrwt>
<pdfrwt beam="1">  1        2 0.96276199E-02 0.27505157E+03</pdfrwt>
<pdfrwt beam="2">  1       -2 0.46496751E-01 0.27505157E+03</pdfrwt>
<totfact> 0.29727784E+03</totfact>
</mgrwt>
</event>
<event>
 9    1  0.2024718E-002  0.2754222E+03  0.7818608E-02  0.1098216E+00
         -1   -1    0    0    0  501 -0.00000000000E+00  0.00000000000E+00  0.19829680907E+03  0.19829680907E+03  0.00000000000E+00 0.  1.
          1   -1    0    0  501    0  0.00000000000E+00 -0.00000000000E+00 -0.95636154729E+02  0.95636154729E+02  0.00000000000E+00 0.  1.
         36    2    1    2    0    0  0.00000000000E+00  0.00000000000E+00  0.10266065434E+03  0.29393296379E+03  0.27542218004E+03 0.  0.
         25    2    3    3    0    0  0.12997632387E+02  0.57232438628E+02  0.67910862424E+02  0.15064978357E+03  0.12099165911E+03 0.  0.
         25    2    3    3    0    0 -0.12997632387E+02 -0.57232438628E+02  0.34749791913E+02  0.14328318022E+03  0.12600806013E+03 0.  0.
          5    1    4    4  502    0  0.26482163987E+02 -0.59919410225E+01 -0.25105706332E+02  0.37277269979E+02  0.47000000000E+01 0.  1.
         -5    1    4    4    0  502 -0.13484531600E+02  0.63224379651E+02  0.93016568756E+02  0.11337251359E+03  0.47000000000E+01 0.  1.
          5    1    5    5  503    0  0.50675234506E+02 -0.51858235177E+02  0.31312933250E+02  0.79119186906E+02  0.47000000000E+01 0. -1.
         -5    1    5    5    0  503 -0.63672866893E+02 -0.53742034510E+01  0.34368586626E+01  0.64163993319E+02  0.47000000000E+01 0. -1.
<mgrwt>
<rscale>  0 0.27542218E+03</rscale>
<asrwt>0</asrwt>
<pdfrwt beam="1">  1        1 0.14713255E-01 0.27542218E+03</pdfrwt>
<pdfrwt beam="2">  1       -1 0.30507201E-01 0.27542218E+03</pdfrwt>
<totfact> 0.37750175E+03</totfact>
</mgrwt>
</event>
<event>
 9    1  0.2024718E-002  0.2773591E+03  0.7818608E-02  0.1097140E+00
         -1   -1    0    0    0  501 -0.00000000000E+00  0.00000000000E+00  0.30525146539E+02  0.30525146539E+02  0.00000000000E+00 0.  1.
          1   -1    0    0  501    0  0.00000000000E+00 -0.00000000000E+00 -0.63003848963E+03  0.63003848963E+03  0.00000000000E+00 0.  1.
         36    2    1    2    0    0  0.00000000000E+00  0.00000000000E+00 -0.59951334309E+03  0.66056363617E+03  0.27735909736E+03 0.  0.
         25    2    3    3    0    0  0.46606732796E+02  0.31803716494E+02 -0.20263757078E+03  0.24056267430E+03  0.11672510976E+03 0.  0.
         25    2    3    3    0    0 -0.46606732796E+02 -0.31803716494E+02 -0.39687577232E+03  0.42000096188E+03  0.12532663484E+03 0.  0.
          5    1    4    4  502    0  0.62509330036E+02  0.41684599773E+02 -0.59031864494E+02  0.95665423354E+02  0.47000000000E+01 0.  1.
         -5    1    4    4    0  502 -0.15902597240E+02 -0.98808832794E+01 -0.14360570628E+03  0.14489725094E+03  0.47000000000E+01 0.  1.
          5    1    5    5  503    0  0.45230725106E+01 -0.71962402235E+02 -0.20832442491E+03  0.22049989010E+03  0.47000000000E+01 0. -1.
         -5    1    5    5    0  503 -0.51129805306E+02  0.40158685741E+02 -0.18855134741E+03  0.19950107178E+03  0.47000000000E+01 0. -1.
<mgrwt>
<rscale>  0 0.27735910E+03</rscale>
<asrwt>0</asrwt>
<pdfrwt beam="1">  1        1 0.96928995E-01 0.27735910E+03</pdfrwt>
<pdfrwt beam="2">  1       -1 0.46961766E-02 0.27735910E+03</pdfrwt>
<totfact> 0.63293801E+03</totfact>
</mgrwt>
</event>
<event>
 9    1  0.2024718E-002  0.2752540E+03  0.7818608E-02  0.1098310E+00
          1   -1    0    0  501    0  0.00000000000E+00  0.00000000000E+00  0.37213796547E+03  0.37213796547E+03  0.00000000000E+00 0. -1.
         -1   -1    0    0    0  501 -0.00000000000E+00 -0.00000000000E+00 -0.50898306076E+02  0.50898306076E+02  0.00000000000E+00 0. -1.
         36    2    1    2    0    0  0.00000000000E+00  0.00000000000E+00  0.32123965940E+03  0.42303627155E+03  0.27525400683E+03 0.  0.
         25    2    3    3    0    0  0.35775150374E+02 -0.32585940502E+02  0.18642378341E+03  0.23143555540E+03  0.12832335867E+03 0.  0.
         25    2    3    3    0    0 -0.35775150374E+02  0.32585940502E+02  0.13481587599E+03  0.19160071615E+03  0.12725489817E+03 0.  0.
          5    1    4    4  502    0  0.57401938721E+02 -0.68630178751E+02  0.15390200177E+03  0.17808144248E+03  0.47000000000E+01 0.  1.
         -5    1    4    4    0  502 -0.21626788347E+02  0.36044238249E+02  0.32521781635E+02  0.53354112924E+02  0.47000000000E+01 0.  1.
          5    1    5    5  503    0 -0.41908285816E+02 -0.42325658850E+01 -0.86737266970E+01  0.43261328792E+02  0.47000000000E+01 0.  1.
         -5    1    5    5    0  503  0.61331354421E+01  0.36818506387E+02  0.14348960268E+03  0.14833938736E+03  0.47000000000E+01 0.  1.
<mgrwt>
<rscale>  0 0.27525401E+03</rscale>
<asrwt>0</asrwt>
<pdfrwt beam="1">  1        1 0.57251993E-01 0.27525401E+03</pdfrwt>
<pdfrwt beam="2">  1       -1 0.78305089E-02 0.27525401E+03</pdfrwt>
<totfact> 0.58830753E+03</totfact>
</mgrwt>
</event>
<event>
 9    1  0.2024718E-002  0.2751664E+03  0.7818608E-02  0.1098359E+00
         -1   -1    0    0    0  501 -0.00000000000E+00  0.00000000000E+00  0.11385962467E+03  0.11385962467E+03  0.00000000000E+00 0. -1.
          1   -1    0    0  501    0  0.00000000000E+00 -0.00000000000E+00 -0.16624980136E+03  0.16624980136E+03  0.00000000000E+00 0. -1.
         36    2    1    2    0    0 -0.17763568394E-14  0.00000000000E+00 -0.52390176689E+02  0.28010942603E+03  0.27516642226E+03 0.  0.
         25    2    3    3    0    0 -0.93492050183E+01  0.54930619293E+02 -0.47053633385E+01  0.13554936534E+03  0.12347756651E+03 0.  0.
         25    2    3    3    0    0  0.93492050183E+01 -0.54930619293E+02 -0.47684813351E+02  0.14456006069E+03  0.12457523490E+03 0.  0.
          5    1    4    4  502    0  0.12147141022E+02 -0.22279166867E+02 -0.40198548651E+02  0.47769526112E+02  0.47000000000E+01 0.  1.
         -5    1    4    4    0  502 -0.21496346040E+02  0.77209786160E+02  0.35493185313E+02  0.87779839232E+02  0.47000000000E+01 0.  1.
          5    1    5    5  503    0 -0.86281813702E+00  0.39776992282E+02 -0.61358307267E+01  0.40530136798E+02  0.47000000000E+01 0.  1.
         -5    1    5    5    0  503  0.10212023155E+02 -0.94707611576E+02 -0.41548982624E+02  0.10402992389E+03  0.47000000000E+01 0.  1.
<mgrwt>
<rscale>  0 0.27516642E+03</rscale>
<asrwt>0</asrwt>
<pdfrwt beam="1">  1        1 0.25576892E-01 0.27516642E+03</pdfrwt>
<pdfrwt beam="2">  1       -1 0.17516865E-01 0.27516642E+03</pdfrwt>
<totfact> 0.46200409E+03</totfact>
</mgrwt>
</event>
<event>
 9    1  0.2024718E-002  0.2747545E+03  0.7818608E-02  0.1098589E+00
          3   -1    0    0  501    0  0.00000000000E+00  0.00000000000E+00  0.27977908669E+03  0.27977908669E+03  0.00000000000E+00 0. -1.
         -3   -1    0    0    0  501 -0.00000000000E+00 -0.00000000000E+00 -0.67455042631E+02  0.67455042631E+02  0.00000000000E+00 0. -1.
         36    2    1    2    0    0  0.00000000000E+00  0.00000000000E+00  0.21232404406E+03  0.34723412932E+03  0.27475451021E+03 0.  0.
         25    2    3    3    0    0 -0.23919546781E+02 -0.41309274961E+02  0.13053128776E+03  0.19038757024E+03  0.13011690475E+03 0.  0.
         25    2    3    3    0    0  0.23919546781E+02  0.41309274961E+02  0.81792756292E+02  0.15684655907E+03  0.12502874548E+03 0.  0.
          5    1    4    4  502    0 -0.69217463046E+01 -0.34661636021E+02 -0.18499078458E+02  0.40170206464E+02  0.47000000000E+01 0.  1.
         -5    1    4    4    0  502 -0.16997800477E+02 -0.66476389398E+01  0.14903036622E+03  0.15021736378E+03  0.47000000000E+01 0.  1.
          5    1    5    5  503    0  0.25728998975E+01  0.26902785080E+02  0.11290291411E+03  0.11618751084E+03  0.47000000000E+01 0.  1.
         -5    1    5    5    0  503  0.21346646884E+02  0.14406489881E+02 -0.31110157822E+02  0.40659048238E+02  0.47000000000E+01 0.  1.
<mgrwt>
<rscale>  0 0.27475451E+03</rscale>
<asrwt>0</asrwt>
<pdfrwt beam="1">  1        3 0.43042936E-01 0.27475451E+03</pdfrwt>
<pdfrwt beam="2">  1       -3 0.10377699E-01 0.27475451E+03</pdfrwt>
<totfact> 0.94922077E+02</totfact>
</mgrwt>
</event>
<event>
 9    1  0.2024718E-002  0.2751563E+03  0.7818608E-02  0.1098364E+00
          2   -1    0    0  501    0  0.00000000000E+00  0.00000000000E+00  0.72056061331E+03  0.72056061331E+03  0.00000000000E+00 0.  1.
         -2   -1    0    0    0  501 -0.00000000000E+00 -0.00000000000E+00 -0.26268089969E+02  0.26268089969E+02  0.00000000000E+00 0.  1.
         36    2    1    2    0    0  0.71054273576E-14  0.71054273576E-14  0.69429252335E+03  0.74682870328E+03  0.27515632661E+03 0.  0.
         25    2    3    3    0    0  0.47728678943E+02 -0.42544768356E+02  0.34121357674E+03  0.36942728838E+03  0.12633974965E+03 0.  0.
         25    2    3    3    0    0 -0.47728678943E+02  0.42544768356E+02  0.35307894661E+03  0.37740141490E+03  0.11695726281E+03 0.  0.
          5    1    4    4  502    0  0.13154340007E+02  0.74534854229E+01  0.28819497463E+03  0.28862956277E+03  0.47000000000E+01 0.  1.
         -5    1    4    4    0  502  0.34574338936E+02 -0.49998253779E+02  0.53018602109E+02  0.80797725608E+02  0.47000000000E+01 0.  1.
          5    1    5    5  503    0  0.37968775856E+02  0.21709811667E+02  0.13985825799E+03  0.14661298098E+03  0.47000000000E+01 0. -1.
         -5    1    5    5    0  503 -0.85697454799E+02  0.20834956690E+02  0.21322068862E+03  0.23078843393E+03  0.47000000000E+01 0. -1.
<mgrwt>
<rscale>  0 0.27515633E+03</rscale>
<asrwt>0</asrwt>
<pdfrwt beam="1">  1        2 0.11085546E+00 0.27515633E+03</pdfrwt>
<pdfrwt beam="2">  1       -2 0.40412452E-02 0.27515633E+03</pdfrwt>
<totfact> 0.10910250E+04</totfact>
</mgrwt>
</event>
<event>
 9    1  0.2024718E-002  0.2736924E+03  0.7818608E-02  0.1099185E+00
         -4   -1    0    0    0  501 -0.00000000000E+00  0.00000000000E+00  0.12688889780E+04  0.12688889780E+04  0.00000000000E+00 0. -1.
          4   -1    0    0  501    0  0.00000000000E+00 -0.00000000000E+00 -0.14758488433E+02  0.14758488433E+02  0.00000000000E+00 0. -1.
         36    2    1    2    0    0  0.00000000000E+00  0.17763568394E-14  0.12541304896E+04  0.12836474665E+04  0.27369240621E+03 0.  0.
         25    2    3    3    0    0 -0.49651437654E+02  0.36858598706E+01  0.50185019040E+03  0.51968590083E+03  0.12546302682E+03 0.  0.
         25    2    3    3    0    0  0.49651437654E+02 -0.36858598706E+01  0.75228029919E+03  0.76396156562E+03  0.12342112612E+03 0.  0.
          5    1    4    4  502    0 -0.13822909434E+02 -0.59954078599E+02  0.22008848281E+03  0.22857514001E+03  0.47000000000E+01 0.  1.
         -5    1    4    4    0  502 -0.35828528220E+02  0.63639938469E+02  0.28176170759E+03  0.29111076082E+03  0.47000000000E+01 0.  1.
          5    1    5    5  503    0 -0.36950928910E+02  0.11219094547E+02  0.35076785442E+03  0.35291842814E+03  0.47000000000E+01 0. -1.
         -5    1    5    5    0  503  0.86602366565E+02 -0.14904954418E+02  0.40151244477E+03  0.41104313748E+03  0.47000000000E+01 0. -1.
<mgrwt>
<rscale>  0 0.27369241E+03</rscale>
<asrwt>0</asrwt>
<pdfrwt beam="1">  1        4 0.22705377E-02 0.27369241E+03</pdfrwt>
<pdfrwt beam="2">  1       -4 0.19521360E+00 0.27369241E+03</pdfrwt>
<totfact> 0.24092617E+02</totfact>
</mgrwt>
</event>
<event>
 9    1  0.2024718E-002  0.2749186E+03  0.7818608E-02  0.1098497E+00
          1   -1    0    0  501    0  0.00000000000E+00  0.00000000000E+00  0.34613746350E+02  0.34613746350E+02  0.00000000000E+00 0. -1.
         -1   -1    0    0    0  501 -0.00000000000E+00 -0.00000000000E+00 -0.54588317509E+03  0.54588317509E+03  0.00000000000E+00 0. -1.
         36    2    1    2    0    0 -0.35527136788E-14 -0.71054273576E-14 -0.51126942874E+03  0.58049692144E+03  0.27491861894E+03 0.  0.
         25    2    3    3    0    0  0.28483772518E+02 -0.23993944273E+02 -0.35719757191E+03  0.38053653402E+03  0.12582095886E+03 0.  0.
         25    2    3    3    0    0 -0.28483772518E+02  0.23993944273E+02 -0.15407185683E+03  0.19996038742E+03  0.12189743562E+03 0.  0.
          5    1    4    4  502    0  0.29403232310E+02  0.46988987771E+02 -0.20694844068E+03  0.21429480195E+03  0.47000000000E+01 0.  1.
         -5    1    4    4    0  502 -0.91945979174E+00 -0.70982932045E+02 -0.15024913122E+03  0.16624173207E+03  0.47000000000E+01 0.  1.
          5    1    5    5  503    0 -0.37617301869E+02 -0.33363516039E+02 -0.12505212281E+03  0.13486403902E+03  0.47000000000E+01 0. -1.
         -5    1    5    5    0  503  0.91335293505E+01  0.57357460312E+02 -0.29019734023E+02  0.65096348397E+02  0.47000000000E+01 0. -1.
<mgrwt>
<rscale>  0 0.27491862E+03</rscale>
<asrwt>0</asrwt>
<pdfrwt beam="1">  1        1 0.53251916E-02 0.27491862E+03</pdfrwt>
<pdfrwt beam="2">  1       -1 0.83982030E-01 0.27491862E+03</pdfrwt>
<totfact> 0.22423884E+03</totfact>
</mgrwt>
</event>
<event>
 9    1  0.2024718E-002  0.2749712E+03  0.7818608E-02  0.1098468E+00
         -2   -1    0    0    0  501 -0.00000000000E+00  0.00000000000E+00  0.31868336983E+02  0.31868336983E+02  0.00000000000E+00 0.  1.
          2   -1    0    0  501    0  0.00000000000E+00 -0.00000000000E+00 -0.59313696697E+03  0.59313696697E+03  0.00000000000E+00 0.  1.
         36    2    1    2    0    0  0.71054273576E-14  0.14210854715E-13 -0.56126862999E+03  0.62500530396E+03  0.27497118933E+03 0.  0.
         25    2    3    3    0    0 -0.42209042441E+02  0.29284183327E+02 -0.38319547942E+03  0.40674554876E+03  0.12634872112E+03 0.  0.
         25    2    3    3    0    0  0.42209042441E+02 -0.29284183327E+02 -0.17807315057E+03  0.21825975520E+03  0.11527405228E+03 0.  0.
          5    1    4    4  502    0 -0.57719570849E+02  0.66227270421E+02 -0.18994733664E+03  0.20933150958E+03  0.47000000000E+01 0.  1.
         -5    1    4    4    0  502  0.15510528408E+02 -0.36943087094E+02 -0.19324814279E+03  0.19741403918E+03  0.47000000000E+01 0.  1.
          5    1    5    5  503    0  0.25636113281E+02 -0.69494517010E+02 -0.14676640303E+03  0.16446630432E+03  0.47000000000E+01 0. -1.
         -5    1    5    5    0  503  0.16572929160E+02  0.40210333682E+02 -0.31306747532E+02  0.53793450873E+02  0.47000000000E+01 0. -1.
<mgrwt>
<rscale>  0 0.27497119E+03</rscale>
<asrwt>0</asrwt>
<pdfrwt beam="1">  1        2 0.91251854E-01 0.27497119E+03</pdfrwt>
<pdfrwt beam="2">  1       -2 0.49028204E-02 0.27497119E+03</pdfrwt>
<totfact> 0.10268569E+04</totfact>
</mgrwt>
</event>
<event>
 9    1  0.2024718E-002  0.2751539E+03  0.7818608E-02  0.1098366E+00
          2   -1    0    0  501    0  0.00000000000E+00  0.00000000000E+00  0.34090934963E+03  0.34090934963E+03  0.00000000000E+00 0. -1.
         -2   -1    0    0    0  501 -0.00000000000E+00 -0.00000000000E+00 -0.55520397272E+02  0.55520397272E+02  0.00000000000E+00 0. -1.
         36    2    1    2    0    0  0.35527136788E-14 -0.44408920985E-14  0.28538895235E+03  0.39642974690E+03  0.27515393891E+03 0.  0.
         25    2    3    3    0    0 -0.20492047166E+02  0.40388950346E+01  0.21432267372E+03  0.25041910502E+03  0.12782520494E+03 0.  0.
         25    2    3    3    0    0  0.20492047166E+02 -0.40388950346E+01  0.71066278635E+02  0.14601064188E+03  0.12582708338E+03 0.  0.
          5    1    4    4  502    0  0.10988481603E+02  0.66474219325E+01 -0.14177249344E+02  0.19698206651E+02  0.47000000000E+01 0. -1.
         -5    1    4    4    0  502 -0.31480528769E+02 -0.26085268979E+01  0.22849992306E+03  0.23072089837E+03  0.47000000000E+01 0. -1.
          5    1    5    5  503    0  0.10080512787E+02  0.41985026098E+02  0.85957155452E+02  0.96307225730E+02  0.47000000000E+01 0. -1.
         -5    1    5    5    0  503  0.10411534379E+02 -0.46023921133E+02 -0.14890876816E+02  0.49703416150E+02  0.47000000000E+01 0. -1.
<mgrwt>
<rscale>  0 0.27515394E+03</rscale>
<asrwt>0</asrwt>
<pdfrwt beam="1">  1        2 0.52447591E-01 0.27515394E+03</pdfrwt>
<pdfrwt beam="2">  1       -2 0.85415998E-02 0.27515394E+03</pdfrwt>
<totfact> 0.80526296E+03</totfact>
</mgrwt>
</event>
<event>
 9    1  0.2024718E-002  0.2745381E+03  0.7818608E-02  0.1098710E+00
         -2   -1    0    0    0  501 -0.00000000000E+00  0.00000000000E+00  0.16010778791E+02  0.16010778791E+02  0.00000000000E+00 0.  1.
          2   -1    0    0  501    0  0.00000000000E+00 -0.00000000000E+00 -0.11768816625E+04  0.11768816625E+04  0.00000000000E+00 0.  1.
         36    2    1    2    0    0 -0.35527136788E-14  0.00000000000E+00 -0.11608708837E+04  0.11928924413E+04  0.27453809908E+03 0.  0.
         25    2    3    3    0    0  0.74109107927E+01  0.62295839520E+02 -0.60040072179E+03  0.61559053082E+03  0.12056111186E+03 0.  0.
         25    2    3    3    0    0 -0.74109107927E+01 -0.62295839520E+02 -0.56047016193E+03  0.57730191047E+03  0.12334909894E+03 0.  0.
          5    1    4    4  502    0  0.21216115112E+02  0.41128779975E+01 -0.14098104043E+02  0.26227577919E+02  0.47000000000E+01 0.  1.
         -5    1    4    4    0  502 -0.13805204320E+02  0.58182961522E+02 -0.58630261774E+03  0.58936295290E+03  0.47000000000E+01 0.  1.
          5    1    5    5  503    0  0.43884946163E+02 -0.69584740045E+02 -0.27309877456E+03  0.28525945245E+03  0.47000000000E+01 0.  1.
         -5    1    5    5    0  503 -0.51295856956E+02  0.72889005255E+01 -0.28737138737E+03  0.29204245803E+03  0.47000000000E+01 0.  1.
<mgrwt>
<rscale>  0 0.27453810E+03</rscale>
<asrwt>0</asrwt>
<pdfrwt beam="1">  1        2 0.18105878E+00 0.27453810E+03</pdfrwt>
<pdfrwt beam="2">  1       -2 0.24631959E-02 0.27453810E+03</pdfrwt>
<totfact> 0.11686051E+04</totfact>
</mgrwt>
</event>
<event>
 9    1  0.2024718E-002  0.2750654E+03  0.7818608E-02  0.1098415E+00
         -1   -1    0    0    0  501 -0.00000000000E+00  0.00000000000E+00  0.34991408376E+02  0.34991408376E+02  0.00000000000E+00 0. -1.
          1   -1    0    0  501    0  0.00000000000E+00 -0.00000000000E+00 -0.54056840709E+03  0.54056840709E+03  0.00000000000E+00 0. -1.
         36    2    1    2    0    0  0.00000000000E+00 -0.14210854715E-13 -0.50557699871E+03  0.57555981547E+03  0.27506544594E+03 0.  0.
         25    2    3    3    0    0 -0.66848529784E-01 -0.53989036595E+02 -0.26501187455E+03  0.29735883557E+03  0.12359677544E+03 0.  0.
         25    2    3    3    0    0  0.66848529784E-01  0.53989036595E+02 -0.24056512417E+03  0.27820097990E+03  0.12887740574E+03 0.  0.
          5    1    4    4  502    0  0.25397108907E+02 -0.67948754372E+02 -0.72691739527E+02  0.10280187429E+03  0.47000000000E+01 0. -1.
         -5    1    4    4    0  502 -0.25463957437E+02  0.13959717777E+02 -0.19232013502E+03  0.19455696128E+03  0.47000000000E+01 0. -1.
          5    1    5    5  503    0 -0.99739335847E+01 -0.67320433134E+00  0.13866013664E+02  0.17728194780E+02  0.47000000000E+01 0. -1.
         -5    1    5    5    0  503  0.10040782115E+02  0.54662240926E+02 -0.25443113783E+03  0.26047278512E+03  0.47000000000E+01 0. -1.
<mgrwt>
<rscale>  0 0.27506545E+03</rscale>
<asrwt>0</asrwt>
<pdfrwt beam="1">  1        1 0.83164368E-01 0.27506545E+03</pdfrwt>
<pdfrwt beam="2">  1       -1 0.53832937E-02 0.27506545E+03</pdfrwt>
<totfact> 0.63697119E+03</totfact>
</mgrwt>
</event>
<event>
 9    1  0.2024718E-002  0.2750650E+03  0.7818608E-02  0.1098415E+00
         -2   -1    0    0    0  501 -0.00000000000E+00  0.00000000000E+00  0.15653854448E+03  0.15653854448E+03  0.00000000000E+00 0.  1.
          2   -1    0    0  501    0  0.00000000000E+00 -0.00000000000E+00 -0.12083405985E+03  0.12083405985E+03  0.00000000000E+00 0.  1.
         36    2    1    2    0    0  0.00000000000E+00 -0.71054273576E-14  0.35704484634E+02  0.27737260433E+03  0.27506499488E+03 0.  0.
         25    2    3    3    0    0 -0.16200591147E+02  0.48913104933E+02  0.16044923297E+02  0.13632775997E+03  0.12519132392E+03 0.  0.
         25    2    3    3    0    0  0.16200591147E+02 -0.48913104933E+02  0.19659561338E+02  0.14104484436E+03  0.12981601897E+03 0.  0.
          5    1    4    4  502    0  0.31255463080E+02  0.18377247605E+02  0.56102930770E+02  0.66964587977E+02  0.47000000000E+01 0.  1.
         -5    1    4    4    0  502 -0.47456054228E+02  0.30535857328E+02 -0.40058007473E+02  0.69363171989E+02  0.47000000000E+01 0.  1.
          5    1    5    5  503    0 -0.36497708138E+02  0.86641708229E+01  0.45069087147E+02  0.58825701625E+02  0.47000000000E+01 0. -1.
         -5    1    5    5    0  503  0.52698299285E+02 -0.57577275756E+02 -0.25409525810E+02  0.82219142740E+02  0.47000000000E+01 0. -1.
<mgrwt>
<rscale>  0 0.27506499E+03</rscale>
<asrwt>0</asrwt>
<pdfrwt beam="1">  1        2 0.18589855E-01 0.27506499E+03</pdfrwt>
<pdfrwt beam="2">  1       -2 0.24082853E-01 0.27506499E+03</pdfrwt>
<totfact> 0.45634081E+03</totfact>
</mgrwt>
</event>
<event>
 9    1  0.2024718E-002  0.2753500E+03  0.7818608E-02  0.1098256E+00
          1   -1    0    0  501    0  0.00000000000E+00  0.00000000000E+00  0.32485940858E+03  0.32485940858E+03  0.00000000000E+00 0.  1.
         -1   -1    0    0    0  501 -0.00000000000E+00 -0.00000000000E+00 -0.58346474528E+02  0.58346474528E+02  0.00000000000E+00 0.  1.
         36    2    1    2    0    0  0.14210854715E-13  0.44408920985E-15  0.26651293405E+03  0.38320588310E+03  0.27534996791E+03 0.  0.
         25    2    3    3    0    0 -0.69831643678E+02  0.19380273067E+01  0.12818020793E+03  0.19075016501E+03  0.12278129066E+03 0.  0.
         25    2    3    3    0    0  0.69831643678E+02 -0.19380273067E+01  0.13833272612E+03  0.19245571810E+03  0.11411856074E+03 0.  0.
          5    1    4    4  502    0 -0.12836129503E+02 -0.17918050232E+01 -0.24254007274E+02  0.27898452551E+02  0.47000000000E+01 0. -1.
         -5    1    4    4    0  502 -0.56995514175E+02  0.37298323299E+01  0.15243421520E+03  0.16285171246E+03  0.47000000000E+01 0. -1.
          5    1    5    5  503    0 -0.47800479378E+01  0.89986259640E+01  0.11182313240E+03  0.11238472791E+03  0.47000000000E+01 0. -1.
         -5    1    5    5    0  503  0.74611691616E+02 -0.10936653271E+02  0.26509593719E+02  0.80070990188E+02  0.47000000000E+01 0. -1.
<mgrwt>
<rscale>  0 0.27534997E+03</rscale>
<asrwt>0</asrwt>
<pdfrwt beam="1">  1        1 0.49978369E-01 0.27534997E+03</pdfrwt>
<pdfrwt beam="2">  1       -1 0.89763809E-02 0.27534997E+03</pdfrwt>
<totfact> 0.56704484E+03</totfact>
</mgrwt>
</event>
<event>
 9    1  0.2024718E-002  0.2751385E+03  0.7818608E-02  0.1098374E+00
          2   -1    0    0  501    0  0.00000000000E+00  0.00000000000E+00  0.45345767084E+03  0.45345767084E+03  0.00000000000E+00 0.  1.
         -2   -1    0    0    0  501 -0.00000000000E+00 -0.00000000000E+00 -0.41735544701E+02  0.41735544701E+02  0.00000000000E+00 0.  1.
         36    2    1    2    0    0 -0.71054273576E-14 -0.71054273576E-14  0.41172212613E+03  0.49519321554E+03  0.27513853159E+03 0.  0.
         25    2    3    3    0    0 -0.32154625090E+02  0.47029393707E+02  0.22185980562E+03  0.26046288175E+03  0.12398974004E+03 0.  0.
         25    2    3    3    0    0  0.32154625090E+02 -0.47029393707E+02  0.18986232052E+03  0.23473033378E+03  0.12571771975E+03 0.  0.
          5    1    4    4  502    0  0.37290595324E+02 -0.15961448082E+02  0.87473711218E+02  0.96535467465E+02  0.47000000000E+01 0.  1.
         -5    1    4    4    0  502 -0.69445220414E+02  0.62990841789E+02  0.13438609440E+03  0.16392741429E+03  0.47000000000E+01 0.  1.
          5    1    5    5  503    0  0.16216371277E+02 -0.47944061982E+02  0.20562136947E+03  0.21181086223E+03  0.47000000000E+01 0. -1.
         -5    1    5    5    0  503  0.15938253814E+02  0.91466827534E+00 -0.15759048947E+02  0.22919471556E+02  0.47000000000E+01 0. -1.
<mgrwt>
<rscale>  0 0.27513853E+03</rscale>
<asrwt>0</asrwt>
<pdfrwt beam="1">  1        2 0.69762715E-01 0.27513853E+03</pdfrwt>
<pdfrwt beam="2">  1       -2 0.64208533E-02 0.27513853E+03</pdfrwt>
<totfact> 0.92022653E+03</totfact>
</mgrwt>
</event>
<event>
 9    1  0.2024718E-002  0.2754223E+03  0.7818608E-02  0.1098216E+00
         -1   -1    0    0    0  501 -0.00000000000E+00  0.00000000000E+00  0.17700530540E+02  0.17700530540E+02  0.00000000000E+00 0. -1.
          1   -1    0    0  501    0  0.00000000000E+00 -0.00000000000E+00 -0.10714010848E+04  0.10714010848E+04  0.00000000000E+00 0. -1.
         36    2    1    2    0    0  0.00000000000E+00  0.71054273576E-14 -0.10537005543E+04  0.10891016153E+04  0.27542234929E+03 0.  0.
         25    2    3    3    0    0  0.18286015810E+02  0.17772374941E+02 -0.33158996771E+03  0.35588206531E+03  0.12668820798E+03 0.  0.
         25    2    3    3    0    0 -0.18286015810E+02 -0.17772374941E+02 -0.72211058655E+03  0.73321955002E+03  0.12456714514E+03 0.  0.
          5    1    4    4  502    0  0.31179917939E+02  0.55396615789E+02 -0.85994238955E+02  0.10704238159E+03  0.47000000000E+01 0.  1.
         -5    1    4    4    0  502 -0.12893902129E+02 -0.37624240848E+02 -0.24559572875E+03  0.24883968372E+03  0.47000000000E+01 0.  1.
          5    1    5    5  503    0 -0.61847643667E+02  0.16629853230E+02 -0.26228164847E+03  0.27002858399E+03  0.47000000000E+01 0.  1.
         -5    1    5    5    0  503  0.43561627857E+02 -0.34402228171E+02 -0.45982893807E+03  0.46319096603E+03  0.47000000000E+01 0.  1.
<mgrwt>
<rscale>  0 0.27542235E+03</rscale>
<asrwt>0</asrwt>
<pdfrwt beam="1">  1        1 0.16483092E+00 0.27542235E+03</pdfrwt>
<pdfrwt beam="2">  1       -1 0.27231588E-02 0.27542235E+03</pdfrwt>
<totfact> 0.61590098E+03</totfact>
</mgrwt>
</event>
<event>
 9    1  0.2024718E-002  0.2747180E+03  0.7818608E-02  0.1098609E+00
         -2   -1    0    0    0  501 -0.00000000000E+00  0.00000000000E+00  0.34677417448E+02  0.34677417448E+02  0.00000000000E+00 0.  1.
          2   -1    0    0  501    0  0.00000000000E+00 -0.00000000000E+00 -0.54408598916E+03  0.54408598916E+03  0.00000000000E+00 0.  1.
         36    2    1    2    0    0  0.00000000000E+00  0.00000000000E+00 -0.50940857172E+03  0.57876340661E+03  0.27471801523E+03 0.  0.
         25    2    3    3    0    0 -0.21985728704E+02  0.55674722550E+01 -0.15115397430E+03  0.19665618436E+03  0.12374070424E+03 0.  0.
         25    2    3    3    0    0  0.21985728704E+02 -0.55674722550E+01 -0.35825459742E+03  0.38210722226E+03  0.13093969495E+03 0.  0.
          5    1    4    4  502    0 -0.34312014619E+02 -0.62824377209E+01  0.83459274888E+01  0.36173579814E+02  0.47000000000E+01 0.  1.
         -5    1    4    4    0  502  0.12326285915E+02  0.11849909976E+02 -0.15949990179E+03  0.16048260454E+03  0.47000000000E+01 0.  1.
          5    1    5    5  503    0 -0.32058138317E+02 -0.24994664862E+01 -0.17231916169E+02  0.36783155112E+02  0.47000000000E+01 0. -1.
         -5    1    5    5    0  503  0.54043867021E+02 -0.30680057688E+01 -0.34102268125E+03  0.34532406714E+03  0.47000000000E+01 0. -1.
<mgrwt>
<rscale>  0 0.27471802E+03</rscale>
<asrwt>0</asrwt>
<pdfrwt beam="1">  1        2 0.83705535E-01 0.27471802E+03</pdfrwt>
<pdfrwt beam="2">  1       -2 0.53349874E-02 0.27471802E+03</pdfrwt>
<totfact> 0.99694172E+03</totfact>
</mgrwt>
</event>
<event>
 9    1  0.2024718E-002  0.2744439E+03  0.7818608E-02  0.1098763E+00
         -1   -1    0    0    0  501 -0.00000000000E+00  0.00000000000E+00  0.11244647597E+03  0.11244647597E+03  0.00000000000E+00 0.  1.
          1   -1    0    0  501    0  0.00000000000E+00 -0.00000000000E+00 -0.16745622687E+03  0.16745622687E+03  0.00000000000E+00 0.  1.
         36    2    1    2    0    0 -0.71054273576E-14 -0.35527136788E-14 -0.55009750894E+02  0.27990270284E+03  0.27444389293E+03 0.  0.
         25    2    3    3    0    0  0.15295407671E+01 -0.15911922171E+02 -0.82119713527E+02  0.15375151159E+03  0.12899748526E+03 0.  0.
         25    2    3    3    0    0 -0.15295407671E+01  0.15911922171E+02  0.27109962632E+02  0.12615119125E+03  0.12216236826E+03 0.  0.
          5    1    4    4  502    0  0.43403185727E+02  0.30776896093E+02 -0.72616657156E+02  0.90146118945E+02  0.47000000000E+01 0.  1.
         -5    1    4    4    0  502 -0.41873644960E+02 -0.46688818264E+02 -0.95030563710E+01  0.63605392644E+02  0.47000000000E+01 0.  1.
          5    1    5    5  503    0 -0.52880867200E+02  0.10680388868E+02  0.45931642262E+02  0.71008890874E+02  0.47000000000E+01 0.  1.
         -5    1    5    5    0  503  0.51351326433E+02  0.52315333030E+01 -0.18821679630E+02  0.55142300381E+02  0.47000000000E+01 0.  1.
<mgrwt>
<rscale>  0 0.27444389E+03</rscale>
<asrwt>0</asrwt>
<pdfrwt beam="1">  1        1 0.25762496E-01 0.27444389E+03</pdfrwt>
<pdfrwt beam="2">  1       -1 0.17299458E-01 0.27444389E+03</pdfrwt>
<totfact> 0.46700964E+03</totfact>
</mgrwt>
</event>
<event>
 9    1  0.2024718E-002  0.2745246E+03  0.7818608E-02  0.1098718E+00
          1   -1    0    0  501    0  0.00000000000E+00  0.00000000000E+00  0.32918355304E+04  0.32918355304E+04  0.00000000000E+00 0. -1.
         -1   -1    0    0    0  501 -0.00000000000E+00 -0.00000000000E+00 -0.57235352784E+01  0.57235352784E+01  0.00000000000E+00 0. -1.
         36    2    1    2    0    0  0.00000000000E+00 -0.71054273576E-14  0.32861119951E+04  0.32975590657E+04  0.27452458388E+03 0.  0.
         25    2    3    3    0    0  0.45997044267E+02  0.33599837174E+02  0.16881173930E+04  0.16934827626E+04  0.12206087621E+03 0.  0.
         25    2    3    3    0    0 -0.45997044267E+02 -0.33599837174E+02  0.15979946022E+04  0.16040763031E+04  0.12739450765E+03 0.  0.
          5    1    4    4  502    0 -0.26452067571E+01  0.25786593827E+02  0.73015001792E+02  0.77622329434E+02  0.47000000000E+01 0.  1.
         -5    1    4    4    0  502  0.48642251024E+02  0.78132433473E+01  0.16151023912E+04  0.16158604331E+04  0.47000000000E+01 0.  1.
          5    1    5    5  503    0 -0.27311462535E+02 -0.71356988285E+02  0.13724357587E+04  0.13745689279E+04  0.47000000000E+01 0. -1.
         -5    1    5    5    0  503 -0.18685581732E+02  0.37757151110E+02  0.22555884344E+03  0.22950737521E+03  0.47000000000E+01 0. -1.
<mgrwt>
<rscale>  0 0.27452458E+03</rscale>
<asrwt>0</asrwt>
<pdfrwt beam="1">  1        1 0.50643472E+00 0.27452458E+03</pdfrwt>
<pdfrwt beam="2">  1       -1 0.88054652E-03 0.27452458E+03</pdfrwt>
<totfact> 0.10126791E+03</totfact>
</mgrwt>
</event>
<event>
 9    1  0.2024718E-002  0.2671181E+03  0.7818608E-02  0.1102940E+00
         -1   -1    0    0    0  501 -0.00000000000E+00  0.00000000000E+00  0.53555160789E+02  0.53555160789E+02  0.00000000000E+00 0. -1.
          1   -1    0    0  501    0  0.00000000000E+00 -0.00000000000E+00 -0.33307758425E+03  0.33307758425E+03  0.00000000000E+00 0. -1.
         36    2    1    2    0    0  0.00000000000E+00  0.00000000000E+00 -0.27952242346E+03  0.38663274504E+03  0.26711812802E+03 0.  0.
         25    2    3    3    0    0  0.41283903017E+01  0.48736084149E+00 -0.93158275443E+02  0.15880194257E+03  0.12853914405E+03 0.  0.
         25    2    3    3    0    0 -0.41283903017E+01 -0.48736084149E+00 -0.18636414802E+03  0.22783080247E+03  0.13098854057E+03 0.  0.
          5    1    4    4  502    0  0.31189907228E+02  0.50511834911E+02 -0.13928131705E+02  0.61158307953E+02  0.47000000000E+01 0. -1.
         -5    1    4    4    0  502 -0.27061516927E+02 -0.50024474069E+02 -0.79230143738E+02  0.97643634616E+02  0.47000000000E+01 0. -1.
          5    1    5    5  503    0  0.28655165411E+02 -0.51492447388E+02 -0.13800276546E+03  0.15013142215E+03  0.47000000000E+01 0. -1.
         -5    1    5    5    0  503 -0.32783555713E+02  0.51005086547E+02 -0.48361382561E+02  0.77699380320E+02  0.47000000000E+01 0. -1.
<mgrwt>
<rscale>  0 0.26711813E+03</rscale>
<asrwt>0</asrwt>
<pdfrwt beam="1">  1        1 0.51242705E-01 0.26711813E+03</pdfrwt>
<pdfrwt beam="2">  1       -1 0.82392556E-02 0.26711813E+03</pdfrwt>
<totfact> 0.62589790E+03</totfact>
</mgrwt>
</event>
<event>
 9    1  0.2024718E-002  0.2744074E+03  0.7818608E-02  0.1098783E+00
          2   -1    0    0  501    0  0.00000000000E+00  0.00000000000E+00  0.84368140848E+03  0.84368140848E+03  0.00000000000E+00 0. -1.
         -2   -1    0    0    0  501 -0.00000000000E+00 -0.00000000000E+00 -0.22312755005E+02  0.22312755005E+02  0.00000000000E+00 0. -1.
         36    2    1    2    0    0  0.00000000000E+00  0.71054273576E-14  0.82136865348E+03  0.86599416349E+03  0.27440740930E+03 0.  0.
         25    2    3    3    0    0  0.25277838767E+02 -0.36711361237E+02  0.40759110585E+03  0.43039634345E+03  0.13085797533E+03 0.  0.
         25    2    3    3    0    0 -0.25277838767E+02  0.36711361237E+02  0.41377754763E+03  0.43559782004E+03  0.12863478817E+03 0.  0.
          5    1    4    4  502    0 -0.84766902036E+01 -0.75481049842E+02  0.15609706644E+03  0.17365951547E+03  0.47000000000E+01 0.  1.
         -5    1    4    4    0  502  0.33754528970E+02  0.38769688606E+02  0.25149403942E+03  0.25673682798E+03  0.47000000000E+01 0.  1.
          5    1    5    5  503    0 -0.12082856812E+02 -0.47859980665E+02  0.12915441225E+03  0.13834567352E+03  0.47000000000E+01 0. -1.
         -5    1    5    5    0  503 -0.13194981954E+02  0.84571341901E+02  0.28462313538E+03  0.29725214652E+03  0.47000000000E+01 0. -1.
<mgrwt>
<rscale>  0 0.27440741E+03</rscale>
<asrwt>0</asrwt>
<pdfrwt beam="1">  1        2 0.12979712E+00 0.27440741E+03</pdfrwt>
<pdfrwt beam="2">  1       -2 0.34327322E-02 0.27440741E+03</pdfrwt>
<totfact> 0.11420958E+04</totfact>
</mgrwt>
</event>
<event>
 9    1  0.2024718E-002  0.2751309E+03  0.7818608E-02  0.1098378E+00
          4   -1    0    0  501    0  0.00000000000E+00  0.00000000000E+00  0.53105438899E+03  0.53105438899E+03  0.00000000000E+00 0. -1.
         -4   -1    0    0    0  501 -0.00000000000E+00 -0.00000000000E+00 -0.35635256668E+02  0.35635256668E+02  0.00000000000E+00 0. -1.
         36    2    1    2    0    0  0.71054273576E-14  0.00000000000E+00  0.49541913232E+03  0.56668964566E+03  0.27513094669E+03 0.  0.
         25    2    3    3    0    0  0.24353235423E+02  0.34475896428E+02  0.24463796719E+03  0.28356653920E+03  0.13704225499E+03 0.  0.
         25    2    3    3    0    0 -0.24353235423E+02 -0.34475896428E+02  0.25078116513E+03  0.28312310646E+03  0.12444208740E+03 0.  0.
          5    1    4    4  502    0  0.72565669965E+02 -0.14749120204E+02  0.12056026151E+03  0.14156334151E+03  0.47000000000E+01 0. -1.
         -5    1    4    4    0  502 -0.48212434542E+02  0.49225016632E+02  0.12407770568E+03  0.14200319769E+03  0.47000000000E+01 0. -1.
          5    1    5    5  503    0  0.66757093672E+01  0.31813631788E+02  0.17349191328E+03  0.17657351510E+03  0.47000000000E+01 0. -1.
         -5    1    5    5    0  503 -0.31028944790E+02 -0.66289528215E+02  0.77289251851E+02  0.10654959135E+03  0.47000000000E+01 0. -1.
<mgrwt>
<rscale>  0 0.27513095E+03</rscale>
<asrwt>0</asrwt>
<pdfrwt beam="1">  1        4 0.81700669E-01 0.27513095E+03</pdfrwt>
<pdfrwt beam="2">  1       -4 0.54823476E-02 0.27513095E+03</pdfrwt>
<totfact> 0.52213078E+02</totfact>
</mgrwt>
</event>
<event>
 9    1  0.2024718E-002  0.2750013E+03  0.7818608E-02  0.1098451E+00
         -2   -1    0    0    0  501 -0.00000000000E+00  0.00000000000E+00  0.43366102109E+02  0.43366102109E+02  0.00000000000E+00 0. -1.
          2   -1    0    0  501    0  0.00000000000E+00 -0.00000000000E+00 -0.43597262136E+03  0.43597262136E+03  0.00000000000E+00 0. -1.
         36    2    1    2    0    0  0.71054273576E-14  0.00000000000E+00 -0.39260651925E+03  0.47933872347E+03  0.27500133247E+03 0.  0.
         25    2    3    3    0    0 -0.42600824527E+02 -0.37281495603E+02 -0.19802690087E+03  0.24052484610E+03  0.12422885317E+03 0.  0.
         25    2    3    3    0    0  0.42600824527E+02  0.37281495603E+02 -0.19457961838E+03  0.23881387736E+03  0.12635703371E+03 0.  0.
          5    1    4    4  502    0  0.35050575014E+01  0.21330122720E+02  0.62697413994E+01  0.22992590558E+02  0.47000000000E+01 0. -1.
         -5    1    4    4    0  502 -0.46105882028E+02 -0.58611618323E+02 -0.20429664227E+03  0.21753225555E+03  0.47000000000E+01 0. -1.
          5    1    5    5  503    0  0.20004118009E+02  0.45343663699E+02 -0.20592837359E+03  0.21186032575E+03  0.47000000000E+01 0. -1.
         -5    1    5    5    0  503  0.22596706518E+02 -0.80621680963E+01  0.11348755213E+02  0.26953551617E+02  0.47000000000E+01 0. -1.
<mgrwt>
<rscale>  0 0.27500133E+03</rscale>
<asrwt>0</asrwt>
<pdfrwt beam="1">  1        2 0.67072714E-01 0.27500133E+03</pdfrwt>
<pdfrwt beam="2">  1       -2 0.66717077E-02 0.27500133E+03</pdfrwt>
<totfact> 0.90571744E+03</totfact>
</mgrwt>
</event>
<event>
 9    1  0.2024718E-002  0.2748622E+03  0.7818608E-02  0.1098529E+00
         -1   -1    0    0    0  501 -0.00000000000E+00  0.00000000000E+00  0.58262838493E+03  0.58262838493E+03  0.00000000000E+00 0.  1.
          1   -1    0    0  501    0  0.00000000000E+00 -0.00000000000E+00 -0.32417408376E+02  0.32417408376E+02  0.00000000000E+00 0.  1.
         36    2    1    2    0    0 -0.88817841970E-15  0.71054273576E-14  0.55021097656E+03  0.61504579331E+03  0.27486216390E+03 0.  0.
         25    2    3    3    0    0  0.17047511489E+01  0.61219152047E+02  0.16444943301E+03  0.20602400722E+03  0.10794250682E+03 0.  0.
         25    2    3    3    0    0 -0.17047511489E+01 -0.61219152047E+02  0.38576154355E+03  0.40902178609E+03  0.12139259559E+03 0.  0.
          5    1    4    4  502    0  0.73372033252E+00 -0.15339485566E+02  0.11188852514E+03  0.11303526096E+03  0.47000000000E+01 0. -1.
         -5    1    4    4    0  502  0.97103081639E+00  0.76558637613E+02  0.52560907872E+02  0.92988746256E+02  0.47000000000E+01 0. -1.
          5    1    5    5  503    0 -0.20642855382E+02  0.33294797545E+02  0.11063471069E+03  0.11745978134E+03  0.47000000000E+01 0.  1.
         -5    1    5    5    0  503  0.18938104233E+02 -0.94513949593E+02  0.27512683285E+03  0.29156200475E+03  0.47000000000E+01 0.  1.
<mgrwt>
<rscale>  0 0.27486216E+03</rscale>
<asrwt>0</asrwt>
<pdfrwt beam="1">  1        1 0.49872940E-02 0.27486216E+03</pdfrwt>
<pdfrwt beam="2">  1       -1 0.89635129E-01 0.27486216E+03</pdfrwt>
<totfact> 0.21380000E+03</totfact>
</mgrwt>
</event>
<event>
 9    1  0.2024718E-002  0.2685047E+03  0.7818608E-02  0.1102138E+00
         -1   -1    0    0    0  501 -0.00000000000E+00  0.00000000000E+00  0.36139945077E+03  0.36139945077E+03  0.00000000000E+00 0. -1.
          1   -1    0    0  501    0  0.00000000000E+00 -0.00000000000E+00 -0.49871930059E+02  0.49871930059E+02  0.00000000000E+00 0. -1.
         36    2    1    2    0    0 -0.71054273576E-14  0.71054273576E-14  0.31152752071E+03  0.41127138083E+03  0.26850466016E+03 0.  0.
         25    2    3    3    0    0 -0.47976434686E+02 -0.10444995652E+01  0.14659744499E+03  0.19958651867E+03  0.12665361540E+03 0.  0.
         25    2    3    3    0    0  0.47976434686E+02  0.10444995652E+01  0.16493007572E+03  0.21168486215E+03  0.12371629530E+03 0.  0.
          5    1    4    4  502    0 -0.62996310366E+02 -0.16224035028E+02  0.15978752803E+02  0.67150316257E+02  0.47000000000E+01 0.  1.
         -5    1    4    4    0  502  0.15019875680E+02  0.15179535463E+02  0.13061869218E+03  0.13243620241E+03  0.47000000000E+01 0.  1.
          5    1    5    5  503    0  0.49561662276E+02  0.33179951345E+02  0.16865884922E+03  0.17895576257E+03  0.47000000000E+01 0.  1.
         -5    1    5    5    0  503 -0.15852275898E+01 -0.32135451780E+02 -0.37287734963E+01  0.32729099581E+02  0.47000000000E+01 0.  1.
<mgrwt>
<rscale>  0 0.26850466E+03</rscale>
<asrwt>0</asrwt>
<pdfrwt beam="1">  1        1 0.76726049E-02 0.26850466E+03</pdfrwt>
<pdfrwt beam="2">  1       -1 0.55599914E-01 0.26850466E+03</pdfrwt>
<totfact> 0.30836321E+03</totfact>
</mgrwt>
</event>
<event>
 9    1  0.2024718E-002  0.2752208E+03  0.7818608E-02  0.1098328E+00
         -2   -1    0    0    0  501 -0.00000000000E+00  0.00000000000E+00  0.43203148468E+01  0.43203148468E+01  0.00000000000E+00 0. -1.
          2   -1    0    0  501    0  0.00000000000E+00 -0.00000000000E+00 -0.43831584613E+04  0.43831584613E+04  0.00000000000E+00 0. -1.
         36    2    1    2    0    0  0.35527136788E-14 -0.71054273576E-14 -0.43788381464E+04  0.43874787761E+04  0.27522081735E+03 0.  0.
         25    2    3    3    0    0  0.58647438304E+01 -0.39848277634E+02 -0.26258485542E+04  0.26292511514E+04  0.12750963663E+03 0.  0.
         25    2    3    3    0    0 -0.58647438304E+01  0.39848277634E+02 -0.17529895922E+04  0.17582276247E+04  0.12949744861E+03 0.  0.
          5    1    4    4  502    0  0.49479380707E+02 -0.53579059243E+01 -0.46448108137E+03  0.46716344166E+03  0.47000000000E+01 0.  1.
         -5    1    4    4    0  502 -0.43614636877E+02 -0.34490371710E+02 -0.21613674728E+04  0.21620877098E+04  0.47000000000E+01 0.  1.
          5    1    5    5  503    0 -0.18018740215E+02  0.81506336814E+02 -0.14092410446E+04  0.14117189414E+04  0.47000000000E+01 0. -1.
         -5    1    5    5    0  503  0.12153996384E+02 -0.41658059180E+02 -0.34374854768E+03  0.34650868323E+03  0.47000000000E+01 0. -1.
<mgrwt>
<rscale>  0 0.27522082E+03</rscale>
<asrwt>0</asrwt>
<pdfrwt beam="1">  1        2 0.67433801E+00 0.27522082E+03</pdfrwt>
<pdfrwt beam="2">  1       -2 0.66465797E-03 0.27522082E+03</pdfrwt>
<totfact> 0.83466670E+02</totfact>
</mgrwt>
</event>
<event>
 9    1  0.2024718E-002  0.2761061E+03  0.7818608E-02  0.1097835E+00
          2   -1    0    0  501    0  0.00000000000E+00  0.00000000000E+00  0.43706254184E+03  0.43706254184E+03  0.00000000000E+00 0.  1.
         -2   -1    0    0    0  501 -0.00000000000E+00 -0.00000000000E+00 -0.43606232962E+02  0.43606232962E+02  0.00000000000E+00 0.  1.
         36    2    1    2    0    0 -0.35527136788E-14 -0.71054273576E-14  0.39345630888E+03  0.48066877480E+03  0.27610614639E+03 0.  0.
         25    2    3    3    0    0  0.25058064447E+01 -0.48482981896E+02  0.15219658339E+03  0.20506510402E+03  0.12857300764E+03 0.  0.
         25    2    3    3    0    0 -0.25058064447E+01  0.48482981896E+02  0.24125972549E+03  0.27560367078E+03  0.12407356530E+03 0.  0.
          5    1    4    4  502    0 -0.34106020050E+02 -0.19637249155E+00 -0.65808540877E+01  0.35052201162E+02  0.47000000000E+01 0.  1.
         -5    1    4    4    0  502  0.36611826494E+02 -0.48286609404E+02  0.15877743748E+03  0.17001290286E+03  0.47000000000E+01 0.  1.
          5    1    5    5  503    0 -0.27811447970E+02  0.81449345591E+02  0.19522670506E+03  0.21340812755E+03  0.47000000000E+01 0.  1.
         -5    1    5    5    0  503  0.25305641525E+02 -0.32966363695E+02  0.46033020434E+02  0.62195543237E+02  0.47000000000E+01 0.  1.
<mgrwt>
<rscale>  0 0.27610615E+03</rscale>
<asrwt>0</asrwt>
<pdfrwt beam="1">  1        2 0.67240388E-01 0.27610615E+03</pdfrwt>
<pdfrwt beam="2">  1       -2 0.67086515E-02 0.27610615E+03</pdfrwt>
<totfact> 0.89570836E+03</totfact>
</mgrwt>
</event>
<event>
 9    1  0.2024718E-002  0.2753462E+03  0.7818608E-02  0.1098258E+00
         -2   -1    0    0    0  501 -0.00000000000E+00  0.00000000000E+00  0.11531075482E+02  0.11531075482E+02  0.00000000000E+00 0. -1.
          2   -1    0    0  501    0  0.00000000000E+00 -0.00000000000E+00 -0.16437217173E+04  0.16437217173E+04  0.00000000000E+00 0. -1.
         36    2    1    2    0    0  0.71054273576E-14  0.00000000000E+00 -0.16321906418E+04  0.16552527928E+04  0.27534617625E+03 0.  0.
         25    2    3    3    0    0 -0.55971795525E+02 -0.22195542443E+02 -0.10064852110E+04  0.10158117666E+04  0.12343249655E+03 0.  0.
         25    2    3    3    0    0  0.55971795525E+02  0.22195542443E+02 -0.62570543080E+03  0.63944102616E+03  0.11726915967E+03 0.  0.
          5    1    4    4  502    0  0.22075213294E+02 -0.56171226492E+01 -0.41913900257E+02  0.47934665364E+02  0.47000000000E+01 0.  1.
         -5    1    4    4    0  502 -0.78047008819E+02 -0.16578419793E+02 -0.96457131075E+03  0.96787710125E+03  0.47000000000E+01 0.  1.
          5    1    5    5  503    0 -0.16225435245E+02 -0.14514825880E+02 -0.25838137384E+02  0.34112230398E+02  0.47000000000E+01 0. -1.
         -5    1    5    5    0  503  0.72197230770E+02  0.36710368322E+02 -0.59986729341E+03  0.60532879576E+03  0.47000000000E+01 0. -1.
<mgrwt>
<rscale>  0 0.27534618E+03</rscale>
<asrwt>0</asrwt>
<pdfrwt beam="1">  1        2 0.25288027E+00 0.27534618E+03</pdfrwt>
<pdfrwt beam="2">  1       -2 0.17740116E-02 0.27534618E+03</pdfrwt>
<totfact> 0.10551824E+04</totfact>
</mgrwt>
</event>
<event>
 9    1  0.2024718E-002  0.2744876E+03  0.7818608E-02  0.1098738E+00
         -2   -1    0    0    0  501 -0.00000000000E+00  0.00000000000E+00  0.30551083188E+02  0.30551083188E+02  0.00000000000E+00 0.  1.
          2   -1    0    0  501    0  0.00000000000E+00 -0.00000000000E+00 -0.61653656754E+03  0.61653656754E+03  0.00000000000E+00 0.  1.
         36    2    1    2    0    0  0.00000000000E+00  0.00000000000E+00 -0.58598548435E+03  0.64708765073E+03  0.27448759508E+03 0.  0.
         25    2    3    3    0    0 -0.22241216412E+02  0.27230084154E+02 -0.67127978086E+02  0.11373043377E+03  0.84807410842E+02 0.  0.
         25    2    3    3    0    0  0.22241216412E+02 -0.27230084154E+02 -0.51885750627E+03  0.53335721696E+03  0.11840886740E+03 0.  0.
          5    1    4    4  502    0 -0.11168962555E+02  0.56416948064E+02 -0.55575877041E+02  0.80114829229E+02  0.47000000000E+01 0.  1.
         -5    1    4    4    0  502 -0.11072253856E+02 -0.29186863910E+02 -0.11552101045E+02  0.33615604544E+02  0.47000000000E+01 0.  1.
          5    1    5    5  503    0  0.68113324063E+02 -0.26127325651E+02 -0.24613915762E+03  0.25676572391E+03  0.47000000000E+01 0.  1.
         -5    1    5    5    0  503 -0.45872107652E+02 -0.11027585038E+01 -0.27271834865E+03  0.27659149305E+03  0.47000000000E+01 0.  1.
<mgrwt>
<rscale>  0 0.27448760E+03</rscale>
<asrwt>0</asrwt>
<pdfrwt beam="1">  1        2 0.94851772E-01 0.27448760E+03</pdfrwt>
<pdfrwt beam="2">  1       -2 0.47001670E-02 0.27448760E+03</pdfrwt>
<totfact> 0.10464749E+04</totfact>
</mgrwt>
</event>
<event>
 9    1  0.2024718E-002  0.2753181E+03  0.7818608E-02  0.1098274E+00
          1   -1    0    0  501    0  0.00000000000E+00  0.00000000000E+00  0.10409606529E+04  0.10409606529E+04  0.00000000000E+00 0. -1.
         -1   -1    0    0    0  501 -0.00000000000E+00 -0.00000000000E+00 -0.18204349569E+02  0.18204349569E+02  0.00000000000E+00 0. -1.
         36    2    1    2    0    0  0.00000000000E+00 -0.71054273576E-14  0.10227563034E+04  0.10591650025E+04  0.27531808233E+03 0.  0.
         25    2    3    3    0    0  0.48695364346E+02 -0.38635062628E+02  0.53908439779E+03  0.55615894192E+03  0.12180670817E+03 0.  0.
         25    2    3    3    0    0 -0.48695364346E+02  0.38635062628E+02  0.48367190556E+03  0.50300606058E+03  0.12333968613E+03 0.  0.
          5    1    4    4  502    0 -0.34151994813E+02 -0.25310901758E+01  0.66072227150E+02  0.74568051924E+02  0.47000000000E+01 0.  1.
         -5    1    4    4    0  502  0.82847359159E+02 -0.36103972452E+02  0.47301217064E+03  0.48159088999E+03  0.47000000000E+01 0.  1.
          5    1    5    5  503    0 -0.45392730826E+02  0.78368147765E+02  0.25065260171E+03  0.26655371568E+03  0.47000000000E+01 0.  1.
         -5    1    5    5    0  503 -0.33026335193E+01 -0.39733085138E+02  0.23301930385E+03  0.23645234490E+03  0.47000000000E+01 0.  1.
<mgrwt>
<rscale>  0 0.27531808E+03</rscale>
<asrwt>0</asrwt>
<pdfrwt beam="1">  1        1 0.16014775E+00 0.27531808E+03</pdfrwt>
<pdfrwt beam="2">  1       -1 0.28006700E-02 0.27531808E+03</pdfrwt>
<totfact> 0.62208014E+03</totfact>
</mgrwt>
</event>
<event>
 9    1  0.2024718E-002  0.2752453E+03  0.7818608E-02  0.1098315E+00
         -2   -1    0    0    0  501 -0.00000000000E+00  0.00000000000E+00  0.11523132070E+03  0.11523132070E+03  0.00000000000E+00 0.  1.
          2   -1    0    0  501    0  0.00000000000E+00 -0.00000000000E+00 -0.16436492859E+03  0.16436492859E+03  0.00000000000E+00 0.  1.
         36    2    1    2    0    0  0.00000000000E+00  0.00000000000E+00 -0.49133607893E+02  0.27959624929E+03  0.27524525644E+03 0.  0.
         25    2    3    3    0    0  0.15378313846E+02  0.35388516639E+02  0.17307432021E+02  0.13288047763E+03  0.12597156221E+03 0.  0.
         25    2    3    3    0    0 -0.15378313846E+02 -0.35388516639E+02 -0.66441039915E+02  0.14671577166E+03  0.12498906441E+03 0.  0.
          5    1    4    4  502    0 -0.35417821414E+02  0.48530185407E+02  0.43233543629E+02  0.74167582299E+02  0.47000000000E+01 0. -1.
         -5    1    4    4    0  502  0.50796135260E+02 -0.13141668768E+02 -0.25926111608E+02  0.58712895334E+02  0.47000000000E+01 0. -1.
          5    1    5    5  503    0 -0.54824919590E+02  0.64862823270E+01  0.41128855012E+01  0.55559423086E+02  0.47000000000E+01 0.  1.
         -5    1    5    5    0  503  0.39446605745E+02 -0.41874798966E+02 -0.70553925416E+02  0.91156348571E+02  0.47000000000E+01 0.  1.
<mgrwt>
<rscale>  0 0.27524526E+03</rscale>
<asrwt>0</asrwt>
<pdfrwt beam="1">  1        2 0.25286912E-01 0.27524526E+03</pdfrwt>
<pdfrwt beam="2">  1       -2 0.17727895E-01 0.27524526E+03</pdfrwt>
<totfact> 0.54486073E+03</totfact>
</mgrwt>
</event>
<event>
 9    1  0.2024718E-002  0.2745226E+03  0.7818608E-02  0.1098719E+00
         -1   -1    0    0    0  501 -0.00000000000E+00  0.00000000000E+00  0.46892687040E+01  0.46892687040E+01  0.00000000000E+00 0. -1.
          1   -1    0    0  501    0  0.00000000000E+00 -0.00000000000E+00 -0.40178257780E+04  0.40178257780E+04  0.00000000000E+00 0. -1.
         36    2    1    2    0    0 -0.71054273576E-14 -0.57731597281E-14 -0.40131365093E+04  0.40225150467E+04  0.27452260147E+03 0.  0.
         25    2    3    3    0    0 -0.32804760279E+02 -0.34595927831E+01 -0.15082530584E+04  0.15141585959E+04  0.12946367882E+03 0.  0.
         25    2    3    3    0    0  0.32804760279E+02  0.34595927831E+01 -0.25048834509E+04  0.25083564508E+04  0.12776095213E+03 0.  0.
          5    1    4    4  502    0 -0.81183324366E+02 -0.23440361742E+01 -0.76399161202E+03  0.76831080944E+03  0.47000000000E+01 0. -1.
         -5    1    4    4    0  502  0.48378564087E+02 -0.11155566090E+01 -0.74426144640E+03  0.74584778643E+03  0.47000000000E+01 0. -1.
          5    1    5    5  503    0  0.38183980756E+02  0.45607707471E+02 -0.21613409398E+04  0.21621643849E+04  0.47000000000E+01 0. -1.
         -5    1    5    5    0  503 -0.53792204766E+01 -0.42148114688E+02 -0.34354251112E+03  0.34619206595E+03  0.47000000000E+01 0. -1.
<mgrwt>
<rscale>  0 0.27452260E+03</rscale>
<asrwt>0</asrwt>
<pdfrwt beam="1">  1        1 0.61812632E+00 0.27452260E+03</pdfrwt>
<pdfrwt beam="2">  1       -1 0.72142680E-03 0.27452260E+03</pdfrwt>
<totfact> 0.36532142E+02</totfact>
</mgrwt>
</event>
<event>
 9    1  0.2024718E-002  0.2750722E+03  0.7818608E-02  0.1098411E+00
         -1   -1    0    0    0  501 -0.00000000000E+00  0.00000000000E+00  0.22841141782E+02  0.22841141782E+02  0.00000000000E+00 0.  1.
          1   -1    0    0  501    0  0.00000000000E+00 -0.00000000000E+00 -0.82816284236E+03  0.82816284236E+03  0.00000000000E+00 0.  1.
         36    2    1    2    0    0  0.17763568394E-14 -0.53290705182E-14 -0.80532170058E+03  0.85100398415E+03  0.27507224434E+03 0.  0.
         25    2    3    3    0    0 -0.62097326560E+01 -0.97699444052E+01 -0.24138255561E+03  0.27393785144E+03  0.12900540960E+03 0.  0.
         25    2    3    3    0    0  0.62097326560E+01  0.97699444052E+01 -0.56393914497E+03  0.57706613270E+03  0.12183574883E+03 0.  0.
          5    1    4    4  502    0 -0.63044201098E+02 -0.33470462811E+01 -0.76184057393E+02  0.99054907055E+02  0.47000000000E+01 0.  1.
         -5    1    4    4    0  502  0.56834468442E+02 -0.64228981241E+01 -0.16519849822E+03  0.17488294439E+03  0.47000000000E+01 0.  1.
          5    1    5    5  503    0 -0.14817761981E+02 -0.32591306033E+02 -0.54264302819E+02  0.65180241328E+02  0.47000000000E+01 0. -1.
         -5    1    5    5    0  503  0.21027494637E+02  0.42361250439E+02 -0.50967484215E+03  0.51188589138E+03  0.47000000000E+01 0. -1.
<mgrwt>
<rscale>  0 0.27507224E+03</rscale>
<asrwt>0</asrwt>
<pdfrwt beam="1">  1        1 0.12740966E+00 0.27507224E+03</pdfrwt>
<pdfrwt beam="2">  1       -1 0.35140220E-02 0.27507224E+03</pdfrwt>
<totfact> 0.65001849E+03</totfact>
</mgrwt>
</event>
<event>
 9    1  0.2024718E-002  0.2734039E+03  0.7818608E-02  0.1099347E+00
          2   -1    0    0  501    0  0.00000000000E+00  0.00000000000E+00  0.27048303626E+03  0.27048303626E+03  0.00000000000E+00 0.  1.
         -2   -1    0    0    0  501 -0.00000000000E+00 -0.00000000000E+00 -0.69089083830E+02  0.69089083830E+02  0.00000000000E+00 0.  1.
         36    2    1    2    0    0  0.35527136788E-14 -0.14210854715E-13  0.20139395243E+03  0.33957212010E+03  0.27340391487E+03 0.  0.
         25    2    3    3    0    0  0.16124785404E+02 -0.41944739779E+02  0.71613753600E+02  0.15432533353E+03  0.12910619258E+03 0.  0.
         25    2    3    3    0    0 -0.16124785404E+02  0.41944739779E+02  0.12978019883E+03  0.18524678657E+03  0.12431452862E+03 0.  0.
          5    1    4    4  502    0  0.30812871859E+02 -0.67607031932E+02 -0.24005414561E+01  0.74484873889E+02  0.47000000000E+01 0.  1.
         -5    1    4    4    0  502 -0.14688086455E+02  0.25662292153E+02  0.74014295056E+02  0.79840459637E+02  0.47000000000E+01 0.  1.
          5    1    5    5  503    0 -0.31688339958E+02 -0.53015947733E+01  0.13130292904E+03  0.13525829723E+03  0.47000000000E+01 0.  1.
         -5    1    5    5    0  503  0.15563554554E+02  0.47246334552E+02 -0.15227302030E+01  0.49988489338E+02  0.47000000000E+01 0.  1.
<mgrwt>
<rscale>  0 0.27340391E+03</rscale>
<asrwt>0</asrwt>
<pdfrwt beam="1">  1        2 0.41612775E-01 0.27340391E+03</pdfrwt>
<pdfrwt beam="2">  1       -2 0.10629090E-01 0.27340391E+03</pdfrwt>
<totfact> 0.73051181E+03</totfact>
</mgrwt>
</event>
<event>
 9    1  0.2024718E-002  0.2751848E+03  0.7818608E-02  0.1098348E+00
          1   -1    0    0  501    0  0.00000000000E+00  0.00000000000E+00  0.12760577179E+04  0.12760577179E+04  0.00000000000E+00 0. -1.
         -1   -1    0    0    0  501 -0.00000000000E+00 -0.00000000000E+00 -0.14836055422E+02  0.14836055422E+02  0.00000000000E+00 0. -1.
         36    2    1    2    0    0  0.35527136788E-14  0.00000000000E+00  0.12612216624E+04  0.12908937733E+04  0.27518475992E+03 0.  0.
         25    2    3    3    0    0 -0.13289805253E+02  0.50042281053E+02  0.75655135920E+03  0.76825408914E+03  0.12314031653E+03 0.  0.
         25    2    3    3    0    0  0.13289805253E+02 -0.50042281053E+02  0.50467030324E+03  0.52263968414E+03  0.12561558683E+03 0.  0.
          5    1    4    4  502    0 -0.45175653105E+00  0.81397580970E+02  0.31504602565E+03  0.32542565749E+03  0.47000000000E+01 0. -1.
         -5    1    4    4    0  502 -0.12838048722E+02 -0.31355299916E+02  0.44150533355E+03  0.44282843165E+03  0.47000000000E+01 0. -1.
          5    1    5    5  503    0 -0.41126168634E+02  0.13230430136E+02  0.94136065379E+02  0.10368266409E+03  0.47000000000E+01 0.  1.
         -5    1    5    5    0  503  0.54415973887E+02 -0.63272711189E+02  0.41053423786E+03  0.41895702005E+03  0.47000000000E+01 0.  1.
<mgrwt>
<rscale>  0 0.27518476E+03</rscale>
<asrwt>0</asrwt>
<pdfrwt beam="1">  1        1 0.19631649E+00 0.27518476E+03</pdfrwt>
<pdfrwt beam="2">  1       -1 0.22824711E-02 0.27518476E+03</pdfrwt>
<totfact> 0.57241545E+03</totfact>
</mgrwt>
</event>
<event>
 9    1  0.2024718E-002  0.2693734E+03  0.7818608E-02  0.1101639E+00
         -3   -1    0    0    0  501 -0.00000000000E+00  0.00000000000E+00  0.86433034440E+02  0.86433034440E+02  0.00000000000E+00 0.  1.
          3   -1    0    0  501    0  0.00000000000E+00 -0.00000000000E+00 -0.20987931539E+03  0.20987931539E+03  0.00000000000E+00 0.  1.
         36    2    1    2    0    0 -0.35527136788E-14  0.00000000000E+00 -0.12344628095E+03  0.29631234983E+03  0.26937339212E+03 0.  0.
         25    2    3    3    0    0  0.13485477896E+02 -0.13216342202E+02 -0.12055047394E+03  0.17601439316E+03  0.12685472012E+03 0.  0.
         25    2    3    3    0    0 -0.13485477896E+02  0.13216342202E+02 -0.28958070030E+01  0.12029795667E+03  0.11877155747E+03 0.  0.
          5    1    4    4  502    0  0.60175908027E+02 -0.27200250605E+02 -0.29179404505E+02  0.72349990927E+02  0.47000000000E+01 0. -1.
         -5    1    4    4    0  502 -0.46690430131E+02  0.13983908404E+02 -0.91371069438E+02  0.10366440223E+03  0.47000000000E+01 0. -1.
          5    1    5    5  503    0 -0.45076735595E+02  0.18691522978E+02 -0.45422270576E+02  0.66832310954E+02  0.47000000000E+01 0. -1.
         -5    1    5    5    0  503  0.31591257699E+02 -0.54751807760E+01  0.42526463573E+02  0.53465645713E+02  0.47000000000E+01 0. -1.
<mgrwt>
<rscale>  0 0.26937339E+03</rscale>
<asrwt>0</asrwt>
<pdfrwt beam="1">  1        3 0.32289125E-01 0.26937339E+03</pdfrwt>
<pdfrwt beam="2">  1       -3 0.13297390E-01 0.26937339E+03</pdfrwt>
<totfact> 0.10835261E+03</totfact>
</mgrwt>
</event>
<event>
 9    1  0.2024718E-002  0.2758545E+03  0.7818608E-02  0.1097975E+00
         -2   -1    0    0    0  501 -0.00000000000E+00  0.00000000000E+00  0.70963838717E+01  0.70963838717E+01  0.00000000000E+00 0. -1.
          2   -1    0    0  501    0  0.00000000000E+00 -0.00000000000E+00 -0.26807924606E+04  0.26807924606E+04  0.00000000000E+00 0. -1.
         36    2    1    2    0    0  0.00000000000E+00  0.00000000000E+00 -0.26736960767E+04  0.26878888444E+04  0.27585454414E+03 0.  0.
         25    2    3    3    0    0 -0.12125035891E+02 -0.45331487871E+02 -0.15790818721E+04  0.15853426558E+04  0.13270198615E+03 0.  0.
         25    2    3    3    0    0  0.12125035891E+02  0.45331487871E+02 -0.10946142045E+04  0.11025461886E+04  0.12339319654E+03 0.  0.
          5    1    4    4  502    0 -0.37141979703E+02 -0.39232892053E+02 -0.15169926128E+04  0.15179616016E+04  0.47000000000E+01 0.  1.
         -5    1    4    4    0  502  0.25016943812E+02 -0.60985958177E+01 -0.62089259332E+02  0.67381054259E+02  0.47000000000E+01 0.  1.
          5    1    5    5  503    0  0.21856887077E+02  0.82615561172E+01 -0.35680974485E+02  0.42909192050E+02  0.47000000000E+01 0.  1.
         -5    1    5    5    0  503 -0.97318511860E+01  0.37069931754E+02 -0.10589332301E+04  0.10596369966E+04  0.47000000000E+01 0.  1.
<mgrwt>
<rscale>  0 0.27585454E+03</rscale>
<asrwt>0</asrwt>
<pdfrwt beam="1">  1        2 0.41242997E+00 0.27585454E+03</pdfrwt>
<pdfrwt beam="2">  1       -2 0.10917504E-02 0.27585454E+03</pdfrwt>
<totfact> 0.59732678E+03</totfact>
</mgrwt>
</event>
<event>
 9    1  0.2024718E-002  0.2750046E+03  0.7818608E-02  0.1098449E+00
         -2   -1    0    0    0  501 -0.00000000000E+00  0.00000000000E+00  0.45468311819E+02  0.45468311819E+02  0.00000000000E+00 0. -1.
          2   -1    0    0  501    0  0.00000000000E+00 -0.00000000000E+00 -0.41582537702E+03  0.41582537702E+03  0.00000000000E+00 0. -1.
         36    2    1    2    0    0  0.00000000000E+00  0.00000000000E+00 -0.37035706520E+03  0.46129368884E+03  0.27500456654E+03 0.  0.
         25    2    3    3    0    0 -0.14498229628E+02  0.52164602096E+02 -0.20259241623E+03  0.24819808726E+03  0.13276768820E+03 0.  0.
         25    2    3    3    0    0  0.14498229628E+02 -0.52164602096E+02 -0.16776464897E+03  0.21309560158E+03  0.11972223517E+03 0.  0.
          5    1    4    4  502    0 -0.50819786901E+01 -0.31098498315E+02 -0.33915258003E+01  0.32039593507E+02  0.47000000000E+01 0.  1.
         -5    1    4    4    0  502 -0.94162509380E+01  0.83263100411E+02 -0.19920089043E+03  0.21615849375E+03  0.47000000000E+01 0.  1.
          5    1    5    5  503    0  0.10298540821E+02 -0.68146279304E+02 -0.31796788226E+02  0.76046703199E+02  0.47000000000E+01 0. -1.
         -5    1    5    5    0  503  0.41996888075E+01  0.15981677208E+02 -0.13596786074E+03  0.13704889838E+03  0.47000000000E+01 0. -1.
<mgrwt>
<rscale>  0 0.27500457E+03</rscale>
<asrwt>0</asrwt>
<pdfrwt beam="1">  1        2 0.63973134E-01 0.27500457E+03</pdfrwt>
<pdfrwt beam="2">  1       -2 0.69951250E-02 0.27500457E+03</pdfrwt>
<totfact> 0.88650274E+03</totfact>
</mgrwt>
</event>
<event>
 9    1  0.2024718E-002  0.2754988E+03  0.7818608E-02  0.1098173E+00
         -1   -1    0    0    0  501 -0.00000000000E+00  0.00000000000E+00  0.37701506587E+03  0.37701506587E+03  0.00000000000E+00 0. -1.
          1   -1    0    0  501    0  0.00000000000E+00 -0.00000000000E+00 -0.50329298055E+02  0.50329298055E+02  0.00000000000E+00 0. -1.
         36    2    1    2    0    0  0.00000000000E+00  0.00000000000E+00  0.32668576781E+03  0.42734436392E+03  0.27549884661E+03 0.  0.
         25    2    3    3    0    0 -0.44675577903E+02  0.17326345328E+02  0.12148344914E+03  0.18127825098E+03  0.12572774698E+03 0.  0.
         25    2    3    3    0    0  0.44675577903E+02 -0.17326345328E+02  0.20520231867E+03  0.24606611294E+03  0.12706073684E+03 0.  0.
          5    1    4    4  502    0 -0.69199360580E+02  0.25736030029E+02  0.20291070057E+02  0.76711878288E+02  0.47000000000E+01 0.  1.
         -5    1    4    4    0  502  0.24523782678E+02 -0.84096847007E+01  0.10119237909E+03  0.10456637269E+03  0.47000000000E+01 0.  1.
          5    1    5    5  503    0  0.47357091157E+02 -0.59868830819E+02  0.18175367948E+03  0.19718889673E+03  0.47000000000E+01 0. -1.
         -5    1    5    5    0  503 -0.26815132546E+01  0.42542485490E+02  0.23448639185E+02  0.48877216212E+02  0.47000000000E+01 0. -1.
<mgrwt>
<rscale>  0 0.27549885E+03</rscale>
<asrwt>0</asrwt>
<pdfrwt beam="1">  1        1 0.77429691E-02 0.27549885E+03</pdfrwt>
<pdfrwt beam="2">  1       -1 0.58002316E-01 0.27549885E+03</pdfrwt>
<totfact> 0.28123683E+03</totfact>
</mgrwt>
</event>
<event>
 9    1  0.2024718E-002  0.2747258E+03  0.7818608E-02  0.1098605E+00
         -1   -1    0    0    0  501 -0.00000000000E+00  0.00000000000E+00  0.15282429892E+03  0.15282429892E+03  0.00000000000E+00 0. -1.
          1   -1    0    0  501    0  0.00000000000E+00 -0.00000000000E+00 -0.12346574663E+03  0.12346574663E+03  0.00000000000E+00 0. -1.
         36    2    1    2    0    0  0.00000000000E+00 -0.71054273576E-14  0.29358552296E+02  0.27629004555E+03  0.27472579907E+03 0.  0.
         25    2    3    3    0    0 -0.49882953133E+02 -0.31253894909E+02  0.11620999954E+02  0.13777794915E+03  0.12402661276E+03 0.  0.
         25    2    3    3    0    0  0.49882953133E+02  0.31253894909E+02  0.17737552342E+02  0.13851209639E+03  0.12412036547E+03 0.  0.
          5    1    4    4  502    0  0.29441140787E+02  0.19098512462E+02 -0.17235061038E+02  0.39378563687E+02  0.47000000000E+01 0.  1.
         -5    1    4    4    0  502 -0.79324093921E+02 -0.50352407371E+02  0.28856060991E+02  0.98399385467E+02  0.47000000000E+01 0.  1.
          5    1    5    5  503    0 -0.62796630861E+01 -0.43023360793E+02  0.10611677154E+02  0.45001571466E+02  0.47000000000E+01 0. -1.
         -5    1    5    5    0  503  0.56162616219E+02  0.74277255702E+02  0.71258751880E+01  0.93510524928E+02  0.47000000000E+01 0. -1.
<mgrwt>
<rscale>  0 0.27472580E+03</rscale>
<asrwt>0</asrwt>
<pdfrwt beam="1">  1        1 0.18994730E-01 0.27472580E+03</pdfrwt>
<pdfrwt beam="2">  1       -1 0.23511431E-01 0.27472580E+03</pdfrwt>
<totfact> 0.41886475E+03</totfact>
</mgrwt>
</event>
<event>
 9    1  0.2024718E-002  0.2641373E+03  0.7818608E-02  0.1104683E+00
          1   -1    0    0  501    0  0.00000000000E+00  0.00000000000E+00  0.72064886833E+03  0.72064886833E+03  0.00000000000E+00 0. -1.
         -1   -1    0    0    0  501 -0.00000000000E+00 -0.00000000000E+00 -0.24203369784E+02  0.24203369784E+02  0.00000000000E+00 0. -1.
         36    2    1    2    0    0  0.71054273576E-14  0.00000000000E+00  0.69644549855E+03  0.74485223812E+03  0.26413732069E+03 0.  0.
         25    2    3    3    0    0  0.40914353919E+02 -0.23227634427E+02  0.30362592531E+03  0.32861871464E+03  0.11656779029E+03 0.  0.
         25    2    3    3    0    0 -0.40914353919E+02  0.23227634427E+02  0.39281957324E+03  0.41623352347E+03  0.12934303843E+03 0.  0.
          5    1    4    4  502    0  0.67361784429E+02  0.23640368874E+02  0.18063088047E+03  0.19428350939E+03  0.47000000000E+01 0.  1.
         -5    1    4    4    0  502 -0.26447430510E+02 -0.46868003301E+02  0.12299504484E+03  0.13433520525E+03  0.47000000000E+01 0.  1.
          5    1    5    5  503    0 -0.37336099658E+02 -0.50843024765E+02  0.18745137803E+03  0.19783605998E+03  0.47000000000E+01 0.  1.
         -5    1    5    5    0  503 -0.35782542605E+01  0.74070659192E+02  0.20536819521E+03  0.21839746349E+03  0.47000000000E+01 0.  1.
<mgrwt>
<rscale>  0 0.26413732E+03</rscale>
<asrwt>0</asrwt>
<pdfrwt beam="1">  1        1 0.11086904E+00 0.26413732E+03</pdfrwt>
<pdfrwt beam="2">  1       -1 0.37235959E-02 0.26413732E+03</pdfrwt>
<totfact> 0.73577816E+03</totfact>
</mgrwt>
</event>
<event>
 9    1  0.2024718E-002  0.2742221E+03  0.7818608E-02  0.1098887E+00
         -2   -1    0    0    0  501 -0.00000000000E+00  0.00000000000E+00  0.26831929275E+03  0.26831929275E+03  0.00000000000E+00 0.  1.
          2   -1    0    0  501    0  0.00000000000E+00 -0.00000000000E+00 -0.70063689691E+02  0.70063689691E+02  0.00000000000E+00 0.  1.
         36    2    1    2    0    0 -0.14210854715E-13  0.00000000000E+00  0.19825560306E+03  0.33838298244E+03  0.27422209732E+03 0.  0.
         25    2    3    3    0    0  0.66445805328E+02 -0.10808641506E+02  0.14526481845E+03  0.20325832682E+03  0.12522063795E+03 0.  0.
         25    2    3    3    0    0 -0.66445805328E+02  0.10808641506E+02  0.52990784613E+02  0.13512465562E+03  0.10449295443E+03 0.  0.
          5    1    4    4  502    0  0.36630720618E+02 -0.42105520609E+02  0.14942817101E+03  0.15957929956E+03  0.47000000000E+01 0. -1.
         -5    1    4    4    0  502  0.29815084710E+02  0.31296879103E+02 -0.41633525598E+01  0.43679027260E+02  0.47000000000E+01 0. -1.
          5    1    5    5  503    0  0.11326411638E+02 -0.31427321860E+02  0.25645837451E+02  0.42376445562E+02  0.47000000000E+01 0.  1.
         -5    1    5    5    0  503 -0.77772216967E+02  0.42235963366E+02  0.27344947162E+02  0.92748210056E+02  0.47000000000E+01 0.  1.
<mgrwt>
<rscale>  0 0.27422210E+03</rscale>
<asrwt>0</asrwt>
<pdfrwt beam="1">  1        2 0.10779029E-01 0.27422210E+03</pdfrwt>
<pdfrwt beam="2">  1       -2 0.41279891E-01 0.27422210E+03</pdfrwt>
<totfact> 0.32564658E+03</totfact>
</mgrwt>
</event>
<event>
 9    1  0.2024718E-002  0.2758853E+03  0.7818608E-02  0.1097958E+00
         -2   -1    0    0    0  501 -0.00000000000E+00  0.00000000000E+00  0.50510898959E+03  0.50510898959E+03  0.00000000000E+00 0.  1.
          2   -1    0    0  501    0  0.00000000000E+00 -0.00000000000E+00 -0.37671411427E+02  0.37671411427E+02  0.00000000000E+00 0.  1.
         36    2    1    2    0    0  0.00000000000E+00 -0.71054273576E-14  0.46743757817E+03  0.54278040102E+03  0.27588525558E+03 0.  0.
         25    2    3    3    0    0  0.33834743344E+02  0.47483282542E+02  0.18772122716E+03  0.22799686173E+03  0.11551561735E+03 0.  0.
         25    2    3    3    0    0 -0.33834743344E+02 -0.47483282542E+02  0.27971635101E+03  0.31478353929E+03  0.13209083092E+03 0.  0.
          5    1    4    4  502    0  0.74098011191E+02  0.24667116447E+02  0.86707341832E+02  0.11678713552E+03  0.47000000000E+01 0. -1.
         -5    1    4    4    0  502 -0.40263267847E+02  0.22816166096E+02  0.10101388533E+03  0.11120972620E+03  0.47000000000E+01 0. -1.
          5    1    5    5  503    0 -0.60949529174E+02 -0.11487936701E+02  0.25637994571E+03  0.26381733142E+03  0.47000000000E+01 0.  1.
         -5    1    5    5    0  503  0.27114785830E+02 -0.35995345841E+02  0.23336405299E+02  0.50966207875E+02  0.47000000000E+01 0.  1.
<mgrwt>
<rscale>  0 0.27588526E+03</rscale>
<asrwt>0</asrwt>
<pdfrwt beam="1">  1        2 0.57956021E-02 0.27588526E+03</pdfrwt>
<pdfrwt beam="2">  1       -2 0.77709071E-01 0.27588526E+03</pdfrwt>
<totfact> 0.19604889E+03</totfact>
</mgrwt>
</event>
<event>
 9    1  0.2024718E-002  0.2745385E+03  0.7818608E-02  0.1098710E+00
         -2   -1    0    0    0  501 -0.00000000000E+00  0.00000000000E+00  0.78108249933E+02  0.78108249933E+02  0.00000000000E+00 0. -1.
          2   -1    0    0  501    0  0.00000000000E+00 -0.00000000000E+00 -0.24124016119E+03  0.24124016119E+03  0.00000000000E+00 0. -1.
         36    2    1    2    0    0  0.00000000000E+00  0.00000000000E+00 -0.16313191126E+03  0.31934841113E+03  0.27453849861E+03 0.  0.
         25    2    3    3    0    0  0.31651551293E+02 -0.34177382059E+02 -0.12382634917E+03  0.17971522681E+03  0.12163339941E+03 0.  0.
         25    2    3    3    0    0 -0.31651551293E+02  0.34177382059E+02 -0.39305562087E+02  0.13963318432E+03  0.12562875789E+03 0.  0.
          5    1    4    4  502    0 -0.25422956166E+02  0.25522139208E+02 -0.75806624140E+02  0.84062123179E+02  0.47000000000E+01 0. -1.
         -5    1    4    4    0  502  0.57074507459E+02 -0.59699521266E+02 -0.48019725033E+02  0.95653103626E+02  0.47000000000E+01 0. -1.
          5    1    5    5  503    0 -0.24604044051E+02 -0.12872625201E+02  0.38869026946E+02  0.47999528320E+02  0.47000000000E+01 0. -1.
         -5    1    5    5    0  503 -0.70475072420E+01  0.47050007259E+02 -0.78174589033E+02  0.91633656000E+02  0.47000000000E+01 0. -1.
<mgrwt>
<rscale>  0 0.27453850E+03</rscale>
<asrwt>0</asrwt>
<pdfrwt beam="1">  1        2 0.37113871E-01 0.27453850E+03</pdfrwt>
<pdfrwt beam="2">  1       -2 0.12016654E-01 0.27453850E+03</pdfrwt>
<totfact> 0.67880445E+03</totfact>
</mgrwt>
</event>
<event>
 9    1  0.2024718E-002  0.2750885E+03  0.7818608E-02  0.1098402E+00
         -3   -1    0    0    0  501 -0.00000000000E+00  0.00000000000E+00  0.15918519537E+03  0.15918519537E+03  0.00000000000E+00 0.  1.
          3   -1    0    0  501    0  0.00000000000E+00 -0.00000000000E+00 -0.11884538512E+03  0.11884538512E+03  0.00000000000E+00 0.  1.
         36    2    1    2    0    0  0.35527136788E-14  0.71054273576E-14  0.40339810252E+02  0.27803058048E+03  0.27508853737E+03 0.  0.
         25    2    3    3    0    0  0.91127989389E+01  0.55687763192E+02  0.23759403597E+02  0.13968183972E+03  0.12554814620E+03 0.  0.
         25    2    3    3    0    0 -0.91127989389E+01 -0.55687763192E+02  0.16580406655E+02  0.13834874077E+03  0.12522497400E+03 0.  0.
          5    1    4    4  502    0 -0.42577135197E+02  0.71482745174E+02  0.16373997566E+02  0.84928164324E+02  0.47000000000E+01 0. -1.
         -5    1    4    4    0  502  0.51689934136E+02 -0.15794981982E+02  0.73854060308E+01  0.54753675393E+02  0.47000000000E+01 0. -1.
          5    1    5    5  503    0 -0.40205689082E+02 -0.11578309745E+02 -0.41366806329E+02  0.59024209923E+02  0.47000000000E+01 0.  1.
         -5    1    5    5    0  503  0.31092890143E+02 -0.44109453447E+02  0.57947212984E+02  0.79324530843E+02  0.47000000000E+01 0.  1.
<mgrwt>
<rscale>  0 0.27508854E+03</rscale>
<asrwt>0</asrwt>
<pdfrwt beam="1">  1        3 0.18283905E-01 0.27508854E+03</pdfrwt>
<pdfrwt beam="2">  1       -3 0.24490030E-01 0.27508854E+03</pdfrwt>
<totfact> 0.10432243E+03</totfact>
</mgrwt>
</event>
<event>
 9    1  0.2024718E-002  0.2728233E+03  0.7818608E-02  0.1099675E+00
          2   -1    0    0  501    0  0.00000000000E+00  0.00000000000E+00  0.27411863352E+04  0.27411863352E+04  0.00000000000E+00 0. -1.
         -2   -1    0    0    0  501 -0.00000000000E+00 -0.00000000000E+00 -0.67883524111E+01  0.67883524111E+01  0.00000000000E+00 0. -1.
         36    2    1    2    0    0  0.00000000000E+00 -0.35527136788E-14  0.27343979828E+04  0.27479746877E+04  0.27282330449E+03 0.  0.
         25    2    3    3    0    0  0.32759410919E+02 -0.99001288288E+01  0.17725672126E+04  0.17773089223E+04  0.12514507795E+03 0.  0.
         25    2    3    3    0    0 -0.32759410919E+02  0.99001288288E+01  0.96183077023E+03  0.97066576536E+03  0.12610474186E+03 0.  0.
          5    1    4    4  502    0  0.69051707907E+02 -0.42083950771E+02  0.10998497077E+04  0.11028284848E+04  0.47000000000E+01 0. -1.
         -5    1    4    4    0  502 -0.36292296989E+02  0.32183821942E+02  0.67271750491E+03  0.67448043754E+03  0.47000000000E+01 0. -1.
          5    1    5    5  503    0  0.36393239233E+02 -0.25448610742E+02  0.53029491157E+03  0.53217185466E+03  0.47000000000E+01 0. -1.
         -5    1    5    5    0  503 -0.69152650151E+02  0.35348739570E+02  0.43153585866E+03  0.43849391070E+03  0.47000000000E+01 0. -1.
<mgrwt>
<rscale>  0 0.27282330E+03</rscale>
<asrwt>0</asrwt>
<pdfrwt beam="1">  1        2 0.42172009E+00 0.27282330E+03</pdfrwt>
<pdfrwt beam="2">  1       -2 0.10443641E-02 0.27282330E+03</pdfrwt>
<totfact> 0.58914573E+03</totfact>
</mgrwt>
</event>
<event>
 9    1  0.2024718E-002  0.2742609E+03  0.7818608E-02  0.1098865E+00
         -1   -1    0    0    0  501 -0.00000000000E+00  0.00000000000E+00  0.23274203469E+02  0.23274203469E+02  0.00000000000E+00 0. -1.
          1   -1    0    0  501    0  0.00000000000E+00 -0.00000000000E+00 -0.80796559558E+03  0.80796559558E+03  0.00000000000E+00 0. -1.
         36    2    1    2    0    0  0.71054273576E-14  0.00000000000E+00 -0.78469139211E+03  0.83123979905E+03  0.27426086610E+03 0.  0.
         25    2    3    3    0    0 -0.48856773181E+02 -0.24466499835E+02 -0.43062250831E+03  0.45142068478E+03  0.12393262721E+03 0.  0.
         25    2    3    3    0    0  0.48856773181E+02  0.24466499835E+02 -0.35406888381E+03  0.37981911427E+03  0.12614353406E+03 0.  0.
          5    1    4    4  502    0 -0.14665720648E+02  0.49559924855E+02 -0.13216980315E+03  0.14199371950E+03  0.47000000000E+01 0.  1.
         -5    1    4    4    0  502 -0.34191052533E+02 -0.74026424690E+02 -0.29845270516E+03  0.30942696528E+03  0.47000000000E+01 0.  1.
          5    1    5    5  503    0 -0.32530088031E+02 -0.25655606595E+02 -0.11332062841E+03  0.12074796728E+03  0.47000000000E+01 0.  1.
         -5    1    5    5    0  503  0.81386861212E+02  0.50122106430E+02 -0.24074825539E+03  0.25907114700E+03  0.47000000000E+01 0.  1.
<mgrwt>
<rscale>  0 0.27426087E+03</rscale>
<asrwt>0</asrwt>
<pdfrwt beam="1">  1        1 0.12430238E+00 0.27426087E+03</pdfrwt>
<pdfrwt beam="2">  1       -1 0.35806472E-02 0.27426087E+03</pdfrwt>
<totfact> 0.65687320E+03</totfact>
</mgrwt>
</event>
<event>
 9    1  0.2024718E-002  0.2793996E+03  0.7818608E-02  0.1096017E+00
         -1   -1    0    0    0  501 -0.00000000000E+00  0.00000000000E+00  0.30722281090E+02  0.30722281090E+02  0.00000000000E+00 0. -1.
          1   -1    0    0  501    0  0.00000000000E+00 -0.00000000000E+00 -0.63524038500E+03  0.63524038500E+03  0.00000000000E+00 0. -1.
         36    2    1    2    0    0  0.14210854715E-13  0.00000000000E+00 -0.60451810391E+03  0.66596266609E+03  0.27939959676E+03 0.  0.
         25    2    3    3    0    0 -0.38525562811E+02  0.43074624169E+02 -0.21833573281E+03  0.25677548924E+03  0.12216184926E+03 0.  0.
         25    2    3    3    0    0  0.38525562811E+02 -0.43074624169E+02 -0.38618237111E+03  0.40918717686E+03  0.12230159325E+03 0.  0.
          5    1    4    4  502    0  0.26275072307E+02  0.61973539270E+02 -0.10923765060E+03  0.12839802687E+03  0.47000000000E+01 0. -1.
         -5    1    4    4    0  502 -0.64800635118E+02 -0.18898915101E+02 -0.10909808221E+03  0.12837746237E+03  0.47000000000E+01 0. -1.
          5    1    5    5  503    0  0.12566188914E+01 -0.74485934110E+02 -0.14501228462E+03  0.16309624815E+03  0.47000000000E+01 0.  1.
         -5    1    5    5    0  503  0.37268943920E+02  0.31411309941E+02 -0.24117008649E+03  0.24609092870E+03  0.47000000000E+01 0.  1.
<mgrwt>
<rscale>  0 0.27939960E+03</rscale>
<asrwt>0</asrwt>
<pdfrwt beam="1">  1        1 0.97729300E-01 0.27939960E+03</pdfrwt>
<pdfrwt beam="2">  1       -1 0.47265043E-02 0.27939960E+03</pdfrwt>
<totfact> 0.61976640E+03</totfact>
</mgrwt>
</event>
<event>
 9    1  0.2024718E-002  0.2754834E+03  0.7818608E-02  0.1098182E+00
          2   -1    0    0  501    0  0.00000000000E+00  0.00000000000E+00  0.80120019231E+03  0.80120019231E+03  0.00000000000E+00 0.  1.
         -2   -1    0    0    0  501 -0.00000000000E+00 -0.00000000000E+00 -0.23680435049E+02  0.23680435049E+02  0.00000000000E+00 0.  1.
         36    2    1    2    0    0  0.00000000000E+00  0.00000000000E+00  0.77751975726E+03  0.82488062736E+03  0.27548335061E+03 0.  0.
         25    2    3    3    0    0 -0.18811112350E+02  0.24024865584E+02  0.25489171422E+03  0.28649543809E+03  0.12719590383E+03 0.  0.
         25    2    3    3    0    0  0.18811112350E+02 -0.24024865584E+02  0.52262804304E+03  0.53838518928E+03  0.12564827315E+03 0.  0.
          5    1    4    4  502    0  0.42107051331E+02  0.41954685745E+02  0.17152070870E+03  0.18158921482E+03  0.47000000000E+01 0. -1.
         -5    1    4    4    0  502 -0.60918163680E+02 -0.17929820161E+02  0.83371005524E+02  0.10490622326E+03  0.47000000000E+01 0. -1.
          5    1    5    5  503    0 -0.49213315936E+02 -0.21384287482E+02  0.14586461532E+03  0.15549216771E+03  0.47000000000E+01 0.  1.
         -5    1    5    5    0  503  0.68024428285E+02 -0.26405781018E+01  0.37676342772E+03  0.38289302157E+03  0.47000000000E+01 0.  1.
<mgrwt>
<rscale>  0 0.27548335E+03</rscale>
<asrwt>0</asrwt>
<pdfrwt beam="1">  1        2 0.12326155E+00 0.27548335E+03</pdfrwt>
<pdfrwt beam="2">  1       -2 0.36431445E-02 0.27548335E+03</pdfrwt>
<totfact> 0.11167723E+04</totfact>
</mgrwt>
</event>
<event>
 9    1  0.2024718E-002  0.2747016E+03  0.7818608E-02  0.1098619E+00
          1   -1    0    0  501    0  0.00000000000E+00  0.00000000000E+00  0.11463075847E+04  0.11463075847E+04  0.00000000000E+00 0.  1.
         -1   -1    0    0    0  501 -0.00000000000E+00 -0.00000000000E+00 -0.16457393910E+02  0.16457393910E+02  0.00000000000E+00 0.  1.
         36    2    1    2    0    0 -0.71054273576E-14  0.35527136788E-14  0.11298501908E+04  0.11627649786E+04  0.27470155052E+03 0.  0.
         25    2    3    3    0    0 -0.42107624943E+02  0.93261628522E+01  0.69603183517E+03  0.70834576308E+03  0.12423113580E+03 0.  0.
         25    2    3    3    0    0  0.42107624943E+02 -0.93261628522E+01  0.43381835565E+03  0.45441921556E+03  0.12821243460E+03 0.  0.
          5    1    4    4  502    0 -0.65448976155E+02  0.20555441252E+02  0.19765561384E+03  0.20927476276E+03  0.47000000000E+01 0.  1.
         -5    1    4    4    0  502  0.23341351212E+02 -0.11229278400E+02  0.49837622133E+03  0.49907100032E+03  0.47000000000E+01 0.  1.
          5    1    5    5  503    0  0.19184267893E+02 -0.49173694456E+02  0.70611677007E+02  0.88284694544E+02  0.47000000000E+01 0. -1.
         -5    1    5    5    0  503  0.22923357050E+02  0.39847531604E+02  0.36320667864E+03  0.36613452102E+03  0.47000000000E+01 0. -1.
<mgrwt>
<rscale>  0 0.27470155E+03</rscale>
<asrwt>0</asrwt>
<pdfrwt beam="1">  1        1 0.17635495E+00 0.27470155E+03</pdfrwt>
<pdfrwt beam="2">  1       -1 0.25319077E-02 0.27470155E+03</pdfrwt>
<totfact> 0.60555768E+03</totfact>
</mgrwt>
</event>
<event>
 9    1  0.2024718E-002  0.2741927E+03  0.7818608E-02  0.1098904E+00
          1   -1    0    0  501    0  0.00000000000E+00  0.00000000000E+00  0.35575289377E+02  0.35575289377E+02  0.00000000000E+00 0.  1.
         -1   -1    0    0    0  501 -0.00000000000E+00 -0.00000000000E+00 -0.52832768277E+03  0.52832768277E+03  0.00000000000E+00 0.  1.
         36    2    1    2    0    0  0.35527136788E-14  0.35527136788E-14 -0.49275239340E+03  0.56390297215E+03  0.27419270742E+03 0.  0.
         25    2    3    3    0    0 -0.25698343465E+02 -0.28352367865E+01 -0.12849663977E+03  0.17755107953E+03  0.11976876047E+03 0.  0.
         25    2    3    3    0    0  0.25698343465E+02  0.28352367865E+01 -0.36425575362E+03  0.38635189262E+03  0.12616294012E+03 0.  0.
          5    1    4    4  502    0 -0.58218786982E+01  0.85483632345E+01  0.22260285541E+02  0.24991580541E+02  0.47000000000E+01 0. -1.
         -5    1    4    4    0  502 -0.19876464767E+02 -0.11383600021E+02 -0.15075692531E+03  0.15255949899E+03  0.47000000000E+01 0. -1.
          5    1    5    5  503    0 -0.57702730803E+01 -0.58582115011E+02 -0.18585664122E+03  0.19501266968E+03  0.47000000000E+01 0. -1.
         -5    1    5    5    0  503  0.31468616545E+02  0.61417351798E+02 -0.17839911241E+03  0.19133922294E+03  0.47000000000E+01 0. -1.
<mgrwt>
<rscale>  0 0.27419271E+03</rscale>
<asrwt>0</asrwt>
<pdfrwt beam="1">  1        1 0.54731216E-02 0.27419271E+03</pdfrwt>
<pdfrwt beam="2">  1       -1 0.81281179E-01 0.27419271E+03</pdfrwt>
<totfact> 0.23118150E+03</totfact>
</mgrwt>
</event>
<event>
 9    1  0.2024718E-002  0.2745773E+03  0.7818608E-02  0.1098688E+00
         -2   -1    0    0    0  501 -0.00000000000E+00  0.00000000000E+00  0.32252504595E+02  0.32252504595E+02  0.00000000000E+00 0. -1.
          2   -1    0    0  501    0  0.00000000000E+00 -0.00000000000E+00 -0.58439394213E+03  0.58439394213E+03  0.00000000000E+00 0. -1.
         36    2    1    2    0    0  0.00000000000E+00  0.00000000000E+00 -0.55214143754E+03  0.61664644673E+03  0.27457726275E+03 0.  0.
         25    2    3    3    0    0  0.18423156695E+00 -0.13023894830E+01 -0.40229980190E+03  0.42169949611E+03  0.12642627993E+03 0.  0.
         25    2    3    3    0    0 -0.18423156695E+00  0.13023894830E+01 -0.14984163564E+03  0.19494695062E+03  0.12469991028E+03 0.  0.
          5    1    4    4  502    0 -0.11018042642E+02 -0.46741764396E+02 -0.34118683153E+03  0.34458196965E+03  0.47000000000E+01 0.  1.
         -5    1    4    4    0  502  0.11202274209E+02  0.45439374913E+02 -0.61112970371E+02  0.77117526461E+02  0.47000000000E+01 0.  1.
          5    1    5    5  503    0  0.37705609360E+02 -0.48640818085E+02 -0.78482474112E+02  0.99846035995E+02  0.47000000000E+01 0.  1.
         -5    1    5    5    0  503 -0.37889840927E+02  0.49943207568E+02 -0.71359161529E+02  0.95100914621E+02  0.47000000000E+01 0.  1.
<mgrwt>
<rscale>  0 0.27457726E+03</rscale>
<asrwt>0</asrwt>
<pdfrwt beam="1">  1        2 0.89906755E-01 0.27457726E+03</pdfrwt>
<pdfrwt beam="2">  1       -2 0.49619241E-02 0.27457726E+03</pdfrwt>
<totfact> 0.10257454E+04</totfact>
</mgrwt>
</event>
<event>
 9    1  0.2024718E-002  0.2753945E+03  0.7818608E-02  0.1098231E+00
         -1   -1    0    0    0  501 -0.00000000000E+00  0.00000000000E+00  0.12583306789E+02  0.12583306789E+02  0.00000000000E+00 0.  1.
          1   -1    0    0  501    0  0.00000000000E+00 -0.00000000000E+00 -0.15067999532E+04  0.15067999532E+04  0.00000000000E+00 0.  1.
         36    2    1    2    0    0  0.35527136788E-14  0.71054273576E-14 -0.14942166464E+04  0.15193832600E+04  0.27539445224E+03 0.  0.
         25    2    3    3    0    0 -0.25213434802E+02 -0.47844548938E+02 -0.65211829953E+03  0.66638458745E+03  0.12603699321E+03 0.  0.
         25    2    3    3    0    0  0.25213434802E+02  0.47844548938E+02 -0.84209834691E+03  0.85299867256E+03  0.12470882635E+03 0.  0.
          5    1    4    4  502    0 -0.24214563578E+02 -0.44647236102E+02 -0.84256750556E+02  0.98493709419E+02  0.47000000000E+01 0.  1.
         -5    1    4    4    0  502 -0.99887122374E+00 -0.31973128363E+01 -0.56786154897E+03  0.56789087803E+03  0.47000000000E+01 0.  1.
          5    1    5    5  503    0  0.75776630843E+02  0.33657690978E+02 -0.49491955925E+03  0.50183901609E+03  0.47000000000E+01 0. -1.
         -5    1    5    5    0  503 -0.50563196041E+02  0.14186857959E+02 -0.34717878766E+03  0.35115965647E+03  0.47000000000E+01 0. -1.
<mgrwt>
<rscale>  0 0.27539445E+03</rscale>
<asrwt>0</asrwt>
<pdfrwt beam="1">  1        1 0.23181540E+00 0.27539445E+03</pdfrwt>
<pdfrwt beam="2">  1       -1 0.19358932E-02 0.27539445E+03</pdfrwt>
<totfact> 0.50937040E+03</totfact>
</mgrwt>
</event>
<event>
 9    1  0.2024718E-002  0.2747561E+03  0.7818608E-02  0.1098588E+00
          3   -1    0    0  501    0  0.00000000000E+00  0.00000000000E+00  0.17462549436E+03  0.17462549436E+03  0.00000000000E+00 0.  1.
         -3   -1    0    0    0  501 -0.00000000000E+00 -0.00000000000E+00 -0.10807546557E+03  0.10807546557E+03  0.00000000000E+00 0.  1.
         36    2    1    2    0    0 -0.35527136788E-14  0.00000000000E+00  0.66550028790E+02  0.28270095993E+03  0.27475612170E+03 0.  0.
         25    2    3    3    0    0 -0.18187052317E+02 -0.38823590200E+01  0.78836109413E+02  0.15449150607E+03  0.13155474799E+03 0.  0.
         25    2    3    3    0    0  0.18187052317E+02  0.38823590200E+01 -0.12286080623E+02  0.12820945386E+03  0.12625717682E+03 0.  0.
          5    1    4    4  502    0 -0.61452712740E+02  0.29349231972E+02  0.72153808768E+02  0.99328120087E+02  0.47000000000E+01 0. -1.
         -5    1    4    4    0  502  0.43265660423E+02 -0.33231590992E+02  0.66823006449E+01  0.55163385987E+02  0.47000000000E+01 0. -1.
          5    1    5    5  503    0  0.17863235358E+02  0.55974228801E+02 -0.37791329253E+02  0.70017740852E+02  0.47000000000E+01 0.  1.
         -5    1    5    5    0  503  0.32381695839E+00 -0.52091869781E+02  0.25505248630E+02  0.58191713004E+02  0.47000000000E+01 0.  1.
<mgrwt>
<rscale>  0 0.27475612E+03</rscale>
<asrwt>0</asrwt>
<pdfrwt beam="1">  1        3 0.26865461E-01 0.27475612E+03</pdfrwt>
<pdfrwt beam="2">  1       -3 0.16626995E-01 0.27475612E+03</pdfrwt>
<totfact> 0.10400877E+03</totfact>
</mgrwt>
</event>
<event>
 9    1  0.2024718E-002  0.2758572E+03  0.7818608E-02  0.1097973E+00
          1   -1    0    0  501    0  0.00000000000E+00  0.00000000000E+00  0.26980837764E+02  0.26980837764E+02  0.00000000000E+00 0. -1.
         -1   -1    0    0    0  501 -0.00000000000E+00 -0.00000000000E+00 -0.70510391630E+03  0.70510391630E+03  0.00000000000E+00 0. -1.
         36    2    1    2    0    0  0.14210854715E-13  0.71054273576E-14 -0.67812307853E+03  0.73208475406E+03  0.27585716864E+03 0.  0.
         25    2    3    3    0    0 -0.33976649597E+02 -0.51045563495E+02 -0.31051555691E+03  0.34060553653E+03  0.12582590419E+03 0.  0.
         25    2    3    3    0    0  0.33976649597E+02  0.51045563495E+02 -0.36760752163E+03  0.39147921753E+03  0.11983582741E+03 0.  0.
          5    1    4    4  502    0  0.55631457387E+01  0.23501927480E+02 -0.19984908996E+03  0.20135798455E+03  0.47000000000E+01 0.  1.
         -5    1    4    4    0  502 -0.39539795336E+02 -0.74547490975E+02 -0.11066646695E+03  0.13924755198E+03  0.47000000000E+01 0.  1.
          5    1    5    5  503    0  0.51125331440E+02 -0.58360652812E+01 -0.64883102737E+02  0.82944356008E+02  0.47000000000E+01 0. -1.
         -5    1    5    5    0  503 -0.17148681843E+02  0.56881628776E+02 -0.30272441889E+03  0.30853486152E+03  0.47000000000E+01 0. -1.
<mgrwt>
<rscale>  0 0.27585717E+03</rscale>
<asrwt>0</asrwt>
<pdfrwt beam="1">  1        1 0.41508988E-02 0.27585717E+03</pdfrwt>
<pdfrwt beam="2">  1       -1 0.10847751E+00 0.27585717E+03</pdfrwt>
<totfact> 0.18074073E+03</totfact>
</mgrwt>
</event>
<event>
 9    1  0.2024718E-002  0.2758521E+03  0.7818608E-02  0.1097976E+00
          1   -1    0    0  501    0  0.00000000000E+00  0.00000000000E+00  0.84477244483E+03  0.84477244483E+03  0.00000000000E+00 0. -1.
         -1   -1    0    0    0  501 -0.00000000000E+00 -0.00000000000E+00 -0.22519188001E+02  0.22519188001E+02  0.00000000000E+00 0. -1.
         36    2    1    2    0    0  0.00000000000E+00  0.00000000000E+00  0.82225325683E+03  0.86729163283E+03  0.27585205820E+03 0.  0.
         25    2    3    3    0    0  0.36893933208E+02 -0.50954316417E+02  0.44644283893E+03  0.46813443526E+03  0.12602038081E+03 0.  0.
         25    2    3    3    0    0 -0.36893933208E+02  0.50954316417E+02  0.37581041791E+03  0.39915719757E+03  0.11889278153E+03 0.  0.
          5    1    4    4  502    0  0.15957306262E+02 -0.92440276255E+02  0.28567765636E+03  0.30072188754E+03  0.47000000000E+01 0.  1.
         -5    1    4    4    0  502  0.20936626946E+02  0.41485959838E+02  0.16076518256E+03  0.16741254772E+03  0.47000000000E+01 0.  1.
          5    1    5    5  503    0 -0.14579455318E+02  0.62947012237E+02  0.36583716743E+03  0.37152901628E+03  0.47000000000E+01 0.  1.
         -5    1    5    5    0  503 -0.22314477890E+02 -0.11992695819E+02  0.99732504793E+01  0.27628181294E+02  0.47000000000E+01 0.  1.
<mgrwt>
<rscale>  0 0.27585206E+03</rscale>
<asrwt>0</asrwt>
<pdfrwt beam="1">  1        1 0.12996497E+00 0.27585206E+03</pdfrwt>
<pdfrwt beam="2">  1       -1 0.34644911E-02 0.27585206E+03</pdfrwt>
<totfact> 0.64348576E+03</totfact>
</mgrwt>
</event>
<event>
 9    1  0.2024718E-002  0.2742376E+03  0.7818608E-02  0.1098878E+00
         -1   -1    0    0    0  501 -0.00000000000E+00  0.00000000000E+00  0.83717645635E+02  0.83717645635E+02  0.00000000000E+00 0. -1.
          1   -1    0    0  501    0  0.00000000000E+00 -0.00000000000E+00 -0.22458314309E+03  0.22458314309E+03  0.00000000000E+00 0. -1.
         36    2    1    2    0    0 -0.71054273576E-14 -0.35527136788E-14 -0.14086549745E+03  0.30830078872E+03  0.27423764868E+03 0.  0.
         25    2    3    3    0    0  0.46226462344E+02  0.31892863541E+02 -0.67164385284E+02  0.15307588119E+03  0.12556723372E+03 0.  0.
         25    2    3    3    0    0 -0.46226462344E+02 -0.31892863541E+02 -0.73701112167E+02  0.15522490753E+03  0.12453464345E+03 0.  0.
          5    1    4    4  502    0  0.82149884930E+02  0.49801608159E+02 -0.55347472437E+02  0.11096952949E+03  0.47000000000E+01 0. -1.
         -5    1    4    4    0  502 -0.35923422587E+02 -0.17908744618E+02 -0.11816912847E+02  0.42106351699E+02  0.47000000000E+01 0. -1.
          5    1    5    5  503    0  0.22510445521E+01 -0.16461200783E+02 -0.97390325540E+02  0.98909068551E+02  0.47000000000E+01 0.  1.
         -5    1    5    5    0  503 -0.48477506896E+02 -0.15431662758E+02  0.23689213373E+02  0.56315838984E+02  0.47000000000E+01 0.  1.
<mgrwt>
<rscale>  0 0.27423765E+03</rscale>
<asrwt>0</asrwt>
<pdfrwt beam="1">  1        1 0.34551252E-01 0.27423765E+03</pdfrwt>
<pdfrwt beam="2">  1       -1 0.12879638E-01 0.27423765E+03</pdfrwt>
<totfact> 0.51478007E+03</totfact>
</mgrwt>
</event>
<event>
 9    1  0.2024718E-002  0.2756985E+03  0.7818608E-02  0.1098062E+00
         -2   -1    0    0    0  501 -0.00000000000E+00  0.00000000000E+00  0.10286688702E+02  0.10286688702E+02  0.00000000000E+00 0. -1.
          2   -1    0    0  501    0  0.00000000000E+00 -0.00000000000E+00 -0.18472816950E+04  0.18472816950E+04  0.00000000000E+00 0. -1.
         36    2    1    2    0    0  0.35527136788E-14 -0.71054273576E-14 -0.18369950063E+04  0.18575683837E+04  0.27569847110E+03 0.  0.
         25    2    3    3    0    0  0.20282153677E+02  0.48715962770E+02 -0.94586546256E+03  0.95637120667E+03  0.13114801137E+03 0.  0.
         25    2    3    3    0    0 -0.20282153677E+02 -0.48715962770E+02 -0.89112954378E+03  0.90119717708E+03  0.12353087627E+03 0.  0.
          5    1    4    4  502    0  0.61822196312E+02  0.55421640915E+02 -0.80490164113E+03  0.80918618632E+03  0.47000000000E+01 0. -1.
         -5    1    4    4    0  502 -0.41540042634E+02 -0.67056781443E+01 -0.14096382143E+03  0.14718502034E+03  0.47000000000E+01 0. -1.
          5    1    5    5  503    0  0.22396922458E+02 -0.42585340143E+02 -0.78581916683E+03  0.78730488776E+03  0.47000000000E+01 0.  1.
         -5    1    5    5    0  503 -0.42679076135E+02 -0.61306226277E+01 -0.10531037695E+03  0.11389228932E+03  0.47000000000E+01 0.  1.
<mgrwt>
<rscale>  0 0.27569847E+03</rscale>
<asrwt>0</asrwt>
<pdfrwt beam="1">  1        2 0.28419687E+00 0.27569847E+03</pdfrwt>
<pdfrwt beam="2">  1       -2 0.15825693E-02 0.27569847E+03</pdfrwt>
<totfact> 0.97488770E+03</totfact>
</mgrwt>
</event>
<event>
 8    1  0.2024718E-002  0.3417157E+03  0.7818608E-02  0.1066068E+00
          1   -1    0    0  501    0  0.00000000000E+00  0.00000000000E+00  0.31857251095E+03  0.31857251095E+03  0.00000000000E+00 0. -1.
         -1   -1    0    0    0  501 -0.00000000000E+00 -0.00000000000E+00 -0.91635056948E+02  0.91635056948E+02  0.00000000000E+00 0. -1.
         25    2    1    2    0    0 -0.18666311751E+02  0.11170897568E+03  0.15010777180E+03  0.22560075881E+03  0.12464362310E+03 0.  0.
         25    2    1    2    0    0  0.18666311751E+02 -0.11170897568E+03  0.76829682196E+02  0.18460680908E+03  0.12389329059E+03 0.  0.
          5    1    3    3  502    0  0.21770275461E+02  0.83483295000E+01 -0.13872287481E+02  0.27534884402E+02  0.47000000000E+01 0.  1.
         -5    1    3    3    0  502 -0.40436587212E+02  0.10336064618E+03  0.16398005928E+03  0.19806587441E+03  0.47000000000E+01 0.  1.
          5    1    4    4  503    0 -0.17826509640E+02 -0.37314859560E+02  0.91318280359E+02  0.10035587436E+03  0.47000000000E+01 0. -1.
         -5    1    4    4    0  503  0.36492821391E+02 -0.74394116115E+02 -0.14488598163E+02  0.84250934727E+02  0.47000000000E+01 0. -1.
<mgrwt>
<rscale>  0 0.34171573E+03</rscale>
<asrwt>0</asrwt>
<pdfrwt beam="1">  1        1 0.49011155E-01 0.34171573E+03</pdfrwt>
<pdfrwt beam="2">  1       -1 0.14097701E-01 0.34171573E+03</pdfrwt>
<totfact> 0.28874109E+03</totfact>
</mgrwt>
</event>
<event>
 9    1  0.2024718E-002  0.2753037E+03  0.7818608E-02  0.1098282E+00
          2   -1    0    0  501    0  0.00000000000E+00  0.00000000000E+00  0.44531188890E+03  0.44531188890E+03  0.00000000000E+00 0.  1.
         -2   -1    0    0    0  501 -0.00000000000E+00 -0.00000000000E+00 -0.42550029787E+02  0.42550029787E+02  0.00000000000E+00 0.  1.
         36    2    1    2    0    0  0.71054273576E-14 -0.71054273576E-14  0.40276185911E+03  0.48786191869E+03  0.27530371692E+03 0.  0.
         25    2    3    3    0    0 -0.39752555959E+02 -0.33343060234E+02  0.24868382750E+03  0.28344825881E+03  0.12572686264E+03 0.  0.
         25    2    3    3    0    0  0.39752555959E+02  0.33343060234E+02  0.15407803161E+03  0.20441365988E+03  0.12390673569E+03 0.  0.
          5    1    4    4  502    0 -0.33838214199E+02 -0.75423396100E+02  0.21022234325E+03  0.22594078211E+03  0.47000000000E+01 0. -1.
         -5    1    4    4    0  502 -0.59143417598E+01  0.42080335866E+02  0.38461484256E+02  0.57507476699E+02  0.47000000000E+01 0. -1.
          5    1    5    5  503    0  0.45799289491E+02 -0.39427529671E+02  0.60720292184E+02  0.85797138045E+02  0.47000000000E+01 0. -1.
         -5    1    5    5    0  503 -0.60467335327E+01  0.72770589905E+02  0.93357739427E+02  0.11861652184E+03  0.47000000000E+01 0. -1.
<mgrwt>
<rscale>  0 0.27530372E+03</rscale>
<asrwt>0</asrwt>
<pdfrwt beam="1">  1        2 0.68509518E-01 0.27530372E+03</pdfrwt>
<pdfrwt beam="2">  1       -2 0.65461587E-02 0.27530372E+03</pdfrwt>
<totfact> 0.91124244E+03</totfact>
</mgrwt>
</event>
<event>
 9    1  0.2024718E-002  0.2751852E+03  0.7818608E-02  0.1098348E+00
         -1   -1    0    0    0  501 -0.00000000000E+00  0.00000000000E+00  0.28273135187E+02  0.28273135187E+02  0.00000000000E+00 0.  1.
          1   -1    0    0  501    0  0.00000000000E+00 -0.00000000000E+00 -0.66960138236E+03  0.66960138236E+03  0.00000000000E+00 0.  1.
         36    2    1    2    0    0  0.00000000000E+00 -0.71054273576E-14 -0.64132824717E+03  0.69787451754E+03  0.27518524964E+03 0.  0.
         25    2    3    3    0    0 -0.17407885585E+02 -0.22605898063E+02 -0.34607670766E+03  0.36998140710E+03  0.12768356554E+03 0.  0.
         25    2    3    3    0    0  0.17407885585E+02  0.22605898063E+02 -0.29525153951E+03  0.32789311045E+03  0.13973674959E+03 0.  0.
          5    1    4    4  502    0 -0.49520748914E+02 -0.60572136190E+02 -0.24508969799E+03  0.25731758261E+03  0.47000000000E+01 0.  1.
         -5    1    4    4    0  502  0.32112863328E+02  0.37966238128E+02 -0.10098700966E+03  0.11266382449E+03  0.47000000000E+01 0.  1.
          5    1    5    5  503    0  0.67519711291E+02  0.39677514523E+02 -0.23397651721E+03  0.24677989622E+03  0.47000000000E+01 0. -1.
         -5    1    5    5    0  503 -0.50111825705E+02 -0.17071616460E+02 -0.61275022305E+02  0.81113214229E+02  0.47000000000E+01 0. -1.
<mgrwt>
<rscale>  0 0.27518525E+03</rscale>
<asrwt>0</asrwt>
<pdfrwt beam="1">  1        1 0.10301559E+00 0.27518525E+03</pdfrwt>
<pdfrwt beam="2">  1       -1 0.43497136E-02 0.27518525E+03</pdfrwt>
<totfact> 0.65061891E+03</totfact>
</mgrwt>
</event>
<event>
 9    1  0.2024718E-002  0.2741246E+03  0.7818608E-02  0.1098942E+00
         -1   -1    0    0    0  501 -0.00000000000E+00  0.00000000000E+00  0.12014095193E+03  0.12014095193E+03  0.00000000000E+00 0. -1.
          1   -1    0    0  501    0  0.00000000000E+00 -0.00000000000E+00 -0.15636694964E+03  0.15636694964E+03  0.00000000000E+00 0. -1.
         36    2    1    2    0    0  0.35527136788E-14  0.00000000000E+00 -0.36225997709E+02  0.27650790158E+03  0.27412460073E+03 0.  0.
         25    2    3    3    0    0 -0.18682183011E+02  0.46448240892E+02 -0.41833988427E+02  0.14123700568E+03  0.12526510345E+03 0.  0.
         25    2    3    3    0    0  0.18682183011E+02 -0.46448240892E+02  0.56079907182E+01  0.13527089590E+03  0.12554004410E+03 0.  0.
          5    1    4    4  502    0 -0.14201364310E+02  0.82496694805E+02  0.23120796393E+01  0.83873828542E+02  0.47000000000E+01 0. -1.
         -5    1    4    4    0  502 -0.44808187008E+01 -0.36048453913E+02 -0.44146068066E+02  0.57363177139E+02  0.47000000000E+01 0. -1.
          5    1    5    5  503    0 -0.46217550865E+02  0.19149802824E+01 -0.19468709368E+02  0.50406842808E+02  0.47000000000E+01 0. -1.
         -5    1    5    5    0  503  0.64899733875E+02 -0.48363221174E+02  0.25076700086E+02  0.84864053089E+02  0.47000000000E+01 0. -1.
<mgrwt>
<rscale>  0 0.27412460E+03</rscale>
<asrwt>0</asrwt>
<pdfrwt beam="1">  1        1 0.24056453E-01 0.27412460E+03</pdfrwt>
<pdfrwt beam="2">  1       -1 0.18483224E-01 0.27412460E+03</pdfrwt>
<totfact> 0.45807663E+03</totfact>
</mgrwt>
</event>
<event>
 9    1  0.2024718E-002  0.2749977E+03  0.7818608E-02  0.1098453E+00
          1   -1    0    0  501    0  0.00000000000E+00  0.00000000000E+00  0.76726879401E+03  0.76726879401E+03  0.00000000000E+00 0.  1.
         -1   -1    0    0    0  501 -0.00000000000E+00 -0.00000000000E+00 -0.24640556913E+02  0.24640556913E+02  0.00000000000E+00 0.  1.
         36    2    1    2    0    0  0.00000000000E+00 -0.71054273576E-14  0.74262823710E+03  0.79190935093E+03  0.27499767553E+03 0.  0.
         25    2    3    3    0    0 -0.39944221567E+02  0.37475290113E+02  0.40833067084E+03  0.43086335914E+03  0.12613230871E+03 0.  0.
         25    2    3    3    0    0  0.39944221567E+02 -0.37475290113E+02  0.33429756626E+03  0.36104599178E+03  0.12489758671E+03 0.  0.
          5    1    4    4  502    0 -0.44689255195E+02 -0.91325477415E+01  0.36170471603E+03  0.36459967712E+03  0.47000000000E+01 0.  1.
         -5    1    4    4    0  502  0.47450336282E+01  0.46607837854E+02  0.46625954808E+02  0.66263682024E+02  0.47000000000E+01 0.  1.
          5    1    5    5  503    0  0.62500249355E+02 -0.40024543500E+02  0.95082970548E+02  0.12071083854E+03  0.47000000000E+01 0. -1.
         -5    1    5    5    0  503 -0.22556027789E+02  0.25492533873E+01  0.23921459572E+03  0.24033515325E+03  0.47000000000E+01 0. -1.
<mgrwt>
<rscale>  0 0.27499768E+03</rscale>
<asrwt>0</asrwt>
<pdfrwt beam="1">  1        1 0.11804133E+00 0.27499768E+03</pdfrwt>
<pdfrwt beam="2">  1       -1 0.37908555E-02 0.27499768E+03</pdfrwt>
<totfact> 0.65325899E+03</totfact>
</mgrwt>
</event>
<event>
 9    1  0.2024718E-002  0.2712294E+03  0.7818608E-02  0.1100578E+00
          2   -1    0    0  501    0  0.00000000000E+00  0.00000000000E+00  0.20026049170E+03  0.20026049170E+03  0.00000000000E+00 0.  1.
         -2   -1    0    0    0  501 -0.00000000000E+00 -0.00000000000E+00 -0.91837104768E+02  0.91837104768E+02  0.00000000000E+00 0.  1.
         36    2    1    2    0    0  0.71054273576E-14  0.00000000000E+00  0.10842338693E+03  0.29209759647E+03  0.27122937715E+03 0.  0.
         25    2    3    3    0    0 -0.19505852145E+02 -0.72464040632E+01  0.11211500463E+03  0.16720819949E+03  0.12229398624E+03 0.  0.
         25    2    3    3    0    0  0.19505852145E+02  0.72464040632E+01 -0.36916177016E+01  0.12488939698E+03  0.12308836175E+03 0.  0.
          5    1    4    4  502    0  0.34982743642E+02  0.38814735886E+02  0.50505824748E+02  0.72823790124E+02  0.47000000000E+01 0.  1.
         -5    1    4    4    0  502 -0.54488595787E+02 -0.46061139949E+02  0.61609179886E+02  0.94384409361E+02  0.47000000000E+01 0.  1.
          5    1    5    5  503    0  0.69582841036E+02  0.95241997117E+01 -0.17794089383E+02  0.72603042387E+02  0.47000000000E+01 0. -1.
         -5    1    5    5    0  503 -0.50076988891E+02 -0.22777956484E+01  0.14102471681E+02  0.52286354596E+02  0.47000000000E+01 0. -1.
<mgrwt>
<rscale>  0 0.27122938E+03</rscale>
<asrwt>0</asrwt>
<pdfrwt beam="1">  1        2 0.30809306E-01 0.27122938E+03</pdfrwt>
<pdfrwt beam="2">  1       -2 0.14128785E-01 0.27122938E+03</pdfrwt>
<totfact> 0.63835095E+03</totfact>
</mgrwt>
</event>
<event>
 9    1  0.2024718E-002  0.2746415E+03  0.7818608E-02  0.1098652E+00
          1   -1    0    0  501    0  0.00000000000E+00  0.00000000000E+00  0.33457144321E+04  0.33457144321E+04  0.00000000000E+00 0. -1.
         -1   -1    0    0    0  501 -0.00000000000E+00 -0.00000000000E+00 -0.56361617967E+01  0.56361617967E+01  0.00000000000E+00 0. -1.
         36    2    1    2    0    0  0.00000000000E+00  0.00000000000E+00  0.33400782703E+04  0.33513505939E+04  0.27464149625E+03 0.  0.
         25    2    3    3    0    0  0.33478589510E+02 -0.48634223317E+02  0.16295841124E+04  0.16350955614E+04  0.12044505770E+03 0.  0.
         25    2    3    3    0    0 -0.33478589510E+02  0.48634223317E+02  0.17104941579E+04  0.17162550325E+04  0.12749497512E+03 0.  0.
          5    1    4    4  502    0 -0.35519365856E+02  0.15255239791E+02  0.57484189090E+03  0.57615938526E+03  0.47000000000E+01 0. -1.
         -5    1    4    4    0  502  0.68997955366E+02 -0.63889463108E+02  0.10547422215E+04  0.10589361762E+04  0.47000000000E+01 0. -1.
          5    1    5    5  503    0 -0.18777072117E+02  0.70441479109E+02  0.48510798300E+03  0.49057764481E+03  0.47000000000E+01 0.  1.
         -5    1    5    5    0  503 -0.14701517394E+02 -0.21807255792E+02  0.12253861749E+04  0.12256773877E+04  0.47000000000E+01 0.  1.
<mgrwt>
<rscale>  0 0.27464150E+03</rscale>
<asrwt>0</asrwt>
<pdfrwt beam="1">  1        1 0.51472371E+00 0.27464150E+03</pdfrwt>
<pdfrwt beam="2">  1       -1 0.86710449E-03 0.27464150E+03</pdfrwt>
<totfact> 0.94542732E+02</totfact>
</mgrwt>
</event>
<event>
 9    1  0.2024718E-002  0.2749221E+03  0.7818608E-02  0.1098495E+00
          1   -1    0    0  501    0  0.00000000000E+00  0.00000000000E+00  0.13707527392E+04  0.13707527392E+04  0.00000000000E+00 0. -1.
         -1   -1    0    0    0  501 -0.00000000000E+00 -0.00000000000E+00 -0.13784792276E+02  0.13784792276E+02  0.00000000000E+00 0. -1.
         36    2    1    2    0    0  0.00000000000E+00 -0.14210854715E-13  0.13569679469E+04  0.13845375315E+04  0.27492211094E+03 0.  0.
         25    2    3    3    0    0 -0.87715253878E+01 -0.50773516980E+02  0.80210583730E+03  0.81338865534E+03  0.12478958580E+03 0.  0.
         25    2    3    3    0    0  0.87715253878E+01  0.50773516980E+02  0.55486210961E+03  0.57114887612E+03  0.12523652953E+03 0.  0.
          5    1    4    4  502    0 -0.33097032853E+02 -0.80979085667E+02  0.66761831271E+03  0.67334190970E+03  0.47000000000E+01 0. -1.
         -5    1    4    4    0  502  0.24325507465E+02  0.30205568686E+02  0.13448752460E+03  0.14004674564E+03  0.47000000000E+01 0. -1.
          5    1    5    5  503    0  0.47207249802E+02 -0.20441923735E+02  0.16298087685E+03  0.17097149732E+03  0.47000000000E+01 0. -1.
         -5    1    5    5    0  503 -0.38435724414E+02  0.71215440716E+02  0.39188123277E+03  0.40017737880E+03  0.47000000000E+01 0. -1.
<mgrwt>
<rscale>  0 0.27492211E+03</rscale>
<asrwt>0</asrwt>
<pdfrwt beam="1">  1        1 0.21088493E+00 0.27492211E+03</pdfrwt>
<pdfrwt beam="2">  1       -1 0.21207383E-02 0.27492211E+03</pdfrwt>
<totfact> 0.54954870E+03</totfact>
</mgrwt>
</event>
<event>
 9    1  0.2024718E-002  0.2747563E+03  0.7818608E-02  0.1098588E+00
         -2   -1    0    0    0  501 -0.00000000000E+00  0.00000000000E+00  0.19991519192E+02  0.19991519192E+02  0.00000000000E+00 0. -1.
          2   -1    0    0  501    0  0.00000000000E+00 -0.00000000000E+00 -0.94403827861E+03  0.94403827861E+03  0.00000000000E+00 0. -1.
         36    2    1    2    0    0  0.00000000000E+00 -0.71054273576E-14 -0.92404675941E+03  0.96402979780E+03  0.27475632378E+03 0.  0.
         25    2    3    3    0    0  0.14481538152E+02  0.51949695400E+02 -0.39085488058E+03  0.41364776639E+03  0.12421131658E+03 0.  0.
         25    2    3    3    0    0 -0.14481538152E+02 -0.51949695400E+02 -0.53319187883E+03  0.55038203140E+03  0.12537270453E+03 0.  0.
          5    1    4    4  502    0 -0.32247596375E+02  0.16294965914E+02 -0.31725462252E+03  0.31933997384E+03  0.47000000000E+01 0. -1.
         -5    1    4    4    0  502  0.46729134526E+02  0.35654729486E+02 -0.73600258066E+02  0.94307792550E+02  0.47000000000E+01 0. -1.
          5    1    5    5  503    0 -0.38499107745E+02 -0.40671981035E+02 -0.51456296472E+03  0.51762295737E+03  0.47000000000E+01 0. -1.
         -5    1    5    5    0  503  0.24017569593E+02 -0.11277714365E+02 -0.18628914112E+02  0.32759074032E+02  0.47000000000E+01 0. -1.
<mgrwt>
<rscale>  0 0.27475632E+03</rscale>
<asrwt>0</asrwt>
<pdfrwt beam="1">  1        2 0.14523666E+00 0.27475632E+03</pdfrwt>
<pdfrwt beam="2">  1       -2 0.30756183E-02 0.27475632E+03</pdfrwt>
<totfact> 0.11582458E+04</totfact>
</mgrwt>
</event>
<event>
 9    1  0.2024718E-002  0.2750972E+03  0.7818608E-02  0.1098397E+00
         -2   -1    0    0    0  501 -0.00000000000E+00  0.00000000000E+00  0.14769850602E+04  0.14769850602E+04  0.00000000000E+00 0. -1.
          2   -1    0    0  501    0  0.00000000000E+00 -0.00000000000E+00 -0.12809618351E+02  0.12809618351E+02  0.00000000000E+00 0. -1.
         36    2    1    2    0    0  0.00000000000E+00  0.00000000000E+00  0.14641754418E+04  0.14897946786E+04  0.27509718233E+03 0.  0.
         25    2    3    3    0    0 -0.16256984895E+02 -0.55069637524E+02  0.87998989648E+03  0.89050316965E+03  0.12376074786E+03 0.  0.
         25    2    3    3    0    0  0.16256984895E+02  0.55069637524E+02  0.58418554537E+03  0.59929150891E+03  0.12075018299E+03 0.  0.
          5    1    4    4  502    0 -0.11237477644E+02 -0.64051570787E+02  0.19878440778E+03  0.20920376526E+03  0.47000000000E+01 0. -1.
         -5    1    4    4    0  502 -0.50195072512E+01  0.89819332630E+01  0.68120548870E+03  0.68129940438E+03  0.47000000000E+01 0. -1.
          5    1    5    5  503    0 -0.16055387116E+02  0.47912280643E+02  0.85066497182E+02  0.99054333750E+02  0.47000000000E+01 0.  1.
         -5    1    5    5    0  503  0.32312372011E+02  0.71573568808E+01  0.49911904819E+03  0.50023717516E+03  0.47000000000E+01 0.  1.
<mgrwt>
<rscale>  0 0.27509718E+03</rscale>
<asrwt>0</asrwt>
<pdfrwt beam="1">  1        2 0.19707117E-02 0.27509718E+03</pdfrwt>
<pdfrwt beam="2">  1       -2 0.22722834E+00 0.27509718E+03</pdfrwt>
<totfact> 0.54769147E+02</totfact>
</mgrwt>
</event>
<event>
 9    1  0.2024718E-002  0.2744217E+03  0.7818608E-02  0.1098775E+00
         -2   -1    0    0    0  501 -0.00000000000E+00  0.00000000000E+00  0.63972035419E+01  0.63972035419E+01  0.00000000000E+00 0. -1.
          2   -1    0    0  501    0  0.00000000000E+00 -0.00000000000E+00 -0.29429771515E+04  0.29429771515E+04  0.00000000000E+00 0. -1.
         36    2    1    2    0    0 -0.35527136788E-14  0.14210854715E-13 -0.29365799479E+04  0.29493743550E+04  0.27442174737E+03 0.  0.
         25    2    3    3    0    0 -0.20901755073E+02  0.55196008884E+02 -0.13888317065E+04  0.13953622586E+04  0.12123877677E+03 0.  0.
         25    2    3    3    0    0  0.20901755073E+02 -0.55196008884E+02 -0.15477482414E+04  0.15540120964E+04  0.12627546943E+03 0.  0.
          5    1    4    4  502    0  0.25983243413E+02  0.10243377494E+02 -0.79188864795E+02  0.84101260563E+02  0.47000000000E+01 0. -1.
         -5    1    4    4    0  502 -0.46884998486E+02  0.44952631390E+02 -0.13096428417E+04  0.13112609981E+04  0.47000000000E+01 0. -1.
          5    1    5    5  503    0 -0.11664094845E+02 -0.49789096959E+02 -0.14465637033E+04  0.14474749196E+04  0.47000000000E+01 0. -1.
         -5    1    5    5    0  503  0.32565849918E+02 -0.54069119258E+01 -0.10118453812E+03  0.10653717676E+03  0.47000000000E+01 0. -1.
<mgrwt>
<rscale>  0 0.27442175E+03</rscale>
<asrwt>0</asrwt>
<pdfrwt beam="1">  1        2 0.45276448E+00 0.27442175E+03</pdfrwt>
<pdfrwt beam="2">  1       -2 0.98418786E-03 0.27442175E+03</pdfrwt>
<totfact> 0.49128707E+03</totfact>
</mgrwt>
</event>
<event>
 9    1  0.2024718E-002  0.2748138E+03  0.7818608E-02  0.1098556E+00
         -2   -1    0    0    0  501 -0.00000000000E+00  0.00000000000E+00  0.68521124192E+02  0.68521124192E+02  0.00000000000E+00 0.  1.
          2   -1    0    0  501    0  0.00000000000E+00 -0.00000000000E+00 -0.27554503231E+03  0.27554503231E+03  0.00000000000E+00 0.  1.
         36    2    1    2    0    0  0.00000000000E+00  0.35527136788E-14 -0.20702390811E+03  0.34406615650E+03  0.27481379426E+03 0.  0.
         25    2    3    3    0    0  0.16005864636E+02  0.99469120999E+01 -0.16105653308E+03  0.20985624084E+03  0.13321150930E+03 0.  0.
         25    2    3    3    0    0 -0.16005864636E+02 -0.99469120999E+01 -0.45967375034E+02  0.13420991566E+03  0.12467627332E+03 0.  0.
          5    1    4    4  502    0 -0.20928706046E+02 -0.20738661840E+02 -0.15877549296E+03  0.16155447997E+03  0.47000000000E+01 0. -1.
         -5    1    4    4    0  502  0.36934570681E+02  0.30685573940E+02 -0.22810401159E+01  0.48301760873E+02  0.47000000000E+01 0. -1.
          5    1    5    5  503    0  0.32415869569E+02 -0.51157437792E+02 -0.33059964063E+02  0.69158681778E+02  0.47000000000E+01 0. -1.
         -5    1    5    5    0  503 -0.48421734205E+02  0.41210525693E+02 -0.12907410971E+02  0.65051233879E+02  0.47000000000E+01 0. -1.
<mgrwt>
<rscale>  0 0.27481379E+03</rscale>
<asrwt>0</asrwt>
<pdfrwt beam="1">  1        2 0.42391543E-01 0.27481379E+03</pdfrwt>
<pdfrwt beam="2">  1       -2 0.10541711E-01 0.27481379E+03</pdfrwt>
<totfact> 0.72572424E+03</totfact>
</mgrwt>
</event>
<event>
 9    1  0.2024718E-002  0.2749489E+03  0.7818608E-02  0.1098480E+00
         -2   -1    0    0    0  501 -0.00000000000E+00  0.00000000000E+00  0.15817489374E+02  0.15817489374E+02  0.00000000000E+00 0. -1.
          2   -1    0    0  501    0  0.00000000000E+00 -0.00000000000E+00 -0.11948311109E+04  0.11948311109E+04  0.00000000000E+00 0. -1.
         36    2    1    2    0    0  0.00000000000E+00  0.00000000000E+00 -0.11790136215E+04  0.12106486003E+04  0.27494892908E+03 0.  0.
         25    2    3    3    0    0 -0.41046588305E+02 -0.28293413746E+02 -0.68681226471E+03  0.69983669976E+03  0.12479975842E+03 0.  0.
         25    2    3    3    0    0  0.41046588305E+02  0.28293413746E+02 -0.49220135681E+03  0.51081190051E+03  0.12720566962E+03 0.  0.
          5    1    4    4  502    0 -0.49885082013E+01 -0.60091862862E+02 -0.57319408949E+03  0.57637615446E+03  0.47000000000E+01 0. -1.
         -5    1    4    4    0  502 -0.36058080103E+02  0.31798449116E+02 -0.11361817522E+03  0.12346054531E+03  0.47000000000E+01 0. -1.
          5    1    5    5  503    0  0.37297949458E+02 -0.48571674846E+01 -0.32653544676E+02  0.50030721459E+02  0.47000000000E+01 0. -1.
         -5    1    5    5    0  503  0.37486388464E+01  0.33150581231E+02 -0.45954781214E+03  0.46078117905E+03  0.47000000000E+01 0. -1.
<mgrwt>
<rscale>  0 0.27494893E+03</rscale>
<asrwt>0</asrwt>
<pdfrwt beam="1">  1        2 0.18382013E+00 0.27494893E+03</pdfrwt>
<pdfrwt beam="2">  1       -2 0.24334604E-02 0.27494893E+03</pdfrwt>
<totfact> 0.11621036E+04</totfact>
</mgrwt>
</event>
<event>
 9    1  0.2024718E-002  0.2772196E+03  0.7818608E-02  0.1097217E+00
          4   -1    0    0  501    0  0.00000000000E+00  0.00000000000E+00  0.16887693523E+02  0.16887693523E+02  0.00000000000E+00 0. -1.
         -4   -1    0    0    0  501 -0.00000000000E+00 -0.00000000000E+00 -0.11376732844E+04  0.11376732844E+04  0.00000000000E+00 0. -1.
         36    2    1    2    0    0  0.00000000000E+00  0.00000000000E+00 -0.11207855909E+04  0.11545609779E+04  0.27721960793E+03 0.  0.
         25    2    3    3    0    0 -0.11632800471E+02  0.30441602149E+02 -0.71959394545E+03  0.73402092180E+03  0.14110015640E+03 0.  0.
         25    2    3    3    0    0  0.11632800471E+02 -0.30441602149E+02 -0.40119164542E+03  0.42054005611E+03  0.12180800157E+03 0.  0.
          5    1    4    4  502    0  0.36888560162E+02  0.28050756729E+02 -0.63226556409E+03  0.63397905672E+03  0.47000000000E+01 0.  1.
         -5    1    4    4    0  502 -0.48521360633E+02  0.23908454204E+01 -0.87328381354E+02  0.10004186508E+03  0.47000000000E+01 0.  1.
          5    1    5    5  503    0  0.48133923139E+02 -0.84120269624E+01 -0.35143988752E+03  0.35485168916E+03  0.47000000000E+01 0.  1.
         -5    1    5    5    0  503 -0.36501122668E+02 -0.22029575187E+02 -0.49751757898E+02  0.65688366952E+02  0.47000000000E+01 0.  1.
<mgrwt>
<rscale>  0 0.27721961E+03</rscale>
<asrwt>0</asrwt>
<pdfrwt beam="1">  1        4 0.25981080E-02 0.27721961E+03</pdfrwt>
<pdfrwt beam="2">  1       -4 0.17502657E+00 0.27721961E+03</pdfrwt>
<totfact> 0.26563897E+02</totfact>
</mgrwt>
</event>
<event>
 9    1  0.2024718E-002  0.2766410E+03  0.7818608E-02  0.1097538E+00
          1   -1    0    0  501    0  0.00000000000E+00  0.00000000000E+00  0.76379348863E+03  0.76379348863E+03  0.00000000000E+00 0.  1.
         -1   -1    0    0    0  501 -0.00000000000E+00 -0.00000000000E+00 -0.25049390661E+02  0.25049390661E+02  0.00000000000E+00 0.  1.
         36    2    1    2    0    0 -0.71054273576E-14 -0.71054273576E-14  0.73874409797E+03  0.78884287929E+03  0.27664100550E+03 0.  0.
         25    2    3    3    0    0  0.31441210414E+02 -0.13705121142E+02  0.21894139640E+03  0.25326714109E+03  0.12260721692E+03 0.  0.
         25    2    3    3    0    0 -0.31441210414E+02  0.13705121142E+02  0.51980270157E+03  0.53557573820E+03  0.12437902850E+03 0.  0.
          5    1    4    4  502    0  0.38689248963E+01  0.53777753591E+02  0.99153268961E+02  0.11296227736E+03  0.47000000000E+01 0.  1.
         -5    1    4    4    0  502  0.27572285518E+02 -0.67482874734E+02  0.11978812744E+03  0.14030486373E+03  0.47000000000E+01 0.  1.
          5    1    5    5  503    0  0.84538534102E+01 -0.42188957887E+02  0.34507487752E+03  0.34777886207E+03  0.47000000000E+01 0. -1.
         -5    1    5    5    0  503 -0.39895063824E+02  0.55894079029E+02  0.17472782405E+03  0.18779687613E+03  0.47000000000E+01 0. -1.
<mgrwt>
<rscale>  0 0.27664101E+03</rscale>
<asrwt>0</asrwt>
<pdfrwt beam="1">  1        1 0.11750667E+00 0.27664101E+03</pdfrwt>
<pdfrwt beam="2">  1       -1 0.38537530E-02 0.27664101E+03</pdfrwt>
<totfact> 0.64197057E+03</totfact>
</mgrwt>
</event>
<event>
 9    1  0.2024718E-002  0.2759895E+03  0.7818608E-02  0.1097900E+00
          1   -1    0    0  501    0  0.00000000000E+00  0.00000000000E+00  0.22825990621E+04  0.22825990621E+04  0.00000000000E+00 0.  1.
         -1   -1    0    0    0  501 -0.00000000000E+00 -0.00000000000E+00 -0.83424835803E+01  0.83424835803E+01  0.00000000000E+00 0.  1.
         36    2    1    2    0    0  0.71054273576E-14  0.00000000000E+00  0.22742565786E+04  0.22909415457E+04  0.27598945774E+03 0.  0.
         25    2    3    3    0    0  0.18651024736E+02  0.32294882395E+01  0.71550116308E+03  0.72739768366E+03  0.12964252968E+03 0.  0.
         25    2    3    3    0    0 -0.18651024736E+02 -0.32294882395E+01  0.15587554155E+04  0.15635438621E+04  0.12080013656E+03 0.  0.
          5    1    4    4  502    0 -0.45941826458E+02  0.13226998434E+02  0.49606738767E+03  0.49838794931E+03  0.47000000000E+01 0. -1.
         -5    1    4    4    0  502  0.64592851194E+02 -0.99975101950E+01  0.21943377541E+03  0.22900973435E+03  0.47000000000E+01 0. -1.
          5    1    5    5  503    0 -0.19984113944E+02 -0.54855027217E+02  0.48283465115E+03  0.48637416582E+03  0.47000000000E+01 0. -1.
         -5    1    5    5    0  503  0.13330892077E+01  0.51625538977E+02  0.10759207643E+04  0.10771696962E+04  0.47000000000E+01 0. -1.
<mgrwt>
<rscale>  0 0.27598946E+03</rscale>
<asrwt>0</asrwt>
<pdfrwt beam="1">  1        1 0.35116859E+00 0.27598946E+03</pdfrwt>
<pdfrwt beam="2">  1       -1 0.12834608E-02 0.27598946E+03</pdfrwt>
<totfact> 0.28901262E+03</totfact>
</mgrwt>
</event>
<event>
 9    1  0.2024718E-002  0.2749434E+03  0.7818608E-02  0.1098483E+00
          2   -1    0    0  501    0  0.00000000000E+00  0.00000000000E+00  0.31967597107E+03  0.31967597107E+03  0.00000000000E+00 0. -1.
         -2   -1    0    0    0  501 -0.00000000000E+00 -0.00000000000E+00 -0.59117567135E+02  0.59117567135E+02  0.00000000000E+00 0. -1.
         36    2    1    2    0    0  0.71054273576E-14  0.00000000000E+00  0.26055840394E+03  0.37879353821E+03  0.27494338094E+03 0.  0.
         25    2    3    3    0    0  0.42306450700E+02 -0.11479123629E+01  0.77047831296E+02  0.15129495001E+03  0.12313667252E+03 0.  0.
         25    2    3    3    0    0 -0.42306450700E+02  0.11479123629E+01  0.18351057264E+03  0.22749858819E+03  0.12762571796E+03 0.  0.
          5    1    4    4  502    0  0.36968320327E+02 -0.59928019786E+02  0.35769282929E+02  0.79117355015E+02  0.47000000000E+01 0. -1.
         -5    1    4    4    0  502  0.53381303727E+01  0.58780107424E+02  0.41278548367E+02  0.72177594999E+02  0.47000000000E+01 0. -1.
          5    1    5    5  503    0  0.32891698964E+02 -0.35773105759E+02  0.50553926378E+02  0.70280640497E+02  0.47000000000E+01 0. -1.
         -5    1    5    5    0  503 -0.75198149664E+02  0.36921018122E+02  0.13295664626E+03  0.15721794770E+03  0.47000000000E+01 0. -1.
<mgrwt>
<rscale>  0 0.27494338E+03</rscale>
<asrwt>0</asrwt>
<pdfrwt beam="1">  1        2 0.49180918E-01 0.27494338E+03</pdfrwt>
<pdfrwt beam="2">  1       -2 0.90950105E-02 0.27494338E+03</pdfrwt>
<totfact> 0.78182529E+03</totfact>
</mgrwt>
</event>
<event>
 9    1  0.2024718E-002  0.2771205E+03  0.7818608E-02  0.1097272E+00
          2   -1    0    0  501    0  0.00000000000E+00  0.00000000000E+00  0.59031180212E+02  0.59031180212E+02  0.00000000000E+00 0.  1.
         -2   -1    0    0    0  501 -0.00000000000E+00 -0.00000000000E+00 -0.32523384613E+03  0.32523384613E+03  0.00000000000E+00 0.  1.
         36    2    1    2    0    0 -0.35527136788E-14  0.00000000000E+00 -0.26620266592E+03  0.38426502635E+03  0.27712046321E+03 0.  0.
         25    2    3    3    0    0 -0.18412016364E+02  0.42585284091E+02 -0.22872216125E+03  0.24454521651E+03  0.73048115005E+02 0.  0.
         25    2    3    3    0    0  0.18412016364E+02 -0.42585284091E+02 -0.37480504676E+02  0.13971980984E+03  0.12635002280E+03 0.  0.
          5    1    4    4  502    0 -0.44523105250E+02  0.24450069220E+02 -0.17139088495E+03  0.17882124658E+03  0.47000000000E+01 0.  1.
         -5    1    4    4    0  502  0.26111088886E+02  0.18135214872E+02 -0.57331276300E+02  0.65723969931E+02  0.47000000000E+01 0.  1.
          5    1    5    5  503    0 -0.14053381361E+02 -0.18182416977E+02 -0.78424950256E+02  0.81857563105E+02  0.47000000000E+01 0. -1.
         -5    1    5    5    0  503  0.32465397724E+02 -0.24402867114E+02  0.40944445581E+02  0.57862246730E+02  0.47000000000E+01 0. -1.
<mgrwt>
<rscale>  0 0.27712046E+03</rscale>
<asrwt>0</asrwt>
<pdfrwt beam="1">  1        2 0.90817201E-02 0.27712046E+03</pdfrwt>
<pdfrwt beam="2">  1       -2 0.50035976E-01 0.27712046E+03</pdfrwt>
<totfact> 0.27661407E+03</totfact>
</mgrwt>
</event>
<event>
 9    1  0.2024718E-002  0.2745254E+03  0.7818608E-02  0.1098717E+00
         -1   -1    0    0    0  501 -0.00000000000E+00  0.00000000000E+00  0.12628231745E+02  0.12628231745E+02  0.00000000000E+00 0. -1.
          1   -1    0    0  501    0  0.00000000000E+00 -0.00000000000E+00 -0.14919782731E+04  0.14919782731E+04  0.00000000000E+00 0. -1.
         36    2    1    2    0    0  0.35527136788E-14  0.00000000000E+00 -0.14793500414E+04  0.15046065048E+04  0.27452538966E+03 0.  0.
         25    2    3    3    0    0  0.85402142505E+01  0.32872751034E+01 -0.39687969161E+03  0.41494780277E+03  0.12076608786E+03 0.  0.
         25    2    3    3    0    0 -0.85402142505E+01 -0.32872751034E+01 -0.10824703497E+04  0.10896587021E+04  0.12462057410E+03 0.  0.
          5    1    4    4  502    0  0.38619914749E+02 -0.44323679902E+02 -0.26476271229E+03  0.27125167323E+03  0.47000000000E+01 0. -1.
         -5    1    4    4    0  502 -0.30079700499E+02  0.47610955005E+02 -0.13211697932E+03  0.14369612953E+03  0.47000000000E+01 0. -1.
          5    1    5    5  503    0  0.27125162580E+01  0.51458793871E+02 -0.80012104036E+03  0.80179245097E+03  0.47000000000E+01 0.  1.
         -5    1    5    5    0  503 -0.11252730509E+02 -0.54746068975E+02 -0.28234930939E+03  0.28786625110E+03  0.47000000000E+01 0.  1.
<mgrwt>
<rscale>  0 0.27452539E+03</rscale>
<asrwt>0</asrwt>
<pdfrwt beam="1">  1        1 0.22953520E+00 0.27452539E+03</pdfrwt>
<pdfrwt beam="2">  1       -1 0.19428042E-02 0.27452539E+03</pdfrwt>
<totfact> 0.51830656E+03</totfact>
</mgrwt>
</event>
<event>
 9    1  0.2024718E-002  0.2740716E+03  0.7818608E-02  0.1098972E+00
          1   -1    0    0  501    0  0.00000000000E+00  0.00000000000E+00  0.14693566601E+03  0.14693566601E+03  0.00000000000E+00 0. -1.
         -1   -1    0    0    0  501 -0.00000000000E+00 -0.00000000000E+00 -0.12780293303E+03  0.12780293303E+03  0.00000000000E+00 0. -1.
         36    2    1    2    0    0  0.00000000000E+00  0.00000000000E+00  0.19132732984E+02  0.27473859904E+03  0.27407158979E+03 0.  0.
         25    2    3    3    0    0 -0.52614896295E+02 -0.12748265693E+02  0.51239332848E+02  0.14252391013E+03  0.12147736471E+03 0.  0.
         25    2    3    3    0    0  0.52614896295E+02  0.12748265693E+02 -0.32106599864E+02  0.13221468891E+03  0.11627142650E+03 0.  0.
          5    1    4    4  502    0 -0.57254216247E+02  0.46133687574E+02  0.30621319183E+02  0.79787953951E+02  0.47000000000E+01 0.  1.
         -5    1    4    4    0  502  0.46393199523E+01 -0.58881953266E+02  0.20618013665E+02  0.62735956178E+02  0.47000000000E+01 0.  1.
          5    1    5    5  503    0  0.58845211144E+02 -0.42318612575E+02 -0.18809536262E+02  0.75030077297E+02  0.47000000000E+01 0.  1.
         -5    1    5    5    0  503 -0.62303148488E+01  0.55066878267E+02 -0.13297063602E+02  0.57184611616E+02  0.47000000000E+01 0.  1.
<mgrwt>
<rscale>  0 0.27407159E+03</rscale>
<asrwt>0</asrwt>
<pdfrwt beam="1">  1        1 0.22605487E-01 0.27407159E+03</pdfrwt>
<pdfrwt beam="2">  1       -1 0.19661990E-01 0.27407159E+03</pdfrwt>
<totfact> 0.44873558E+03</totfact>
</mgrwt>
</event>
<event>
 9    1  0.2024718E-002  0.2734843E+03  0.7818608E-02  0.1099302E+00
          4   -1    0    0  501    0  0.00000000000E+00  0.00000000000E+00  0.63607705003E+02  0.63607705003E+02  0.00000000000E+00 0.  1.
         -4   -1    0    0    0  501 -0.00000000000E+00 -0.00000000000E+00 -0.29396464008E+03  0.29396464008E+03  0.00000000000E+00 0.  1.
         36    2    1    2    0    0  0.00000000000E+00  0.71054273576E-14 -0.23035693507E+03  0.35757234508E+03  0.27348430381E+03 0.  0.
         25    2    3    3    0    0 -0.39997984785E+02 -0.30997331147E+02 -0.14457379391E+03  0.19677123696E+03  0.12351787112E+03 0.  0.
         25    2    3    3    0    0  0.39997984785E+02  0.30997331147E+02 -0.85783141162E+02  0.16080110812E+03  0.12624411170E+03 0.  0.
          5    1    4    4  502    0 -0.46291195272E+02  0.44141328854E+01  0.99777842786E+00  0.46748742129E+02  0.47000000000E+01 0. -1.
         -5    1    4    4    0  502  0.62932104866E+01 -0.35411464032E+02 -0.14557157234E+03  0.15002249483E+03  0.47000000000E+01 0. -1.
          5    1    5    5  503    0  0.42958504397E+02  0.77578524900E+02 -0.61102189195E+02  0.10779345133E+03  0.47000000000E+01 0.  1.
         -5    1    5    5    0  503 -0.29605196116E+01 -0.46581193753E+02 -0.24680951968E+02  0.53007656785E+02  0.47000000000E+01 0.  1.
<mgrwt>
<rscale>  0 0.27348430E+03</rscale>
<asrwt>0</asrwt>
<pdfrwt beam="1">  1        4 0.97858007E-02 0.27348430E+03</pdfrwt>
<pdfrwt beam="2">  1       -4 0.45225330E-01 0.27348430E+03</pdfrwt>
<totfact> 0.70159842E+02</totfact>
</mgrwt>
</event>
<event>
 9    1  0.2024718E-002  0.2747898E+03  0.7818608E-02  0.1098569E+00
          2   -1    0    0  501    0  0.00000000000E+00  0.00000000000E+00  0.13547258952E+04  0.13547258952E+04  0.00000000000E+00 0.  1.
         -2   -1    0    0    0  501 -0.00000000000E+00 -0.00000000000E+00 -0.13934449894E+02  0.13934449894E+02  0.00000000000E+00 0.  1.
         36    2    1    2    0    0  0.00000000000E+00 -0.71054273576E-14  0.13407914453E+04  0.13686603451E+04  0.27478981136E+03 0.  0.
         25    2    3    3    0    0 -0.34156995211E+02 -0.43512658242E+02  0.84717675993E+03  0.85638362886E+03  0.11235837955E+03 0.  0.
         25    2    3    3    0    0  0.34156995211E+02  0.43512658242E+02  0.49361468535E+03  0.51227671621E+03  0.12534721630E+03 0.  0.
          5    1    4    4  502    0  0.33395304993E+02 -0.24394940890E+02  0.15008168656E+03  0.15574646762E+03  0.47000000000E+01 0.  1.
         -5    1    4    4    0  502 -0.67552300204E+02 -0.19117717353E+02  0.69709507338E+03  0.70063716124E+03  0.47000000000E+01 0.  1.
          5    1    5    5  503    0 -0.23846746076E+02  0.40089954161E+02  0.67446718263E+02  0.82140255219E+02  0.47000000000E+01 0.  1.
         -5    1    5    5    0  503  0.58003741287E+02  0.34227040817E+01  0.42616796709E+03  0.43013646099E+03  0.47000000000E+01 0.  1.
<mgrwt>
<rscale>  0 0.27478981E+03</rscale>
<asrwt>0</asrwt>
<pdfrwt beam="1">  1        2 0.20841927E+00 0.27478981E+03</pdfrwt>
<pdfrwt beam="2">  1       -2 0.21437626E-02 0.27478981E+03</pdfrwt>
<totfact> 0.11412063E+04</totfact>
</mgrwt>
</event>
<event>
 9    1  0.2024718E-002  0.2749016E+03  0.7818608E-02  0.1098507E+00
          1   -1    0    0  501    0  0.00000000000E+00  0.00000000000E+00  0.25241937522E+03  0.25241937522E+03  0.00000000000E+00 0. -1.
         -1   -1    0    0    0  501 -0.00000000000E+00 -0.00000000000E+00 -0.74846566801E+02  0.74846566801E+02  0.00000000000E+00 0. -1.
         36    2    1    2    0    0  0.00000000000E+00  0.35527136788E-14  0.17757280842E+03  0.32726594202E+03  0.27490160879E+03 0.  0.
         25    2    3    3    0    0  0.28441746859E+02 -0.21660274177E+02  0.13626680037E+03  0.19128024949E+03  0.12938853319E+03 0.  0.
         25    2    3    3    0    0 -0.28441746859E+02  0.21660274177E+02  0.41306008053E+02  0.13598569253E+03  0.12453040524E+03 0.  0.
          5    1    4    4  502    0 -0.72816523751E+00  0.46428423759E+02  0.96223013072E+02  0.10694431730E+03  0.47000000000E+01 0. -1.
         -5    1    4    4    0  502  0.29169912097E+02 -0.68088697936E+02  0.40043787297E+02  0.84335932196E+02  0.47000000000E+01 0. -1.
          5    1    5    5  503    0 -0.60965766979E+02 -0.29497047512E+02  0.13928659102E+02  0.69303665846E+02  0.47000000000E+01 0. -1.
         -5    1    5    5    0  503  0.32524020120E+02  0.51157321689E+02  0.27377348951E+02  0.66682026685E+02  0.47000000000E+01 0. -1.
<mgrwt>
<rscale>  0 0.27490161E+03</rscale>
<asrwt>0</asrwt>
<pdfrwt beam="1">  1        1 0.38833750E-01 0.27490161E+03</pdfrwt>
<pdfrwt beam="2">  1       -1 0.11514857E-01 0.27490161E+03</pdfrwt>
<totfact> 0.52963876E+03</totfact>
</mgrwt>
</event>
<event>
 9    1  0.2024718E-002  0.2678797E+03  0.7818608E-02  0.1102499E+00
         -2   -1    0    0    0  501 -0.00000000000E+00  0.00000000000E+00  0.34547150793E+02  0.34547150793E+02  0.00000000000E+00 0. -1.
          2   -1    0    0  501    0  0.00000000000E+00 -0.00000000000E+00 -0.51928708635E+03  0.51928708635E+03  0.00000000000E+00 0. -1.
         36    2    1    2    0    0  0.00000000000E+00 -0.35527136788E-14 -0.48473993556E+03  0.55383423714E+03  0.26787974374E+03 0.  0.
         25    2    3    3    0    0  0.72297717383E+01 -0.24450919856E+02 -0.31808244164E+03  0.34355047048E+03  0.12728067020E+03 0.  0.
         25    2    3    3    0    0 -0.72297717383E+01  0.24450919856E+02 -0.16665749392E+03  0.21028376666E+03  0.12567587343E+03 0.  0.
          5    1    4    4  502    0 -0.44068308718E+02  0.12880322365E+02 -0.50089089178E+02  0.68109657114E+02  0.47000000000E+01 0. -1.
         -5    1    4    4    0  502  0.51298080456E+02 -0.37331242221E+02 -0.26799335246E+03  0.27544081337E+03  0.47000000000E+01 0. -1.
          5    1    5    5  503    0 -0.37027770463E+02 -0.39137417134E+02 -0.98161091796E+02  0.11207356132E+03  0.47000000000E+01 0.  1.
         -5    1    5    5    0  503  0.29797998724E+02  0.63588336990E+02 -0.68496402122E+02  0.98210205340E+02  0.47000000000E+01 0.  1.
<mgrwt>
<rscale>  0 0.26787974E+03</rscale>
<asrwt>0</asrwt>
<pdfrwt beam="1">  1        2 0.79890322E-01 0.26787974E+03</pdfrwt>
<pdfrwt beam="2">  1       -2 0.53149462E-02 0.26787974E+03</pdfrwt>
<totfact> 0.10559385E+04</totfact>
</mgrwt>
</event>
<event>
 9    1  0.2024718E-002  0.2757467E+03  0.7818608E-02  0.1098035E+00
          2   -1    0    0  501    0  0.00000000000E+00  0.00000000000E+00  0.10227120382E+03  0.10227120382E+03  0.00000000000E+00 0. -1.
         -2   -1    0    0    0  501 -0.00000000000E+00 -0.00000000000E+00 -0.18586911574E+03  0.18586911574E+03  0.00000000000E+00 0. -1.
         36    2    1    2    0    0 -0.71054273576E-14  0.17763568394E-14 -0.83597911916E+02  0.28814031956E+03  0.27574668245E+03 0.  0.
         25    2    3    3    0    0  0.29518792459E+02 -0.85602297565E+01 -0.61478846634E+02  0.15671839280E+03  0.14084164659E+03 0.  0.
         25    2    3    3    0    0 -0.29518792459E+02  0.85602297565E+01 -0.22119065281E+02  0.13142192677E+03  0.12584845309E+03 0.  0.
          5    1    4    4  502    0  0.72266567330E+02  0.94888624346E+01  0.75317625524E+01  0.73425558977E+02  0.47000000000E+01 0. -1.
         -5    1    4    4    0  502 -0.42747774870E+02 -0.18049092191E+02 -0.69010609187E+02  0.83292833819E+02  0.47000000000E+01 0. -1.
          5    1    5    5  503    0  0.29662470609E+02 -0.19783035735E+02  0.30520244827E+02  0.47167849324E+02  0.47000000000E+01 0. -1.
         -5    1    5    5    0  503 -0.59181263069E+02  0.28343265492E+02 -0.52639310108E+02  0.84254077443E+02  0.47000000000E+01 0. -1.
<mgrwt>
<rscale>  0 0.27574668E+03</rscale>
<asrwt>0</asrwt>
<pdfrwt beam="1">  1        2 0.15734032E-01 0.27574668E+03</pdfrwt>
<pdfrwt beam="2">  1       -2 0.28595248E-01 0.27574668E+03</pdfrwt>
<totfact> 0.40856972E+03</totfact>
</mgrwt>
</event>
<event>
 9    1  0.2024718E-002  0.2748022E+03  0.7818608E-02  0.1098562E+00
          1   -1    0    0  501    0  0.00000000000E+00  0.00000000000E+00  0.44712756364E+03  0.44712756364E+03  0.00000000000E+00 0.  1.
         -1   -1    0    0    0  501 -0.00000000000E+00 -0.00000000000E+00 -0.42222988712E+02  0.42222988712E+02  0.00000000000E+00 0.  1.
         36    2    1    2    0    0  0.00000000000E+00 -0.71054273576E-14  0.40490457492E+03  0.48935055235E+03  0.27480219848E+03 0.  0.
         25    2    3    3    0    0 -0.29023555631E+01  0.46522426835E+02  0.17143563259E+03  0.22043462815E+03  0.13049325384E+03 0.  0.
         25    2    3    3    0    0  0.29023555631E+01 -0.46522426835E+02  0.23346894233E+03  0.26891592420E+03  0.12504106281E+03 0.  0.
          5    1    4    4  502    0 -0.80905612202E+01  0.13150185878E+02 -0.20162236387E+02  0.25826156230E+02  0.47000000000E+01 0.  1.
         -5    1    4    4    0  502  0.51882056572E+01  0.33372240958E+02  0.19159786898E+03  0.19460847192E+03  0.47000000000E+01 0.  1.
          5    1    5    5  503    0 -0.13070434750E+02  0.31786063415E+02  0.18054589432E+02  0.39105604349E+02  0.47000000000E+01 0. -1.
         -5    1    5    5    0  503  0.15972790313E+02 -0.78308490250E+02  0.21541435290E+03  0.22981031985E+03  0.47000000000E+01 0. -1.
<mgrwt>
<rscale>  0 0.27480220E+03</rscale>
<asrwt>0</asrwt>
<pdfrwt beam="1">  1        1 0.68788853E-01 0.27480220E+03</pdfrwt>
<pdfrwt beam="2">  1       -1 0.64958447E-02 0.27480220E+03</pdfrwt>
<totfact> 0.61705699E+03</totfact>
</mgrwt>
</event>
<event>
 9    1  0.2024718E-002  0.2748815E+03  0.7818608E-02  0.1098518E+00
         -1   -1    0    0    0  501 -0.00000000000E+00  0.00000000000E+00  0.14383345658E+02  0.14383345658E+02  0.00000000000E+00 0. -1.
          1   -1    0    0  501    0  0.00000000000E+00 -0.00000000000E+00 -0.13133214532E+04  0.13133214532E+04  0.00000000000E+00 0. -1.
         36    2    1    2    0    0 -0.14210854715E-13 -0.35527136788E-14 -0.12989381076E+04  0.13277047989E+04  0.27488147571E+03 0.  0.
         25    2    3    3    0    0 -0.67266859506E+02 -0.29029956359E+02 -0.83912463656E+03  0.85230281187E+03  0.13008596655E+03 0.  0.
         25    2    3    3    0    0  0.67266859506E+02  0.29029956359E+02 -0.45981347101E+03  0.47540198701E+03  0.95974227676E+02 0.  0.
          5    1    4    4  502    0 -0.82133250570E+02  0.25823199434E+02 -0.38056116439E+03  0.39020712233E+03  0.47000000000E+01 0. -1.
         -5    1    4    4    0  502  0.14866391064E+02 -0.54853155793E+02 -0.45856347217E+03  0.46209568954E+03  0.47000000000E+01 0. -1.
          5    1    5    5  503    0  0.67447536368E+02  0.12929281325E+02 -0.45143354279E+03  0.45665158494E+03  0.47000000000E+01 0. -1.
         -5    1    5    5    0  503 -0.18067686149E+00  0.16100675034E+02 -0.83799282216E+01  0.18750402067E+02  0.47000000000E+01 0. -1.
<mgrwt>
<rscale>  0 0.27488148E+03</rscale>
<asrwt>0</asrwt>
<pdfrwt beam="1">  1        1 0.20204945E+00 0.27488148E+03</pdfrwt>
<pdfrwt beam="2">  1       -1 0.22128224E-02 0.27488148E+03</pdfrwt>
<totfact> 0.56483905E+03</totfact>
</mgrwt>
</event>
<event>
 9    1  0.2024718E-002  0.2765883E+03  0.7818608E-02  0.1097567E+00
         -1   -1    0    0    0  501 -0.00000000000E+00  0.00000000000E+00  0.30103685469E+02  0.30103685469E+02  0.00000000000E+00 0. -1.
          1   -1    0    0  501    0  0.00000000000E+00 -0.00000000000E+00 -0.63531328775E+03  0.63531328775E+03  0.00000000000E+00 0. -1.
         36    2    1    2    0    0  0.71054273576E-14  0.00000000000E+00 -0.60520960228E+03  0.66541697322E+03  0.27658829613E+03 0.  0.
         25    2    3    3    0    0  0.35531417747E+02 -0.17472725871E+02 -0.39227819810E+03  0.41505824104E+03  0.12970497661E+03 0.  0.
         25    2    3    3    0    0 -0.35531417747E+02  0.17472725871E+02 -0.21293140418E+03  0.25035873218E+03  0.12558636110E+03 0.  0.
          5    1    4    4  502    0 -0.17723501379E+02 -0.62823622679E+02 -0.18307846350E+03  0.19442413396E+03  0.47000000000E+01 0. -1.
         -5    1    4    4    0  502  0.53254919127E+02  0.45350896808E+02 -0.20919973459E+03  0.22063410708E+03  0.47000000000E+01 0. -1.
          5    1    5    5  503    0 -0.44554245436E+02  0.36269594563E+00 -0.22341340021E+03  0.22786147047E+03  0.47000000000E+01 0. -1.
         -5    1    5    5    0  503  0.90228276885E+01  0.17110029925E+02  0.10481996024E+02  0.22497261704E+02  0.47000000000E+01 0. -1.
<mgrwt>
<rscale>  0 0.27658830E+03</rscale>
<asrwt>0</asrwt>
<pdfrwt beam="1">  1        1 0.97740499E-01 0.27658830E+03</pdfrwt>
<pdfrwt beam="2">  1       -1 0.46313366E-02 0.27658830E+03</pdfrwt>
<totfact> 0.63862299E+03</totfact>
</mgrwt>
</event>
<event>
 9    1  0.2024718E-002  0.2744222E+03  0.7818608E-02  0.1098775E+00
          2   -1    0    0  501    0  0.00000000000E+00  0.00000000000E+00  0.26438779163E+04  0.26438779163E+04  0.00000000000E+00 0.  1.
         -2   -1    0    0    0  501 -0.00000000000E+00 -0.00000000000E+00 -0.71209347569E+01  0.71209347569E+01  0.00000000000E+00 0.  1.
         36    2    1    2    0    0  0.17763568394E-14  0.71054273576E-14  0.26367569816E+04  0.26509988511E+04  0.27442217219E+03 0.  0.
         25    2    3    3    0    0  0.11301773193E+02 -0.41537878568E+02  0.15527343658E+04  0.15583216529E+04  0.12461636209E+03 0.  0.
         25    2    3    3    0    0 -0.11301773193E+02  0.41537878568E+02  0.10840226158E+04  0.10926771982E+04  0.13032767364E+03 0.  0.
          5    1    4    4  502    0  0.23801449906E+01  0.43351097321E+02  0.38674231128E+03  0.38920006174E+03  0.47000000000E+01 0.  1.
         -5    1    4    4    0  502  0.89216282028E+01 -0.84888975889E+02  0.11659920545E+04  0.11691215911E+04  0.47000000000E+01 0.  1.
          5    1    5    5  503    0  0.11481059894E+02  0.85185156409E+02  0.76769297599E+03  0.77250431778E+03  0.47000000000E+01 0. -1.
         -5    1    5    5    0  503 -0.22782833088E+02 -0.43647277841E+02  0.31632963976E+03  0.32017288039E+03  0.47000000000E+01 0. -1.
<mgrwt>
<rscale>  0 0.27442217E+03</rscale>
<asrwt>0</asrwt>
<pdfrwt beam="1">  1        2 0.40674967E+00 0.27442217E+03</pdfrwt>
<pdfrwt beam="2">  1       -2 0.10955305E-02 0.27442217E+03</pdfrwt>
<totfact> 0.62335400E+03</totfact>
</mgrwt>
</event>
<event>
 9    1  0.2024718E-002  0.2746735E+03  0.7818608E-02  0.1098634E+00
         -2   -1    0    0    0  501 -0.00000000000E+00  0.00000000000E+00  0.12397446409E+03  0.12397446409E+03  0.00000000000E+00 0.  1.
          2   -1    0    0  501    0  0.00000000000E+00 -0.00000000000E+00 -0.15213923737E+03  0.15213923737E+03  0.00000000000E+00 0.  1.
         36    2    1    2    0    0  0.00000000000E+00 -0.71054273576E-14 -0.28164773282E+02  0.27611370146E+03  0.27467348194E+03 0.  0.
         25    2    3    3    0    0  0.52414562367E+02 -0.67708836834E+01 -0.13017056822E+02  0.13687407327E+03  0.12558637247E+03 0.  0.
         25    2    3    3    0    0 -0.52414562367E+02  0.67708836834E+01 -0.15147716459E+02  0.13923962820E+03  0.12792610966E+03 0.  0.
          5    1    4    4  502    0  0.60887308883E+02 -0.56434181850E+02 -0.20713204882E+02  0.85692520797E+02  0.47000000000E+01 0.  1.
         -5    1    4    4    0  502 -0.84727465156E+01  0.49663298166E+02  0.76961480598E+01  0.51181552470E+02  0.47000000000E+01 0.  1.
          5    1    5    5  503    0 -0.11932637803E+01  0.62082673817E+02 -0.13346751009E+02  0.63686011252E+02  0.47000000000E+01 0. -1.
         -5    1    5    5    0  503 -0.51221298587E+02 -0.55311790133E+02 -0.18009654501E+01  0.75553616943E+02  0.47000000000E+01 0. -1.
<mgrwt>
<rscale>  0 0.27467348E+03</rscale>
<asrwt>0</asrwt>
<pdfrwt beam="1">  1        2 0.23406036E-01 0.27467348E+03</pdfrwt>
<pdfrwt beam="2">  1       -2 0.19072995E-01 0.27467348E+03</pdfrwt>
<totfact> 0.52497518E+03</totfact>
</mgrwt>
</event>
<event>
 9    1  0.2024718E-002  0.2747203E+03  0.7818608E-02  0.1098608E+00
         -2   -1    0    0    0  501 -0.00000000000E+00  0.00000000000E+00  0.19001230123E+02  0.19001230123E+02  0.00000000000E+00 0. -1.
          2   -1    0    0  501    0  0.00000000000E+00 -0.00000000000E+00 -0.99297831412E+03  0.99297831412E+03  0.00000000000E+00 0. -1.
         36    2    1    2    0    0 -0.71054273576E-14 -0.71054273576E-14 -0.97397708399E+03  0.10119795442E+04  0.27472029014E+03 0.  0.
         25    2    3    3    0    0 -0.25002639535E+02  0.35109697085E+02 -0.61359468021E+03  0.62782943314E+03  0.12575190938E+03 0.  0.
         25    2    3    3    0    0  0.25002639535E+02 -0.35109697085E+02 -0.36038240378E+03  0.38415011110E+03  0.12584914816E+03 0.  0.
          5    1    4    4  502    0  0.20329181633E+02 -0.39844849661E+02 -0.22593345625E+03  0.23036689068E+03  0.47000000000E+01 0. -1.
         -5    1    4    4    0  502 -0.45331821168E+02  0.74954546746E+02 -0.38766122397E+03  0.39746254246E+03  0.47000000000E+01 0. -1.
          5    1    5    5  503    0  0.67115046231E+02 -0.50564188915E+02 -0.27494462355E+03  0.28753748042E+03  0.47000000000E+01 0. -1.
         -5    1    5    5    0  503 -0.42112406696E+02  0.15454491831E+02 -0.85437780233E+02  0.96612630678E+02  0.47000000000E+01 0. -1.
<mgrwt>
<rscale>  0 0.27472029E+03</rscale>
<asrwt>0</asrwt>
<pdfrwt beam="1">  1        2 0.15276598E+00 0.27472029E+03</pdfrwt>
<pdfrwt beam="2">  1       -2 0.29232645E-02 0.27472029E+03</pdfrwt>
<totfact> 0.11646326E+04</totfact>
</mgrwt>
</event>
<event>
 9    1  0.2024718E-002  0.2742876E+03  0.7818608E-02  0.1098850E+00
          2   -1    0    0  501    0  0.00000000000E+00  0.00000000000E+00  0.17460969859E+04  0.17460969859E+04  0.00000000000E+00 0. -1.
         -2   -1    0    0    0  501 -0.00000000000E+00 -0.00000000000E+00 -0.10771692608E+02  0.10771692608E+02  0.00000000000E+00 0. -1.
         36    2    1    2    0    0  0.00000000000E+00 -0.71054273576E-14  0.17353252933E+04  0.17568686785E+04  0.27428758628E+03 0.  0.
         25    2    3    3    0    0 -0.27321858196E+02  0.47513253275E+02  0.77522988549E+03  0.78712041951E+03  0.12479257304E+03 0.  0.
         25    2    3    3    0    0  0.27321858196E+02 -0.47513253275E+02  0.96009540784E+03  0.96974825903E+03  0.12499800227E+03 0.  0.
          5    1    4    4  502    0 -0.18436318484E+02  0.62703311348E+02  0.76149114644E+03  0.76430521338E+03  0.47000000000E+01 0. -1.
         -5    1    4    4    0  502 -0.88855397120E+01 -0.15190058072E+02  0.13738739049E+02  0.22815206133E+02  0.47000000000E+01 0. -1.
          5    1    5    5  503    0  0.20204380892E+02 -0.89923353345E+02  0.59821704244E+03  0.60529343822E+03  0.47000000000E+01 0. -1.
         -5    1    5    5    0  503  0.71174773038E+01  0.42410100069E+02  0.36187836540E+03  0.36445482082E+03  0.47000000000E+01 0. -1.
<mgrwt>
<rscale>  0 0.27428759E+03</rscale>
<asrwt>0</asrwt>
<pdfrwt beam="1">  1        2 0.26863008E+00 0.27428759E+03</pdfrwt>
<pdfrwt beam="2">  1       -2 0.16571849E-02 0.27428759E+03</pdfrwt>
<totfact> 0.10297930E+04</totfact>
</mgrwt>
</event>
<event>
 9    1  0.2024718E-002  0.2758513E+03  0.7818608E-02  0.1097977E+00
         -2   -1    0    0    0  501 -0.00000000000E+00  0.00000000000E+00  0.26532946417E+02  0.26532946417E+02  0.00000000000E+00 0. -1.
          2   -1    0    0  501    0  0.00000000000E+00 -0.00000000000E+00 -0.71697604872E+03  0.71697604872E+03  0.00000000000E+00 0. -1.
         36    2    1    2    0    0 -0.71054273576E-14 -0.71054273576E-14 -0.69044310231E+03  0.74350899514E+03  0.27585131563E+03 0.  0.
         25    2    3    3    0    0 -0.28988692418E+02 -0.59590628164E+02 -0.45015804475E+03  0.46575642188E+03  0.99475585039E+02 0.  0.
         25    2    3    3    0    0  0.28988692418E+02  0.59590628164E+02 -0.24028505755E+03  0.27775257326E+03  0.12254874872E+03 0.  0.
          5    1    4    4  502    0 -0.30673946981E+02 -0.22695327850E+02 -0.40677403159E+03  0.40858679825E+03  0.47000000000E+01 0.  1.
         -5    1    4    4    0  502  0.16852545625E+01 -0.36895300315E+02 -0.43384013159E+02  0.57169623630E+02  0.47000000000E+01 0.  1.
          5    1    5    5  503    0  0.22868154138E+02 -0.33412818737E+02 -0.41595604922E+02  0.58237902421E+02  0.47000000000E+01 0.  1.
         -5    1    5    5    0  503  0.61205382805E+01  0.93003446901E+02 -0.19868945263E+03  0.21951467084E+03  0.47000000000E+01 0.  1.
<mgrwt>
<rscale>  0 0.27585132E+03</rscale>
<asrwt>0</asrwt>
<pdfrwt beam="1">  1        2 0.11030402E+00 0.27585132E+03</pdfrwt>
<pdfrwt beam="2">  1       -2 0.40819913E-02 0.27585132E+03</pdfrwt>
<totfact> 0.10813533E+04</totfact>
</mgrwt>
</event>
<event>
 9    1  0.2024718E-002  0.2758158E+03  0.7818608E-02  0.1097996E+00
          2   -1    0    0  501    0  0.00000000000E+00  0.00000000000E+00  0.25711929274E+04  0.25711929274E+04  0.00000000000E+00 0.  1.
         -2   -1    0    0    0  501 -0.00000000000E+00 -0.00000000000E+00 -0.73967941826E+01  0.73967941826E+01  0.00000000000E+00 0.  1.
         36    2    1    2    0    0 -0.17763568394E-14  0.00000000000E+00  0.25637961332E+04  0.25785897216E+04  0.27581577103E+03 0.  0.
         25    2    3    3    0    0 -0.14288094220E+02  0.54385005494E+02  0.11585577811E+04  0.11667445930E+04  0.12599577249E+03 0.  0.
         25    2    3    3    0    0  0.14288094220E+02 -0.54385005494E+02  0.14052383521E+04  0.14118451286E+04  0.12429787764E+03 0.  0.
          5    1    4    4  502    0  0.41518320141E+02  0.19807307366E+01  0.16460392001E+03  0.16983590517E+03  0.47000000000E+01 0.  1.
         -5    1    4    4    0  502 -0.55806414361E+02  0.52404274758E+02  0.99395386107E+03  0.99690868781E+03  0.47000000000E+01 0.  1.
          5    1    5    5  503    0 -0.14775131964E+02 -0.81778091407E+02  0.61795817767E+03  0.62353857949E+03  0.47000000000E+01 0.  1.
         -5    1    5    5    0  503  0.29063226184E+02  0.27393085913E+02  0.78728017446E+03  0.78830654911E+03  0.47000000000E+01 0.  1.
<mgrwt>
<rscale>  0 0.27581577E+03</rscale>
<asrwt>0</asrwt>
<pdfrwt beam="1">  1        2 0.39556743E+00 0.27581577E+03</pdfrwt>
<pdfrwt beam="2">  1       -2 0.11379704E-02 0.27581577E+03</pdfrwt>
<totfact> 0.64728395E+03</totfact>
</mgrwt>
</event>
<event>
 9    1  0.2024718E-002  0.2748507E+03  0.7818608E-02  0.1098535E+00
         -1   -1    0    0    0  501 -0.00000000000E+00  0.00000000000E+00  0.19504117531E+02  0.19504117531E+02  0.00000000000E+00 0. -1.
          1   -1    0    0  501    0  0.00000000000E+00 -0.00000000000E+00 -0.96829469184E+03  0.96829469184E+03  0.00000000000E+00 0. -1.
         36    2    1    2    0    0 -0.71054273576E-14 -0.35527136788E-14 -0.94879057430E+03  0.98779880937E+03  0.27485074840E+03 0.  0.
         25    2    3    3    0    0 -0.36125125416E+02 -0.14236851889E+02 -0.63098582545E+03  0.64378567200E+03  0.12169292057E+03 0.  0.
         25    2    3    3    0    0  0.36125125416E+02  0.14236851889E+02 -0.31780474886E+03  0.34401313737E+03  0.12584700095E+03 0.  0.
          5    1    4    4  502    0  0.32061473399E+02 -0.15292435759E+02 -0.69874821849E+02  0.78526284748E+02  0.47000000000E+01 0.  1.
         -5    1    4    4    0  502 -0.68186598815E+02  0.10555838698E+01 -0.56111100360E+03  0.56525938725E+03  0.47000000000E+01 0.  1.
          5    1    5    5  503    0  0.56530055234E+02  0.43202009233E+02 -0.29025954245E+03  0.29888919808E+03  0.47000000000E+01 0. -1.
         -5    1    5    5    0  503 -0.20404929818E+02 -0.28965157344E+02 -0.27545206409E+02  0.45123939289E+02  0.47000000000E+01 0. -1.
<mgrwt>
<rscale>  0 0.27485075E+03</rscale>
<asrwt>0</asrwt>
<pdfrwt beam="1">  1        1 0.14896838E+00 0.27485075E+03</pdfrwt>
<pdfrwt beam="2">  1       -1 0.30006341E-02 0.27485075E+03</pdfrwt>
<totfact> 0.63676977E+03</totfact>
</mgrwt>
</event>
<event>
 9    1  0.2024718E-002  0.2751396E+03  0.7818608E-02  0.1098374E+00
         -1   -1    0    0    0  501 -0.00000000000E+00  0.00000000000E+00  0.96736709200E+01  0.96736709200E+01  0.00000000000E+00 0.  1.
          1   -1    0    0  501    0  0.00000000000E+00 -0.00000000000E+00 -0.19563870086E+04  0.19563870086E+04  0.00000000000E+00 0.  1.
         36    2    1    2    0    0 -0.35527136788E-14  0.00000000000E+00 -0.19467133377E+04  0.19660606796E+04  0.27513955814E+03 0.  0.
         25    2    3    3    0    0  0.26058450127E+02 -0.41428719407E+02 -0.10517861205E+04  0.10601337093E+04  0.12342632097E+03 0.  0.
         25    2    3    3    0    0 -0.26058450127E+02  0.41428719407E+02 -0.89492721720E+03  0.90592697024E+03  0.13196048539E+03 0.  0.
          5    1    4    4  502    0 -0.25779163418E+02  0.45436047622E+01 -0.56701125581E+02  0.62628406118E+02  0.47000000000E+01 0.  1.
         -5    1    4    4    0  502  0.51837613545E+02 -0.45972324169E+02 -0.99508499493E+03  0.99750530320E+03  0.47000000000E+01 0.  1.
          5    1    5    5  503    0 -0.21390865993E+02  0.66853860356E+02 -0.23087691357E+03  0.24135709439E+03  0.47000000000E+01 0. -1.
         -5    1    5    5    0  503 -0.46675841339E+01 -0.25425140949E+02 -0.66405030364E+03  0.66456987586E+03  0.47000000000E+01 0. -1.
<mgrwt>
<rscale>  0 0.27513956E+03</rscale>
<asrwt>0</asrwt>
<pdfrwt beam="1">  1        1 0.30098273E+00 0.27513956E+03</pdfrwt>
<pdfrwt beam="2">  1       -1 0.14882565E-02 0.27513956E+03</pdfrwt>
<totfact> 0.38018835E+03</totfact>
</mgrwt>
</event>
<event>
 9    1  0.2024718E-002  0.2751660E+03  0.7818608E-02  0.1098359E+00
          2   -1    0    0  501    0  0.00000000000E+00  0.00000000000E+00  0.36907801338E+03  0.36907801338E+03  0.00000000000E+00 0.  1.
         -2   -1    0    0    0  501 -0.00000000000E+00 -0.00000000000E+00 -0.51287499966E+02  0.51287499966E+02  0.00000000000E+00 0.  1.
         36    2    1    2    0    0  0.00000000000E+00  0.00000000000E+00  0.31779051342E+03  0.42036551335E+03  0.27516604877E+03 0.  0.
         25    2    3    3    0    0  0.21502729234E+02  0.48162953313E+02  0.11790879969E+03  0.17986983836E+03  0.12517442339E+03 0.  0.
         25    2    3    3    0    0 -0.21502729234E+02 -0.48162953313E+02  0.19988171373E+03  0.24049567499E+03  0.12289602423E+03 0.  0.
          5    1    4    4  502    0  0.12180400500E+02  0.59255782163E+02 -0.30583255817E+00  0.60677783494E+02  0.47000000000E+01 0.  1.
         -5    1    4    4    0  502  0.93223287333E+01 -0.11092828850E+02  0.11821463225E+03  0.11919205486E+03  0.47000000000E+01 0.  1.
          5    1    5    5  503    0 -0.27787953676E+02 -0.33428334257E+02  0.40020953763E+01  0.43905929760E+02  0.47000000000E+01 0. -1.
         -5    1    5    5    0  503  0.62852244425E+01 -0.14734619057E+02  0.19587961835E+03  0.19658974523E+03  0.47000000000E+01 0. -1.
<mgrwt>
<rscale>  0 0.27516605E+03</rscale>
<asrwt>0</asrwt>
<pdfrwt beam="1">  1        2 0.56781231E-01 0.27516605E+03</pdfrwt>
<pdfrwt beam="2">  1       -2 0.78903849E-02 0.27516605E+03</pdfrwt>
<totfact> 0.83675778E+03</totfact>
</mgrwt>
</event>
<event>
 9    1  0.2024718E-002  0.2873608E+03  0.7818608E-02  0.1091735E+00
         -1   -1    0    0    0  501 -0.00000000000E+00  0.00000000000E+00  0.24654011265E+03  0.24654011265E+03  0.00000000000E+00 0.  1.
          1   -1    0    0  501    0  0.00000000000E+00 -0.00000000000E+00 -0.83735062842E+02  0.83735062842E+02  0.00000000000E+00 0.  1.
         36    2    1    2    0    0  0.71054273576E-14 -0.10658141036E-13  0.16280504981E+03  0.33027517549E+03  0.28736076159E+03 0.  0.
         25    2    3    3    0    0  0.62656463679E+02 -0.64395244740E+01  0.43912536256E+02  0.14327831744E+03  0.12096720833E+03 0.  0.
         25    2    3    3    0    0 -0.62656463679E+02  0.64395244740E+01  0.11889251355E+03  0.18699685805E+03  0.12986568148E+03 0.  0.
          5    1    4    4  502    0 -0.22776335029E+02  0.15441027261E+02  0.47271850640E+02  0.54899040275E+02  0.47000000000E+01 0.  1.
         -5    1    4    4    0  502  0.85432798708E+02 -0.21880551735E+02 -0.33593143844E+01  0.88379277166E+02  0.47000000000E+01 0.  1.
          5    1    5    5  503    0 -0.12110114053E+02 -0.59429628958E+02  0.56612480711E+02  0.83099931605E+02  0.47000000000E+01 0. -1.
         -5    1    5    5    0  503 -0.50546349625E+02  0.65869153432E+02  0.62280032841E+02  0.10389692645E+03  0.47000000000E+01 0. -1.
<mgrwt>
<rscale>  0 0.28736076E+03</rscale>
<asrwt>0</asrwt>
<pdfrwt beam="1">  1        1 0.12882317E-01 0.28736076E+03</pdfrwt>
<pdfrwt beam="2">  1       -1 0.37929248E-01 0.28736076E+03</pdfrwt>
<totfact> 0.30886315E+03</totfact>
</mgrwt>
</event>
<event>
 9    1  0.2024718E-002  0.2756342E+03  0.7818608E-02  0.1098098E+00
          2   -1    0    0  501    0  0.00000000000E+00  0.00000000000E+00  0.77896824523E+03  0.77896824523E+03  0.00000000000E+00 0. -1.
         -2   -1    0    0    0  501 -0.00000000000E+00 -0.00000000000E+00 -0.24382957482E+02  0.24382957482E+02  0.00000000000E+00 0. -1.
         36    2    1    2    0    0  0.00000000000E+00  0.35527136788E-14  0.75458528775E+03  0.80335120272E+03  0.27563417497E+03 0.  0.
         25    2    3    3    0    0 -0.51369272700E+02 -0.20215891478E+02  0.32408335225E+03  0.35166369131E+03  0.12485931337E+03 0.  0.
         25    2    3    3    0    0  0.51369272700E+02  0.20215891478E+02  0.43050193550E+03  0.45168751140E+03  0.12506880922E+03 0.  0.
          5    1    4    4  502    0  0.35939646029E+02 -0.30144203324E+02  0.90253853077E+02  0.10182425618E+03  0.47000000000E+01 0. -1.
         -5    1    4    4    0  502 -0.87308918729E+02  0.99283118460E+01  0.23382949917E+03  0.24983943514E+03  0.47000000000E+01 0. -1.
          5    1    5    5  503    0  0.50266503177E+02  0.15216053165E+02  0.55258031806E+02  0.76379249110E+02  0.47000000000E+01 0.  1.
         -5    1    5    5    0  503  0.11027695235E+01  0.49998383133E+01  0.37524390370E+03  0.37530826229E+03  0.47000000000E+01 0.  1.
<mgrwt>
<rscale>  0 0.27563417E+03</rscale>
<asrwt>0</asrwt>
<pdfrwt beam="1">  1        2 0.11984125E+00 0.27563417E+03</pdfrwt>
<pdfrwt beam="2">  1       -2 0.37512248E-02 0.27563417E+03</pdfrwt>
<totfact> 0.11076852E+04</totfact>
</mgrwt>
</event>
<event>
 9    1  0.2024718E-002  0.2753566E+03  0.7818608E-02  0.1098252E+00
          1   -1    0    0  501    0  0.00000000000E+00  0.00000000000E+00  0.21237691221E+03  0.21237691221E+03  0.00000000000E+00 0.  1.
         -1   -1    0    0    0  501 -0.00000000000E+00 -0.00000000000E+00 -0.89253197307E+02  0.89253197307E+02  0.00000000000E+00 0.  1.
         36    2    1    2    0    0  0.00000000000E+00  0.00000000000E+00  0.12312371490E+03  0.30163010952E+03  0.27535663020E+03 0.  0.
         25    2    3    3    0    0  0.23793397628E+02 -0.40217745444E+02  0.33123166005E+02  0.13976996369E+03  0.12749472853E+03 0.  0.
         25    2    3    3    0    0 -0.23793397628E+02  0.40217745444E+02  0.90000548899E+02  0.16186014583E+03  0.12615472717E+03 0.  0.
          5    1    4    4  502    0  0.11563413681E+02 -0.49318734464E+02 -0.40132245196E+02  0.64797663612E+02  0.47000000000E+01 0. -1.
         -5    1    4    4    0  502  0.12229983946E+02  0.91009890193E+01  0.73255411202E+02  0.74972300077E+02  0.47000000000E+01 0. -1.
          5    1    5    5  503    0  0.50851174663E+02  0.80205843637E+01  0.46551371193E+02  0.69565019212E+02  0.47000000000E+01 0. -1.
         -5    1    5    5    0  503 -0.74644572290E+02  0.32197161081E+02  0.43449177707E+02  0.92295126618E+02  0.47000000000E+01 0. -1.
<mgrwt>
<rscale>  0 0.27535663E+03</rscale>
<asrwt>0</asrwt>
<pdfrwt beam="1">  1        1 0.32673371E-01 0.27535663E+03</pdfrwt>
<pdfrwt beam="2">  1       -1 0.13731261E-01 0.27535663E+03</pdfrwt>
<totfact> 0.49941420E+03</totfact>
</mgrwt>
</event>
<event>
 9    1  0.2024718E-002  0.2758446E+03  0.7818608E-02  0.1097980E+00
          1   -1    0    0  501    0  0.00000000000E+00  0.00000000000E+00  0.87993977053E+02  0.87993977053E+02  0.00000000000E+00 0.  1.
         -1   -1    0    0    0  501 -0.00000000000E+00 -0.00000000000E+00 -0.21618023001E+03  0.21618023001E+03  0.00000000000E+00 0.  1.
         36    2    1    2    0    0 -0.71054273576E-14  0.00000000000E+00 -0.12818625296E+03  0.30417420706E+03  0.27584458087E+03 0.  0.
         25    2    3    3    0    0  0.42535933175E+02 -0.22568839505E+02 -0.72517259864E+02  0.15871535483E+03  0.13271455366E+03 0.  0.
         25    2    3    3    0    0 -0.42535933175E+02  0.22568839505E+02 -0.55668993093E+02  0.14545885223E+03  0.12546147923E+03 0.  0.
          5    1    4    4  502    0  0.35935348912E+02 -0.56170932948E+02 -0.95961349650E+02  0.11694953457E+03  0.47000000000E+01 0. -1.
         -5    1    4    4    0  502  0.66005842632E+01  0.33602093443E+02  0.23444089787E+02  0.41765820263E+02  0.47000000000E+01 0. -1.
          5    1    5    5  503    0 -0.48424357875E+02  0.47852037360E+02  0.15135323029E+02  0.69899241186E+02  0.47000000000E+01 0.  1.
         -5    1    5    5    0  503  0.58884247000E+01 -0.25283197855E+02 -0.70804316123E+02  0.75559611042E+02  0.47000000000E+01 0.  1.
<mgrwt>
<rscale>  0 0.27584458E+03</rscale>
<asrwt>0</asrwt>
<pdfrwt beam="1">  1        1 0.13537535E-01 0.27584458E+03</pdfrwt>
<pdfrwt beam="2">  1       -1 0.33258496E-01 0.27584458E+03</pdfrwt>
<totfact> 0.36330168E+03</totfact>
</mgrwt>
</event>
<event>
 9    1  0.2024718E-002  0.2750726E+03  0.7818608E-02  0.1098411E+00
         -1   -1    0    0    0  501 -0.00000000000E+00  0.00000000000E+00  0.14035546771E+02  0.14035546771E+02  0.00000000000E+00 0. -1.
          1   -1    0    0  501    0  0.00000000000E+00 -0.00000000000E+00 -0.13477376465E+04  0.13477376465E+04  0.00000000000E+00 0. -1.
         36    2    1    2    0    0  0.14210854715E-13  0.00000000000E+00 -0.13337020998E+04  0.13617731933E+04  0.27507260695E+03 0.  0.
         25    2    3    3    0    0  0.37106803573E+02 -0.19521231430E+02 -0.72533690611E+03  0.73783145124E+03  0.12854427144E+03 0.  0.
         25    2    3    3    0    0 -0.37106803573E+02  0.19521231430E+02 -0.60836519366E+03  0.62394174207E+03  0.13204959410E+03 0.  0.
          5    1    4    4  502    0  0.68278019710E+02 -0.20233010676E+02 -0.21528953633E+03  0.22681035503E+03  0.47000000000E+01 0.  1.
         -5    1    4    4    0  502 -0.31171216137E+02  0.71177924603E+00 -0.51004736978E+03  0.51102109621E+03  0.47000000000E+01 0.  1.
          5    1    5    5  503    0 -0.36553588993E+02  0.50312199976E+02 -0.57470066000E+03  0.57807475376E+03  0.47000000000E+01 0.  1.
         -5    1    5    5    0  503 -0.55321458041E+00 -0.30790968546E+02 -0.33664533660E+02  0.45866988313E+02  0.47000000000E+01 0.  1.
<mgrwt>
<rscale>  0 0.27507261E+03</rscale>
<asrwt>0</asrwt>
<pdfrwt beam="1">  1        1 0.20734419E+00 0.27507261E+03</pdfrwt>
<pdfrwt beam="2">  1       -1 0.21593156E-02 0.27507261E+03</pdfrwt>
<totfact> 0.55476385E+03</totfact>
</mgrwt>
</event>
<event>
 9    1  0.2024718E-002  0.2725262E+03  0.7818608E-02  0.1099842E+00
         -2   -1    0    0    0  501 -0.00000000000E+00  0.00000000000E+00  0.25157370487E+02  0.25157370487E+02  0.00000000000E+00 0. -1.
          2   -1    0    0  501    0  0.00000000000E+00 -0.00000000000E+00 -0.73805958422E+03  0.73805958422E+03  0.00000000000E+00 0. -1.
         36    2    1    2    0    0  0.10658141036E-13  0.00000000000E+00 -0.71290221373E+03  0.76321695471E+03  0.27252624388E+03 0.  0.
         25    2    3    3    0    0 -0.19039288934E+02  0.15999854030E+02 -0.41353675620E+03  0.43631918451E+03  0.13690614372E+03 0.  0.
         25    2    3    3    0    0  0.19039288934E+02 -0.15999854030E+02 -0.29936545753E+03  0.32689777020E+03  0.12893403409E+03 0.  0.
          5    1    4    4  502    0 -0.76673053052E+02  0.24433293925E+02 -0.23150182819E+03  0.24513451281E+03  0.47000000000E+01 0.  1.
         -5    1    4    4    0  502  0.57633764118E+02 -0.84334398946E+01 -0.18203492801E+03  0.19118467170E+03  0.47000000000E+01 0.  1.
          5    1    5    5  503    0 -0.72313752249E+01  0.38424433853E+02 -0.26706107999E+02  0.47581888456E+02  0.47000000000E+01 0. -1.
         -5    1    5    5    0  503  0.26270664159E+02 -0.54424287883E+02 -0.27265934953E+03  0.27931588174E+03  0.47000000000E+01 0. -1.
<mgrwt>
<rscale>  0 0.27252624E+03</rscale>
<asrwt>0</asrwt>
<pdfrwt beam="1">  1        2 0.11354761E+00 0.27252624E+03</pdfrwt>
<pdfrwt beam="2">  1       -2 0.38703654E-02 0.27252624E+03</pdfrwt>
<totfact> 0.11299866E+04</totfact>
</mgrwt>
</event>
<event>
 9    1  0.2024718E-002  0.2747064E+03  0.7818608E-02  0.1098616E+00
          4   -1    0    0  501    0  0.00000000000E+00  0.00000000000E+00  0.26412014744E+04  0.26412014744E+04  0.00000000000E+00 0.  1.
         -4   -1    0    0    0  501 -0.00000000000E+00 -0.00000000000E+00 -0.71429228259E+01  0.71429228259E+01  0.00000000000E+00 0.  1.
         36    2    1    2    0    0  0.14210854715E-13  0.00000000000E+00  0.26340585515E+04  0.26483443972E+04  0.27470637633E+03 0.  0.
         25    2    3    3    0    0  0.51393328572E+02 -0.35668271294E+02  0.13035513749E+04  0.13106484705E+04  0.12099473704E+03 0.  0.
         25    2    3    3    0    0 -0.51393328572E+02  0.35668271294E+02  0.13305071766E+04  0.13376959267E+04  0.12356190930E+03 0.  0.
          5    1    4    4  502    0  0.41156374731E+02  0.37904438517E+02  0.38311900806E+03  0.38721164494E+03  0.47000000000E+01 0. -1.
         -5    1    4    4    0  502  0.10236953841E+02 -0.73572709811E+02  0.92043236683E+03  0.92343682554E+03  0.47000000000E+01 0. -1.
          5    1    5    5  503    0 -0.51594060315E+02 -0.60102861338E+01  0.20915768821E+03  0.21556228598E+03  0.47000000000E+01 0.  1.
         -5    1    5    5    0  503  0.20073174251E+00  0.41678557428E+02  0.11213494884E+04  0.11221336407E+04  0.47000000000E+01 0.  1.
<mgrwt>
<rscale>  0 0.27470638E+03</rscale>
<asrwt>0</asrwt>
<pdfrwt beam="1">  1        4 0.40633791E+00 0.27470638E+03</pdfrwt>
<pdfrwt beam="2">  1       -4 0.10989133E-02 0.27470638E+03</pdfrwt>
<totfact> 0.37075977E+01</totfact>
</mgrwt>
</event>
<event>
 9    1  0.2024718E-002  0.2777268E+03  0.7818608E-02  0.1096937E+00
          2   -1    0    0  501    0  0.00000000000E+00  0.00000000000E+00  0.41037104642E+03  0.41037104642E+03  0.00000000000E+00 0.  1.
         -2   -1    0    0    0  501 -0.00000000000E+00 -0.00000000000E+00 -0.46989297187E+02  0.46989297187E+02  0.00000000000E+00 0.  1.
         36    2    1    2    0    0  0.00000000000E+00 -0.71054273576E-14  0.36338174924E+03  0.45736034361E+03  0.27772682303E+03 0.  0.
         25    2    3    3    0    0 -0.35183439622E+02  0.31163056681E+02  0.10147473840E+03  0.16269543982E+03  0.11816798670E+03 0.  0.
         25    2    3    3    0    0  0.35183439622E+02 -0.31163056681E+02  0.26190701084E+03  0.29466490379E+03  0.12658243429E+03 0.  0.
          5    1    4    4  502    0 -0.62442665333E+02 -0.86541959964E+01  0.94528537580E+02  0.11371770302E+03  0.47000000000E+01 0. -1.
         -5    1    4    4    0  502  0.27259225710E+02  0.39817252677E+02  0.69462008187E+01  0.48977736808E+02  0.47000000000E+01 0. -1.
          5    1    5    5  503    0  0.55545033329E+01 -0.44647754460E+02  0.18219831519E+02  0.48768091475E+02  0.47000000000E+01 0. -1.
         -5    1    5    5    0  503  0.29628936289E+02  0.13484697779E+02  0.24368717932E+03  0.24589681231E+03  0.47000000000E+01 0. -1.
<mgrwt>
<rscale>  0 0.27772682E+03</rscale>
<asrwt>0</asrwt>
<pdfrwt beam="1">  1        2 0.63134005E-01 0.27772682E+03</pdfrwt>
<pdfrwt beam="2">  1       -2 0.72291229E-02 0.27772682E+03</pdfrwt>
<totfact> 0.85495445E+03</totfact>
</mgrwt>
</event>
<event>
 9    1  0.2024718E-002  0.2749645E+03  0.7818608E-02  0.1098471E+00
          3   -1    0    0  501    0  0.00000000000E+00  0.00000000000E+00  0.30876509365E+02  0.30876509365E+02  0.00000000000E+00 0. -1.
         -3   -1    0    0    0  501 -0.00000000000E+00 -0.00000000000E+00 -0.61216026686E+03  0.61216026686E+03  0.00000000000E+00 0. -1.
         36    2    1    2    0    0  0.14210854715E-13  0.00000000000E+00 -0.58128375750E+03  0.64303677623E+03  0.27496452290E+03 0.  0.
         25    2    3    3    0    0  0.59007497148E+02  0.87674864985E+01 -0.18063426220E+03  0.22907469857E+03  0.12762338071E+03 0.  0.
         25    2    3    3    0    0 -0.59007497148E+02 -0.87674864985E+01 -0.40064949529E+03  0.41396207766E+03  0.85357074237E+02 0.  0.
          5    1    4    4  502    0  0.20279764767E+02  0.66774825174E+02 -0.10415034985E+03  0.12545728958E+03  0.47000000000E+01 0. -1.
         -5    1    4    4    0  502  0.38727732381E+02 -0.58007338676E+02 -0.76483912356E+02  0.10361740899E+03  0.47000000000E+01 0. -1.
          5    1    5    5  503    0 -0.62002621136E+02 -0.34613228457E+02 -0.34612403791E+03  0.35336431658E+03  0.47000000000E+01 0.  1.
         -5    1    5    5    0  503  0.29951239877E+01  0.25845741959E+02 -0.54525457377E+02  0.60597761075E+02  0.47000000000E+01 0.  1.
<mgrwt>
<rscale>  0 0.27496452E+03</rscale>
<asrwt>0</asrwt>
<pdfrwt beam="1">  1        3 0.47502321E-02 0.27496452E+03</pdfrwt>
<pdfrwt beam="2">  1       -3 0.94178504E-01 0.27496452E+03</pdfrwt>
<totfact> 0.65122580E+02</totfact>
</mgrwt>
</event>
<event>
 9    1  0.2024718E-002  0.2754210E+03  0.7818608E-02  0.1098217E+00
         -2   -1    0    0    0  501 -0.00000000000E+00  0.00000000000E+00  0.21635860648E+02  0.21635860648E+02  0.00000000000E+00 0. -1.
          2   -1    0    0  501    0  0.00000000000E+00 -0.00000000000E+00 -0.87651591832E+03  0.87651591832E+03  0.00000000000E+00 0. -1.
         36    2    1    2    0    0 -0.71054273576E-14 -0.14210854715E-13 -0.85488005767E+03  0.89815177897E+03  0.27542095973E+03 0.  0.
         25    2    3    3    0    0  0.18429677777E+02  0.35735638879E+02 -0.50852109097E+03  0.52801145603E+03  0.13632941295E+03 0.  0.
         25    2    3    3    0    0 -0.18429677777E+02 -0.35735638879E+02 -0.34635896671E+03  0.37014032293E+03  0.12418790575E+03 0.  0.
          5    1    4    4  502    0  0.66885062093E+02  0.52839209699E+02 -0.38099006669E+03  0.39043708140E+03  0.47000000000E+01 0. -1.
         -5    1    4    4    0  502 -0.48455384315E+02 -0.17103570820E+02 -0.12753102427E+03  0.13757437464E+03  0.47000000000E+01 0. -1.
          5    1    5    5  503    0  0.79139363150E+01 -0.26065864719E+01  0.84625896571E+01  0.12772239613E+02  0.47000000000E+01 0. -1.
         -5    1    5    5    0  503 -0.26343614092E+02 -0.33129052407E+02 -0.35482155636E+03  0.35736808332E+03  0.47000000000E+01 0. -1.
<mgrwt>
<rscale>  0 0.27542096E+03</rscale>
<asrwt>0</asrwt>
<pdfrwt beam="1">  1        2 0.13484861E+00 0.27542096E+03</pdfrwt>
<pdfrwt beam="2">  1       -2 0.33285938E-02 0.27542096E+03</pdfrwt>
<totfact> 0.11376336E+04</totfact>
</mgrwt>
</event>
<event>
 9    1  0.2024718E-002  0.2746715E+03  0.7818608E-02  0.1098635E+00
          2   -1    0    0  501    0  0.00000000000E+00  0.00000000000E+00  0.84379047263E+03  0.84379047263E+03  0.00000000000E+00 0. -1.
         -2   -1    0    0    0  501 -0.00000000000E+00 -0.00000000000E+00 -0.22352827484E+02  0.22352827484E+02  0.00000000000E+00 0. -1.
         36    2    1    2    0    0  0.17763568394E-14  0.00000000000E+00  0.82143764514E+03  0.86614330011E+03  0.27467146097E+03 0.  0.
         25    2    3    3    0    0 -0.48917129185E+01  0.45179703063E+02  0.60955703788E+03  0.61962684642E+03  0.10155053889E+03 0.  0.
         25    2    3    3    0    0  0.48917129185E+01 -0.45179703063E+02  0.21188060726E+03  0.24651645369E+03  0.11752376689E+03 0.  0.
          5    1    4    4  502    0 -0.20178388104E+02  0.16137436316E+02  0.55612247936E+03  0.55674220807E+03  0.47000000000E+01 0. -1.
         -5    1    4    4    0  502  0.15286675186E+02  0.29042266747E+02  0.53434558523E+02  0.62884638351E+02  0.47000000000E+01 0. -1.
          5    1    5    5  503    0  0.30457226987E+02 -0.64401610894E+02  0.19951274661E+03  0.21190242146E+03  0.47000000000E+01 0.  1.
         -5    1    5    5    0  503 -0.25565514068E+02  0.19221907831E+02  0.12367860655E+02  0.34614032233E+02  0.47000000000E+01 0.  1.
<mgrwt>
<rscale>  0 0.27467146E+03</rscale>
<asrwt>0</asrwt>
<pdfrwt beam="1">  1        2 0.12981389E+00 0.27467146E+03</pdfrwt>
<pdfrwt beam="2">  1       -2 0.34388972E-02 0.27467146E+03</pdfrwt>
<totfact> 0.11388819E+04</totfact>
</mgrwt>
</event>
<event>
 9    1  0.2024718E-002  0.2734259E+03  0.7818608E-02  0.1099335E+00
         -1   -1    0    0    0  501 -0.00000000000E+00  0.00000000000E+00  0.81325078871E+02  0.81325078871E+02  0.00000000000E+00 0. -1.
          1   -1    0    0  501    0  0.00000000000E+00 -0.00000000000E+00 -0.22982363272E+03  0.22982363272E+03  0.00000000000E+00 0. -1.
         36    2    1    2    0    0  0.35527136788E-14  0.00000000000E+00 -0.14849855385E+03  0.31114871159E+03  0.27342585874E+03 0.  0.
         25    2    3    3    0    0  0.11902672422E+02 -0.48274344784E+02 -0.87179620146E+02  0.16464879248E+03  0.13052529533E+03 0.  0.
         25    2    3    3    0    0 -0.11902672422E+02  0.48274344784E+02 -0.61318933702E+02  0.14649991912E+03  0.12341040756E+03 0.  0.
          5    1    4    4  502    0  0.21119022775E+02 -0.33722746171E+02 -0.12042338433E+03  0.12691382205E+03  0.47000000000E+01 0.  1.
         -5    1    4    4    0  502 -0.92163503524E+01 -0.14551598613E+02  0.33243764187E+02  0.37734970429E+02  0.47000000000E+01 0.  1.
          5    1    5    5  503    0 -0.55551002250E+02  0.18708636139E+02  0.79332702949E+01  0.59337624613E+02  0.47000000000E+01 0.  1.
         -5    1    5    5    0  503  0.43648329827E+02  0.29565708645E+02 -0.69252203997E+02  0.87162294502E+02  0.47000000000E+01 0.  1.
<mgrwt>
<rscale>  0 0.27342586E+03</rscale>
<asrwt>0</asrwt>
<pdfrwt beam="1">  1        1 0.35357482E-01 0.27342586E+03</pdfrwt>
<pdfrwt beam="2">  1       -1 0.12511551E-01 0.27342586E+03</pdfrwt>
<totfact> 0.52327804E+03</totfact>
</mgrwt>
</event>
<event>
 9    1  0.2024718E-002  0.2776594E+03  0.7818608E-02  0.1096974E+00
          1   -1    0    0  501    0  0.00000000000E+00  0.00000000000E+00  0.44538882200E+04  0.44538882200E+04  0.00000000000E+00 0. -1.
         -1   -1    0    0    0  501 -0.00000000000E+00 -0.00000000000E+00 -0.43273837494E+01  0.43273837494E+01  0.00000000000E+00 0. -1.
         36    2    1    2    0    0  0.00000000000E+00  0.00000000000E+00  0.44495608362E+04  0.44582156037E+04  0.27765938489E+03 0.  0.
         25    2    3    3    0    0 -0.32962263574E+02 -0.90083709084E+01  0.31460466903E+04  0.31486826443E+04  0.12419724382E+03 0.  0.
         25    2    3    3    0    0  0.32962263574E+02  0.90083709084E+01  0.13035141459E+04  0.13095329594E+04  0.12066392019E+03 0.  0.
          5    1    4    4  502    0 -0.16035556218E+02 -0.75094462772E+00  0.30746155664E+04  0.30746610666E+04  0.47000000000E+01 0. -1.
         -5    1    4    4    0  502 -0.16926707356E+02 -0.82574262806E+01  0.71431123844E+02  0.74021577694E+02  0.47000000000E+01 0. -1.
          5    1    5    5  503    0  0.42110548332E+02 -0.66135395107E+01  0.15380992037E+03  0.15967660690E+03  0.47000000000E+01 0.  1.
         -5    1    5    5    0  503 -0.91482847584E+01  0.15621910419E+02  0.11497042256E+04  0.11498563525E+04  0.47000000000E+01 0.  1.
<mgrwt>
<rscale>  0 0.27765938E+03</rscale>
<asrwt>0</asrwt>
<pdfrwt beam="1">  1        1 0.68520991E+00 0.27765938E+03</pdfrwt>
<pdfrwt beam="2">  1       -1 0.66575491E-03 0.27765938E+03</pdfrwt>
<totfact> 0.16565016E+02</totfact>
</mgrwt>
</event>
<event>
 9    1  0.2024718E-002  0.2743850E+03  0.7818608E-02  0.1098796E+00
         -1   -1    0    0    0  501 -0.00000000000E+00  0.00000000000E+00  0.24331404251E+02  0.24331404251E+02  0.00000000000E+00 0.  1.
          1   -1    0    0  501    0  0.00000000000E+00 -0.00000000000E+00 -0.77355908677E+03  0.77355908677E+03  0.00000000000E+00 0.  1.
         36    2    1    2    0    0 -0.10658141036E-13  0.00000000000E+00 -0.74922768252E+03  0.79789049102E+03  0.27438497665E+03 0.  0.
         25    2    3    3    0    0  0.21456234424E+02 -0.49632368335E+02 -0.39835547715E+03  0.42091202768E+03  0.12472412310E+03 0.  0.
         25    2    3    3    0    0 -0.21456234424E+02  0.49632368335E+02 -0.35087220536E+03  0.37697846334E+03  0.12679793115E+03 0.  0.
          5    1    4    4  502    0 -0.28492796507E+02 -0.37084216652E+01 -0.17369407414E+02  0.33902480115E+02  0.47000000000E+01 0.  1.
         -5    1    4    4    0  502  0.49949030931E+02 -0.45923946670E+02 -0.38098606974E+03  0.38700954756E+03  0.47000000000E+01 0.  1.
          5    1    5    5  503    0  0.52650408959E+02  0.25344422564E+02 -0.17430746830E+03  0.18390102997E+03  0.47000000000E+01 0. -1.
         -5    1    5    5    0  503 -0.74106643383E+02  0.24287945771E+02 -0.17656473706E+03  0.19307743337E+03  0.47000000000E+01 0. -1.
<mgrwt>
<rscale>  0 0.27438498E+03</rscale>
<asrwt>0</asrwt>
<pdfrwt beam="1">  1        1 0.11900907E+00 0.27438498E+03</pdfrwt>
<pdfrwt beam="2">  1       -1 0.37432936E-02 0.27438498E+03</pdfrwt>
<totfact> 0.65739740E+03</totfact>
</mgrwt>
</event>
<event>
 9    1  0.2024718E-002  0.2736409E+03  0.7818608E-02  0.1099214E+00
          2   -1    0    0  501    0  0.00000000000E+00  0.00000000000E+00  0.30297125790E+03  0.30297125790E+03  0.00000000000E+00 0. -1.
         -2   -1    0    0    0  501 -0.00000000000E+00 -0.00000000000E+00 -0.61787505368E+02  0.61787505368E+02  0.00000000000E+00 0. -1.
         36    2    1    2    0    0  0.00000000000E+00  0.00000000000E+00  0.24118375253E+03  0.36475876327E+03  0.27364091963E+03 0.  0.
         25    2    3    3    0    0 -0.50070735842E+02 -0.23125697432E+02  0.11007020959E+03  0.17377756586E+03  0.12264303848E+03 0.  0.
         25    2    3    3    0    0  0.50070735842E+02  0.23125697432E+02  0.13111354294E+03  0.19098119741E+03  0.12744088885E+03 0.  0.
          5    1    4    4  502    0  0.60209687400E+01 -0.60466018996E+02  0.78045011543E+02  0.99022751651E+02  0.47000000000E+01 0. -1.
         -5    1    4    4    0  502 -0.56091704582E+02  0.37340321564E+02  0.32025198044E+02  0.74754814207E+02  0.47000000000E+01 0. -1.
          5    1    5    5  503    0  0.22404379768E+02  0.66233720387E+02  0.11905578328E+03  0.13814930865E+03  0.47000000000E+01 0.  1.
         -5    1    5    5    0  503  0.27666356074E+02 -0.43108022955E+02  0.12057759666E+02  0.52831888757E+02  0.47000000000E+01 0.  1.
<mgrwt>
<rscale>  0 0.27364092E+03</rscale>
<asrwt>0</asrwt>
<pdfrwt beam="1">  1        2 0.46610962E-01 0.27364092E+03</pdfrwt>
<pdfrwt beam="2">  1       -2 0.95057703E-02 0.27364092E+03</pdfrwt>
<totfact> 0.77230502E+03</totfact>
</mgrwt>
</event>
<event>
 9    1  0.2024718E-002  0.2748678E+03  0.7818608E-02  0.1098526E+00
         -2   -1    0    0    0  501 -0.00000000000E+00  0.00000000000E+00  0.93748181645E+02  0.93748181645E+02  0.00000000000E+00 0. -1.
          2   -1    0    0  501    0  0.00000000000E+00 -0.00000000000E+00 -0.20147671518E+03  0.20147671518E+03  0.00000000000E+00 0. -1.
         36    2    1    2    0    0  0.17763568394E-14 -0.71054273576E-14 -0.10772853353E+03  0.29522489682E+03  0.27486779143E+03 0.  0.
         25    2    3    3    0    0 -0.77581170473E+01  0.29380208063E+02 -0.10253539265E+03  0.16494258892E+03  0.12557533949E+03 0.  0.
         25    2    3    3    0    0  0.77581170473E+01 -0.29380208063E+02 -0.51931408859E+01  0.13028230790E+03  0.12658248708E+03 0.  0.
          5    1    4    4  502    0 -0.49212359419E+02  0.30668242588E+02 -0.10817227578E+03  0.12282397433E+03  0.47000000000E+01 0.  1.
         -5    1    4    4    0  502  0.41454242371E+02 -0.12880345256E+01  0.56368831301E+01  0.42118614590E+02  0.47000000000E+01 0.  1.
          5    1    5    5  503    0  0.29600448728E+01 -0.40089719701E+01 -0.64795932112E+02  0.65157014512E+02  0.47000000000E+01 0. -1.
         -5    1    5    5    0  503  0.47980721745E+01 -0.25371236093E+02  0.59602791226E+02  0.65125293392E+02  0.47000000000E+01 0. -1.
<mgrwt>
<rscale>  0 0.27486779E+03</rscale>
<asrwt>0</asrwt>
<pdfrwt beam="1">  1        2 0.30996417E-01 0.27486779E+03</pdfrwt>
<pdfrwt beam="2">  1       -2 0.14422797E-01 0.27486779E+03</pdfrwt>
<totfact> 0.61333472E+03</totfact>
</mgrwt>
</event>
<event>
 9    1  0.2024718E-002  0.2643885E+03  0.7818608E-02  0.1104535E+00
         -1   -1    0    0    0  501 -0.00000000000E+00  0.00000000000E+00  0.65672374061E+02  0.65672374061E+02  0.00000000000E+00 0.  1.
          1   -1    0    0  501    0  0.00000000000E+00 -0.00000000000E+00 -0.26609856458E+03  0.26609856458E+03  0.00000000000E+00 0.  1.
         36    2    1    2    0    0  0.35527136788E-14 -0.71054273576E-14 -0.20042619052E+03  0.33177093864E+03  0.26438853584E+03 0.  0.
         25    2    3    3    0    0  0.30955735644E+02  0.53888773797E+02 -0.10715625276E+03  0.17984711574E+03  0.13038506442E+03 0.  0.
         25    2    3    3    0    0 -0.30955735644E+02 -0.53888773797E+02 -0.93269937755E+02  0.15192382290E+03  0.10256368346E+03 0.  0.
          5    1    4    4  502    0  0.40799566122E+02  0.43261697886E+01 -0.12049445510E+03  0.12737473867E+03  0.47000000000E+01 0. -1.
         -5    1    4    4    0  502 -0.98438304777E+01  0.49562604008E+02  0.13338202336E+02  0.52472377077E+02  0.47000000000E+01 0. -1.
          5    1    5    5  503    0  0.50007336088E+01 -0.72332299240E+02 -0.34463532480E+02  0.80416378437E+02  0.47000000000E+01 0.  1.
         -5    1    5    5    0  503 -0.35956469253E+02  0.18443525443E+02 -0.58806405275E+02  0.71507444461E+02  0.47000000000E+01 0.  1.
<mgrwt>
<rscale>  0 0.26438854E+03</rscale>
<asrwt>0</asrwt>
<pdfrwt beam="1">  1        1 0.40938240E-01 0.26438854E+03</pdfrwt>
<pdfrwt beam="2">  1       -1 0.10103442E-01 0.26438854E+03</pdfrwt>
<totfact> 0.60640984E+03</totfact>
</mgrwt>
</event>
<event>
 9    1  0.2024718E-002  0.2753610E+03  0.7818608E-02  0.1098250E+00
         -1   -1    0    0    0  501 -0.00000000000E+00  0.00000000000E+00  0.31953521182E+03  0.31953521182E+03  0.00000000000E+00 0. -1.
          1   -1    0    0  501    0  0.00000000000E+00 -0.00000000000E+00 -0.59323410109E+02  0.59323410109E+02  0.00000000000E+00 0. -1.
         36    2    1    2    0    0  0.00000000000E+00  0.00000000000E+00  0.26021180172E+03  0.37885862193E+03  0.27536098791E+03 0.  0.
         25    2    3    3    0    0  0.18675562762E+02 -0.80143636928E+01  0.21406607980E+03  0.24718587490E+03  0.12191621531E+03 0.  0.
         25    2    3    3    0    0 -0.18675562762E+02  0.80143636928E+01  0.46145721913E+02  0.13167274704E+03  0.12163584172E+03 0.  0.
          5    1    4    4  502    0 -0.50641873763E+02  0.55718939406E+01  0.70436284264E+02  0.87057484005E+02  0.47000000000E+01 0.  1.
         -5    1    4    4    0  502  0.69317436525E+02 -0.13586257633E+02  0.14362979554E+03  0.16012839089E+03  0.47000000000E+01 0.  1.
          5    1    5    5  503    0 -0.69708110719E+02  0.20585177434E+01  0.15266562192E+02  0.71544504446E+02  0.47000000000E+01 0. -1.
         -5    1    5    5    0  503  0.51032547957E+02  0.59558459493E+01  0.30879159721E+02  0.60128242591E+02  0.47000000000E+01 0. -1.
<mgrwt>
<rscale>  0 0.27536099E+03</rscale>
<asrwt>0</asrwt>
<pdfrwt beam="1">  1        1 0.91266787E-02 0.27536099E+03</pdfrwt>
<pdfrwt beam="2">  1       -1 0.49159262E-01 0.27536099E+03</pdfrwt>
<totfact> 0.30682008E+03</totfact>
</mgrwt>
</event>
<event>
 9    1  0.2024718E-002  0.2749319E+03  0.7818608E-02  0.1098490E+00
         -2   -1    0    0    0  501 -0.00000000000E+00  0.00000000000E+00  0.15227179429E+02  0.15227179429E+02  0.00000000000E+00 0. -1.
          2   -1    0    0  501    0  0.00000000000E+00 -0.00000000000E+00 -0.12409971455E+04  0.12409971455E+04  0.00000000000E+00 0. -1.
         36    2    1    2    0    0  0.71054273576E-14  0.53290705182E-14 -0.12257699661E+04  0.12562243249E+04  0.27493189124E+03 0.  0.
         25    2    3    3    0    0 -0.54292108173E+02 -0.95383932217E+01 -0.62948992542E+03  0.64421744676E+03  0.12537917910E+03 0.  0.
         25    2    3    3    0    0  0.54292108173E+02  0.95383932217E+01 -0.59628004067E+03  0.61200687818E+03  0.12634839963E+03 0.  0.
          5    1    4    4  502    0 -0.20371288269E+02 -0.63987608080E+02 -0.41025994569E+03  0.41574597582E+03  0.47000000000E+01 0.  1.
         -5    1    4    4    0  502 -0.33920819904E+02  0.54449214858E+02 -0.21922997972E+03  0.22847147093E+03  0.47000000000E+01 0.  1.
          5    1    5    5  503    0 -0.94469639186E+01  0.22291496081E+02 -0.19191452837E+02  0.31249924589E+02  0.47000000000E+01 0.  1.
         -5    1    5    5    0  503  0.63739072092E+02 -0.12753102859E+02 -0.57708858783E+03  0.58075695359E+03  0.47000000000E+01 0.  1.
<mgrwt>
<rscale>  0 0.27493189E+03</rscale>
<asrwt>0</asrwt>
<pdfrwt beam="1">  1        2 0.19092263E+00 0.27493189E+03</pdfrwt>
<pdfrwt beam="2">  1       -2 0.23426431E-02 0.27493189E+03</pdfrwt>
<totfact> 0.11575907E+04</totfact>
</mgrwt>
</event>
<event>
 9    1  0.2024718E-002  0.2752829E+03  0.7818608E-02  0.1098294E+00
          2   -1    0    0  501    0  0.00000000000E+00  0.00000000000E+00  0.50160351523E+02  0.50160351523E+02  0.00000000000E+00 0. -1.
         -2   -1    0    0    0  501 -0.00000000000E+00 -0.00000000000E+00 -0.37769199599E+03  0.37769199599E+03  0.00000000000E+00 0. -1.
         36    2    1    2    0    0  0.00000000000E+00  0.71054273576E-14 -0.32753164447E+03  0.42785234752E+03  0.27528286025E+03 0.  0.
         25    2    3    3    0    0 -0.27113091847E+02 -0.10094352080E+02 -0.18597092020E+03  0.22361031050E+03  0.12074507074E+03 0.  0.
         25    2    3    3    0    0  0.27113091847E+02  0.10094352080E+02 -0.14156072427E+03  0.20424203702E+03  0.14435496297E+03 0.  0.
          5    1    4    4  502    0 -0.40471876251E+02 -0.43722401585E+02 -0.17587397624E+03  0.18575081880E+03  0.47000000000E+01 0. -1.
         -5    1    4    4    0  502  0.13358784404E+02  0.33628049505E+02 -0.10096943961E+02  0.37859491698E+02  0.47000000000E+01 0. -1.
          5    1    5    5  503    0 -0.55421095610E+01  0.74145908005E+02 -0.81723551561E+02  0.11058553039E+03  0.47000000000E+01 0. -1.
         -5    1    5    5    0  503  0.32655201408E+02 -0.64051555925E+02 -0.59837172708E+02  0.93656506624E+02  0.47000000000E+01 0. -1.
<mgrwt>
<rscale>  0 0.27528286E+03</rscale>
<asrwt>0</asrwt>
<pdfrwt beam="1">  1        2 0.77169772E-02 0.27528286E+03</pdfrwt>
<pdfrwt beam="2">  1       -2 0.58106461E-01 0.27528286E+03</pdfrwt>
<totfact> 0.25101430E+03</totfact>
</mgrwt>
</event>
<event>
 9    1  0.2024718E-002  0.2764190E+03  0.7818608E-02  0.1097661E+00
         -1   -1    0    0    0  501 -0.00000000000E+00  0.00000000000E+00  0.48866775352E+03  0.48866775352E+03  0.00000000000E+00 0. -1.
          1   -1    0    0  501    0  0.00000000000E+00 -0.00000000000E+00 -0.39089667370E+02  0.39089667370E+02  0.00000000000E+00 0. -1.
         36    2    1    2    0    0  0.00000000000E+00 -0.71054273576E-14  0.44957808615E+03  0.52775742089E+03  0.27641895694E+03 0.  0.
         25    2    3    3    0    0 -0.26206197324E+02  0.34683222942E+02  0.12329772993E+03  0.18023733836E+03  0.12407045257E+03 0.  0.
         25    2    3    3    0    0  0.26206197324E+02 -0.34683222942E+02  0.32628035622E+03  0.34752008253E+03  0.11145243907E+03 0.  0.
          5    1    4    4  502    0 -0.73901025484E+02  0.19919461267E+02  0.50424209565E+02  0.91776017646E+02  0.47000000000E+01 0. -1.
         -5    1    4    4    0  502  0.47694828160E+02  0.14763761675E+02  0.72873520368E+02  0.88461320716E+02  0.47000000000E+01 0. -1.
          5    1    5    5  503    0  0.46242769580E+01  0.36195133688E+02  0.17717732454E+03  0.18095680692E+03  0.47000000000E+01 0. -1.
         -5    1    5    5    0  503  0.21581920366E+02 -0.70878356630E+02  0.14910303168E+03  0.16656327561E+03  0.47000000000E+01 0. -1.
<mgrwt>
<rscale>  0 0.27641896E+03</rscale>
<asrwt>0</asrwt>
<pdfrwt beam="1">  1        1 0.60137953E-02 0.27641896E+03</pdfrwt>
<pdfrwt beam="2">  1       -1 0.75179650E-01 0.27641896E+03</pdfrwt>
<totfact> 0.23845883E+03</totfact>
</mgrwt>
</event>
<event>
 9    1  0.2024718E-002  0.2775442E+03  0.7818608E-02  0.1097038E+00
         -2   -1    0    0    0  501 -0.00000000000E+00  0.00000000000E+00  0.22223187531E+02  0.22223187531E+02  0.00000000000E+00 0.  1.
          2   -1    0    0  501    0  0.00000000000E+00 -0.00000000000E+00 -0.86655853153E+03  0.86655853153E+03  0.00000000000E+00 0.  1.
         36    2    1    2    0    0 -0.71054273576E-14  0.00000000000E+00 -0.84433534400E+03  0.88878171906E+03  0.27754417848E+03 0.  0.
         25    2    3    3    0    0  0.51319484321E+02 -0.27103275158E+02 -0.49919761765E+03  0.51764171697E+03  0.12404196339E+03 0.  0.
         25    2    3    3    0    0 -0.51319484321E+02  0.27103275158E+02 -0.34513772635E+03  0.37114000209E+03  0.12351750487E+03 0.  0.
          5    1    4    4  502    0  0.63937067907E+02  0.11553707208E+02 -0.44489350111E+03  0.44963735847E+03  0.47000000000E+01 0. -1.
         -5    1    4    4    0  502 -0.12617583587E+02 -0.38656982365E+02 -0.54304116542E+02  0.68004358497E+02  0.47000000000E+01 0. -1.
          5    1    5    5  503    0  0.23241581794E+02 -0.25817802404E+01 -0.22696808969E+03  0.22821796697E+03  0.47000000000E+01 0.  1.
         -5    1    5    5    0  503 -0.74561066115E+02  0.29685055398E+02 -0.11816963666E+03  0.14292203512E+03  0.47000000000E+01 0.  1.
<mgrwt>
<rscale>  0 0.27754418E+03</rscale>
<asrwt>0</asrwt>
<pdfrwt beam="1">  1        2 0.13331668E+00 0.27754418E+03</pdfrwt>
<pdfrwt beam="2">  1       -2 0.34189524E-02 0.27754418E+03</pdfrwt>
<totfact> 0.11098820E+04</totfact>
</mgrwt>
</event>
<event>
 9    1  0.2024718E-002  0.2745539E+03  0.7818608E-02  0.1098701E+00
         -2   -1    0    0    0  501 -0.00000000000E+00  0.00000000000E+00  0.32928491051E+02  0.32928491051E+02  0.00000000000E+00 0.  1.
          2   -1    0    0  501    0  0.00000000000E+00 -0.00000000000E+00 -0.57229954534E+03  0.57229954534E+03  0.00000000000E+00 0.  1.
         36    2    1    2    0    0  0.14210854715E-13  0.71054273576E-14 -0.53937105429E+03  0.60522803640E+03  0.27455389604E+03 0.  0.
         25    2    3    3    0    0 -0.31849388502E+02 -0.23165344056E+02 -0.35200016355E+03  0.37627094528E+03  0.12698303986E+03 0.  0.
         25    2    3    3    0    0  0.31849388502E+02  0.23165344056E+02 -0.18737089075E+03  0.22895709111E+03  0.12554872425E+03 0.  0.
          5    1    4    4  502    0  0.34588779367E+02 -0.35591947295E+02 -0.24198003769E+03  0.24706193355E+03  0.47000000000E+01 0. -1.
         -5    1    4    4    0  502 -0.66438167869E+02  0.12426603239E+02 -0.11002012586E+03  0.12920901173E+03  0.47000000000E+01 0. -1.
          5    1    5    5  503    0  0.79080212026E+02  0.47775148351E+01 -0.12951402963E+03  0.15189627531E+03  0.47000000000E+01 0.  1.
         -5    1    5    5    0  503 -0.47230823524E+02  0.18387829221E+02 -0.57856861113E+02  0.77060815802E+02  0.47000000000E+01 0.  1.
<mgrwt>
<rscale>  0 0.27455390E+03</rscale>
<asrwt>0</asrwt>
<pdfrwt beam="1">  1        2 0.88046087E-01 0.27455390E+03</pdfrwt>
<pdfrwt beam="2">  1       -2 0.50659215E-02 0.27455390E+03</pdfrwt>
<totfact> 0.10181298E+04</totfact>
</mgrwt>
</event>
<event>
 9    1  0.2024718E-002  0.2748850E+03  0.7818608E-02  0.1098516E+00
          2   -1    0    0  501    0  0.00000000000E+00  0.00000000000E+00  0.11831646129E+02  0.11831646129E+02  0.00000000000E+00 0. -1.
         -2   -1    0    0    0  501 -0.00000000000E+00 -0.00000000000E+00 -0.15966025442E+04  0.15966025442E+04  0.00000000000E+00 0. -1.
         36    2    1    2    0    0  0.00000000000E+00  0.00000000000E+00 -0.15847708980E+04  0.16084341903E+04  0.27488496730E+03 0.  0.
         25    2    3    3    0    0 -0.18742633174E+02  0.71056105182E+01 -0.11068083975E+04  0.11143742253E+04  0.12807540490E+03 0.  0.
         25    2    3    3    0    0  0.18742633174E+02 -0.71056105182E+01 -0.47796250057E+03  0.49405996498E+03  0.12347194438E+03 0.  0.
          5    1    4    4  502    0 -0.10856585239E+00 -0.59040884643E+02 -0.59765562101E+03  0.60058319088E+03  0.47000000000E+01 0. -1.
         -5    1    4    4    0  502 -0.18634067322E+02  0.66146495161E+02 -0.50915277646E+03  0.51379103443E+03  0.47000000000E+01 0. -1.
          5    1    5    5  503    0  0.44043226646E+02 -0.39804319024E+02 -0.41050078287E+03  0.41479774874E+03  0.47000000000E+01 0. -1.
         -5    1    5    5    0  503 -0.25300593472E+02  0.32698708506E+02 -0.67461717698E+02  0.79262216237E+02  0.47000000000E+01 0. -1.
<mgrwt>
<rscale>  0 0.27488497E+03</rscale>
<asrwt>0</asrwt>
<pdfrwt beam="1">  1        2 0.18202542E-02 0.27488497E+03</pdfrwt>
<pdfrwt beam="2">  1       -2 0.24563103E+00 0.27488497E+03</pdfrwt>
<totfact> 0.47503813E+02</totfact>
</mgrwt>
</event>
<event>
 9    1  0.2024718E-002  0.2752019E+03  0.7818608E-02  0.1098339E+00
          2   -1    0    0  501    0  0.00000000000E+00  0.00000000000E+00  0.36274369951E+03  0.36274369951E+03  0.00000000000E+00 0. -1.
         -2   -1    0    0    0  501 -0.00000000000E+00 -0.00000000000E+00 -0.52196705640E+02  0.52196705640E+02  0.00000000000E+00 0. -1.
         36    2    1    2    0    0  0.35527136788E-14  0.35527136788E-14  0.31054699387E+03  0.41494040514E+03  0.27520193390E+03 0.  0.
         25    2    3    3    0    0  0.70675274064E+01  0.26087311900E+02  0.76413080995E+02  0.14878213286E+03  0.12476644712E+03 0.  0.
         25    2    3    3    0    0 -0.70675274064E+01 -0.26087311900E+02  0.23413391287E+03  0.26615827228E+03  0.12365694062E+03 0.  0.
          5    1    4    4  502    0 -0.33065119937E+02  0.47668611507E+02 -0.16987821046E+01  0.58228640205E+02  0.47000000000E+01 0.  1.
         -5    1    4    4    0  502  0.40132647344E+02 -0.21581299606E+02  0.78111863100E+02  0.90553492657E+02  0.47000000000E+01 0.  1.
          5    1    5    5  503    0 -0.84338214463E+01 -0.50253540228E+02  0.27568068688E+02  0.58126035998E+02  0.47000000000E+01 0.  1.
         -5    1    5    5    0  503  0.13662940399E+01  0.24166228328E+02  0.20656584418E+03  0.20803223629E+03  0.47000000000E+01 0.  1.
<mgrwt>
<rscale>  0 0.27520193E+03</rscale>
<asrwt>0</asrwt>
<pdfrwt beam="1">  1        2 0.55806721E-01 0.27520193E+03</pdfrwt>
<pdfrwt beam="2">  1       -2 0.80302626E-02 0.27520193E+03</pdfrwt>
<totfact> 0.82950191E+03</totfact>
</mgrwt>
</event>
<event>
 9    1  0.2024718E-002  0.2766985E+03  0.7818608E-02  0.1097506E+00
          1   -1    0    0  501    0  0.00000000000E+00  0.00000000000E+00  0.52804241767E+03  0.52804241767E+03  0.00000000000E+00 0.  1.
         -1   -1    0    0    0  501 -0.00000000000E+00 -0.00000000000E+00 -0.36248074406E+02  0.36248074406E+02  0.00000000000E+00 0.  1.
         36    2    1    2    0    0  0.35527136788E-14  0.00000000000E+00  0.49179434327E+03  0.56429049208E+03  0.27669854243E+03 0.  0.
         25    2    3    3    0    0  0.25275314198E+02 -0.42036052601E+01  0.14857333970E+03  0.19608608808E+03  0.12537625318E+03 0.  0.
         25    2    3    3    0    0 -0.25275314198E+02  0.42036052601E+01  0.34322100357E+03  0.36820440400E+03  0.13083315342E+03 0.  0.
          5    1    4    4  502    0  0.45530752894E+02  0.40755288083E+02  0.31379012728E+02  0.68853288996E+02  0.47000000000E+01 0. -1.
         -5    1    4    4    0  502 -0.20255438696E+02 -0.44958893343E+02  0.11719432697E+03  0.12723279908E+03  0.47000000000E+01 0. -1.
          5    1    5    5  503    0 -0.21664323673E+02 -0.47342628272E+02  0.28691075963E+03  0.29163425959E+03  0.47000000000E+01 0. -1.
         -5    1    5    5    0  503 -0.36109905251E+01  0.51546233532E+02  0.56310243932E+02  0.76570144414E+02  0.47000000000E+01 0. -1.
<mgrwt>
<rscale>  0 0.27669854E+03</rscale>
<asrwt>0</asrwt>
<pdfrwt beam="1">  1        1 0.81237289E-01 0.27669854E+03</pdfrwt>
<pdfrwt beam="2">  1       -1 0.55766272E-02 0.27669854E+03</pdfrwt>
<totfact> 0.62357395E+03</totfact>
</mgrwt>
</event>
<event>
 9    1  0.2024718E-002  0.2750130E+03  0.7818608E-02  0.1098444E+00
          2   -1    0    0  501    0  0.00000000000E+00  0.00000000000E+00  0.84139084403E+03  0.84139084403E+03  0.00000000000E+00 0. -1.
         -2   -1    0    0    0  501 -0.00000000000E+00 -0.00000000000E+00 -0.22472351495E+02  0.22472351495E+02  0.00000000000E+00 0. -1.
         36    2    1    2    0    0  0.00000000000E+00  0.00000000000E+00  0.81891849254E+03  0.86386319553E+03  0.27501295091E+03 0.  0.
         25    2    3    3    0    0 -0.15303360519E+02  0.26143831503E+02  0.46158866981E+03  0.47963223087E+03  0.12674890149E+03 0.  0.
         25    2    3    3    0    0  0.15303360519E+02 -0.26143831503E+02  0.35732982273E+03  0.38423096465E+03  0.13795339509E+03 0.  0.
          5    1    4    4  502    0  0.33818603346E+02  0.41339995916E+02  0.92233270279E+02  0.10668532861E+03  0.47000000000E+01 0. -1.
         -5    1    4    4    0  502 -0.49121963865E+02 -0.15196164413E+02  0.36935539953E+03  0.37294690226E+03  0.47000000000E+01 0. -1.
          5    1    5    5  503    0 -0.32535979602E+02 -0.55887194925E+02  0.89603944358E+02  0.11060255589E+03  0.47000000000E+01 0.  1.
         -5    1    5    5    0  503  0.47839340121E+02  0.29743363422E+02  0.26772587838E+03  0.27362840876E+03  0.47000000000E+01 0.  1.
<mgrwt>
<rscale>  0 0.27501295E+03</rscale>
<asrwt>0</asrwt>
<pdfrwt beam="1">  1        2 0.12944472E+00 0.27501295E+03</pdfrwt>
<pdfrwt beam="2">  1       -2 0.34572855E-02 0.27501295E+03</pdfrwt>
<totfact> 0.11340745E+04</totfact>
</mgrwt>
</event>
<event>
 9    1  0.2024718E-002  0.2825787E+03  0.7818608E-02  0.1094289E+00
         -2   -1    0    0    0  501 -0.00000000000E+00  0.00000000000E+00  0.29640970590E+02  0.29640970590E+02  0.00000000000E+00 0.  1.
          2   -1    0    0  501    0  0.00000000000E+00 -0.00000000000E+00 -0.67348286831E+03  0.67348286831E+03  0.00000000000E+00 0.  1.
         36    2    1    2    0    0  0.00000000000E+00  0.00000000000E+00 -0.64384189772E+03  0.70312383890E+03  0.28257873871E+03 0.  0.
         25    2    3    3    0    0 -0.38389576421E+02 -0.33168858797E+02 -0.22183563971E+03  0.25999546912E+03  0.12574840018E+03 0.  0.
         25    2    3    3    0    0  0.38389576421E+02  0.33168858797E+02 -0.42200625801E+03  0.44312836977E+03  0.12529779539E+03 0.  0.
          5    1    4    4  502    0 -0.48231313511E+02 -0.40818959608E+02 -0.23371194789E+03  0.24214832573E+03  0.47000000000E+01 0. -1.
         -5    1    4    4    0  502  0.98417370900E+01  0.76501008112E+01  0.11876308180E+02  0.17847143395E+02  0.47000000000E+01 0. -1.
          5    1    5    5  503    0 -0.44528581311E+02  0.46473853908E+01 -0.10634058297E+03  0.11547641461E+03  0.47000000000E+01 0.  1.
         -5    1    5    5    0  503  0.82918157733E+02  0.28521473406E+02 -0.31566567504E+03  0.32765195517E+03  0.47000000000E+01 0.  1.
<mgrwt>
<rscale>  0 0.28257874E+03</rscale>
<asrwt>0</asrwt>
<pdfrwt beam="1">  1        2 0.10361275E+00 0.28257874E+03</pdfrwt>
<pdfrwt beam="2">  1       -2 0.45601491E-02 0.28257874E+03</pdfrwt>
<totfact> 0.98770864E+03</totfact>
</mgrwt>
</event>
<event>
 9    1  0.2024718E-002  0.2751407E+03  0.7818608E-02  0.1098373E+00
          1   -1    0    0  501    0  0.00000000000E+00  0.00000000000E+00  0.56881718172E+03  0.56881718172E+03  0.00000000000E+00 0. -1.
         -1   -1    0    0    0  501 -0.00000000000E+00 -0.00000000000E+00 -0.33271859230E+02  0.33271859230E+02  0.00000000000E+00 0. -1.
         36    2    1    2    0    0  0.71054273576E-14 -0.71054273576E-14  0.53554532249E+03  0.60208904095E+03  0.27514072907E+03 0.  0.
         25    2    3    3    0    0  0.27090547754E+02 -0.39447382150E+02  0.21576080227E+03  0.25494067685E+03  0.12709064159E+03 0.  0.
         25    2    3    3    0    0 -0.27090547754E+02  0.39447382150E+02  0.31978452022E+03  0.34714836410E+03  0.12633231412E+03 0.  0.
          5    1    4    4  502    0 -0.40867626844E+02 -0.31455821206E+02  0.37491487231E+02  0.63932254977E+02  0.47000000000E+01 0. -1.
         -5    1    4    4    0  502  0.67958174598E+02 -0.79915609443E+01  0.17826931504E+03  0.19100842187E+03  0.47000000000E+01 0. -1.
          5    1    5    5  503    0 -0.52536527056E+02  0.65011273498E+02  0.28415620589E+03  0.29623198967E+03  0.47000000000E+01 0. -1.
         -5    1    5    5    0  503  0.25445979302E+02 -0.25563891348E+02  0.35628314327E+02  0.50916374432E+02  0.47000000000E+01 0. -1.
<mgrwt>
<rscale>  0 0.27514073E+03</rscale>
<asrwt>0</asrwt>
<pdfrwt beam="1">  1        1 0.87510328E-01 0.27514073E+03</pdfrwt>
<pdfrwt beam="2">  1       -1 0.51187480E-02 0.27514073E+03</pdfrwt>
<totfact> 0.64102158E+03</totfact>
</mgrwt>
</event>
<event>
 9    1  0.2024718E-002  0.2753136E+03  0.7818608E-02  0.1098276E+00
         -2   -1    0    0    0  501 -0.00000000000E+00  0.00000000000E+00  0.10778108285E+02  0.10778108285E+02  0.00000000000E+00 0. -1.
          2   -1    0    0  501    0  0.00000000000E+00 -0.00000000000E+00 -0.17581372570E+04  0.17581372570E+04  0.00000000000E+00 0. -1.
         36    2    1    2    0    0  0.17763568394E-14  0.00000000000E+00 -0.17473591487E+04  0.17689153653E+04  0.27531359382E+03 0.  0.
         25    2    3    3    0    0  0.12291438265E+02 -0.52758414141E+02 -0.97729838632E+03  0.98677703546E+03  0.12522879894E+03 0.  0.
         25    2    3    3    0    0 -0.12291438265E+02  0.52758414141E+02 -0.77006076240E+03  0.78213832984E+03  0.12574680707E+03 0.  0.
          5    1    4    4  502    0 -0.14781079475E+02  0.16724479489E+02 -0.36667210994E+02  0.43182900397E+02  0.47000000000E+01 0. -1.
         -5    1    4    4    0  502  0.27072517739E+02 -0.69482893631E+02 -0.94063117533E+03  0.94359413506E+03  0.47000000000E+01 0. -1.
          5    1    5    5  503    0  0.10790272646E+02 -0.37689884005E+02 -0.15172681377E+03  0.15678033473E+03  0.47000000000E+01 0. -1.
         -5    1    5    5    0  503 -0.23081710911E+02  0.90448298146E+02 -0.61833394863E+03  0.62535799511E+03  0.47000000000E+01 0. -1.
<mgrwt>
<rscale>  0 0.27531359E+03</rscale>
<asrwt>0</asrwt>
<pdfrwt beam="1">  1        2 0.27048278E+00 0.27531359E+03</pdfrwt>
<pdfrwt beam="2">  1       -2 0.16581697E-02 0.27531359E+03</pdfrwt>
<totfact> 0.10140685E+04</totfact>
</mgrwt>
</event>
<event>
 9    1  0.2024718E-002  0.2741619E+03  0.7818608E-02  0.1098921E+00
          1   -1    0    0  501    0  0.00000000000E+00  0.00000000000E+00  0.89730095601E+02  0.89730095601E+02  0.00000000000E+00 0. -1.
         -1   -1    0    0    0  501 -0.00000000000E+00 -0.00000000000E+00 -0.20941897017E+03  0.20941897017E+03  0.00000000000E+00 0. -1.
         36    2    1    2    0    0  0.00000000000E+00  0.00000000000E+00 -0.11968887456E+03  0.29914906577E+03  0.27416188075E+03 0.  0.
         25    2    3    3    0    0 -0.18700943564E+02  0.55222429510E+02 -0.47985786455E+02  0.14408580965E+03  0.12271447685E+03 0.  0.
         25    2    3    3    0    0  0.18700943564E+02 -0.55222429510E+02 -0.71703088110E+02  0.15506325612E+03  0.12451521410E+03 0.  0.
          5    1    4    4  502    0  0.49065715309E+02  0.18719061661E+02  0.98551149078E+00  0.52734323937E+02  0.47000000000E+01 0.  1.
         -5    1    4    4    0  502 -0.67766658873E+02  0.36503367849E+02 -0.48971297945E+02  0.91351485711E+02  0.47000000000E+01 0.  1.
          5    1    5    5  503    0  0.55864303203E+02 -0.48433009804E+02 -0.23260247517E+00  0.74085902269E+02  0.47000000000E+01 0. -1.
         -5    1    5    5    0  503 -0.37163359640E+02 -0.67894197056E+01 -0.71470485635E+02  0.80977353850E+02  0.47000000000E+01 0. -1.
<mgrwt>
<rscale>  0 0.27416188E+03</rscale>
<asrwt>0</asrwt>
<pdfrwt beam="1">  1        1 0.13804630E-01 0.27416188E+03</pdfrwt>
<pdfrwt beam="2">  1       -1 0.32218303E-01 0.27416188E+03</pdfrwt>
<totfact> 0.37389239E+03</totfact>
</mgrwt>
</event>
<event>
 9    1  0.2024718E-002  0.2737168E+03  0.7818608E-02  0.1099171E+00
          2   -1    0    0  501    0  0.00000000000E+00  0.00000000000E+00  0.60444842477E+02  0.60444842477E+02  0.00000000000E+00 0. -1.
         -2   -1    0    0    0  501 -0.00000000000E+00 -0.00000000000E+00 -0.30987301220E+03  0.30987301220E+03  0.00000000000E+00 0. -1.
         36    2    1    2    0    0  0.17763568394E-14 -0.71054273576E-14 -0.24942816972E+03  0.37031785468E+03  0.27371682747E+03 0.  0.
         25    2    3    3    0    0  0.14813151342E+02 -0.46814637375E+02 -0.16569066665E+03  0.21398047726E+03  0.12618719392E+03 0.  0.
         25    2    3    3    0    0 -0.14813151342E+02  0.46814637375E+02 -0.83737503074E+02  0.15633737741E+03  0.12254944484E+03 0.  0.
          5    1    4    4  502    0  0.66757954609E+01  0.17204958179E+02 -0.14471101519E+03  0.14595870905E+03  0.47000000000E+01 0. -1.
         -5    1    4    4    0  502  0.81373558808E+01 -0.64019595554E+02 -0.20979651462E+02  0.68021768215E+02  0.47000000000E+01 0. -1.
          5    1    5    5  503    0 -0.46127224888E+02  0.49299671019E+01  0.11103872330E+02  0.47931319951E+02  0.47000000000E+01 0.  1.
         -5    1    5    5    0  503  0.31314073546E+02  0.41884670273E+02 -0.94841375404E+02  0.10840605746E+03  0.47000000000E+01 0.  1.
<mgrwt>
<rscale>  0 0.27371683E+03</rscale>
<asrwt>0</asrwt>
<pdfrwt beam="1">  1        2 0.92992065E-02 0.27371683E+03</pdfrwt>
<pdfrwt beam="2">  1       -2 0.47672771E-01 0.27371683E+03</pdfrwt>
<totfact> 0.29549717E+03</totfact>
</mgrwt>
</event>
<event>
 9    1  0.2024718E-002  0.2649405E+03  0.7818608E-02  0.1104211E+00
          2   -1    0    0  501    0  0.00000000000E+00  0.00000000000E+00  0.72019180137E+03  0.72019180137E+03  0.00000000000E+00 0. -1.
         -2   -1    0    0    0  501 -0.00000000000E+00 -0.00000000000E+00 -0.24366242177E+02  0.24366242177E+02  0.00000000000E+00 0. -1.
         36    2    1    2    0    0  0.00000000000E+00  0.00000000000E+00  0.69582555920E+03  0.74455804355E+03  0.26494050537E+03 0.  0.
         25    2    3    3    0    0 -0.35687638160E+02  0.62676282391E+02  0.23308334041E+03  0.25981520474E+03  0.89298225887E+02 0.  0.
         25    2    3    3    0    0  0.35687638160E+02 -0.62676282391E+02  0.46274221878E+03  0.48474283881E+03  0.12507331784E+03 0.  0.
          5    1    4    4  502    0 -0.12056801246E+02  0.62640321695E+02  0.69447735503E+02  0.94415328866E+02  0.47000000000E+01 0. -1.
         -5    1    4    4    0  502 -0.23630836914E+02  0.35960695571E-01  0.16363560491E+03  0.16539987588E+03  0.47000000000E+01 0. -1.
          5    1    5    5  503    0 -0.22602950796E+02 -0.77885553330E+02  0.31041516619E+03  0.32086869308E+03  0.47000000000E+01 0.  1.
         -5    1    5    5    0  503  0.58290588956E+02  0.15209270939E+02  0.15232705260E+03  0.16387414572E+03  0.47000000000E+01 0.  1.
<mgrwt>
<rscale>  0 0.26494051E+03</rscale>
<asrwt>0</asrwt>
<pdfrwt beam="1">  1        2 0.11079872E+00 0.26494051E+03</pdfrwt>
<pdfrwt beam="2">  1       -2 0.37486532E-02 0.26494051E+03</pdfrwt>
<totfact> 0.12204190E+04</totfact>
</mgrwt>
</event>
<event>
 9    1  0.2024718E-002  0.2749122E+03  0.7818608E-02  0.1098501E+00
         -1   -1    0    0    0  501 -0.00000000000E+00  0.00000000000E+00  0.11934957655E+03  0.11934957655E+03  0.00000000000E+00 0. -1.
          1   -1    0    0  501    0  0.00000000000E+00 -0.00000000000E+00 -0.15830959023E+03  0.15830959023E+03  0.00000000000E+00 0. -1.
         36    2    1    2    0    0 -0.17763568394E-14  0.00000000000E+00 -0.38960013682E+02  0.27765916679E+03  0.27491222278E+03 0.  0.
         25    2    3    3    0    0  0.15768489895E+02  0.16675409475E+02 -0.72201786612E+02  0.14449335265E+03  0.12303867854E+03 0.  0.
         25    2    3    3    0    0 -0.15768489895E+02 -0.16675409475E+02  0.33241772930E+02  0.13316581414E+03  0.12689130795E+03 0.  0.
          5    1    4    4  502    0 -0.49500873957E+01  0.53844381557E+02  0.67375373931E+01  0.54691911656E+02  0.47000000000E+01 0.  1.
         -5    1    4    4    0  502  0.20718577290E+02 -0.37168972081E+02 -0.78939324005E+02  0.89801440995E+02  0.47000000000E+01 0.  1.
          5    1    5    5  503    0  0.29305977734E+02  0.43851693033E+02  0.18771142402E+02  0.56180575824E+02  0.47000000000E+01 0.  1.
         -5    1    5    5    0  503 -0.45074467628E+02 -0.60527102508E+02  0.14470630527E+02  0.76985238312E+02  0.47000000000E+01 0.  1.
<mgrwt>
<rscale>  0 0.27491222E+03</rscale>
<asrwt>0</asrwt>
<pdfrwt beam="1">  1        1 0.24355321E-01 0.27491222E+03</pdfrwt>
<pdfrwt beam="2">  1       -1 0.18361473E-01 0.27491222E+03</pdfrwt>
<totfact> 0.45579695E+03</totfact>
</mgrwt>
</event>
<event>
 9    1  0.2024718E-002  0.2757006E+03  0.7818608E-02  0.1098061E+00
          2   -1    0    0  501    0  0.00000000000E+00  0.00000000000E+00  0.11502583208E+04  0.11502583208E+04  0.00000000000E+00 0.  1.
         -2   -1    0    0    0  501 -0.00000000000E+00 -0.00000000000E+00 -0.16520375927E+02  0.16520375927E+02  0.00000000000E+00 0.  1.
         36    2    1    2    0    0 -0.71054273576E-14  0.14210854715E-13  0.11337379449E+04  0.11667786967E+04  0.27570056128E+03 0.  0.
         25    2    3    3    0    0  0.30374378232E+02 -0.46085092484E+02  0.47636683568E+03  0.49534217624E+03  0.12406478480E+03 0.  0.
         25    2    3    3    0    0 -0.30374378232E+02  0.46085092484E+02  0.65737110918E+03  0.67143652047E+03  0.12507512636E+03 0.  0.
          5    1    4    4  502    0 -0.33083394095E+02 -0.35059775166E+02  0.78285405541E+02  0.92056469192E+02  0.47000000000E+01 0.  1.
         -5    1    4    4    0  502  0.63457772326E+02 -0.11025317318E+02  0.39808143014E+03  0.40328570705E+03  0.47000000000E+01 0.  1.
          5    1    5    5  503    0  0.41677481550E+02 -0.12379001770E+02  0.22092319536E+03  0.22520968097E+03  0.47000000000E+01 0.  1.
         -5    1    5    5    0  503 -0.72051859782E+02  0.58464094253E+02  0.43644791381E+03  0.44622683950E+03  0.47000000000E+01 0.  1.
<mgrwt>
<rscale>  0 0.27570056E+03</rscale>
<asrwt>0</asrwt>
<pdfrwt beam="1">  1        2 0.17696276E+00 0.27570056E+03</pdfrwt>
<pdfrwt beam="2">  1       -2 0.25415972E-02 0.27570056E+03</pdfrwt>
<totfact> 0.11557931E+04</totfact>
</mgrwt>
</event>
<event>
 9    1  0.2024718E-002  0.2750693E+03  0.7818608E-02  0.1098413E+00
         -3   -1    0    0    0  501 -0.00000000000E+00  0.00000000000E+00  0.11753230014E+03  0.11753230014E+03  0.00000000000E+00 0.  1.
          3   -1    0    0  501    0  0.00000000000E+00 -0.00000000000E+00 -0.16094111245E+03  0.16094111245E+03  0.00000000000E+00 0.  1.
         36    2    1    2    0    0  0.00000000000E+00  0.17763568394E-14 -0.43408812304E+02  0.27847341259E+03  0.27506929406E+03 0.  0.
         25    2    3    3    0    0  0.42814817976E+02  0.47172378454E+01 -0.56989183233E+02  0.14565963044E+03  0.12693935545E+03 0.  0.
         25    2    3    3    0    0 -0.42814817976E+02 -0.47172378454E+01  0.13580370929E+02  0.13281378215E+03  0.12489881218E+03 0.  0.
          5    1    4    4  502    0  0.68898482786E+02  0.27584796704E+02  0.49333911936E+01  0.74527513631E+02  0.47000000000E+01 0.  1.
         -5    1    4    4    0  502 -0.26083664810E+02 -0.22867558859E+02 -0.61922574426E+02  0.71132116809E+02  0.47000000000E+01 0.  1.
          5    1    5    5  503    0 -0.54897379641E+01  0.19294114042E+01  0.66846939661E+02  0.67264130064E+02  0.47000000000E+01 0. -1.
         -5    1    5    5    0  503 -0.37325080011E+02 -0.66466492497E+01 -0.53266568732E+02  0.65549652086E+02  0.47000000000E+01 0. -1.
<mgrwt>
<rscale>  0 0.27506929E+03</rscale>
<asrwt>0</asrwt>
<pdfrwt beam="1">  1        3 0.24760171E-01 0.27506929E+03</pdfrwt>
<pdfrwt beam="2">  1       -3 0.18081892E-01 0.27506929E+03</pdfrwt>
<totfact> 0.10428351E+03</totfact>
</mgrwt>
</event>
<event>
 9    1  0.2024718E-002  0.2742159E+03  0.7818608E-02  0.1098891E+00
         -2   -1    0    0    0  501 -0.00000000000E+00  0.00000000000E+00  0.15533282353E+02  0.15533282353E+02  0.00000000000E+00 0.  1.
          2   -1    0    0  501    0  0.00000000000E+00 -0.00000000000E+00 -0.12102133273E+04  0.12102133273E+04  0.00000000000E+00 0.  1.
         36    2    1    2    0    0  0.14210854715E-13  0.00000000000E+00 -0.11946800449E+04  0.12257466096E+04  0.27421586621E+03 0.  0.
         25    2    3    3    0    0  0.56888917168E+02  0.27641647040E+02 -0.59006548328E+03  0.60475064874E+03  0.11638583694E+03 0.  0.
         25    2    3    3    0    0 -0.56888917168E+02 -0.27641647040E+02 -0.60461456165E+03  0.62099596090E+03  0.12679434430E+03 0.  0.
          5    1    4    4  502    0  0.57115119512E+02 -0.36620104285E+02 -0.29793840416E+03  0.30560194958E+03  0.47000000000E+01 0.  1.
         -5    1    4    4    0  502 -0.22620234370E+00  0.64261751325E+02 -0.29212707912E+03  0.29914869916E+03  0.47000000000E+01 0.  1.
          5    1    5    5  503    0 -0.49973773024E+02 -0.75812500393E+02 -0.34265187863E+03  0.35450996197E+03  0.47000000000E+01 0.  1.
         -5    1    5    5    0  503 -0.69151441439E+01  0.48170853353E+02 -0.26196268302E+03  0.26648599893E+03  0.47000000000E+01 0.  1.
<mgrwt>
<rscale>  0 0.27421587E+03</rscale>
<asrwt>0</asrwt>
<pdfrwt beam="1">  1        2 0.18618663E+00 0.27421587E+03</pdfrwt>
<pdfrwt beam="2">  1       -2 0.23897363E-02 0.27421587E+03</pdfrwt>
<totfact> 0.11698212E+04</totfact>
</mgrwt>
</event>
<event>
 9    1  0.2024718E-002  0.2691548E+03  0.7818608E-02  0.1101764E+00
         -2   -1    0    0    0  501 -0.00000000000E+00  0.00000000000E+00  0.56789162468E+01  0.56789162468E+01  0.00000000000E+00 0.  1.
          2   -1    0    0  501    0  0.00000000000E+00 -0.00000000000E+00 -0.31891777184E+04  0.31891777184E+04  0.00000000000E+00 0.  1.
         36    2    1    2    0    0  0.00000000000E+00  0.00000000000E+00 -0.31834988022E+04  0.31948566347E+04  0.26915477450E+03 0.  0.
         25    2    3    3    0    0  0.28649049299E+02 -0.30018822610E+02 -0.19305882950E+04  0.19349286976E+04  0.12270290366E+03 0.  0.
         25    2    3    3    0    0 -0.28649049299E+02  0.30018822610E+02 -0.12529105072E+04  0.12599279370E+04  0.12614186333E+03 0.  0.
          5    1    4    4  502    0 -0.47449999665E+02 -0.69663680035E+01 -0.88489864368E+03  0.88620975640E+03  0.47000000000E+01 0. -1.
         -5    1    4    4    0  502  0.76099048964E+02 -0.23052454607E+02 -0.10456896513E+04  0.10487189412E+04  0.47000000000E+01 0. -1.
          5    1    5    5  503    0 -0.52248434839E+02 -0.81215017617E+01 -0.23092318176E+03  0.23694611963E+03  0.47000000000E+01 0. -1.
         -5    1    5    5    0  503  0.23599385540E+02  0.38140324372E+02 -0.10219873255E+04  0.10229818174E+04  0.47000000000E+01 0. -1.
<mgrwt>
<rscale>  0 0.26915477E+03</rscale>
<asrwt>0</asrwt>
<pdfrwt beam="1">  1        2 0.49064360E+00 0.26915477E+03</pdfrwt>
<pdfrwt beam="2">  1       -2 0.87367786E-03 0.26915477E+03</pdfrwt>
<totfact> 0.41562711E+03</totfact>
</mgrwt>
</event>
<event>
 9    1  0.2024718E-002  0.2762708E+03  0.7818608E-02  0.1097743E+00
          2   -1    0    0  501    0  0.00000000000E+00  0.00000000000E+00  0.29921205744E+04  0.29921205744E+04  0.00000000000E+00 0.  1.
         -2   -1    0    0    0  501 -0.00000000000E+00 -0.00000000000E+00 -0.63772116120E+01  0.63772116120E+01  0.00000000000E+00 0.  1.
         36    2    1    2    0    0 -0.71054273576E-14  0.71054273576E-14  0.29857433628E+04  0.29984977860E+04  0.27627078073E+03 0.  0.
         25    2    3    3    0    0  0.51621594572E+02  0.11338584507E+02  0.11311523639E+04  0.11388564789E+04  0.12122316869E+03 0.  0.
         25    2    3    3    0    0 -0.51621594572E+02 -0.11338584507E+02  0.18545909988E+04  0.18596413071E+04  0.12635135723E+03 0.  0.
          5    1    4    4  502    0 -0.20971392794E+02 -0.23156010741E+02  0.10758348522E+03  0.11212625224E+03  0.47000000000E+01 0.  1.
         -5    1    4    4    0  502  0.72592987367E+02  0.34494595247E+02  0.10235688787E+04  0.10267302267E+04  0.47000000000E+01 0.  1.
          5    1    5    5  503    0  0.84455945172E+01 -0.47219351866E+02  0.33681016364E+03  0.34024134315E+03  0.47000000000E+01 0. -1.
         -5    1    5    5    0  503 -0.60067189090E+02  0.35880767360E+02  0.15177808352E+04  0.15193999639E+04  0.47000000000E+01 0. -1.
<mgrwt>
<rscale>  0 0.27627078E+03</rscale>
<asrwt>0</asrwt>
<pdfrwt beam="1">  1        2 0.46032512E+00 0.27627078E+03</pdfrwt>
<pdfrwt beam="2">  1       -2 0.98111187E-03 0.27627078E+03</pdfrwt>
<totfact> 0.46162620E+03</totfact>
</mgrwt>
</event>
<event>
 9    1  0.2024718E-002  0.2750441E+03  0.7818608E-02  0.1098427E+00
          2   -1    0    0  501    0  0.00000000000E+00  0.00000000000E+00  0.35681628627E+04  0.35681628627E+04  0.00000000000E+00 0. -1.
         -2   -1    0    0    0  501 -0.00000000000E+00 -0.00000000000E+00 -0.53002951355E+01  0.53002951355E+01  0.00000000000E+00 0. -1.
         36    2    1    2    0    0 -0.14210854715E-13 -0.71054273576E-14  0.35628625676E+04  0.35734631579E+04  0.27504411475E+03 0.  0.
         25    2    3    3    0    0  0.47739332473E+02  0.31732937326E+02  0.16698036469E+04  0.16755054254E+04  0.12565105710E+03 0.  0.
         25    2    3    3    0    0 -0.47739332473E+02 -0.31732937326E+02  0.18930589206E+04  0.18979577324E+04  0.12363435545E+03 0.  0.
          5    1    4    4  502    0  0.81878685681E+02  0.53507336040E+01  0.13826446272E+04  0.13850851976E+04  0.47000000000E+01 0.  1.
         -5    1    4    4    0  502 -0.34139353208E+02  0.26382203722E+02  0.28715901977E+03  0.29042022785E+03  0.47000000000E+01 0.  1.
          5    1    5    5  503    0 -0.68030823516E+02 -0.56299906229E+02  0.89013823054E+03  0.89452000081E+03  0.47000000000E+01 0.  1.
         -5    1    5    5    0  503  0.20291491043E+02  0.24566968903E+02  0.10029206901E+04  0.10034377316E+04  0.47000000000E+01 0.  1.
<mgrwt>
<rscale>  0 0.27504411E+03</rscale>
<asrwt>0</asrwt>
<pdfrwt beam="1">  1        2 0.54894621E+00 0.27504411E+03</pdfrwt>
<pdfrwt beam="2">  1       -2 0.81543287E-03 0.27504411E+03</pdfrwt>
<totfact> 0.26178826E+03</totfact>
</mgrwt>
</event>
<event>
 9    1  0.2024718E-002  0.2749302E+03  0.7818608E-02  0.1098491E+00
         -1   -1    0    0    0  501 -0.00000000000E+00  0.00000000000E+00  0.25274772825E+03  0.25274772825E+03  0.00000000000E+00 0.  1.
          1   -1    0    0  501    0  0.00000000000E+00 -0.00000000000E+00 -0.74764869831E+02  0.74764869831E+02  0.00000000000E+00 0.  1.
         36    2    1    2    0    0  0.35527136788E-14  0.00000000000E+00  0.17798285842E+03  0.32751259808E+03  0.27493018025E+03 0.  0.
         25    2    3    3    0    0  0.21272391988E+02  0.54162431692E+02  0.69369494072E+02  0.15148252199E+03  0.12144440742E+03 0.  0.
         25    2    3    3    0    0 -0.21272391988E+02 -0.54162431692E+02  0.10861336435E+03  0.17603007609E+03  0.12571253361E+03 0.  0.
          5    1    4    4  502    0  0.45303322409E+01  0.53689317008E+02 -0.22061645426E+02  0.58411239243E+02  0.47000000000E+01 0. -1.
         -5    1    4    4    0  502  0.16742059747E+02  0.47311468387E+00  0.91431139497E+02  0.93071282745E+02  0.47000000000E+01 0. -1.
          5    1    5    5  503    0 -0.56449354413E+02 -0.49325603243E+01  0.64809259421E+01  0.57227197782E+02  0.47000000000E+01 0. -1.
         -5    1    5    5    0  503  0.35176962425E+02 -0.49229871368E+02  0.10213243841E+03  0.11880287831E+03  0.47000000000E+01 0. -1.
<mgrwt>
<rscale>  0 0.27493018E+03</rscale>
<asrwt>0</asrwt>
<pdfrwt beam="1">  1        1 0.11502288E-01 0.27493018E+03</pdfrwt>
<pdfrwt beam="2">  1       -1 0.38884265E-01 0.27493018E+03</pdfrwt>
<totfact> 0.34330316E+03</totfact>
</mgrwt>
</event>
<event>
 9    1  0.2024718E-002  0.2797550E+03  0.7818608E-02  0.1095823E+00
          2   -1    0    0  501    0  0.00000000000E+00  0.00000000000E+00  0.98336857503E+02  0.98336857503E+02  0.00000000000E+00 0. -1.
         -2   -1    0    0    0  501 -0.00000000000E+00 -0.00000000000E+00 -0.19896622782E+03  0.19896622782E+03  0.00000000000E+00 0. -1.
         36    2    1    2    0    0  0.14210854715E-13  0.35527136788E-14 -0.10062937032E+03  0.29730308532E+03  0.27975498990E+03 0.  0.
         25    2    3    3    0    0 -0.68325080684E+02 -0.13958620940E+02 -0.65096158511E+02  0.15700228946E+03  0.12469582709E+03 0.  0.
         25    2    3    3    0    0  0.68325080684E+02  0.13958620940E+02 -0.35533211805E+02  0.14030079586E+03  0.11644116295E+03 0.  0.
          5    1    4    4  502    0 -0.45790991585E+02  0.15707162300E+02 -0.96492025274E+02  0.10805707195E+03  0.47000000000E+01 0.  1.
         -5    1    4    4    0  502 -0.22534089099E+02 -0.29665783240E+02  0.31395866763E+02  0.48945217505E+02  0.47000000000E+01 0.  1.
          5    1    5    5  503    0  0.87631785543E+01 -0.25501968135E+02  0.31837690132E+02  0.41986571544E+02  0.47000000000E+01 0. -1.
         -5    1    5    5    0  503  0.59561902130E+02  0.39460589075E+02 -0.67370901937E+02  0.98314224318E+02  0.47000000000E+01 0. -1.
<mgrwt>
<rscale>  0 0.27975499E+03</rscale>
<asrwt>0</asrwt>
<pdfrwt beam="1">  1        2 0.15128747E-01 0.27975499E+03</pdfrwt>
<pdfrwt beam="2">  1       -2 0.30610189E-01 0.27975499E+03</pdfrwt>
<totfact> 0.37844396E+03</totfact>
</mgrwt>
</event>
<event>
 9    1  0.2024718E-002  0.2771609E+03  0.7818608E-02  0.1097250E+00
          2   -1    0    0  501    0  0.00000000000E+00  0.00000000000E+00  0.12444176227E+04  0.12444176227E+04  0.00000000000E+00 0.  1.
         -2   -1    0    0    0  501 -0.00000000000E+00 -0.00000000000E+00 -0.15432547978E+02  0.15432547978E+02  0.00000000000E+00 0.  1.
         36    2    1    2    0    0  0.00000000000E+00 -0.35527136788E-14  0.12289850748E+04  0.12598501707E+04  0.27716085342E+03 0.  0.
         25    2    3    3    0    0 -0.31405490752E+02 -0.25028386989E+02  0.72867910975E+03  0.74068128899E+03  0.12658120664E+03 0.  0.
         25    2    3    3    0    0  0.31405490752E+02  0.25028386989E+02  0.50030596502E+03  0.51916888173E+03  0.13273109703E+03 0.  0.
          5    1    4    4  502    0  0.12709051642E+02 -0.31269344467E+02  0.64382527316E+03  0.64472658101E+03  0.47000000000E+01 0. -1.
         -5    1    4    4    0  502 -0.44114542394E+02  0.62409574774E+01  0.84853836586E+02  0.95954707984E+02  0.47000000000E+01 0. -1.
          5    1    5    5  503    0  0.74717390548E+02 -0.14853967219E+02  0.22482662901E+03  0.23742879334E+03  0.47000000000E+01 0.  1.
         -5    1    5    5    0  503 -0.43311899796E+02  0.39882354208E+02  0.27547933601E+03  0.28174008839E+03  0.47000000000E+01 0.  1.
<mgrwt>
<rscale>  0 0.27716085E+03</rscale>
<asrwt>0</asrwt>
<pdfrwt beam="1">  1        2 0.19144879E+00 0.27716085E+03</pdfrwt>
<pdfrwt beam="2">  1       -2 0.23742391E-02 0.27716085E+03</pdfrwt>
<totfact> 0.11301313E+04</totfact>
</mgrwt>
</event>
<event>
 9    1  0.2024718E-002  0.2747339E+03  0.7818608E-02  0.1098600E+00
         -1   -1    0    0    0  501 -0.00000000000E+00  0.00000000000E+00  0.61157649536E+02  0.61157649536E+02  0.00000000000E+00 0.  1.
          1   -1    0    0  501    0  0.00000000000E+00 -0.00000000000E+00 -0.30854168554E+03  0.30854168554E+03  0.00000000000E+00 0.  1.
         36    2    1    2    0    0  0.00000000000E+00  0.00000000000E+00 -0.24738403600E+03  0.36969933507E+03  0.27473393872E+03 0.  0.
         25    2    3    3    0    0  0.38685525964E+02  0.27114808120E+01 -0.12726777569E+03  0.18131686685E+03  0.12318602773E+03 0.  0.
         25    2    3    3    0    0 -0.38685525964E+02 -0.27114808120E+01 -0.12011626031E+03  0.18838246822E+03  0.13984318466E+03 0.  0.
          5    1    4    4  502    0  0.47858587129E+02 -0.46568891214E+02 -0.10869237895E+03  0.12765276822E+03  0.47000000000E+01 0. -1.
         -5    1    4    4    0  502 -0.91730611644E+01  0.49280372026E+02 -0.18575396739E+02  0.53664098634E+02  0.47000000000E+01 0. -1.
          5    1    5    5  503    0 -0.68715752416E+02 -0.46807298188E+02 -0.10236564888E+03  0.13196057693E+03  0.47000000000E+01 0.  1.
         -5    1    5    5    0  503  0.30030226451E+02  0.44095817376E+02 -0.17750611430E+02  0.56421891291E+02  0.47000000000E+01 0.  1.
<mgrwt>
<rscale>  0 0.27473394E+03</rscale>
<asrwt>0</asrwt>
<pdfrwt beam="1">  1        1 0.47467953E-01 0.27473394E+03</pdfrwt>
<pdfrwt beam="2">  1       -1 0.94088690E-02 0.27473394E+03</pdfrwt>
<totfact> 0.56280593E+03</totfact>
</mgrwt>
</event>
<event>
 9    1  0.2024718E-002  0.2740955E+03  0.7818608E-02  0.1098958E+00
          2   -1    0    0  501    0  0.00000000000E+00  0.00000000000E+00  0.11263847122E+03  0.11263847122E+03  0.00000000000E+00 0.  1.
         -2   -1    0    0    0  501 -0.00000000000E+00 -0.00000000000E+00 -0.16674668112E+03  0.16674668112E+03  0.00000000000E+00 0.  1.
         36    2    1    2    0    0  0.00000000000E+00  0.71054273576E-14 -0.54108209899E+02  0.27938515235E+03  0.27409553987E+03 0.  0.
         25    2    3    3    0    0  0.52817716629E+02  0.18000066843E+02 -0.27606971207E+02  0.13913358945E+03  0.12442787975E+03 0.  0.
         25    2    3    3    0    0 -0.52817716629E+02 -0.18000066843E+02 -0.26501238691E+02  0.14025156289E+03  0.12591454104E+03 0.  0.
          5    1    4    4  502    0  0.45031316759E+02 -0.44193185441E+02 -0.40295163373E+02  0.75010981328E+02  0.47000000000E+01 0.  1.
         -5    1    4    4    0  502  0.77863998703E+01  0.62193252284E+02  0.12688192166E+02  0.64122608127E+02  0.47000000000E+01 0.  1.
          5    1    5    5  503    0 -0.84834106543E+02  0.41444560376E+01  0.11268413445E+02  0.85808328793E+02  0.47000000000E+01 0.  1.
         -5    1    5    5    0  503  0.32016389913E+02 -0.22144522880E+02 -0.37769652137E+02  0.54443234099E+02  0.47000000000E+01 0.  1.
<mgrwt>
<rscale>  0 0.27409554E+03</rscale>
<asrwt>0</asrwt>
<pdfrwt beam="1">  1        2 0.17328996E-01 0.27409554E+03</pdfrwt>
<pdfrwt beam="2">  1       -2 0.25653336E-01 0.27409554E+03</pdfrwt>
<totfact> 0.44285927E+03</totfact>
</mgrwt>
</event>
<event>
 9    1  0.2024718E-002  0.2748762E+03  0.7818608E-02  0.1098521E+00
          1   -1    0    0  501    0  0.00000000000E+00  0.00000000000E+00  0.93315116095E+03  0.93315116095E+03  0.00000000000E+00 0.  1.
         -1   -1    0    0    0  501 -0.00000000000E+00 -0.00000000000E+00 -0.20242409231E+02  0.20242409231E+02  0.00000000000E+00 0.  1.
         36    2    1    2    0    0  0.17763568394E-14 -0.71054273576E-14  0.91290875172E+03  0.95339357018E+03  0.27487617339E+03 0.  0.
         25    2    3    3    0    0  0.46339250249E+01 -0.43465478702E+02  0.36232585023E+03  0.38699358647E+03  0.12873730277E+03 0.  0.
         25    2    3    3    0    0 -0.46339250249E+01  0.43465478702E+02  0.55058290148E+03  0.56639998371E+03  0.12552565091E+03 0.  0.
          5    1    4    4  502    0 -0.88961230836E+00 -0.23192126587E+02  0.36457647427E+03  0.36534471631E+03  0.47000000000E+01 0.  1.
         -5    1    4    4    0  502  0.55235373333E+01 -0.20273352115E+02 -0.22506240379E+01  0.21648870160E+02  0.47000000000E+01 0.  1.
          5    1    5    5  503    0  0.42513359141E+02  0.67115113099E+02  0.30938995092E+03  0.31946213522E+03  0.47000000000E+01 0.  1.
         -5    1    5    5    0  503 -0.47147284166E+02 -0.23649634397E+02  0.24119295056E+03  0.24693784848E+03  0.47000000000E+01 0.  1.
<mgrwt>
<rscale>  0 0.27487617E+03</rscale>
<asrwt>0</asrwt>
<pdfrwt beam="1">  1        1 0.14356168E+00 0.27487617E+03</pdfrwt>
<pdfrwt beam="2">  1       -1 0.31142175E-02 0.27487617E+03</pdfrwt>
<totfact> 0.64130858E+03</totfact>
</mgrwt>
</event>
<event>
 9    1  0.2024718E-002  0.2757605E+03  0.7818608E-02  0.1098027E+00
         -1   -1    0    0    0  501 -0.00000000000E+00  0.00000000000E+00  0.10507582310E+03  0.10507582310E+03  0.00000000000E+00 0. -1.
          1   -1    0    0  501    0  0.00000000000E+00 -0.00000000000E+00 -0.18092611840E+03  0.18092611840E+03  0.00000000000E+00 0. -1.
         36    2    1    2    0    0 -0.71054273576E-14 -0.35527136788E-14 -0.75850295305E+02  0.28600194150E+03  0.27576048166E+03 0.  0.
         25    2    3    3    0    0 -0.51704163171E+02  0.11500453929E+02 -0.63987696628E+02  0.15062666058E+03  0.12565183894E+03 0.  0.
         25    2    3    3    0    0  0.51704163171E+02 -0.11500453929E+02 -0.11862598677E+02  0.13537528092E+03  0.12401679123E+03 0.  0.
          5    1    4    4  502    0  0.32874135019E+02 -0.19996686094E+02 -0.42908992125E+02  0.57826013291E+02  0.47000000000E+01 0.  1.
         -5    1    4    4    0  502 -0.84578298190E+02  0.31497140023E+02 -0.21078704503E+02  0.92800647292E+02  0.47000000000E+01 0.  1.
          5    1    5    5  503    0  0.33732705987E+02  0.48884841274E+02 -0.33797278713E+02  0.68497950393E+02  0.47000000000E+01 0.  1.
         -5    1    5    5    0  503  0.17971457184E+02 -0.60385295203E+02  0.21934680036E+02  0.66877330526E+02  0.47000000000E+01 0.  1.
<mgrwt>
<rscale>  0 0.27576048E+03</rscale>
<asrwt>0</asrwt>
<pdfrwt beam="1">  1        1 0.27834788E-01 0.27576048E+03</pdfrwt>
<pdfrwt beam="2">  1       -1 0.16165511E-01 0.27576048E+03</pdfrwt>
<totfact> 0.47194230E+03</totfact>
</mgrwt>
</event>
<event>
 9    1  0.2024718E-002  0.2755784E+03  0.7818608E-02  0.1098129E+00
          4   -1    0    0  501    0  0.00000000000E+00  0.00000000000E+00  0.57155147571E+03  0.57155147571E+03  0.00000000000E+00 0. -1.
         -4   -1    0    0    0  501 -0.00000000000E+00 -0.00000000000E+00 -0.33218108557E+02  0.33218108557E+02  0.00000000000E+00 0. -1.
         36    2    1    2    0    0 -0.35527136788E-14 -0.35527136788E-14  0.53833336716E+03  0.60476958427E+03  0.27557836610E+03 0.  0.
         25    2    3    3    0    0 -0.26082381153E+02  0.14664437514E+02  0.26828992207E+03  0.29801015892E+03  0.12623484543E+03 0.  0.
         25    2    3    3    0    0  0.26082381153E+02 -0.14664437514E+02  0.27004344509E+03  0.30675942535E+03  0.14241680545E+03 0.  0.
          5    1    4    4  502    0 -0.15194014239E+02 -0.55577935280E+02  0.13557080353E+03  0.14738147010E+03  0.47000000000E+01 0. -1.
         -5    1    4    4    0  502 -0.10888366914E+02  0.70242372794E+02  0.13271911854E+03  0.15062868882E+03  0.47000000000E+01 0. -1.
          5    1    5    5  503    0  0.46701431854E+02  0.10029478079E+02  0.27001478659E+03  0.27424749615E+03  0.47000000000E+01 0. -1.
         -5    1    5    5    0  503 -0.20619050701E+02 -0.24693915593E+02  0.28658497596E-01  0.32511929202E+02  0.47000000000E+01 0. -1.
<mgrwt>
<rscale>  0 0.27557837E+03</rscale>
<asrwt>0</asrwt>
<pdfrwt beam="1">  1        4 0.87930989E-01 0.27557837E+03</pdfrwt>
<pdfrwt beam="2">  1       -4 0.51104787E-02 0.27557837E+03</pdfrwt>
<totfact> 0.49586680E+02</totfact>
</mgrwt>
</event>
<event>
 9    1  0.2024718E-002  0.2750802E+03  0.7818608E-02  0.1098407E+00
         -1   -1    0    0    0  501 -0.00000000000E+00  0.00000000000E+00  0.18620921490E+03  0.18620921490E+03  0.00000000000E+00 0. -1.
          1   -1    0    0  501    0  0.00000000000E+00 -0.00000000000E+00 -0.10159150353E+03  0.10159150353E+03  0.00000000000E+00 0. -1.
         36    2    1    2    0    0  0.17763568394E-14  0.00000000000E+00  0.84617711366E+02  0.28780071843E+03  0.27508016368E+03 0.  0.
         25    2    3    3    0    0 -0.79638727287E+01  0.30420265266E+02  0.96628548216E+02  0.16114180952E+03  0.12506314659E+03 0.  0.
         25    2    3    3    0    0  0.79638727287E+01 -0.30420265266E+02 -0.12010836851E+02  0.12665890891E+03  0.12210406708E+03 0.  0.
          5    1    4    4  502    0 -0.39555203430E+02  0.67130709722E+02  0.73686731029E+02  0.10734510066E+03  0.47000000000E+01 0. -1.
         -5    1    4    4    0  502  0.31591330701E+02 -0.36710444457E+02  0.22941817187E+02  0.53796708854E+02  0.47000000000E+01 0. -1.
          5    1    5    5  503    0  0.11560318804E+02 -0.77459386558E+02 -0.11105914361E+02  0.79240323514E+02  0.47000000000E+01 0. -1.
         -5    1    5    5    0  503 -0.35964460752E+01  0.47039121293E+02 -0.90492248950E+00  0.47418585397E+02  0.47000000000E+01 0. -1.
<mgrwt>
<rscale>  0 0.27508016E+03</rscale>
<asrwt>0</asrwt>
<pdfrwt beam="1">  1        1 0.15629462E-01 0.27508016E+03</pdfrwt>
<pdfrwt beam="2">  1       -1 0.28647571E-01 0.27508016E+03</pdfrwt>
<totfact> 0.38804457E+03</totfact>
</mgrwt>
</event>
<event>
 9    1  0.2024718E-002  0.2742316E+03  0.7818608E-02  0.1098882E+00
         -2   -1    0    0    0  501 -0.00000000000E+00  0.00000000000E+00  0.78473071077E+03  0.78473071077E+03  0.00000000000E+00 0.  1.
          2   -1    0    0  501    0  0.00000000000E+00 -0.00000000000E+00 -0.23958212579E+02  0.23958212579E+02  0.00000000000E+00 0.  1.
         36    2    1    2    0    0  0.00000000000E+00 -0.35527136788E-14  0.76077249819E+03  0.80868892335E+03  0.27423161879E+03 0.  0.
         25    2    3    3    0    0  0.37420272209E+01  0.31658224226E+02  0.30156259998E+03  0.33083867376E+03  0.13227993204E+03 0.  0.
         25    2    3    3    0    0 -0.37420272209E+01 -0.31658224226E+02  0.45920989821E+03  0.47785024959E+03  0.12826100143E+03 0.  0.
          5    1    4    4  502    0  0.38883353674E+02  0.28885181343E+02  0.28908197663E+03  0.29314970255E+03  0.47000000000E+01 0. -1.
         -5    1    4    4    0  502 -0.35141326453E+02  0.27730428829E+01  0.12480623354E+02  0.37688971212E+02  0.47000000000E+01 0. -1.
          5    1    5    5  503    0 -0.56128214500E+02 -0.44030060566E+02  0.33253328422E+03  0.34013158896E+03  0.47000000000E+01 0.  1.
         -5    1    5    5    0  503  0.52386187280E+02  0.12371836341E+02  0.12667661399E+03  0.13771866062E+03  0.47000000000E+01 0.  1.
<mgrwt>
<rscale>  0 0.27423162E+03</rscale>
<asrwt>0</asrwt>
<pdfrwt beam="1">  1        2 0.36858795E-02 0.27423162E+03</pdfrwt>
<pdfrwt beam="2">  1       -2 0.12072778E+00 0.27423162E+03</pdfrwt>
<totfact> 0.12949980E+03</totfact>
</mgrwt>
</event>
<event>
 9    1  0.2024718E-002  0.2755300E+03  0.7818608E-02  0.1098156E+00
          1   -1    0    0  501    0  0.00000000000E+00  0.00000000000E+00  0.62286214419E+03  0.62286214419E+03  0.00000000000E+00 0.  1.
         -1   -1    0    0    0  501 -0.00000000000E+00 -0.00000000000E+00 -0.30470941244E+02  0.30470941244E+02  0.00000000000E+00 0.  1.
         36    2    1    2    0    0  0.35527136788E-14 -0.14210854715E-13  0.59239120295E+03  0.65333308544E+03  0.27553000416E+03 0.  0.
         25    2    3    3    0    0  0.30496572906E+02 -0.45324251219E+02  0.33045891743E+03  0.35810770593E+03  0.12670321319E+03 0.  0.
         25    2    3    3    0    0 -0.30496572906E+02  0.45324251219E+02  0.26193228552E+03  0.29522537951E+03  0.12476046569E+03 0.  0.
          5    1    4    4  502    0  0.36702538684E+02  0.26284965802E+02  0.23034247188E+03  0.23477163398E+03  0.47000000000E+01 0.  1.
         -5    1    4    4    0  502 -0.62059657775E+01 -0.71609217021E+02  0.10011644555E+03  0.12333607195E+03  0.47000000000E+01 0.  1.
          5    1    5    5  503    0 -0.19170895979E+02 -0.26777845353E+02  0.12907892409E+02  0.35683048368E+02  0.47000000000E+01 0.  1.
         -5    1    5    5    0  503 -0.11325676927E+02  0.72102096572E+02  0.24902439311E+03  0.25954233114E+03  0.47000000000E+01 0.  1.
<mgrwt>
<rscale>  0 0.27553000E+03</rscale>
<asrwt>0</asrwt>
<pdfrwt beam="1">  1        1 0.95824936E-01 0.27553000E+03</pdfrwt>
<pdfrwt beam="2">  1       -1 0.46878376E-02 0.27553000E+03</pdfrwt>
<totfact> 0.64481150E+03</totfact>
</mgrwt>
</event>
<event>
 9    1  0.2024718E-002  0.2721424E+03  0.7818608E-02  0.1100060E+00
          3   -1    0    0  501    0  0.00000000000E+00  0.00000000000E+00  0.92961153996E+02  0.92961153996E+02  0.00000000000E+00 0.  1.
         -3   -1    0    0    0  501 -0.00000000000E+00 -0.00000000000E+00 -0.19917319786E+03  0.19917319786E+03  0.00000000000E+00 0.  1.
         36    2    1    2    0    0 -0.35527136788E-14  0.00000000000E+00 -0.10621204387E+03  0.29213435186E+03  0.27214239154E+03 0.  0.
         25    2    3    3    0    0  0.12152653027E+02  0.69133466814E+02 -0.15219999411E+02  0.12424517441E+03  0.10138092411E+03 0.  0.
         25    2    3    3    0    0 -0.12152653027E+02 -0.69133466814E+02 -0.90992044455E+02  0.16788917745E+03  0.12239322097E+03 0.  0.
          5    1    4    4  502    0 -0.28197896420E+02  0.38578210807E+01  0.24373948039E+02  0.37764844618E+02  0.47000000000E+01 0.  1.
         -5    1    4    4    0  502  0.40350549447E+02  0.65275645733E+02 -0.39593947450E+02  0.86480329794E+02  0.47000000000E+01 0.  1.
          5    1    5    5  503    0  0.39711852644E+02 -0.76616254702E+02 -0.42375363550E+02  0.96254055296E+02  0.47000000000E+01 0. -1.
         -5    1    5    5    0  503 -0.51864505671E+02  0.74827878878E+01 -0.48616680905E+02  0.71635122149E+02  0.47000000000E+01 0. -1.
<mgrwt>
<rscale>  0 0.27214239E+03</rscale>
<asrwt>0</asrwt>
<pdfrwt beam="1">  1        3 0.14301716E-01 0.27214239E+03</pdfrwt>
<pdfrwt beam="2">  1       -3 0.30642030E-01 0.27214239E+03</pdfrwt>
<totfact> 0.10563057E+03</totfact>
</mgrwt>
</event>
<event>
 9    1  0.2024718E-002  0.2753699E+03  0.7818608E-02  0.1098245E+00
         -1   -1    0    0    0  501 -0.00000000000E+00  0.00000000000E+00  0.17589476353E+02  0.17589476353E+02  0.00000000000E+00 0. -1.
          1   -1    0    0  501    0  0.00000000000E+00 -0.00000000000E+00 -0.10777553299E+04  0.10777553299E+04  0.00000000000E+00 0. -1.
         36    2    1    2    0    0  0.00000000000E+00  0.00000000000E+00 -0.10601658536E+04  0.10953448063E+04  0.27536994673E+03 0.  0.
         25    2    3    3    0    0 -0.42508261559E+02  0.52414265329E+02 -0.58539195776E+03  0.60071907608E+03  0.11672813131E+03 0.  0.
         25    2    3    3    0    0  0.42508261559E+02 -0.52414265329E+02 -0.47477389580E+03  0.49462573019E+03  0.12120294272E+03 0.  0.
          5    1    4    4  502    0 -0.36505524808E+02 -0.22216067017E+02 -0.37296692632E+03  0.37543657934E+03  0.47000000000E+01 0. -1.
         -5    1    4    4    0  502 -0.60027367512E+01  0.74630332346E+02 -0.21242503144E+03  0.22528249674E+03  0.47000000000E+01 0. -1.
          5    1    5    5  503    0  0.82875474351E+01 -0.87873947903E+02 -0.27756561623E+03  0.29129928849E+03  0.47000000000E+01 0.  1.
         -5    1    5    5    0  503  0.34220714124E+02  0.35459682574E+02 -0.19720827957E+03  0.20332644170E+03  0.47000000000E+01 0.  1.
<mgrwt>
<rscale>  0 0.27536995E+03</rscale>
<asrwt>0</asrwt>
<pdfrwt beam="1">  1        1 0.16580851E+00 0.27536995E+03</pdfrwt>
<pdfrwt beam="2">  1       -1 0.27060733E-02 0.27536995E+03</pdfrwt>
<totfact> 0.61505178E+03</totfact>
</mgrwt>
</event>
<event>
 9    1  0.2024718E-002  0.2746890E+03  0.7818608E-02  0.1098626E+00
          1   -1    0    0  501    0  0.00000000000E+00  0.00000000000E+00  0.25478701870E+03  0.25478701870E+03  0.00000000000E+00 0.  1.
         -1   -1    0    0    0  501 -0.00000000000E+00 -0.00000000000E+00 -0.74036365736E+02  0.74036365736E+02  0.00000000000E+00 0.  1.
         36    2    1    2    0    0  0.71054273576E-14  0.00000000000E+00  0.18075065296E+03  0.32882338443E+03  0.27468895064E+03 0.  0.
         25    2    3    3    0    0 -0.40658356594E+02 -0.14311110323E+02  0.13784986742E+03  0.19097226610E+03  0.12493962795E+03 0.  0.
         25    2    3    3    0    0  0.40658356594E+02  0.14311110323E+02  0.42900785540E+02  0.13785111833E+03  0.12371153376E+03 0.  0.
          5    1    4    4  502    0 -0.72488952974E+02  0.93771536170E+01  0.36096603918E+02  0.81655582343E+02  0.47000000000E+01 0.  1.
         -5    1    4    4    0  502  0.31830596381E+02 -0.23688263940E+02  0.10175326350E+03  0.10931668376E+03  0.47000000000E+01 0.  1.
          5    1    5    5  503    0 -0.12967620423E+02  0.44060292135E+02  0.58378610251E+02  0.74428627942E+02  0.47000000000E+01 0.  1.
         -5    1    5    5    0  503  0.53625977017E+02 -0.29749181811E+02 -0.15477824712E+02  0.63422490390E+02  0.47000000000E+01 0.  1.
<mgrwt>
<rscale>  0 0.27468895E+03</rscale>
<asrwt>0</asrwt>
<pdfrwt beam="1">  1        1 0.39198003E-01 0.27468895E+03</pdfrwt>
<pdfrwt beam="2">  1       -1 0.11390210E-01 0.27468895E+03</pdfrwt>
<totfact> 0.53240307E+03</totfact>
</mgrwt>
</event>
<event>
 9    1  0.2024718E-002  0.2749646E+03  0.7818608E-02  0.1098471E+00
         -2   -1    0    0    0  501 -0.00000000000E+00  0.00000000000E+00  0.11864358225E+02  0.11864358225E+02  0.00000000000E+00 0. -1.
          2   -1    0    0  501    0  0.00000000000E+00 -0.00000000000E+00 -0.15931235214E+04  0.15931235214E+04  0.00000000000E+00 0. -1.
         36    2    1    2    0    0  0.14210854715E-13 -0.35527136788E-14 -0.15812591631E+04  0.16049878796E+04  0.27496463885E+03 0.  0.
         25    2    3    3    0    0 -0.58654819817E+02  0.82843506889E+01 -0.77634664539E+03  0.78838483517E+03  0.12380434630E+03 0.  0.
         25    2    3    3    0    0  0.58654819817E+02 -0.82843506889E+01 -0.80491251776E+03  0.81660304443E+03  0.12428737898E+03 0.  0.
          5    1    4    4  502    0 -0.93495715988E+02 -0.11937071461E+02 -0.60416237712E+03  0.61148852035E+03  0.47000000000E+01 0. -1.
         -5    1    4    4    0  502  0.34840896171E+02  0.20221422150E+02 -0.17218426826E+03  0.17689631482E+03  0.47000000000E+01 0. -1.
          5    1    5    5  503    0 -0.21222400252E+01 -0.46035729387E+02 -0.54551180736E+03  0.54747512661E+03  0.47000000000E+01 0.  1.
         -5    1    5    5    0  503  0.60777059843E+02  0.37751378698E+02 -0.25940071040E+03  0.26912791782E+03  0.47000000000E+01 0.  1.
<mgrwt>
<rscale>  0 0.27496464E+03</rscale>
<asrwt>0</asrwt>
<pdfrwt beam="1">  1        2 0.24509597E+00 0.27496464E+03</pdfrwt>
<pdfrwt beam="2">  1       -2 0.18252855E-02 0.27496464E+03</pdfrwt>
<totfact> 0.10762936E+04</totfact>
</mgrwt>
</event>
<event>
 9    1  0.2024718E-002  0.2754918E+03  0.7818608E-02  0.1098177E+00
         -2   -1    0    0    0  501 -0.00000000000E+00  0.00000000000E+00  0.11740276323E+03  0.11740276323E+03  0.00000000000E+00 0.  1.
          2   -1    0    0  501    0  0.00000000000E+00 -0.00000000000E+00 -0.16161408104E+03  0.16161408104E+03  0.00000000000E+00 0.  1.
         36    2    1    2    0    0 -0.71054273576E-14  0.00000000000E+00 -0.44211317815E+02  0.27901684427E+03  0.27549184881E+03 0.  0.
         25    2    3    3    0    0  0.52397597083E+02 -0.12771452025E+02 -0.38294549710E+02  0.14176127723E+03  0.12538408598E+03 0.  0.
         25    2    3    3    0    0 -0.52397597083E+02  0.12771452025E+02 -0.59167681048E+01  0.13725556704E+03  0.12607721591E+03 0.  0.
          5    1    4    4  502    0  0.57618795218E+02 -0.41418829000E+02 -0.69067138011E+02  0.99135283886E+02  0.47000000000E+01 0. -1.
         -5    1    4    4    0  502 -0.52211981349E+01  0.28647376975E+02  0.30772588302E+02  0.42625993341E+02  0.47000000000E+01 0. -1.
          5    1    5    5  503    0  0.27455615290E+02  0.41828285375E+01  0.36660905831E+02  0.46232227741E+02  0.47000000000E+01 0. -1.
         -5    1    5    5    0  503 -0.79853212372E+02  0.85886234871E+01 -0.42577673936E+02  0.91023339300E+02  0.47000000000E+01 0. -1.
<mgrwt>
<rscale>  0 0.27549185E+03</rscale>
<asrwt>0</asrwt>
<pdfrwt beam="1">  1        2 0.24863705E-01 0.27549185E+03</pdfrwt>
<pdfrwt beam="2">  1       -2 0.18061964E-01 0.27549185E+03</pdfrwt>
<totfact> 0.53804607E+03</totfact>
</mgrwt>
</event>
<event>
 9    1  0.2024718E-002  0.2748927E+03  0.7818608E-02  0.1098512E+00
          2   -1    0    0  501    0  0.00000000000E+00  0.00000000000E+00  0.13400249453E+03  0.13400249453E+03  0.00000000000E+00 0.  1.
         -2   -1    0    0    0  501 -0.00000000000E+00 -0.00000000000E+00 -0.14097867428E+03  0.14097867428E+03  0.00000000000E+00 0.  1.
         36    2    1    2    0    0  0.00000000000E+00 -0.71054273576E-14 -0.69761797493E+01  0.27498116882E+03  0.27489266291E+03 0.  0.
         25    2    3    3    0    0 -0.31503158842E+02 -0.83921670939E+01 -0.38378007496E+02  0.13736531198E+03  0.12780250385E+03 0.  0.
         25    2    3    3    0    0  0.31503158842E+02  0.83921670939E+01  0.31401827747E+02  0.13761585684E+03  0.12995834634E+03 0.  0.
          5    1    4    4  502    0 -0.25619312560E+02 -0.63668748011E+02 -0.43424912791E+02  0.81350302398E+02  0.47000000000E+01 0. -1.
         -5    1    4    4    0  502 -0.58838462817E+01  0.55276580917E+02  0.50469052950E+01  0.56015009578E+02  0.47000000000E+01 0. -1.
          5    1    5    5  503    0  0.20055256290E+02 -0.28241068513E+02  0.72929358869E+02  0.80873683239E+02  0.47000000000E+01 0.  1.
         -5    1    5    5    0  503  0.11447902552E+02  0.36633235607E+02 -0.41527531122E+02  0.56742173601E+02  0.47000000000E+01 0.  1.
<mgrwt>
<rscale>  0 0.27489266E+03</rscale>
<asrwt>0</asrwt>
<pdfrwt beam="1">  1        2 0.20615768E-01 0.27489266E+03</pdfrwt>
<pdfrwt beam="2">  1       -2 0.21689027E-01 0.27489266E+03</pdfrwt>
<totfact> 0.48630395E+03</totfact>
</mgrwt>
</event>
<event>
 9    1  0.2024718E-002  0.2749099E+03  0.7818608E-02  0.1098502E+00
         -1   -1    0    0    0  501 -0.00000000000E+00  0.00000000000E+00  0.13090713928E+02  0.13090713928E+02  0.00000000000E+00 0.  1.
          1   -1    0    0  501    0  0.00000000000E+00 -0.00000000000E+00 -0.14433025676E+04  0.14433025676E+04  0.00000000000E+00 0.  1.
         36    2    1    2    0    0  0.35527136788E-14  0.00000000000E+00 -0.14302118537E+04  0.14563932816E+04  0.27490988359E+03 0.  0.
         25    2    3    3    0    0 -0.12718159311E+02  0.49692779265E+02 -0.90051046665E+03  0.91035723484E+03  0.12328856631E+03 0.  0.
         25    2    3    3    0    0  0.12718159311E+02 -0.49692779265E+02 -0.52970138706E+03  0.54603604674E+03  0.12223207839E+03 0.  0.
          5    1    4    4  502    0  0.41141748794E+02  0.52053972689E+02 -0.68237837488E+03  0.68561256995E+03  0.47000000000E+01 0.  1.
         -5    1    4    4    0  502 -0.53859908106E+02 -0.23611934240E+01 -0.21813209177E+03  0.22474466489E+03  0.47000000000E+01 0.  1.
          5    1    5    5  503    0  0.37302217328E+02  0.93963134197E+01 -0.39427672691E+03  0.39617669481E+03  0.47000000000E+01 0.  1.
         -5    1    5    5    0  503 -0.24584058017E+02 -0.59089092685E+02 -0.13542466015E+03  0.14985935193E+03  0.47000000000E+01 0.  1.
<mgrwt>
<rscale>  0 0.27490988E+03</rscale>
<asrwt>0</asrwt>
<pdfrwt beam="1">  1        1 0.22204635E+00 0.27490988E+03</pdfrwt>
<pdfrwt beam="2">  1       -1 0.20139577E-02 0.27490988E+03</pdfrwt>
<totfact> 0.52984778E+03</totfact>
</mgrwt>
</event>
<event>
 9    1  0.2024718E-002  0.2748371E+03  0.7818608E-02  0.1098543E+00
          2   -1    0    0  501    0  0.00000000000E+00  0.00000000000E+00  0.33196485010E+02  0.33196485010E+02  0.00000000000E+00 0.  1.
         -2   -1    0    0    0  501 -0.00000000000E+00 -0.00000000000E+00 -0.56885103918E+03  0.56885103918E+03  0.00000000000E+00 0.  1.
         36    2    1    2    0    0  0.00000000000E+00  0.00000000000E+00 -0.53565455417E+03  0.60204752419E+03  0.27483707898E+03 0.  0.
         25    2    3    3    0    0  0.26867007038E+01  0.73355894465E+02 -0.26697438034E+03  0.29684242950E+03  0.10701309535E+03 0.  0.
         25    2    3    3    0    0 -0.26867007038E+01 -0.73355894465E+02 -0.26868017383E+03  0.30520509470E+03  0.12479105900E+03 0.  0.
          5    1    4    4  502    0  0.12331521429E+02  0.57310956190E+02 -0.27084504709E+03  0.27715652916E+03  0.47000000000E+01 0. -1.
         -5    1    4    4    0  502 -0.96448207257E+01  0.16044938275E+02  0.38706667502E+01  0.19685900339E+02  0.47000000000E+01 0. -1.
          5    1    5    5  503    0  0.89782683964E+01 -0.49554867915E+02 -0.27325752741E+03  0.27789937122E+03  0.47000000000E+01 0. -1.
         -5    1    5    5    0  503 -0.11664969100E+02 -0.23801026550E+02  0.45773535778E+01  0.27305723479E+02  0.47000000000E+01 0. -1.
<mgrwt>
<rscale>  0 0.27483708E+03</rscale>
<asrwt>0</asrwt>
<pdfrwt beam="1">  1        2 0.51071518E-02 0.27483708E+03</pdfrwt>
<pdfrwt beam="2">  1       -2 0.87515540E-01 0.27483708E+03</pdfrwt>
<totfact> 0.17778288E+03</totfact>
</mgrwt>
</event>
<event>
 9    1  0.2024718E-002  0.2753038E+03  0.7818608E-02  0.1098282E+00
          2   -1    0    0  501    0  0.00000000000E+00  0.00000000000E+00  0.73840235085E+03  0.73840235085E+03  0.00000000000E+00 0.  1.
         -2   -1    0    0    0  501 -0.00000000000E+00 -0.00000000000E+00 -0.25660874344E+02  0.25660874344E+02  0.00000000000E+00 0.  1.
         36    2    1    2    0    0  0.00000000000E+00  0.00000000000E+00  0.71274147651E+03  0.76406322520E+03  0.27530383172E+03 0.  0.
         25    2    3    3    0    0 -0.30034120536E+02 -0.21075302570E+02  0.25542119668E+03  0.28868060931E+03  0.12942291027E+03 0.  0.
         25    2    3    3    0    0  0.30034120536E+02  0.21075302570E+02  0.45732027983E+03  0.47538261588E+03  0.12450131071E+03 0.  0.
          5    1    4    4  502    0 -0.10030986249E+02 -0.43135422332E+02  0.15928529560E+02  0.47297921718E+02  0.47000000000E+01 0.  1.
         -5    1    4    4    0  502 -0.20003134287E+02  0.22060119762E+02  0.23949266712E+03  0.24138268760E+03  0.47000000000E+01 0.  1.
          5    1    5    5  503    0 -0.11493753936E+02  0.66131992115E+02  0.20867906521E+03  0.21925918229E+03  0.47000000000E+01 0.  1.
         -5    1    5    5    0  503  0.41527874473E+02 -0.45056689544E+02  0.24864121462E+03  0.25612343360E+03  0.47000000000E+01 0.  1.
<mgrwt>
<rscale>  0 0.27530383E+03</rscale>
<asrwt>0</asrwt>
<pdfrwt beam="1">  1        2 0.11360035E+00 0.27530383E+03</pdfrwt>
<pdfrwt beam="2">  1       -2 0.39478274E-02 0.27530383E+03</pdfrwt>
<totfact> 0.10966102E+04</totfact>
</mgrwt>
</event>
<event>
 9    1  0.2024718E-002  0.2748836E+03  0.7818608E-02  0.1098517E+00
          3   -1    0    0  501    0  0.00000000000E+00  0.00000000000E+00  0.46402063892E+02  0.46402063892E+02  0.00000000000E+00 0.  1.
         -3   -1    0    0    0  501 -0.00000000000E+00 -0.00000000000E+00 -0.40709930471E+03  0.40709930471E+03  0.00000000000E+00 0.  1.
         36    2    1    2    0    0  0.00000000000E+00  0.00000000000E+00 -0.36069724082E+03  0.45350136860E+03  0.27488359680E+03 0.  0.
         25    2    3    3    0    0  0.24014476241E+02 -0.19825518562E+02 -0.10786456795E+03  0.16781167662E+03  0.12472468695E+03 0.  0.
         25    2    3    3    0    0 -0.24014476241E+02  0.19825518562E+02 -0.25283267287E+03  0.28568969198E+03  0.12932321284E+03 0.  0.
          5    1    4    4  502    0 -0.32910434695E+02  0.45085326783E+01  0.96460278047E+01  0.34907870619E+02  0.47000000000E+01 0.  1.
         -5    1    4    4    0  502  0.56924910936E+02 -0.24334051240E+02 -0.11751059575E+03  0.13290380600E+03  0.47000000000E+01 0.  1.
          5    1    5    5  503    0  0.60505320284E+01  0.47284838457E+02 -0.24682096487E+02  0.53886554656E+02  0.47000000000E+01 0. -1.
         -5    1    5    5    0  503 -0.30065008270E+02 -0.27459319895E+02 -0.22815057638E+03  0.23180313733E+03  0.47000000000E+01 0. -1.
<mgrwt>
<rscale>  0 0.27488360E+03</rscale>
<asrwt>0</asrwt>
<pdfrwt beam="1">  1        3 0.71387793E-02 0.27488360E+03</pdfrwt>
<pdfrwt beam="2">  1       -3 0.62630660E-01 0.27488360E+03</pdfrwt>
<totfact> 0.82181927E+02</totfact>
</mgrwt>
</event>
<event>
 9    1  0.2024718E-002  0.2748713E+03  0.7818608E-02  0.1098524E+00
         -1   -1    0    0    0  501 -0.00000000000E+00  0.00000000000E+00  0.66801816048E+02  0.66801816048E+02  0.00000000000E+00 0. -1.
          1   -1    0    0  501    0  0.00000000000E+00 -0.00000000000E+00 -0.28275520170E+03  0.28275520170E+03  0.00000000000E+00 0. -1.
         36    2    1    2    0    0  0.71054273576E-14 -0.14210854715E-13 -0.21595338565E+03  0.34955701775E+03  0.27487132241E+03 0.  0.
         25    2    3    3    0    0 -0.43315964626E+02  0.44970200763E+02 -0.14114539240E+03  0.19691244234E+03  0.12228612515E+03 0.  0.
         25    2    3    3    0    0  0.43315964626E+02 -0.44970200763E+02 -0.74807993247E+02  0.15264457540E+03  0.11749697357E+03 0.  0.
          5    1    4    4  502    0 -0.53099697345E+02  0.45702559836E+02 -0.16939636353E+02  0.72231178264E+02  0.47000000000E+01 0.  1.
         -5    1    4    4    0  502  0.97837327183E+01 -0.73235907289E+00 -0.12420575605E+03  0.12468126408E+03  0.47000000000E+01 0.  1.
          5    1    5    5  503    0  0.30820217722E+02 -0.38433912538E+02  0.22388887387E+02  0.54317618982E+02  0.47000000000E+01 0. -1.
         -5    1    5    5    0  503  0.12495746904E+02 -0.65362882246E+01 -0.97196880633E+02  0.98326956422E+02  0.47000000000E+01 0. -1.
<mgrwt>
<rscale>  0 0.27487132E+03</rscale>
<asrwt>0</asrwt>
<pdfrwt beam="1">  1        1 0.43500800E-01 0.27487132E+03</pdfrwt>
<pdfrwt beam="2">  1       -1 0.10277203E-01 0.27487132E+03</pdfrwt>
<totfact> 0.54804977E+03</totfact>
</mgrwt>
</event>
<event>
 9    1  0.2024718E-002  0.2748867E+03  0.7818608E-02  0.1098515E+00
         -1   -1    0    0    0  501 -0.00000000000E+00  0.00000000000E+00  0.27791971186E+02  0.27791971186E+02  0.00000000000E+00 0.  1.
          1   -1    0    0  501    0  0.00000000000E+00 -0.00000000000E+00 -0.67971692335E+03  0.67971692335E+03  0.00000000000E+00 0.  1.
         36    2    1    2    0    0  0.00000000000E+00 -0.35527136788E-14 -0.65192495216E+03  0.70750889453E+03  0.27488669046E+03 0.  0.
         25    2    3    3    0    0 -0.41206649771E+02 -0.16258882731E+02 -0.39445926303E+03  0.41760438051E+03  0.12974193299E+03 0.  0.
         25    2    3    3    0    0  0.41206649771E+02  0.16258882731E+02 -0.25746568914E+03  0.28990451403E+03  0.12567301587E+03 0.  0.
          5    1    4    4  502    0 -0.41924661593E+02 -0.49634093168E+01 -0.27858013129E+02  0.50798342268E+02  0.47000000000E+01 0.  1.
         -5    1    4    4    0  502  0.71801182235E+00 -0.11295473414E+02 -0.36660124990E+03  0.36680603824E+03  0.47000000000E+01 0.  1.
          5    1    5    5  503    0  0.70925024225E+02  0.94371201096E+01 -0.24720081930E+03  0.25739027440E+03  0.47000000000E+01 0. -1.
         -5    1    5    5    0  503 -0.29718374455E+02  0.68217626211E+01 -0.10264869840E+02  0.32514239624E+02  0.47000000000E+01 0. -1.
<mgrwt>
<rscale>  0 0.27488669E+03</rscale>
<asrwt>0</asrwt>
<pdfrwt beam="1">  1        1 0.10457183E+00 0.27488669E+03</pdfrwt>
<pdfrwt beam="2">  1       -1 0.42756879E-02 0.27488669E+03</pdfrwt>
<totfact> 0.65319601E+03</totfact>
</mgrwt>
</event>
<event>
 9    1  0.2024718E-002  0.2764177E+03  0.7818608E-02  0.1097662E+00
         -2   -1    0    0    0  501 -0.00000000000E+00  0.00000000000E+00  0.83682122942E+02  0.83682122942E+02  0.00000000000E+00 0.  1.
          2   -1    0    0  501    0  0.00000000000E+00 -0.00000000000E+00 -0.22826477516E+03  0.22826477516E+03  0.00000000000E+00 0.  1.
         36    2    1    2    0    0  0.00000000000E+00 -0.35527136788E-14 -0.14458265222E+03  0.31194689810E+03  0.27641766209E+03 0.  0.
         25    2    3    3    0    0  0.17661453153E+02  0.38809939522E+01 -0.14107920520E+03  0.18755990864E+03  0.12226360107E+03 0.  0.
         25    2    3    3    0    0 -0.17661453153E+02 -0.38809939522E+01 -0.35034470212E+01  0.12438698947E+03  0.12301568992E+03 0.  0.
          5    1    4    4  502    0  0.54537436017E+02  0.42999735090E+02 -0.77799445132E+02  0.10439421827E+03  0.47000000000E+01 0.  1.
         -5    1    4    4    0  502 -0.36875982864E+02 -0.39118741138E+02 -0.63279760067E+02  0.83165690369E+02  0.47000000000E+01 0.  1.
          5    1    5    5  503    0  0.10591482863E+02 -0.29588454262E+02  0.49538107499E+02  0.58853803865E+02  0.47000000000E+01 0. -1.
         -5    1    5    5    0  503 -0.28252936016E+02  0.25707460310E+02 -0.53041554520E+02  0.65533185601E+02  0.47000000000E+01 0. -1.
<mgrwt>
<rscale>  0 0.27641766E+03</rscale>
<asrwt>0</asrwt>
<pdfrwt beam="1">  1        2 0.35117657E-01 0.27641766E+03</pdfrwt>
<pdfrwt beam="2">  1       -2 0.12874173E-01 0.27641766E+03</pdfrwt>
<totfact> 0.64473473E+03</totfact>
</mgrwt>
</event>
<event>
 9    1  0.2024718E-002  0.2751076E+03  0.7818608E-02  0.1098391E+00
         -2   -1    0    0    0  501 -0.00000000000E+00  0.00000000000E+00  0.86341515199E+01  0.86341515199E+01  0.00000000000E+00 0.  1.
          2   -1    0    0  501    0  0.00000000000E+00 -0.00000000000E+00 -0.21914194606E+04  0.21914194606E+04  0.00000000000E+00 0.  1.
         36    2    1    2    0    0 -0.35527136788E-14  0.00000000000E+00 -0.21827853090E+04  0.22000536121E+04  0.27510759834E+03 0.  0.
         25    2    3    3    0    0 -0.28552878703E+02 -0.10074059613E+01 -0.14981448479E+04  0.15035813386E+04  0.12450933626E+03 0.  0.
         25    2    3    3    0    0  0.28552878703E+02  0.10074059613E+01 -0.68464046119E+03  0.69647227351E+03  0.12459849484E+03 0.  0.
          5    1    4    4  502    0 -0.15136266388E+02 -0.27470833256E+02 -0.95769642910E+02  0.10088442765E+03  0.47000000000E+01 0.  1.
         -5    1    4    4    0  502 -0.13416612315E+02  0.26463427295E+02 -0.14023752049E+04  0.14026969109E+04  0.47000000000E+01 0.  1.
          5    1    5    5  503    0 -0.32250075859E+02 -0.41539346972E+02 -0.24967590687E+03  0.25519743966E+03  0.47000000000E+01 0.  1.
         -5    1    5    5    0  503  0.60802954561E+02  0.42546752933E+02 -0.43496455433E+03  0.44127483385E+03  0.47000000000E+01 0.  1.
<mgrwt>
<rscale>  0 0.27510760E+03</rscale>
<asrwt>0</asrwt>
<pdfrwt beam="1">  1        2 0.33714142E+00 0.27510760E+03</pdfrwt>
<pdfrwt beam="2">  1       -2 0.13283311E-02 0.27510760E+03</pdfrwt>
<totfact> 0.82935589E+03</totfact>
</mgrwt>
</event>
<event>
 9    1  0.2024718E-002  0.2749068E+03  0.7818608E-02  0.1098504E+00
         -3   -1    0    0    0  501 -0.00000000000E+00  0.00000000000E+00  0.20041293299E+03  0.20041293299E+03  0.00000000000E+00 0.  1.
          3   -1    0    0  501    0  0.00000000000E+00 -0.00000000000E+00 -0.94272524569E+02  0.94272524569E+02  0.00000000000E+00 0.  1.
         36    2    1    2    0    0  0.71054273576E-14  0.00000000000E+00  0.10614040842E+03  0.29468545755E+03  0.27490677073E+03 0.  0.
         25    2    3    3    0    0 -0.56157281602E+02  0.43250108036E+02  0.73663064123E+02  0.14824861259E+03  0.10736476144E+03 0.  0.
         25    2    3    3    0    0  0.56157281602E+02 -0.43250108036E+02  0.32477344293E+02  0.14643684496E+03  0.12395466731E+03 0.  0.
          5    1    4    4  502    0  0.22605012214E+02  0.12952840668E+02 -0.10954700533E+02  0.28650621674E+02  0.47000000000E+01 0. -1.
         -5    1    4    4    0  502 -0.78762293815E+02  0.30297267369E+02  0.84617764656E+02  0.11959799092E+03  0.47000000000E+01 0. -1.
          5    1    5    5  503    0 -0.14837553256E+02 -0.66204520070E+02  0.14272523692E+02  0.69490908736E+02  0.47000000000E+01 0.  1.
         -5    1    5    5    0  503  0.70994834857E+02  0.22954412034E+02  0.18204820601E+02  0.76945936224E+02  0.47000000000E+01 0.  1.
<mgrwt>
<rscale>  0 0.27490677E+03</rscale>
<asrwt>0</asrwt>
<pdfrwt beam="1">  1        3 0.14503465E-01 0.27490677E+03</pdfrwt>
<pdfrwt beam="2">  1       -3 0.30832759E-01 0.27490677E+03</pdfrwt>
<totfact> 0.10203354E+03</totfact>
</mgrwt>
</event>
<event>
 9    1  0.2024718E-002  0.2715646E+03  0.7818608E-02  0.1100387E+00
         -2   -1    0    0    0  501 -0.00000000000E+00  0.00000000000E+00  0.54071153681E+02  0.54071153681E+02  0.00000000000E+00 0. -1.
          2   -1    0    0  501    0  0.00000000000E+00 -0.00000000000E+00 -0.34097351537E+03  0.34097351537E+03  0.00000000000E+00 0. -1.
         36    2    1    2    0    0  0.35527136788E-14  0.00000000000E+00 -0.28690236169E+03  0.39504466905E+03  0.27156458790E+03 0.  0.
         25    2    3    3    0    0  0.20250078731E+02 -0.28035355290E+02 -0.15997793579E+03  0.21424290103E+03  0.13824266297E+03 0.  0.
         25    2    3    3    0    0 -0.20250078731E+02  0.28035355290E+02 -0.12692442590E+03  0.18080176803E+03  0.12402992621E+03 0.  0.
          5    1    4    4  502    0  0.23967316501E+02 -0.12519829841E+02  0.19708101007E+02  0.33788720674E+02  0.47000000000E+01 0. -1.
         -5    1    4    4    0  502 -0.37172377691E+01 -0.15515525449E+02 -0.17968603680E+03  0.18045418035E+03  0.47000000000E+01 0. -1.
          5    1    5    5  503    0  0.78290249488E-01 -0.48641512793E+02 -0.55588002565E+02  0.74014315678E+02  0.47000000000E+01 0.  1.
         -5    1    5    5    0  503 -0.20328368981E+02  0.76676868083E+02 -0.71336423337E+02  0.10678745235E+03  0.47000000000E+01 0.  1.
<mgrwt>
<rscale>  0 0.27156459E+03</rscale>
<asrwt>0</asrwt>
<pdfrwt beam="1">  1        2 0.52457464E-01 0.27156459E+03</pdfrwt>
<pdfrwt beam="2">  1       -2 0.83186390E-02 0.27156459E+03</pdfrwt>
<totfact> 0.83875905E+03</totfact>
</mgrwt>
</event>
<event>
 9    1  0.2024718E-002  0.2764936E+03  0.7818608E-02  0.1097620E+00
         -1   -1    0    0    0  501 -0.00000000000E+00  0.00000000000E+00  0.92340888921E+02  0.92340888921E+02  0.00000000000E+00 0.  1.
          1   -1    0    0  501    0  0.00000000000E+00 -0.00000000000E+00 -0.20697416076E+03  0.20697416076E+03  0.00000000000E+00 0.  1.
         36    2    1    2    0    0  0.00000000000E+00  0.00000000000E+00 -0.11463327183E+03  0.29931504968E+03  0.27649360201E+03 0.  0.
         25    2    3    3    0    0  0.21974015926E+01 -0.33046912477E+02 -0.10713891614E+03  0.16737303287E+03  0.12424998101E+03 0.  0.
         25    2    3    3    0    0 -0.21974015926E+01  0.33046912477E+02 -0.74943556923E+01  0.13194201681E+03  0.12749746442E+03 0.  0.
          5    1    4    4  502    0  0.19468003453E+02  0.43144504486E+02 -0.57791527422E+02  0.74849195504E+02  0.47000000000E+01 0. -1.
         -5    1    4    4    0  502 -0.17270601861E+02 -0.76191416962E+02 -0.49347388720E+02  0.92523837365E+02  0.47000000000E+01 0. -1.
          5    1    5    5  503    0  0.52080379546E+02  0.34703489367E+02  0.26038508824E+02  0.67946979695E+02  0.47000000000E+01 0.  1.
         -5    1    5    5    0  503 -0.54277781139E+02 -0.16565768904E+01 -0.33532864517E+02  0.63995037112E+02  0.47000000000E+01 0.  1.
<mgrwt>
<rscale>  0 0.27649360E+03</rscale>
<asrwt>0</asrwt>
<pdfrwt beam="1">  1        1 0.31842178E-01 0.27649360E+03</pdfrwt>
<pdfrwt beam="2">  1       -1 0.14206291E-01 0.27649360E+03</pdfrwt>
<totfact> 0.48898101E+03</totfact>
</mgrwt>
</event>
<event>
 9    1  0.2024718E-002  0.2782133E+03  0.7818608E-02  0.1096669E+00
         -2   -1    0    0    0  501 -0.00000000000E+00  0.00000000000E+00  0.68448242398E+02  0.68448242398E+02  0.00000000000E+00 0. -1.
          2   -1    0    0  501    0  0.00000000000E+00 -0.00000000000E+00 -0.28270493930E+03  0.28270493930E+03  0.00000000000E+00 0. -1.
         36    2    1    2    0    0  0.00000000000E+00  0.00000000000E+00 -0.21425669690E+03  0.35115318170E+03  0.27821327224E+03 0.  0.
         25    2    3    3    0    0  0.26371975878E+02  0.17750386929E+02 -0.18083878222E+03  0.22221454610E+03  0.12516422012E+03 0.  0.
         25    2    3    3    0    0 -0.26371975878E+02 -0.17750386929E+02 -0.33417914689E+02  0.12893863560E+03  0.12040704871E+03 0.  0.
          5    1    4    4  502    0 -0.62125024662E+01 -0.13841500877E+02  0.14567495234E+02  0.21551896687E+02  0.47000000000E+01 0.  1.
         -5    1    4    4    0  502  0.32584478344E+02  0.31591887806E+02 -0.19540627745E+03  0.20066264942E+03  0.47000000000E+01 0.  1.
          5    1    5    5  503    0 -0.26079508418E+02 -0.63871692569E+02  0.41382444488E+01  0.69274446501E+02  0.47000000000E+01 0.  1.
         -5    1    5    5    0  503 -0.29246745961E+00  0.46121305640E+02 -0.37556159138E+02  0.59664189095E+02  0.47000000000E+01 0.  1.
<mgrwt>
<rscale>  0 0.27821327E+03</rscale>
<asrwt>0</asrwt>
<pdfrwt beam="1">  1        2 0.43493068E-01 0.27821327E+03</pdfrwt>
<pdfrwt beam="2">  1       -2 0.10530499E-01 0.27821327E+03</pdfrwt>
<totfact> 0.70749510E+03</totfact>
</mgrwt>
</event>
<event>
 9    1  0.2024718E-002  0.2685726E+03  0.7818608E-02  0.1102099E+00
         -1   -1    0    0    0  501 -0.00000000000E+00  0.00000000000E+00  0.66607972564E+03  0.66607972564E+03  0.00000000000E+00 0.  1.
          1   -1    0    0  501    0  0.00000000000E+00 -0.00000000000E+00 -0.27073056721E+02  0.27073056721E+02  0.00000000000E+00 0.  1.
         36    2    1    2    0    0  0.00000000000E+00 -0.35527136788E-14  0.63900666892E+03  0.69315278236E+03  0.26857262849E+03 0.  0.
         25    2    3    3    0    0  0.41916877416E+02 -0.24334942578E+02  0.43091865698E+03  0.45138009039E+03  0.12531513484E+03 0.  0.
         25    2    3    3    0    0 -0.41916877416E+02  0.24334942578E+02  0.20808801194E+03  0.24177269197E+03  0.11315564427E+03 0.  0.
          5    1    4    4  502    0  0.41718718768E+02 -0.58399971235E+02  0.13056985867E+03  0.14906906496E+03  0.47000000000E+01 0. -1.
         -5    1    4    4    0  502  0.19815864729E+00  0.34065028658E+02  0.30034879832E+03  0.30231102543E+03  0.47000000000E+01 0. -1.
          5    1    5    5  503    0  0.17272460834E+01  0.36655104803E+02  0.97456709173E+01  0.38257655297E+02  0.47000000000E+01 0. -1.
         -5    1    5    5    0  503 -0.43644123499E+02 -0.12320162225E+02  0.19834234102E+03  0.20351503668E+03  0.47000000000E+01 0. -1.
<mgrwt>
<rscale>  0 0.26857263E+03</rscale>
<asrwt>0</asrwt>
<pdfrwt beam="1">  1        1 0.41650862E-02 0.26857263E+03</pdfrwt>
<pdfrwt beam="2">  1       -1 0.10247379E+00 0.26857263E+03</pdfrwt>
<totfact> 0.20460406E+03</totfact>
</mgrwt>
</event>
<event>
 9    1  0.2024718E-002  0.2766063E+03  0.7818608E-02  0.1097557E+00
          1   -1    0    0  501    0  0.00000000000E+00  0.00000000000E+00  0.77813057204E+03  0.77813057204E+03  0.00000000000E+00 0. -1.
         -1   -1    0    0    0  501 -0.00000000000E+00 -0.00000000000E+00 -0.24581680108E+02  0.24581680108E+02  0.00000000000E+00 0. -1.
         36    2    1    2    0    0  0.00000000000E+00  0.71054273576E-14  0.75354889194E+03  0.80271225215E+03  0.27660626749E+03 0.  0.
         25    2    3    3    0    0  0.27535506597E+02  0.50147657067E+02  0.33136912292E+03  0.35952323575E+03  0.12719461384E+03 0.  0.
         25    2    3    3    0    0 -0.27535506597E+02 -0.50147657067E+02  0.42217976902E+03  0.44318901640E+03  0.12209731879E+03 0.  0.
          5    1    4    4  502    0  0.68137516879E+02  0.11849792570E+02  0.25839129390E+03  0.26752810984E+03  0.47000000000E+01 0.  1.
         -5    1    4    4    0  502 -0.40602010282E+02  0.38297864496E+02  0.72977829020E+02  0.91995125917E+02  0.47000000000E+01 0.  1.
          5    1    5    5  503    0 -0.40793720564E+02 -0.46209308606E+02  0.81978113973E+02  0.10267389644E+03  0.47000000000E+01 0.  1.
         -5    1    5    5    0  503  0.13258213967E+02 -0.39383484605E+01  0.34020165504E+03  0.34051511996E+03  0.47000000000E+01 0.  1.
<mgrwt>
<rscale>  0 0.27660627E+03</rscale>
<asrwt>0</asrwt>
<pdfrwt beam="1">  1        1 0.11971238E+00 0.27660627E+03</pdfrwt>
<pdfrwt beam="2">  1       -1 0.37817975E-02 0.27660627E+03</pdfrwt>
<totfact> 0.64184449E+03</totfact>
</mgrwt>
</event>
<event>
 9    1  0.2024718E-002  0.2747365E+03  0.7818608E-02  0.1098599E+00
          2   -1    0    0  501    0  0.00000000000E+00  0.00000000000E+00  0.26705743535E+02  0.26705743535E+02  0.00000000000E+00 0. -1.
         -2   -1    0    0    0  501 -0.00000000000E+00 -0.00000000000E+00 -0.70659113788E+03  0.70659113788E+03  0.00000000000E+00 0. -1.
         36    2    1    2    0    0  0.71054273576E-14  0.17763568394E-14 -0.67988539434E+03  0.73329688141E+03  0.27473654080E+03 0.  0.
         25    2    3    3    0    0  0.54117422616E+02 -0.43179267390E+00 -0.34609623490E+03  0.37262528815E+03  0.12703589920E+03 0.  0.
         25    2    3    3    0    0 -0.54117422616E+02  0.43179267390E+00 -0.33378915945E+03  0.36067159326E+03  0.12545881135E+03 0.  0.
          5    1    4    4  502    0  0.18624777154E+02  0.15450137792E+02 -0.33568439987E+00  0.24653433145E+02  0.47000000000E+01 0. -1.
         -5    1    4    4    0  502  0.35492645463E+02 -0.15881930466E+02 -0.34576055050E+03  0.34797185501E+03  0.47000000000E+01 0. -1.
          5    1    5    5  503    0  0.37903987933E+02  0.18428213293E+02 -0.92333764411E+02  0.10160671925E+03  0.47000000000E+01 0. -1.
         -5    1    5    5    0  503 -0.92021410549E+02 -0.17996420619E+02 -0.24145539503E+03  0.25906487401E+03  0.47000000000E+01 0. -1.
<mgrwt>
<rscale>  0 0.27473654E+03</rscale>
<asrwt>0</asrwt>
<pdfrwt beam="1">  1        2 0.41085765E-02 0.27473654E+03</pdfrwt>
<pdfrwt beam="2">  1       -2 0.10870631E+00 0.27473654E+03</pdfrwt>
<totfact> 0.14390554E+03</totfact>
</mgrwt>
</event>
<event>
 9    1  0.2024718E-002  0.2755891E+03  0.7818608E-02  0.1098123E+00
          2   -1    0    0  501    0  0.00000000000E+00  0.00000000000E+00  0.14967350394E+03  0.14967350394E+03  0.00000000000E+00 0. -1.
         -2   -1    0    0    0  501 -0.00000000000E+00 -0.00000000000E+00 -0.12685834635E+03  0.12685834635E+03  0.00000000000E+00 0. -1.
         36    2    1    2    0    0  0.71054273576E-14 -0.35527136788E-14  0.22815157588E+02  0.27653185029E+03  0.27558906511E+03 0.  0.
         25    2    3    3    0    0  0.34808321468E+02 -0.83022645727E+01  0.58886031585E+02  0.14328304601E+03  0.12562611081E+03 0.  0.
         25    2    3    3    0    0 -0.34808321468E+02  0.83022645727E+01 -0.36070873996E+02  0.13324880428E+03  0.12318112295E+03 0.  0.
          5    1    4    4  502    0 -0.18687429225E+02 -0.40516012896E+02  0.66478920622E+02  0.80201647109E+02  0.47000000000E+01 0.  1.
         -5    1    4    4    0  502  0.53495750692E+02  0.32213748323E+02 -0.75928890368E+01  0.63081398899E+02  0.47000000000E+01 0.  1.
          5    1    5    5  503    0  0.21754431290E+02 -0.11907504878E+02  0.33030325554E+02  0.41570859497E+02  0.47000000000E+01 0. -1.
         -5    1    5    5    0  503 -0.56562752758E+02  0.20209769451E+02 -0.69101199550E+02  0.91677944785E+02  0.47000000000E+01 0. -1.
<mgrwt>
<rscale>  0 0.27558907E+03</rscale>
<asrwt>0</asrwt>
<pdfrwt beam="1">  1        2 0.23026693E-01 0.27558907E+03</pdfrwt>
<pdfrwt beam="2">  1       -2 0.19516669E-01 0.27558907E+03</pdfrwt>
<totfact> 0.51425302E+03</totfact>
</mgrwt>
</event>
<event>
 9    1  0.2024718E-002  0.2750289E+03  0.7818608E-02  0.1098435E+00
          1   -1    0    0  501    0  0.00000000000E+00  0.00000000000E+00  0.11072337009E+03  0.11072337009E+03  0.00000000000E+00 0. -1.
         -1   -1    0    0    0  501 -0.00000000000E+00 -0.00000000000E+00 -0.17078801307E+03  0.17078801307E+03  0.00000000000E+00 0. -1.
         36    2    1    2    0    0  0.00000000000E+00 -0.71054273576E-14 -0.60064642982E+02  0.28151138317E+03  0.27502890305E+03 0.  0.
         25    2    3    3    0    0  0.13292673231E+02  0.63223760750E+02 -0.43966885582E+02  0.14688642037E+03  0.12437280400E+03 0.  0.
         25    2    3    3    0    0 -0.13292673231E+02 -0.63223760750E+02 -0.16097757401E+02  0.13462496280E+03  0.11700770800E+03 0.  0.
          5    1    4    4  502    0 -0.13811417261E+02  0.51823175221E+02  0.33830829917E+02  0.63584682036E+02  0.47000000000E+01 0.  1.
         -5    1    4    4    0  502  0.27104090492E+02  0.11400585529E+02 -0.77797715499E+02  0.83301738329E+02  0.47000000000E+01 0.  1.
          5    1    5    5  503    0 -0.10218633393E+02  0.27299288178E+02 -0.30888121497E+02  0.42729821589E+02  0.47000000000E+01 0. -1.
         -5    1    5    5    0  503 -0.30740398380E+01 -0.90523048928E+02  0.14790364096E+02  0.91895141211E+02  0.47000000000E+01 0. -1.
<mgrwt>
<rscale>  0 0.27502890E+03</rscale>
<asrwt>0</asrwt>
<pdfrwt beam="1">  1        1 0.17034365E-01 0.27502890E+03</pdfrwt>
<pdfrwt beam="2">  1       -1 0.26275079E-01 0.27502890E+03</pdfrwt>
<totfact> 0.40107987E+03</totfact>
</mgrwt>
</event>
<event>
 9    1  0.2024718E-002  0.2744967E+03  0.7818608E-02  0.1098733E+00
         -1   -1    0    0    0  501 -0.00000000000E+00  0.00000000000E+00  0.82814206267E+01  0.82814206267E+01  0.00000000000E+00 0.  1.
          1   -1    0    0  501    0  0.00000000000E+00 -0.00000000000E+00 -0.22746223018E+04  0.22746223018E+04  0.00000000000E+00 0.  1.
         36    2    1    2    0    0 -0.71054273576E-14  0.00000000000E+00 -0.22663408812E+04  0.22829037225E+04  0.27449665971E+03 0.  0.
         25    2    3    3    0    0 -0.30192997546E+02 -0.55574370919E+02 -0.98941964589E+03  0.99951126046E+03  0.12677301096E+03 0.  0.
         25    2    3    3    0    0  0.30192997546E+02  0.55574370919E+02 -0.12769212353E+04  0.12833924620E+04  0.11210817327E+03 0.  0.
          5    1    4    4  502    0 -0.68231064607E+02 -0.23885119799E+02 -0.81285008765E+03  0.81607189151E+03  0.47000000000E+01 0.  1.
         -5    1    4    4    0  502  0.38038067060E+02 -0.31689251121E+02 -0.17656955824E+03  0.18343936895E+03  0.47000000000E+01 0.  1.
          5    1    5    5  503    0  0.58628341621E+01  0.34882801794E+02 -0.10260699339E+03  0.10863456070E+03  0.47000000000E+01 0.  1.
         -5    1    5    5    0  503  0.24330163384E+02  0.20691569126E+02 -0.11743142419E+04  0.11747579013E+04  0.47000000000E+01 0.  1.
<mgrwt>
<rscale>  0 0.27449666E+03</rscale>
<asrwt>0</asrwt>
<pdfrwt beam="1">  1        1 0.34994213E+00 0.27449666E+03</pdfrwt>
<pdfrwt beam="2">  1       -1 0.12740639E-02 0.27449666E+03</pdfrwt>
<totfact> 0.29566793E+03</totfact>
</mgrwt>
</event>
<event>
 9    1  0.2024718E-002  0.2750574E+03  0.7818608E-02  0.1098420E+00
         -1   -1    0    0    0  501 -0.00000000000E+00  0.00000000000E+00  0.28133648282E+02  0.28133648282E+02  0.00000000000E+00 0.  1.
          1   -1    0    0  501    0  0.00000000000E+00 -0.00000000000E+00 -0.67229604310E+03  0.67229604310E+03  0.00000000000E+00 0.  1.
         36    2    1    2    0    0  0.14210854715E-13 -0.71054273576E-14 -0.64416239482E+03  0.70042969138E+03  0.27505737887E+03 0.  0.
         25    2    3    3    0    0  0.28862537024E+02 -0.37434752572E+02 -0.24902138042E+03  0.28282237202E+03  0.12546887847E+03 0.  0.
         25    2    3    3    0    0 -0.28862537024E+02  0.37434752572E+02 -0.39514101440E+03  0.41760731936E+03  0.12659006747E+03 0.  0.
          5    1    4    4  502    0  0.63701214582E+02 -0.63660961797E+02 -0.17064318616E+03  0.19300712365E+03  0.47000000000E+01 0.  1.
         -5    1    4    4    0  502 -0.34838677558E+02  0.26226209225E+02 -0.78378194258E+02  0.89815248368E+02  0.47000000000E+01 0.  1.
          5    1    5    5  503    0 -0.68579977461E+02  0.33784161933E+02 -0.34482234336E+03  0.35322672802E+03  0.47000000000E+01 0. -1.
         -5    1    5    5    0  503  0.39717440437E+02  0.36505906389E+01 -0.50318671035E+02  0.64380591342E+02  0.47000000000E+01 0. -1.
<mgrwt>
<rscale>  0 0.27505738E+03</rscale>
<asrwt>0</asrwt>
<pdfrwt beam="1">  1        1 0.10343016E+00 0.27505738E+03</pdfrwt>
<pdfrwt beam="2">  1       -1 0.43282535E-02 0.27505738E+03</pdfrwt>
<totfact> 0.65165096E+03</totfact>
</mgrwt>
</event>
<event>
 9    1  0.2024718E-002  0.2749478E+03  0.7818608E-02  0.1098481E+00
         -3   -1    0    0    0  501 -0.00000000000E+00  0.00000000000E+00  0.21841934865E+02  0.21841934865E+02  0.00000000000E+00 0. -1.
          3   -1    0    0  501    0  0.00000000000E+00 -0.00000000000E+00 -0.86526580279E+03  0.86526580279E+03  0.00000000000E+00 0. -1.
         36    2    1    2    0    0  0.00000000000E+00  0.00000000000E+00 -0.84342386793E+03  0.88710773766E+03  0.27494784455E+03 0.  0.
         25    2    3    3    0    0  0.25439122839E+02 -0.34960682052E+02 -0.50454664642E+03  0.52212891468E+03  0.12720804561E+03 0.  0.
         25    2    3    3    0    0 -0.25439122839E+02  0.34960682052E+02 -0.33887722151E+03  0.36497882298E+03  0.12846155731E+03 0.  0.
          5    1    4    4  502    0  0.28322230219E+01 -0.20633555263E+02 -0.51102585686E+01  0.21953811347E+02  0.47000000000E+01 0.  1.
         -5    1    4    4    0  502  0.22606899817E+02 -0.14327126789E+02 -0.49943638785E+03  0.50017510333E+03  0.47000000000E+01 0.  1.
          5    1    5    5  503    0  0.30981168818E+02  0.63982880827E+02 -0.19711320251E+03  0.20959328821E+03  0.47000000000E+01 0. -1.
         -5    1    5    5    0  503 -0.56420291657E+02 -0.29022198775E+02 -0.14176401900E+03  0.15538553477E+03  0.47000000000E+01 0. -1.
<mgrwt>
<rscale>  0 0.27494784E+03</rscale>
<asrwt>0</asrwt>
<pdfrwt beam="1">  1        3 0.13311782E+00 0.27494784E+03</pdfrwt>
<pdfrwt beam="2">  1       -3 0.33602976E-02 0.27494784E+03</pdfrwt>
<totfact> 0.49963451E+02</totfact>
</mgrwt>
</event>
<event>
 9    1  0.2024718E-002  0.2746887E+03  0.7818608E-02  0.1098626E+00
          2   -1    0    0  501    0  0.00000000000E+00  0.00000000000E+00  0.11261497644E+03  0.11261497644E+03  0.00000000000E+00 0. -1.
         -2   -1    0    0    0  501 -0.00000000000E+00 -0.00000000000E+00 -0.16750406062E+03  0.16750406062E+03  0.00000000000E+00 0. -1.
         36    2    1    2    0    0  0.00000000000E+00 -0.71054273576E-14 -0.54889084182E+02  0.28011903706E+03  0.27468866624E+03 0.  0.
         25    2    3    3    0    0  0.38967553326E+02 -0.27829322494E+02 -0.63465312815E+02  0.14179050749E+03  0.11740426177E+03 0.  0.
         25    2    3    3    0    0 -0.38967553326E+02  0.27829322494E+02  0.85762286329E+01  0.13832852956E+03  0.12949242831E+03 0.  0.
          5    1    4    4  502    0 -0.41364033674E+02 -0.97738240187E+01 -0.32453524740E+02  0.53682699129E+02  0.47000000000E+01 0.  1.
         -5    1    4    4    0  502  0.80331587001E+02 -0.18055498475E+02 -0.31011788076E+02  0.88107808365E+02  0.47000000000E+01 0.  1.
          5    1    5    5  503    0 -0.31068161491E+02  0.11033221869E+02 -0.59186670983E+02  0.67912551603E+02  0.47000000000E+01 0. -1.
         -5    1    5    5    0  503 -0.78993918354E+01  0.16796100625E+02  0.67762899616E+02  0.70415977959E+02  0.47000000000E+01 0. -1.
<mgrwt>
<rscale>  0 0.27468867E+03</rscale>
<asrwt>0</asrwt>
<pdfrwt beam="1">  1        2 0.17325381E-01 0.27468867E+03</pdfrwt>
<pdfrwt beam="2">  1       -2 0.25769855E-01 0.27468867E+03</pdfrwt>
<totfact> 0.43945642E+03</totfact>
</mgrwt>
</event>
<event>
 9    1  0.2024718E-002  0.2746935E+03  0.7818608E-02  0.1098623E+00
          1   -1    0    0  501    0  0.00000000000E+00  0.00000000000E+00  0.63481969226E+03  0.63481969226E+03  0.00000000000E+00 0.  1.
         -1   -1    0    0    0  501 -0.00000000000E+00 -0.00000000000E+00 -0.29715728119E+02  0.29715728119E+02  0.00000000000E+00 0.  1.
         36    2    1    2    0    0 -0.53290705182E-14  0.35527136788E-14  0.60510396414E+03  0.66453542038E+03  0.27469349741E+03 0.  0.
         25    2    3    3    0    0  0.13424989960E+02 -0.31879150551E+02  0.19676814926E+03  0.23663990862E+03  0.12682362238E+03 0.  0.
         25    2    3    3    0    0 -0.13424989960E+02  0.31879150551E+02  0.40833581488E+03  0.42789551176E+03  0.12312562963E+03 0.  0.
          5    1    4    4  502    0  0.33596023584E+01 -0.72923071407E+02  0.63889227424E+02  0.97123553540E+02  0.47000000000E+01 0.  1.
         -5    1    4    4    0  502  0.10065387601E+02  0.41043920856E+02  0.13287892183E+03  0.13951635508E+03  0.47000000000E+01 0.  1.
          5    1    5    5  503    0 -0.38500662380E+02  0.29203783460E+02  0.53940144656E+02  0.72572661365E+02  0.47000000000E+01 0.  1.
         -5    1    5    5    0  503  0.25075672420E+02  0.26753670917E+01  0.35439567023E+03  0.35532285039E+03  0.47000000000E+01 0.  1.
<mgrwt>
<rscale>  0 0.27469350E+03</rscale>
<asrwt>0</asrwt>
<pdfrwt beam="1">  1        1 0.97664558E-01 0.27469350E+03</pdfrwt>
<pdfrwt beam="2">  1       -1 0.45716510E-02 0.27469350E+03</pdfrwt>
<totfact> 0.65170864E+03</totfact>
</mgrwt>
</event>
<event>
 9    1  0.2024718E-002  0.2748726E+03  0.7818608E-02  0.1098523E+00
         -1   -1    0    0    0  501 -0.00000000000E+00  0.00000000000E+00  0.16079195260E+02  0.16079195260E+02  0.00000000000E+00 0.  1.
          1   -1    0    0  501    0  0.00000000000E+00 -0.00000000000E+00 -0.11747318812E+04  0.11747318812E+04  0.00000000000E+00 0.  1.
         36    2    1    2    0    0  0.00000000000E+00  0.00000000000E+00 -0.11586526859E+04  0.11908110765E+04  0.27487264903E+03 0.  0.
         25    2    3    3    0    0 -0.45602106033E+02  0.29075418815E+02 -0.44351113896E+03  0.46318054186E+03  0.12210303815E+03 0.  0.
         25    2    3    3    0    0  0.45602106033E+02 -0.29075418815E+02 -0.71514154698E+03  0.72763053459E+03  0.12285695179E+03 0.  0.
          5    1    4    4  502    0 -0.81138600152E+02  0.19437258198E+02 -0.19849431000E+03  0.21536796545E+03  0.47000000000E+01 0. -1.
         -5    1    4    4    0  502  0.35536494119E+02  0.96381606168E+01 -0.24501682896E+03  0.24781257641E+03  0.47000000000E+01 0. -1.
          5    1    5    5  503    0 -0.18551516348E+02 -0.27056311120E+02 -0.53961030447E+02  0.63325236179E+02  0.47000000000E+01 0.  1.
         -5    1    5    5    0  503  0.64153622381E+02 -0.20191076945E+01 -0.66118051653E+03  0.66430529841E+03  0.47000000000E+01 0.  1.
<mgrwt>
<rscale>  0 0.27487265E+03</rscale>
<asrwt>0</asrwt>
<pdfrwt beam="1">  1        1 0.18072797E+00 0.27487265E+03</pdfrwt>
<pdfrwt beam="2">  1       -1 0.24737226E-02 0.27487265E+03</pdfrwt>
<totfact> 0.59825584E+03</totfact>
</mgrwt>
</event>
<event>
 9    1  0.2024718E-002  0.2748262E+03  0.7818608E-02  0.1098549E+00
          4   -1    0    0  501    0  0.00000000000E+00  0.00000000000E+00  0.11232258968E+04  0.11232258968E+04  0.00000000000E+00 0.  1.
         -4   -1    0    0    0  501 -0.00000000000E+00 -0.00000000000E+00 -0.16810824632E+02  0.16810824632E+02  0.00000000000E+00 0.  1.
         36    2    1    2    0    0 -0.35527136788E-14  0.71054273576E-14  0.11064150722E+04  0.11400367215E+04  0.27482615286E+03 0.  0.
         25    2    3    3    0    0 -0.26714890966E+02  0.18984845585E+02  0.33387704037E+03  0.35689765964E+03  0.12177007680E+03 0.  0.
         25    2    3    3    0    0  0.26714890966E+02 -0.18984845585E+02  0.77253803184E+03  0.78313906184E+03  0.12416790962E+03 0.  0.
          5    1    4    4  502    0 -0.33543712224E+01  0.67710358783E+02  0.14071834010E+03  0.15626799331E+03  0.47000000000E+01 0. -1.
         -5    1    4    4    0  502 -0.23360519744E+02 -0.48725513198E+02  0.19315870027E+03  0.20062966633E+03  0.47000000000E+01 0. -1.
          5    1    5    5  503    0  0.18173503502E+02  0.32529099144E+02  0.77440064368E+02  0.86066672353E+02  0.47000000000E+01 0.  1.
         -5    1    5    5    0  503  0.85413874642E+01 -0.51513944728E+02  0.69509796747E+03  0.69707238948E+03  0.47000000000E+01 0.  1.
<mgrwt>
<rscale>  0 0.27482615E+03</rscale>
<asrwt>0</asrwt>
<pdfrwt beam="1">  1        4 0.17280393E+00 0.27482615E+03</pdfrwt>
<pdfrwt beam="2">  1       -4 0.25862816E-02 0.27482615E+03</pdfrwt>
<totfact> 0.27682401E+02</totfact>
</mgrwt>
</event>
<event>
 9    1  0.2024718E-002  0.2760865E+03  0.7818608E-02  0.1097846E+00
         -1   -1    0    0    0  501 -0.00000000000E+00  0.00000000000E+00  0.14948261986E+03  0.14948261986E+03  0.00000000000E+00 0. -1.
          1   -1    0    0  501    0  0.00000000000E+00 -0.00000000000E+00 -0.12747928602E+03  0.12747928602E+03  0.00000000000E+00 0. -1.
         36    2    1    2    0    0  0.00000000000E+00 -0.35527136788E-14  0.22003333843E+02  0.27696190588E+03  0.27608649117E+03 0.  0.
         25    2    3    3    0    0 -0.30496952088E+02 -0.22151183016E+01  0.59237856575E+02  0.14068240140E+03  0.12388479962E+03 0.  0.
         25    2    3    3    0    0  0.30496952088E+02  0.22151183016E+01 -0.37234522732E+02  0.13627950447E+03  0.12747832294E+03 0.  0.
          5    1    4    4  502    0  0.20468914491E+02  0.87313397868E+01 -0.29747175165E+02  0.37445923479E+02  0.47000000000E+01 0. -1.
         -5    1    4    4    0  502 -0.50965866579E+02 -0.10946458088E+02  0.88985031740E+02  0.10323647793E+03  0.47000000000E+01 0. -1.
          5    1    5    5  503    0 -0.95160860440E+01  0.19244827270E+02  0.41073644910E+02  0.46583833853E+02  0.47000000000E+01 0. -1.
         -5    1    5    5    0  503  0.40013038132E+02 -0.17029708968E+02 -0.78308167642E+02  0.89695670618E+02  0.47000000000E+01 0. -1.
<mgrwt>
<rscale>  0 0.27608649E+03</rscale>
<asrwt>0</asrwt>
<pdfrwt beam="1">  1        1 0.19612198E-01 0.27608649E+03</pdfrwt>
<pdfrwt beam="2">  1       -1 0.22997326E-01 0.27608649E+03</pdfrwt>
<totfact> 0.41691101E+03</totfact>
</mgrwt>
</event>
<event>
 9    1  0.2024718E-002  0.2753732E+03  0.7818608E-02  0.1098243E+00
         -1   -1    0    0    0  501 -0.00000000000E+00  0.00000000000E+00  0.39026020773E+02  0.39026020773E+02  0.00000000000E+00 0.  1.
          1   -1    0    0  501    0  0.00000000000E+00 -0.00000000000E+00 -0.48576815263E+03  0.48576815263E+03  0.00000000000E+00 0.  1.
         36    2    1    2    0    0  0.71054273576E-14 -0.71054273576E-14 -0.44674213185E+03  0.52479417340E+03  0.27537318690E+03 0.  0.
         25    2    3    3    0    0  0.36846003625E+02 -0.19675680083E+02 -0.15623900909E+03  0.20520419006E+03  0.12630665576E+03 0.  0.
         25    2    3    3    0    0 -0.36846003625E+02  0.19675680083E+02 -0.29050312277E+03  0.31958998334E+03  0.12649479334E+03 0.  0.
          5    1    4    4  502    0  0.13992187360E+02 -0.73184111010E+02 -0.87068873107E+02  0.11469426348E+03  0.47000000000E+01 0. -1.
         -5    1    4    4    0  502  0.22853816265E+02  0.53508430927E+02 -0.69170135978E+02  0.90509926579E+02  0.47000000000E+01 0. -1.
          5    1    5    5  503    0  0.35517900880E+02  0.40383238990E+02 -0.16001601765E+03  0.16887730215E+03  0.47000000000E+01 0. -1.
         -5    1    5    5    0  503 -0.72363904505E+02 -0.20707558907E+02 -0.13048710511E+03  0.15071268119E+03  0.47000000000E+01 0. -1.
<mgrwt>
<rscale>  0 0.27537319E+03</rscale>
<asrwt>0</asrwt>
<pdfrwt beam="1">  1        1 0.74733562E-01 0.27537319E+03</pdfrwt>
<pdfrwt beam="2">  1       -1 0.60040032E-02 0.27537319E+03</pdfrwt>
<totfact> 0.62345972E+03</totfact>
</mgrwt>
</event>
<event>
 9    1  0.2024718E-002  0.2750783E+03  0.7818608E-02  0.1098408E+00
         -1   -1    0    0    0  501 -0.00000000000E+00  0.00000000000E+00  0.49106781595E+02  0.49106781595E+02  0.00000000000E+00 0.  1.
          1   -1    0    0  501    0  0.00000000000E+00 -0.00000000000E+00 -0.38522200021E+03  0.38522200021E+03  0.00000000000E+00 0.  1.
         36    2    1    2    0    0  0.00000000000E+00  0.71054273576E-14 -0.33611521861E+03  0.43432878180E+03  0.27507826253E+03 0.  0.
         25    2    3    3    0    0 -0.21051616607E+02  0.32097042234E+02 -0.12429564505E+03  0.17923420375E+03  0.12329680342E+03 0.  0.
         25    2    3    3    0    0  0.21051616607E+02 -0.32097042234E+02 -0.21181957357E+03  0.25509457805E+03  0.13686607076E+03 0.  0.
          5    1    4    4  502    0  0.32265926002E+02  0.46043715292E+02 -0.17680541551E+02  0.59125335079E+02  0.47000000000E+01 0.  1.
         -5    1    4    4    0  502 -0.53317542609E+02 -0.13946673058E+02 -0.10661510350E+03  0.12010886867E+03  0.47000000000E+01 0.  1.
          5    1    5    5  503    0 -0.33272491690E+02 -0.50157410108E+02 -0.17907147581E+03  0.18897488707E+03  0.47000000000E+01 0.  1.
         -5    1    5    5    0  503  0.54324108297E+02  0.18060367874E+02 -0.32748097754E+02  0.66119690990E+02  0.47000000000E+01 0.  1.
<mgrwt>
<rscale>  0 0.27507826E+03</rscale>
<asrwt>0</asrwt>
<pdfrwt beam="1">  1        1 0.59264923E-01 0.27507826E+03</pdfrwt>
<pdfrwt beam="2">  1       -1 0.75548895E-02 0.27507826E+03</pdfrwt>
<totfact> 0.59453969E+03</totfact>
</mgrwt>
</event>
<event>
 9    1  0.2024718E-002  0.2761839E+03  0.7818608E-02  0.1097792E+00
          2   -1    0    0  501    0  0.00000000000E+00  0.00000000000E+00  0.14905957058E+03  0.14905957058E+03  0.00000000000E+00 0.  1.
         -2   -1    0    0    0  501 -0.00000000000E+00 -0.00000000000E+00 -0.12793130352E+03  0.12793130352E+03  0.00000000000E+00 0.  1.
         36    2    1    2    0    0  0.00000000000E+00  0.00000000000E+00  0.21128267057E+02  0.27699087409E+03  0.27618388922E+03 0.  0.
         25    2    3    3    0    0 -0.20933742718E+02 -0.69737512226E+01 -0.38555948213E+02  0.13155261043E+03  0.12382517263E+03 0.  0.
         25    2    3    3    0    0  0.20933742718E+02  0.69737512226E+01  0.59684215270E+02  0.14543826367E+03  0.13077931104E+03 0.  0.
          5    1    4    4  502    0  0.41160282908E+02  0.29921862064E+02 -0.37593754127E+01  0.51241678563E+02  0.47000000000E+01 0. -1.
         -5    1    4    4    0  502 -0.62094025626E+02 -0.36895613287E+02 -0.34796572800E+02  0.80310931864E+02  0.47000000000E+01 0. -1.
          5    1    5    5  503    0 -0.29776881148E+02 -0.31262850168E+02  0.68540217729E+02  0.81141111022E+02  0.47000000000E+01 0. -1.
         -5    1    5    5    0  503  0.50710623865E+02  0.38236601390E+02 -0.88560024591E+01  0.64297152645E+02  0.47000000000E+01 0. -1.
<mgrwt>
<rscale>  0 0.27618389E+03</rscale>
<asrwt>0</asrwt>
<pdfrwt beam="1">  1        2 0.22932242E-01 0.27618389E+03</pdfrwt>
<pdfrwt beam="2">  1       -2 0.19681739E-01 0.27618389E+03</pdfrwt>
<totfact> 0.50930879E+03</totfact>
</mgrwt>
</event>
<event>
 9    1  0.2024718E-002  0.2759505E+03  0.7818608E-02  0.1097921E+00
          2   -1    0    0  501    0  0.00000000000E+00  0.00000000000E+00  0.31151618184E+02  0.31151618184E+02  0.00000000000E+00 0.  1.
         -2   -1    0    0    0  501 -0.00000000000E+00 -0.00000000000E+00 -0.61111335875E+03  0.61111335875E+03  0.00000000000E+00 0.  1.
         36    2    1    2    0    0 -0.17763568394E-14  0.00000000000E+00 -0.57996174056E+03  0.64226497693E+03  0.27595050294E+03 0.  0.
         25    2    3    3    0    0 -0.47473393356E+01 -0.29443328244E+01 -0.17909759496E+03  0.22158773695E+03  0.13036092328E+03 0.  0.
         25    2    3    3    0    0  0.47473393356E+01  0.29443328244E+01 -0.40086414561E+03  0.42067723998E+03  0.12746007485E+03 0.  0.
          5    1    4    4  502    0  0.76224418898E+01 -0.40565506461E+02 -0.17682854119E+03  0.18164273978E+03  0.47000000000E+01 0.  1.
         -5    1    4    4    0  502 -0.12369781225E+02  0.37621173637E+02 -0.22690537622E+01  0.39944997163E+02  0.47000000000E+01 0.  1.
          5    1    5    5  503    0  0.36114001706E+02  0.50874634168E+02 -0.27914952146E+03  0.28607515595E+03  0.47000000000E+01 0. -1.
         -5    1    5    5    0  503 -0.31366662371E+02 -0.47930301343E+02 -0.12171462415E+03  0.13460208403E+03  0.47000000000E+01 0. -1.
<mgrwt>
<rscale>  0 0.27595050E+03</rscale>
<asrwt>0</asrwt>
<pdfrwt beam="1">  1        2 0.47925571E-02 0.27595050E+03</pdfrwt>
<pdfrwt beam="2">  1       -2 0.94017430E-01 0.27595050E+03</pdfrwt>
<totfact> 0.16439710E+03</totfact>
</mgrwt>
</event>
<event>
 9    1  0.2024718E-002  0.2721032E+03  0.7818608E-02  0.1100082E+00
          1   -1    0    0  501    0  0.00000000000E+00  0.00000000000E+00  0.19081153525E+02  0.19081153525E+02  0.00000000000E+00 0. -1.
         -1   -1    0    0    0  501 -0.00000000000E+00 -0.00000000000E+00 -0.97006893135E+03  0.97006893135E+03  0.00000000000E+00 0. -1.
         36    2    1    2    0    0  0.17763568394E-14  0.00000000000E+00 -0.95098777783E+03  0.98915008487E+03  0.27210317314E+03 0.  0.
         25    2    3    3    0    0  0.12052987488E+02  0.51927841044E+02 -0.48594620196E+03  0.50409200564E+03  0.12297667980E+03 0.  0.
         25    2    3    3    0    0 -0.12052987488E+02 -0.51927841044E+02 -0.46504157587E+03  0.48505807923E+03  0.12718450283E+03 0.  0.
          5    1    4    4  502    0 -0.13293177153E+00 -0.38520135946E+02 -0.20549780444E+03  0.20912975918E+03  0.47000000000E+01 0.  1.
         -5    1    4    4    0  502  0.12185919259E+02  0.90447976990E+02 -0.28044839752E+03  0.29496224647E+03  0.47000000000E+01 0.  1.
          5    1    5    5  503    0  0.49205682979E+01  0.10149939193E+02 -0.36987942259E+03  0.37008122151E+03  0.47000000000E+01 0. -1.
         -5    1    5    5    0  503 -0.16973555786E+02 -0.62077780237E+02 -0.95162153274E+02  0.11497685772E+03  0.47000000000E+01 0. -1.
<mgrwt>
<rscale>  0 0.27210317E+03</rscale>
<asrwt>0</asrwt>
<pdfrwt beam="1">  1        1 0.29355622E-02 0.27210317E+03</pdfrwt>
<pdfrwt beam="2">  1       -1 0.14924137E+00 0.27210317E+03</pdfrwt>
<totfact> 0.13457429E+03</totfact>
</mgrwt>
</event>
<event>
 9    1  0.2024718E-002  0.2753584E+03  0.7818608E-02  0.1098251E+00
          2   -1    0    0  501    0  0.00000000000E+00  0.00000000000E+00  0.68995416784E+03  0.68995416784E+03  0.00000000000E+00 0. -1.
         -2   -1    0    0    0  501 -0.00000000000E+00 -0.00000000000E+00 -0.27473658049E+02  0.27473658049E+02  0.00000000000E+00 0. -1.
         36    2    1    2    0    0  0.00000000000E+00 -0.71054273576E-14  0.66248050979E+03  0.71742782589E+03  0.27535842007E+03 0.  0.
         25    2    3    3    0    0  0.14994196261E+02 -0.41419590032E+02  0.24815579091E+03  0.28214159357E+03  0.12681551129E+03 0.  0.
         25    2    3    3    0    0 -0.14994196261E+02  0.41419590032E+02  0.41432471888E+03  0.43528623231E+03  0.12597111972E+03 0.  0.
          5    1    4    4  502    0  0.64302002964E+00  0.17697950300E+02 -0.71332217929E+01  0.19662242312E+02  0.47000000000E+01 0.  1.
         -5    1    4    4    0  502  0.14351176231E+02 -0.59117540332E+02  0.25528901270E+03  0.26247935126E+03  0.47000000000E+01 0.  1.
          5    1    5    5  503    0 -0.62921118799E+02 -0.11714147786E+01  0.27022114883E+03  0.27749233986E+03  0.47000000000E+01 0. -1.
         -5    1    5    5    0  503  0.47926922538E+02  0.42591004811E+02  0.14410357005E+03  0.15779389246E+03  0.47000000000E+01 0. -1.
<mgrwt>
<rscale>  0 0.27535842E+03</rscale>
<asrwt>0</asrwt>
<pdfrwt beam="1">  1        2 0.10614678E+00 0.27535842E+03</pdfrwt>
<pdfrwt beam="2">  1       -2 0.42267171E-02 0.27535842E+03</pdfrwt>
<totfact> 0.10750360E+04</totfact>
</mgrwt>
</event>
<event>
 9    1  0.2024718E-002  0.2718478E+03  0.7818608E-02  0.1100227E+00
          2   -1    0    0  501    0  0.00000000000E+00  0.00000000000E+00  0.11523299024E+04  0.11523299024E+04  0.00000000000E+00 0. -1.
         -2   -1    0    0    0  501 -0.00000000000E+00 -0.00000000000E+00 -0.16032999807E+02  0.16032999807E+02  0.00000000000E+00 0. -1.
         36    2    1    2    0    0  0.00000000000E+00 -0.71054273576E-14  0.11362969026E+04  0.11683629023E+04  0.27184778906E+03 0.  0.
         25    2    3    3    0    0  0.16632864357E+02 -0.56016166531E+02  0.48906182351E+03  0.50801752747E+03  0.12444226740E+03 0.  0.
         25    2    3    3    0    0 -0.16632864357E+02  0.56016166531E+02  0.64723507913E+03  0.66034537478E+03  0.11716784222E+03 0.  0.
          5    1    4    4  502    0  0.16677515795E+01 -0.13062590355E+01 -0.70043918151E+01  0.86970806997E+01  0.47000000000E+01 0.  1.
         -5    1    4    4    0  502  0.14965112778E+02 -0.54709907495E+02  0.49606621533E+03  0.49932044677E+03  0.47000000000E+01 0.  1.
          5    1    5    5  503    0 -0.13444894302E+02  0.53396396144E+02  0.65080285842E+03  0.65314499985E+03  0.47000000000E+01 0.  1.
         -5    1    5    5    0  503 -0.31879700547E+01  0.26197703872E+01 -0.35677792956E+01  0.72003749245E+01  0.47000000000E+01 0.  1.
<mgrwt>
<rscale>  0 0.27184779E+03</rscale>
<asrwt>0</asrwt>
<pdfrwt beam="1">  1        2 0.17728146E+00 0.27184779E+03</pdfrwt>
<pdfrwt beam="2">  1       -2 0.24666163E-02 0.27184779E+03</pdfrwt>
<totfact> 0.12043508E+04</totfact>
</mgrwt>
</event>
<event>
 9    1  0.2024718E-002  0.2750827E+03  0.7818608E-02  0.1098405E+00
         -2   -1    0    0    0  501 -0.00000000000E+00  0.00000000000E+00  0.32022168181E+02  0.32022168181E+02  0.00000000000E+00 0.  1.
          2   -1    0    0  501    0  0.00000000000E+00 -0.00000000000E+00 -0.59076640298E+03  0.59076640298E+03  0.00000000000E+00 0.  1.
         36    2    1    2    0    0  0.00000000000E+00  0.00000000000E+00 -0.55874423480E+03  0.62278857117E+03  0.27508268657E+03 0.  0.
         25    2    3    3    0    0  0.30274048351E+02 -0.16156685997E+02 -0.16182389208E+03  0.20653004613E+03  0.12365327090E+03 0.  0.
         25    2    3    3    0    0 -0.30274048351E+02  0.16156685997E+02 -0.39692034273E+03  0.41625852503E+03  0.12061444642E+03 0.  0.
          5    1    4    4  502    0 -0.32966844508E+02 -0.42867379351E+02 -0.43122110933E+02  0.69325547243E+02  0.47000000000E+01 0. -1.
         -5    1    4    4    0  502  0.63240892859E+02  0.26710693354E+02 -0.11870178114E+03  0.13720449889E+03  0.47000000000E+01 0. -1.
          5    1    5    5  503    0  0.43994270861E+02 -0.80351293011E+01 -0.10943135861E+03  0.11831048736E+03  0.47000000000E+01 0.  1.
         -5    1    5    5    0  503 -0.74268319212E+02  0.24191815298E+02 -0.28748898412E+03  0.29794803768E+03  0.47000000000E+01 0.  1.
<mgrwt>
<rscale>  0 0.27508269E+03</rscale>
<asrwt>0</asrwt>
<pdfrwt beam="1">  1        2 0.90887131E-01 0.27508269E+03</pdfrwt>
<pdfrwt beam="2">  1       -2 0.49264878E-02 0.27508269E+03</pdfrwt>
<totfact> 0.10241288E+04</totfact>
</mgrwt>
</event>
<event>
 9    1  0.2024718E-002  0.2748733E+03  0.7818608E-02  0.1098522E+00
         -1   -1    0    0    0  501 -0.00000000000E+00  0.00000000000E+00  0.15508335528E+02  0.15508335528E+02  0.00000000000E+00 0. -1.
          1   -1    0    0  501    0  0.00000000000E+00 -0.00000000000E+00 -0.12179789507E+04  0.12179789507E+04  0.00000000000E+00 0. -1.
         36    2    1    2    0    0  0.71054273576E-14  0.14210854715E-13 -0.12024706152E+04  0.12334872862E+04  0.27487325248E+03 0.  0.
         25    2    3    3    0    0  0.32062212591E+02 -0.45895287731E+02 -0.57170779145E+03  0.58776851509E+03  0.12444945004E+03 0.  0.
         25    2    3    3    0    0 -0.32062212591E+02  0.45895287731E+02 -0.63076282371E+03  0.64571877112E+03  0.12631954993E+03 0.  0.
          5    1    4    4  502    0 -0.85285902676E+00  0.62663092426E+01  0.39380928586E+01  0.88086647914E+01  0.47000000000E+01 0. -1.
         -5    1    4    4    0  502  0.32915071617E+02 -0.52161596974E+02 -0.57564588431E+03  0.57895985030E+03  0.47000000000E+01 0. -1.
          5    1    5    5  503    0  0.30915251860E+01 -0.37194661098E+02 -0.91341287248E+02  0.98784214823E+02  0.47000000000E+01 0.  1.
         -5    1    5    5    0  503 -0.35153737777E+02  0.83089948828E+02 -0.53942153646E+03  0.54693455630E+03  0.47000000000E+01 0.  1.
<mgrwt>
<rscale>  0 0.27487325E+03</rscale>
<asrwt>0</asrwt>
<pdfrwt beam="1">  1        1 0.18738145E+00 0.27487325E+03</pdfrwt>
<pdfrwt beam="2">  1       -1 0.23858969E-02 0.27487325E+03</pdfrwt>
<totfact> 0.58836161E+03</totfact>
</mgrwt>
</event>
<event>
 9    1  0.2024718E-002  0.2751794E+03  0.7818608E-02  0.1098351E+00
         -2   -1    0    0    0  501 -0.00000000000E+00  0.00000000000E+00  0.10387785426E+04  0.10387785426E+04  0.00000000000E+00 0.  1.
          2   -1    0    0  501    0  0.00000000000E+00 -0.00000000000E+00 -0.18224221966E+02  0.18224221966E+02  0.00000000000E+00 0.  1.
         36    2    1    2    0    0 -0.17763568394E-14  0.35527136788E-14  0.10205543207E+04  0.10570027646E+04  0.27517943771E+03 0.  0.
         25    2    3    3    0    0 -0.39082137850E+01  0.15941387420E+02  0.71696481301E+03  0.72858242573E+03  0.12854729097E+03 0.  0.
         25    2    3    3    0    0  0.39082137850E+01 -0.15941387420E+02  0.30358950766E+03  0.32842033887E+03  0.12419310713E+03 0.  0.
          5    1    4    4  502    0 -0.14168782390E+02 -0.14359970240E+02  0.14291320712E+02  0.25165352917E+02  0.47000000000E+01 0. -1.
         -5    1    4    4    0  502  0.10260568605E+02  0.30301357660E+02  0.70267349230E+03  0.70341707281E+03  0.47000000000E+01 0. -1.
          5    1    5    5  503    0  0.43455358056E+02 -0.41424411580E+02  0.24910917596E+03  0.25628464950E+03  0.47000000000E+01 0.  1.
         -5    1    5    5    0  503 -0.39547144271E+02  0.25483024160E+02  0.54480331694E+02  0.72135689376E+02  0.47000000000E+01 0.  1.
<mgrwt>
<rscale>  0 0.27517944E+03</rscale>
<asrwt>0</asrwt>
<pdfrwt beam="1">  1        2 0.28037273E-02 0.27517944E+03</pdfrwt>
<pdfrwt beam="2">  1       -2 0.15981204E+00 0.27517944E+03</pdfrwt>
<totfact> 0.92342396E+02</totfact>
</mgrwt>
</event>
<event>
 9    1  0.2024718E-002  0.2762590E+03  0.7818608E-02  0.1097750E+00
         -1   -1    0    0    0  501 -0.00000000000E+00  0.00000000000E+00  0.23502799671E+03  0.23502799671E+03  0.00000000000E+00 0.  1.
          1   -1    0    0  501    0  0.00000000000E+00 -0.00000000000E+00 -0.81180778430E+02  0.81180778430E+02  0.00000000000E+00 0.  1.
         36    2    1    2    0    0  0.00000000000E+00  0.35527136788E-14  0.15384721828E+03  0.31620877514E+03  0.27625897796E+03 0.  0.
         25    2    3    3    0    0 -0.46700958483E+02  0.27963904324E+02  0.11988678968E+03  0.17527819149E+03  0.11570065948E+03 0.  0.
         25    2    3    3    0    0  0.46700958483E+02 -0.27963904324E+02  0.33960428594E+02  0.14093058365E+03  0.12547971640E+03 0.  0.
          5    1    4    4  502    0 -0.57524716831E+02 -0.27488126503E+02  0.34109921239E+02  0.72458725300E+02  0.47000000000E+01 0.  1.
         -5    1    4    4    0  502  0.10823758348E+02  0.55452030826E+02  0.85776868445E+02  0.10281946619E+03  0.47000000000E+01 0.  1.
          5    1    5    5  503    0  0.63732543896E+02  0.12095200217E+02  0.61249085815E+02  0.89340201102E+02  0.47000000000E+01 0.  1.
         -5    1    5    5    0  503 -0.17031585412E+02 -0.40059104541E+02 -0.27288657221E+02  0.51590382546E+02  0.47000000000E+01 0.  1.
<mgrwt>
<rscale>  0 0.27625898E+03</rscale>
<asrwt>0</asrwt>
<pdfrwt beam="1">  1        1 0.12489351E-01 0.27625898E+03</pdfrwt>
<pdfrwt beam="2">  1       -1 0.36158153E-01 0.27625898E+03</pdfrwt>
<totfact> 0.34963003E+03</totfact>
</mgrwt>
</event>
<event>
 9    1  0.2024718E-002  0.2742806E+03  0.7818608E-02  0.1098854E+00
          2   -1    0    0  501    0  0.00000000000E+00  0.00000000000E+00  0.15831349138E+03  0.15831349138E+03  0.00000000000E+00 0.  1.
         -2   -1    0    0    0  501 -0.00000000000E+00 -0.00000000000E+00 -0.11879887582E+03  0.11879887582E+03  0.00000000000E+00 0.  1.
         36    2    1    2    0    0  0.00000000000E+00  0.71054273576E-14  0.39514615558E+02  0.27711236720E+03  0.27428062128E+03 0.  0.
         25    2    3    3    0    0  0.23867191845E+01 -0.34854382242E+02 -0.40123314918E+01  0.14296305738E+03  0.13857060505E+03 0.  0.
         25    2    3    3    0    0 -0.23867191845E+01  0.34854382242E+02  0.43526947050E+02  0.13414930981E+03  0.12198736744E+03 0.  0.
          5    1    4    4  502    0  0.15618851191E+02 -0.29959614297E+02  0.64441223043E+02  0.72912881088E+02  0.47000000000E+01 0. -1.
         -5    1    4    4    0  502 -0.13232132007E+02 -0.48947679453E+01 -0.68453554534E+02  0.70050176296E+02  0.47000000000E+01 0. -1.
          5    1    5    5  503    0  0.28038299846E+02  0.23859996943E+02  0.78160052360E+02  0.86524733442E+02  0.47000000000E+01 0. -1.
         -5    1    5    5    0  503 -0.30425019030E+02  0.10994385299E+02 -0.34633105310E+02  0.47624576371E+02  0.47000000000E+01 0. -1.
<mgrwt>
<rscale>  0 0.27428062E+03</rscale>
<asrwt>0</asrwt>
<pdfrwt beam="1">  1        2 0.24355922E-01 0.27428062E+03</pdfrwt>
<pdfrwt beam="2">  1       -2 0.18276750E-01 0.27428062E+03</pdfrwt>
<totfact> 0.53964805E+03</totfact>
</mgrwt>
</event>
<event>
 9    1  0.2024718E-002  0.2769112E+03  0.7818608E-02  0.1097388E+00
          2   -1    0    0  501    0  0.00000000000E+00  0.00000000000E+00  0.73413727565E+02  0.73413727565E+02  0.00000000000E+00 0. -1.
         -2   -1    0    0    0  501 -0.00000000000E+00 -0.00000000000E+00 -0.26112221754E+03  0.26112221754E+03  0.00000000000E+00 0. -1.
         36    2    1    2    0    0  0.00000000000E+00  0.00000000000E+00 -0.18770848997E+03  0.33453594510E+03  0.27691121566E+03 0.  0.
         25    2    3    3    0    0  0.36266415556E+02 -0.37173051777E+02 -0.14037914950E+03  0.19224647058E+03  0.12064539428E+03 0.  0.
         25    2    3    3    0    0 -0.36266415556E+02  0.37173051777E+02 -0.47329340470E+02  0.14228947452E+03  0.12373010715E+03 0.  0.
          5    1    4    4  502    0  0.14477347270E+02 -0.95803171202E+01  0.20634235546E+02  0.27372207377E+02  0.47000000000E+01 0.  1.
         -5    1    4    4    0  502  0.21789068286E+02 -0.27592734657E+02 -0.16101338505E+03  0.16487426320E+03  0.47000000000E+01 0.  1.
          5    1    5    5  503    0  0.32373813139E+02 -0.18818847174E+02 -0.37226507901E+02  0.53010524206E+02  0.47000000000E+01 0.  1.
         -5    1    5    5    0  503 -0.68640228695E+02  0.55991898951E+02 -0.10102832570E+02  0.89278950315E+02  0.47000000000E+01 0.  1.
<mgrwt>
<rscale>  0 0.27691122E+03</rscale>
<asrwt>0</asrwt>
<pdfrwt beam="1">  1        2 0.11294420E-01 0.27691122E+03</pdfrwt>
<pdfrwt beam="2">  1       -2 0.40172649E-01 0.27691122E+03</pdfrwt>
<totfact> 0.32402410E+03</totfact>
</mgrwt>
</event>
<event>
 9    1  0.2024718E-002  0.2754511E+03  0.7818608E-02  0.1098200E+00
         -1   -1    0    0    0  501 -0.00000000000E+00  0.00000000000E+00  0.35439929227E+03  0.35439929227E+03  0.00000000000E+00 0. -1.
          1   -1    0    0  501    0  0.00000000000E+00 -0.00000000000E+00 -0.53522479318E+02  0.53522479318E+02  0.00000000000E+00 0. -1.
         36    2    1    2    0    0  0.00000000000E+00  0.71054273576E-14  0.30087681295E+03  0.40792177159E+03  0.27545111211E+03 0.  0.
         25    2    3    3    0    0 -0.48194285999E+02  0.28152790532E+02  0.16730470731E+03  0.21626754593E+03  0.12516196514E+03 0.  0.
         25    2    3    3    0    0  0.48194285999E+02 -0.28152790532E+02  0.13357210564E+03  0.19165422565E+03  0.12559683909E+03 0.  0.
          5    1    4    4  502    0 -0.74872098753E+02 -0.23459930900E+02  0.10106280349E+03  0.12803116722E+03  0.47000000000E+01 0. -1.
         -5    1    4    4    0  502  0.26677812755E+02  0.51612721432E+02  0.66241903824E+02  0.88236378718E+02  0.47000000000E+01 0. -1.
          5    1    5    5  503    0  0.41816813319E+02  0.46234187065E+02  0.56898765671E+02  0.84532866180E+02  0.47000000000E+01 0. -1.
         -5    1    5    5    0  503  0.63774726801E+01 -0.74386977596E+02  0.76673339966E+02  0.10712135947E+03  0.47000000000E+01 0. -1.
<mgrwt>
<rscale>  0 0.27545111E+03</rscale>
<asrwt>0</asrwt>
<pdfrwt beam="1">  1        1 0.82342278E-02 0.27545111E+03</pdfrwt>
<pdfrwt beam="2">  1       -1 0.54522967E-01 0.27545111E+03</pdfrwt>
<totfact> 0.29084423E+03</totfact>
</mgrwt>
</event>
<event>
 9    1  0.2024718E-002  0.2743528E+03  0.7818608E-02  0.1098814E+00
         -1   -1    0    0    0  501 -0.00000000000E+00  0.00000000000E+00  0.72321472042E+02  0.72321472042E+02  0.00000000000E+00 0. -1.
          1   -1    0    0  501    0  0.00000000000E+00 -0.00000000000E+00 -0.26019053775E+03  0.26019053775E+03  0.00000000000E+00 0. -1.
         36    2    1    2    0    0  0.00000000000E+00  0.35527136788E-14 -0.18786906571E+03  0.33251200979E+03  0.27435278531E+03 0.  0.
         25    2    3    3    0    0  0.27759533191E+02 -0.31031293608E+02 -0.14524521239E+03  0.19548236980E+03  0.12403085227E+03 0.  0.
         25    2    3    3    0    0 -0.27759533191E+02  0.31031293608E+02 -0.42623853319E+02  0.13702963999E+03  0.12339690636E+03 0.  0.
          5    1    4    4  502    0  0.31683204144E+02 -0.51745428166E+02 -0.15874533331E+03  0.17001054558E+03  0.47000000000E+01 0.  1.
         -5    1    4    4    0  502 -0.39236709533E+01  0.20714134557E+02  0.13500120921E+02  0.25471824219E+02  0.47000000000E+01 0.  1.
          5    1    5    5  503    0  0.23129525435E+02 -0.21187395754E+02  0.22713773377E+02  0.39011359714E+02  0.47000000000E+01 0. -1.
         -5    1    5    5    0  503 -0.50889058626E+02  0.52218689363E+02 -0.65337626697E+02  0.98018280279E+02  0.47000000000E+01 0. -1.
<mgrwt>
<rscale>  0 0.27435279E+03</rscale>
<asrwt>0</asrwt>
<pdfrwt beam="1">  1        1 0.40029313E-01 0.27435279E+03</pdfrwt>
<pdfrwt beam="2">  1       -1 0.11126380E-01 0.27435279E+03</pdfrwt>
<totfact> 0.53780538E+03</totfact>
</mgrwt>
</event>
<event>
 9    1  0.2024718E-002  0.2746633E+03  0.7818608E-02  0.1098640E+00
         -2   -1    0    0    0  501 -0.00000000000E+00  0.00000000000E+00  0.12565074323E+03  0.12565074323E+03  0.00000000000E+00 0. -1.
          2   -1    0    0  501    0  0.00000000000E+00 -0.00000000000E+00 -0.15009845405E+03  0.15009845405E+03  0.00000000000E+00 0. -1.
         36    2    1    2    0    0  0.00000000000E+00 -0.35527136788E-14 -0.24447710816E+02  0.27574919728E+03  0.27466330158E+03 0.  0.
         25    2    3    3    0    0  0.20679082903E+02  0.15368192728E+02 -0.39847003063E+02  0.13419421915E+03  0.12552489387E+03 0.  0.
         25    2    3    3    0    0 -0.20679082903E+02 -0.15368192728E+02  0.15399292247E+02  0.14155497813E+03  0.13833606838E+03 0.  0.
          5    1    4    4  502    0 -0.47230763549E+02  0.74674980297E+01 -0.44523925130E+02  0.65505560537E+02  0.47000000000E+01 0. -1.
         -5    1    4    4    0  502  0.67909846452E+02  0.79006946986E+01  0.46769220672E+01  0.68688658612E+02  0.47000000000E+01 0. -1.
          5    1    5    5  503    0 -0.66146849139E+02  0.25488941494E+02  0.32179551471E+02  0.77991700342E+02  0.47000000000E+01 0.  1.
         -5    1    5    5    0  503  0.45467766236E+02 -0.40857134222E+02 -0.16780259224E+02  0.63563277786E+02  0.47000000000E+01 0.  1.
<mgrwt>
<rscale>  0 0.27466330E+03</rscale>
<asrwt>0</asrwt>
<pdfrwt beam="1">  1        2 0.23092070E-01 0.27466330E+03</pdfrwt>
<pdfrwt beam="2">  1       -2 0.19330884E-01 0.27466330E+03</pdfrwt>
<totfact> 0.52097506E+03</totfact>
</mgrwt>
</event>
<event>
 9    1  0.2024718E-002  0.2758273E+03  0.7818608E-02  0.1097990E+00
          1   -1    0    0  501    0  0.00000000000E+00  0.00000000000E+00  0.38039716954E+03  0.38039716954E+03  0.00000000000E+00 0. -1.
         -1   -1    0    0    0  501 -0.00000000000E+00 -0.00000000000E+00 -0.50000842126E+02  0.50000842126E+02  0.00000000000E+00 0. -1.
         36    2    1    2    0    0  0.00000000000E+00  0.00000000000E+00  0.33039632742E+03  0.43039801167E+03  0.27582732874E+03 0.  0.
         25    2    3    3    0    0  0.15933275085E+02 -0.54509384371E+02  0.18159197927E+03  0.22702391148E+03  0.12385098791E+03 0.  0.
         25    2    3    3    0    0 -0.15933275085E+02  0.54509384371E+02  0.14880434814E+03  0.20337410019E+03  0.12646402003E+03 0.  0.
          5    1    4    4  502    0  0.58566177066E+02 -0.68992750863E+02  0.11316723826E+03  0.14497900049E+03  0.47000000000E+01 0.  1.
         -5    1    4    4    0  502 -0.42632901981E+02  0.14483366492E+02  0.68424741011E+02  0.82044910986E+02  0.47000000000E+01 0.  1.
          5    1    5    5  503    0  0.28911307718E+02 -0.26965407824E+02  0.20334813048E+02  0.44705609880E+02  0.47000000000E+01 0.  1.
         -5    1    5    5    0  503 -0.44844582803E+02  0.81474792196E+02  0.12846953510E+03  0.15866849031E+03  0.47000000000E+01 0.  1.
<mgrwt>
<rscale>  0 0.27582733E+03</rscale>
<asrwt>0</asrwt>
<pdfrwt beam="1">  1        1 0.58522640E-01 0.27582733E+03</pdfrwt>
<pdfrwt beam="2">  1       -1 0.76924375E-02 0.27582733E+03</pdfrwt>
<totfact> 0.58784879E+03</totfact>
</mgrwt>
</event>
<event>
 9    1  0.2024718E-002  0.2735827E+03  0.7818608E-02  0.1099246E+00
          1   -1    0    0  501    0  0.00000000000E+00  0.00000000000E+00  0.19435739321E+02  0.19435739321E+02  0.00000000000E+00 0. -1.
         -1   -1    0    0    0  501 -0.00000000000E+00 -0.00000000000E+00 -0.96275599385E+03  0.96275599385E+03  0.00000000000E+00 0. -1.
         36    2    1    2    0    0  0.14210854715E-13 -0.71054273576E-14 -0.94332025453E+03  0.98219173317E+03  0.27358270798E+03 0.  0.
         25    2    3    3    0    0 -0.54651541893E+02 -0.24876177852E+02 -0.50815362395E+03  0.52546071000E+03  0.11951249710E+03 0.  0.
         25    2    3    3    0    0  0.54651541893E+02  0.24876177852E+02 -0.43516663058E+03  0.45673102318E+03  0.12501046317E+03 0.  0.
          5    1    4    4  502    0  0.77839211999E+01  0.36242537119E+02 -0.77869097946E+02  0.86370118334E+02  0.47000000000E+01 0. -1.
         -5    1    4    4    0  502 -0.62435463093E+02 -0.61118714971E+02 -0.43028452600E+03  0.43909059166E+03  0.47000000000E+01 0. -1.
          5    1    5    5  503    0 -0.16453024688E+02  0.57724667869E+02 -0.19167878846E+03  0.20091213813E+03  0.47000000000E+01 0. -1.
         -5    1    5    5    0  503  0.71104566581E+02 -0.32848490017E+02 -0.24348784213E+03  0.25581888505E+03  0.47000000000E+01 0. -1.
<mgrwt>
<rscale>  0 0.27358271E+03</rscale>
<asrwt>0</asrwt>
<pdfrwt beam="1">  1        1 0.29901136E-02 0.27358271E+03</pdfrwt>
<pdfrwt beam="2">  1       -1 0.14811631E+00 0.27358271E+03</pdfrwt>
<totfact> 0.13376568E+03</totfact>
</mgrwt>
</event>
<event>
 9    1  0.2024718E-002  0.2761325E+03  0.7818608E-02  0.1097820E+00
         -2   -1    0    0    0  501 -0.00000000000E+00  0.00000000000E+00  0.31396696857E+03  0.31396696857E+03  0.00000000000E+00 0. -1.
          2   -1    0    0  501    0  0.00000000000E+00 -0.00000000000E+00 -0.60714331053E+02  0.60714331053E+02  0.00000000000E+00 0. -1.
         36    2    1    2    0    0  0.00000000000E+00  0.35527136788E-14  0.25325263752E+03  0.37468129963E+03  0.27613253680E+03 0.  0.
         25    2    3    3    0    0 -0.57990411423E+02 -0.27862448043E+02  0.99127766504E+02  0.16572704788E+03  0.11618922703E+03 0.  0.
         25    2    3    3    0    0  0.57990411423E+02  0.27862448043E+02  0.15412487102E+03  0.20895425175E+03  0.12557149211E+03 0.  0.
          5    1    4    4  502    0 -0.62256703632E+02  0.54599354640E+01  0.11289012311E+03  0.12912001370E+03  0.47000000000E+01 0.  1.
         -5    1    4    4    0  502  0.42662922094E+01 -0.33322383507E+02 -0.13762356606E+02  0.36607034176E+02  0.47000000000E+01 0.  1.
          5    1    5    5  503    0  0.54702867808E+02  0.18804158693E+02  0.17560529221E+03  0.18494677284E+03  0.47000000000E+01 0.  1.
         -5    1    5    5    0  503  0.32875436142E+01  0.90582893498E+01 -0.21480421195E+02  0.24007478911E+02  0.47000000000E+01 0.  1.
<mgrwt>
<rscale>  0 0.27613254E+03</rscale>
<asrwt>0</asrwt>
<pdfrwt beam="1">  1        2 0.93406665E-02 0.27613254E+03</pdfrwt>
<pdfrwt beam="2">  1       -2 0.48302610E-01 0.27613254E+03</pdfrwt>
<totfact> 0.28639885E+03</totfact>
</mgrwt>
</event>
<event>
 9    1  0.2024718E-002  0.2748246E+03  0.7818608E-02  0.1098550E+00
          2   -1    0    0  501    0  0.00000000000E+00  0.00000000000E+00  0.16592178356E+04  0.16592178356E+04  0.00000000000E+00 0. -1.
         -2   -1    0    0    0  501 -0.00000000000E+00 -0.00000000000E+00 -0.11380143035E+02  0.11380143035E+02  0.00000000000E+00 0. -1.
         36    2    1    2    0    0 -0.71054273576E-14  0.35527136788E-14  0.16478376926E+04  0.16705979787E+04  0.27482457165E+03 0.  0.
         25    2    3    3    0    0  0.39140696418E+02 -0.30508074386E+02  0.11187531774E+04  0.11271715789E+04  0.12823556334E+03 0.  0.
         25    2    3    3    0    0 -0.39140696418E+02  0.30508074386E+02  0.52908451526E+03  0.54342639979E+03  0.11366217921E+03 0.  0.
          5    1    4    4  502    0  0.54687313278E+02 -0.50214926000E+02  0.10656869089E+04  0.10682803559E+04  0.47000000000E+01 0.  1.
         -5    1    4    4    0  502 -0.15546616860E+02  0.19706851615E+02  0.53066268443E+02  0.58891222969E+02  0.47000000000E+01 0.  1.
          5    1    5    5  503    0 -0.46896997921E+02 -0.26827009201E+02  0.14181847609E+03  0.15183407719E+03  0.47000000000E+01 0. -1.
         -5    1    5    5    0  503  0.77563015029E+01  0.57335083587E+02  0.38726603917E+03  0.39159232260E+03  0.47000000000E+01 0. -1.
<mgrwt>
<rscale>  0 0.27482457E+03</rscale>
<asrwt>0</asrwt>
<pdfrwt beam="1">  1        2 0.25526409E+00 0.27482457E+03</pdfrwt>
<pdfrwt beam="2">  1       -2 0.17507926E-02 0.27482457E+03</pdfrwt>
<totfact> 0.10556661E+04</totfact>
</mgrwt>
</event>
<event>
 9    1  0.2024718E-002  0.2752266E+03  0.7818608E-02  0.1098325E+00
          1   -1    0    0  501    0  0.00000000000E+00  0.00000000000E+00  0.25158589647E+03  0.25158589647E+03  0.00000000000E+00 0. -1.
         -1   -1    0    0    0  501 -0.00000000000E+00 -0.00000000000E+00 -0.75272210161E+02  0.75272210161E+02  0.00000000000E+00 0. -1.
         36    2    1    2    0    0 -0.71054273576E-14  0.00000000000E+00  0.17631368631E+03  0.32685810663E+03  0.27522664459E+03 0.  0.
         25    2    3    3    0    0  0.38414357393E+02  0.33861539515E+02  0.11997480200E+03  0.18107679004E+03  0.12558894881E+03 0.  0.
         25    2    3    3    0    0 -0.38414357393E+02 -0.33861539515E+02  0.56338884307E+02  0.14578131659E+03  0.12432158168E+03 0.  0.
          5    1    4    4  502    0  0.10446286506E+02 -0.40086912543E+02  0.57582122308E+01  0.42087200751E+02  0.47000000000E+01 0.  1.
         -5    1    4    4    0  502  0.27968070888E+02  0.73948452057E+02  0.11421658977E+03  0.13898958929E+03  0.47000000000E+01 0.  1.
          5    1    5    5  503    0  0.19502359233E+02 -0.80410002388E+01 -0.30974110149E+02  0.37768839008E+02  0.47000000000E+01 0. -1.
         -5    1    5    5    0  503 -0.57916716627E+02 -0.25820539276E+02  0.87312994457E+02  0.10801247759E+03  0.47000000000E+01 0. -1.
<mgrwt>
<rscale>  0 0.27522664E+03</rscale>
<asrwt>0</asrwt>
<pdfrwt beam="1">  1        1 0.38705522E-01 0.27522664E+03</pdfrwt>
<pdfrwt beam="2">  1       -1 0.11580340E-01 0.27522664E+03</pdfrwt>
<totfact> 0.52718362E+03</totfact>
</mgrwt>
</event>
<event>
 9    1  0.2024718E-002  0.2757452E+03  0.7818608E-02  0.1098036E+00
         -2   -1    0    0    0  501 -0.00000000000E+00  0.00000000000E+00  0.16891698507E+03  0.16891698507E+03  0.00000000000E+00 0. -1.
          2   -1    0    0  501    0  0.00000000000E+00 -0.00000000000E+00 -0.11253369571E+03  0.11253369571E+03  0.00000000000E+00 0. -1.
         36    2    1    2    0    0  0.00000000000E+00  0.00000000000E+00  0.56383289359E+02  0.28145068078E+03  0.27574519106E+03 0.  0.
         25    2    3    3    0    0 -0.38078574788E+02 -0.33928368379E+02  0.12701721704E+02  0.14043172759E+03  0.13022528304E+03 0.  0.
         25    2    3    3    0    0  0.38078574788E+02  0.33928368379E+02  0.43681567655E+02  0.14101895318E+03  0.12400465219E+03 0.  0.
          5    1    4    4  502    0  0.46926945279E+02 -0.10825789502E+02 -0.98495250174E+01  0.49380553405E+02  0.47000000000E+01 0. -1.
         -5    1    4    4    0  502 -0.85005520066E+02 -0.23102578877E+02  0.22551246721E+02  0.91051174189E+02  0.47000000000E+01 0. -1.
          5    1    5    5  503    0  0.27711979873E+02  0.70522686994E+02  0.62490190276E+02  0.98328617859E+02  0.47000000000E+01 0.  1.
         -5    1    5    5    0  503  0.10366594914E+02 -0.36594318615E+02 -0.18808622621E+02  0.42690335322E+02  0.47000000000E+01 0.  1.
<mgrwt>
<rscale>  0 0.27574519E+03</rscale>
<asrwt>0</asrwt>
<pdfrwt beam="1">  1        2 0.17312876E-01 0.27574519E+03</pdfrwt>
<pdfrwt beam="2">  1       -2 0.25987228E-01 0.27574519E+03</pdfrwt>
<totfact> 0.43337807E+03</totfact>
</mgrwt>
</event>
<event>
 9    1  0.2024718E-002  0.2773077E+03  0.7818608E-02  0.1097169E+00
         -2   -1    0    0    0  501 -0.00000000000E+00  0.00000000000E+00  0.21570215438E+03  0.21570215438E+03  0.00000000000E+00 0. -1.
          2   -1    0    0  501    0  0.00000000000E+00 -0.00000000000E+00 -0.89127013176E+02  0.89127013176E+02  0.00000000000E+00 0. -1.
         36    2    1    2    0    0 -0.71054273576E-14 -0.35527136788E-14  0.12657514120E+03  0.30482916755E+03  0.27730769016E+03 0.  0.
         25    2    3    3    0    0  0.40994327717E+02 -0.30253596090E+02  0.99700397725E+02  0.16816421042E+03  0.12547197846E+03 0.  0.
         25    2    3    3    0    0 -0.40994327717E+02  0.30253596090E+02  0.26874743475E+02  0.13666495713E+03  0.12393241581E+03 0.  0.
          5    1    4    4  502    0  0.61459325779E+02 -0.54317065942E+02  0.10748973871E+03  0.13529126470E+03  0.47000000000E+01 0. -1.
         -5    1    4    4    0  502 -0.20464998063E+02  0.24063469853E+02 -0.77893409834E+01  0.32872945715E+02  0.47000000000E+01 0. -1.
          5    1    5    5  503    0  0.32241193977E+02 -0.24717742877E+02  0.17539249438E+02  0.44499176092E+02  0.47000000000E+01 0. -1.
         -5    1    5    5    0  503 -0.73235521694E+02  0.54971338967E+02  0.93354940371E+01  0.92165781039E+02  0.47000000000E+01 0. -1.
<mgrwt>
<rscale>  0 0.27730769E+03</rscale>
<asrwt>0</asrwt>
<pdfrwt beam="1">  1        2 0.13711848E-01 0.27730769E+03</pdfrwt>
<pdfrwt beam="2">  1       -2 0.33184947E-01 0.27730769E+03</pdfrwt>
<totfact> 0.36678176E+03</totfact>
</mgrwt>
</event>
<event>
 9    1  0.2024718E-002  0.2739852E+03  0.7818608E-02  0.1099020E+00
         -1   -1    0    0    0  501 -0.00000000000E+00  0.00000000000E+00  0.66268805093E+03  0.66268805093E+03  0.00000000000E+00 0. -1.
          1   -1    0    0  501    0  0.00000000000E+00 -0.00000000000E+00 -0.28319462048E+02  0.28319462048E+02  0.00000000000E+00 0. -1.
         36    2    1    2    0    0  0.00000000000E+00 -0.35527136788E-14  0.63436858889E+03  0.69100751298E+03  0.27398517557E+03 0.  0.
         25    2    3    3    0    0 -0.44016406200E+02  0.29047521453E+02  0.26558075768E+03  0.29815350098E+03  0.12482455200E+03 0.  0.
         25    2    3    3    0    0  0.44016406200E+02 -0.29047521453E+02  0.36878783121E+03  0.39285401200E+03  0.12469405672E+03 0.  0.
          5    1    4    4  502    0 -0.24363302057E+02 -0.26560222926E+01  0.25873972042E+03  0.25994029673E+03  0.47000000000E+01 0. -1.
         -5    1    4    4    0  502 -0.19653104142E+02  0.31703543746E+02  0.68410372594E+01  0.38213204253E+02  0.47000000000E+01 0. -1.
          5    1    5    5  503    0 -0.23308695973E+02  0.34697704727E+02  0.13097467483E+03  0.13756337255E+03  0.47000000000E+01 0.  1.
         -5    1    5    5    0  503  0.67325102173E+02 -0.63745226180E+02  0.23781315638E+03  0.25529063945E+03  0.47000000000E+01 0.  1.
<mgrwt>
<rscale>  0 0.27398518E+03</rscale>
<asrwt>0</asrwt>
<pdfrwt beam="1">  1        1 0.43568408E-02 0.27398518E+03</pdfrwt>
<pdfrwt beam="2">  1       -1 0.10195200E+00 0.27398518E+03</pdfrwt>
<totfact> 0.19447271E+03</totfact>
</mgrwt>
</event>
<event>
 9    1  0.2024718E-002  0.2752071E+03  0.7818608E-02  0.1098336E+00
         -1   -1    0    0    0  501 -0.00000000000E+00  0.00000000000E+00  0.18846644768E+02  0.18846644768E+02  0.00000000000E+00 0. -1.
          1   -1    0    0  501    0  0.00000000000E+00 -0.00000000000E+00 -0.10046743227E+04  0.10046743227E+04  0.00000000000E+00 0. -1.
         36    2    1    2    0    0  0.00000000000E+00 -0.14210854715E-13 -0.98582767793E+03  0.10235209675E+04  0.27520712249E+03 0.  0.
         25    2    3    3    0    0  0.39818538387E+02  0.66700388999E+02 -0.47445018281E+03  0.49053174285E+03  0.97385609235E+02 0.  0.
         25    2    3    3    0    0 -0.39818538387E+02 -0.66700388999E+02 -0.51137749512E+03  0.53298922461E+03  0.12859281919E+03 0.  0.
          5    1    4    4  502    0  0.22946705659E+02 -0.22315579522E+02 -0.16091502469E+03  0.16413491877E+03  0.47000000000E+01 0. -1.
         -5    1    4    4    0  502  0.16871832728E+02  0.89015968521E+02 -0.31353515812E+03  0.32639682408E+03  0.47000000000E+01 0. -1.
          5    1    5    5  503    0 -0.70309526977E+02 -0.81243937061E+02 -0.29608495461E+03  0.31501174143E+03  0.47000000000E+01 0.  1.
         -5    1    5    5    0  503  0.30490988590E+02  0.14543548063E+02 -0.21529254051E+03  0.21797748319E+03  0.47000000000E+01 0.  1.
<mgrwt>
<rscale>  0 0.27520712E+03</rscale>
<asrwt>0</asrwt>
<pdfrwt beam="1">  1        1 0.15456531E+00 0.27520712E+03</pdfrwt>
<pdfrwt beam="2">  1       -1 0.28994832E-02 0.27520712E+03</pdfrwt>
<totfact> 0.62887675E+03</totfact>
</mgrwt>
</event>
<event>
 9    1  0.2024718E-002  0.2750948E+03  0.7818608E-02  0.1098399E+00
         -2   -1    0    0    0  501 -0.00000000000E+00  0.00000000000E+00  0.10404240325E+03  0.10404240325E+03  0.00000000000E+00 0.  1.
          2   -1    0    0  501    0  0.00000000000E+00 -0.00000000000E+00 -0.18184202431E+03  0.18184202431E+03  0.00000000000E+00 0.  1.
         36    2    1    2    0    0 -0.53290705182E-14  0.00000000000E+00 -0.77799621058E+02  0.28588442757E+03  0.27509475620E+03 0.  0.
         25    2    3    3    0    0 -0.75380038492E+00  0.38568243694E+02  0.48187116964E+01  0.13122953434E+03  0.12533911227E+03 0.  0.
         25    2    3    3    0    0  0.75380038492E+00 -0.38568243694E+02 -0.82618332754E+02  0.15465489322E+03  0.12491705029E+03 0.  0.
          5    1    4    4  502    0  0.43205722006E+02  0.62363660330E+02  0.20322372819E+02  0.78683221724E+02  0.47000000000E+01 0.  1.
         -5    1    4    4    0  502 -0.43959522391E+02 -0.23795416636E+02 -0.15503661123E+02  0.52546312619E+02  0.47000000000E+01 0.  1.
          5    1    5    5  503    0 -0.92198430794E+01 -0.76964869653E+02 -0.84368997053E+02  0.11466827953E+03  0.47000000000E+01 0. -1.
         -5    1    5    5    0  503  0.99736434643E+01  0.38396625959E+02  0.17506642991E+01  0.39986613691E+02  0.47000000000E+01 0. -1.
<mgrwt>
<rscale>  0 0.27509476E+03</rscale>
<asrwt>0</asrwt>
<pdfrwt beam="1">  1        2 0.27975696E-01 0.27509476E+03</pdfrwt>
<pdfrwt beam="2">  1       -2 0.16006524E-01 0.27509476E+03</pdfrwt>
<totfact> 0.57783117E+03</totfact>
</mgrwt>
</event>
<event>
 9    1  0.2024718E-002  0.2781579E+03  0.7818608E-02  0.1096699E+00
         -1   -1    0    0    0  501 -0.00000000000E+00  0.00000000000E+00  0.54291953621E+03  0.54291953621E+03  0.00000000000E+00 0.  1.
          1   -1    0    0  501    0  0.00000000000E+00 -0.00000000000E+00 -0.35627655606E+02  0.35627655606E+02  0.00000000000E+00 0.  1.
         36    2    1    2    0    0  0.00000000000E+00  0.71054273576E-14  0.50729188061E+03  0.57854719182E+03  0.27815787070E+03 0.  0.
         25    2    3    3    0    0 -0.37834514601E+02  0.34326202707E+02  0.32075076816E+03  0.34947227493E+03  0.12899642234E+03 0.  0.
         25    2    3    3    0    0  0.37834514601E+02 -0.34326202707E+02  0.18654111244E+03  0.22907491689E+03  0.12275175042E+03 0.  0.
          5    1    4    4  502    0 -0.41598792812E+02  0.13993655478E+02  0.20839848580E+02  0.48812613594E+02  0.47000000000E+01 0.  1.
         -5    1    4    4    0  502  0.37642782111E+01  0.20332547230E+02  0.29991091959E+03  0.30065966133E+03  0.47000000000E+01 0.  1.
          5    1    5    5  503    0 -0.11139082531E+02 -0.69356872184E+02  0.79677181744E+02  0.10632496494E+03  0.47000000000E+01 0. -1.
         -5    1    5    5    0  503  0.48973597131E+02  0.35030669476E+02  0.10686393070E+03  0.12274995195E+03  0.47000000000E+01 0. -1.
<mgrwt>
<rscale>  0 0.27815787E+03</rscale>
<asrwt>0</asrwt>
<pdfrwt beam="1">  1        1 0.54811781E-02 0.27815787E+03</pdfrwt>
<pdfrwt beam="2">  1       -1 0.83526077E-01 0.27815787E+03</pdfrwt>
<totfact> 0.21800087E+03</totfact>
</mgrwt>
</event>
<event>
 9    1  0.2024718E-002  0.2695754E+03  0.7818608E-02  0.1101523E+00
          1   -1    0    0  501    0  0.00000000000E+00  0.00000000000E+00  0.29716427945E+03  0.29716427945E+03  0.00000000000E+00 0. -1.
         -1   -1    0    0    0  501 -0.00000000000E+00 -0.00000000000E+00 -0.61136952497E+02  0.61136952497E+02  0.00000000000E+00 0. -1.
         36    2    1    2    0    0  0.00000000000E+00 -0.71054273576E-14  0.23602732696E+03  0.35830123195E+03  0.26957535820E+03 0.  0.
         25    2    3    3    0    0  0.71902022238E+01 -0.35720999170E+02  0.14167940158E+03  0.19622080411E+03  0.13077408896E+03 0.  0.
         25    2    3    3    0    0 -0.71902022238E+01  0.35720999170E+02  0.94347925377E+02  0.16208042784E+03  0.12665245863E+03 0.  0.
          5    1    4    4  502    0 -0.48448078774E+02 -0.51246620917E+02  0.45909475094E+02  0.84280498312E+02  0.47000000000E+01 0. -1.
         -5    1    4    4    0  502  0.55638280998E+02  0.15525621747E+02  0.95769926485E+02  0.11194030580E+03  0.47000000000E+01 0. -1.
          5    1    5    5  503    0 -0.49479477550E+02  0.43518474812E+02  0.98523185009E+02  0.11862117995E+03  0.47000000000E+01 0.  1.
         -5    1    5    5    0  503  0.42289275326E+02 -0.77974756425E+01 -0.41752596327E+01  0.43459247888E+02  0.47000000000E+01 0.  1.
<mgrwt>
<rscale>  0 0.26957536E+03</rscale>
<asrwt>0</asrwt>
<pdfrwt beam="1">  1        1 0.45717580E-01 0.26957536E+03</pdfrwt>
<pdfrwt beam="2">  1       -1 0.94056852E-02 0.26957536E+03</pdfrwt>
<totfact> 0.58997338E+03</totfact>
</mgrwt>
</event>
<event>
 9    1  0.2024718E-002  0.2739744E+03  0.7818608E-02  0.1099026E+00
         -2   -1    0    0    0  501 -0.00000000000E+00  0.00000000000E+00  0.12393343430E+03  0.12393343430E+03  0.00000000000E+00 0.  1.
          2   -1    0    0  501    0  0.00000000000E+00 -0.00000000000E+00 -0.15141590274E+03  0.15141590274E+03  0.00000000000E+00 0.  1.
         36    2    1    2    0    0  0.71054273576E-14  0.00000000000E+00 -0.27482468446E+02  0.27534933704E+03  0.27397439905E+03 0.  0.
         25    2    3    3    0    0  0.44260018251E+01  0.12018186792E+02  0.33277569243E+02  0.12277313919E+03  0.11748115077E+03 0.  0.
         25    2    3    3    0    0 -0.44260018251E+01 -0.12018186792E+02 -0.60760037690E+02  0.15257619785E+03  0.13936889059E+03 0.  0.
          5    1    4    4  502    0  0.57938303678E+02  0.16349144421E+02  0.33140176874E+02  0.68880351913E+02  0.47000000000E+01 0.  1.
         -5    1    4    4    0  502 -0.53512301853E+02 -0.43309576287E+01  0.13739236915E+00  0.53892787274E+02  0.47000000000E+01 0.  1.
          5    1    5    5  503    0  0.28734881385E+02  0.25590260236E+02 -0.87395245773E+02  0.95606348172E+02  0.47000000000E+01 0.  1.
         -5    1    5    5    0  503 -0.33160883210E+02 -0.37608447028E+02  0.26635208083E+02  0.56969849682E+02  0.47000000000E+01 0.  1.
<mgrwt>
<rscale>  0 0.27397440E+03</rscale>
<asrwt>0</asrwt>
<pdfrwt beam="1">  1        2 0.23294754E-01 0.27397440E+03</pdfrwt>
<pdfrwt beam="2">  1       -2 0.19066682E-01 0.27397440E+03</pdfrwt>
<totfact> 0.52804789E+03</totfact>
</mgrwt>
</event>
<event>
 9    1  0.2024718E-002  0.2747554E+03  0.7818608E-02  0.1098588E+00
          1   -1    0    0  501    0  0.00000000000E+00  0.00000000000E+00  0.30635492737E+03  0.30635492737E+03  0.00000000000E+00 0.  1.
         -1   -1    0    0    0  501 -0.00000000000E+00 -0.00000000000E+00 -0.61603830185E+02  0.61603830185E+02  0.00000000000E+00 0.  1.
         36    2    1    2    0    0  0.00000000000E+00  0.00000000000E+00  0.24475109718E+03  0.36795875755E+03  0.27475543250E+03 0.  0.
         25    2    3    3    0    0 -0.53362362678E+02 -0.85370856400E+00  0.14998180254E+03  0.20151361442E+03  0.12355130568E+03 0.  0.
         25    2    3    3    0    0  0.53362362678E+02  0.85370856400E+00  0.94769294642E+02  0.16644514313E+03  0.12599403119E+03 0.  0.
          5    1    4    4  502    0 -0.29074535082E+00 -0.50768009338E+02  0.10233715541E+03  0.11433485332E+03  0.47000000000E+01 0. -1.
         -5    1    4    4    0  502 -0.53071617327E+02  0.49914300774E+02  0.47644647124E+02  0.87178761101E+02  0.47000000000E+01 0. -1.
          5    1    5    5  503    0 -0.34374305636E+01  0.36872929128E+02 -0.12825277408E+02  0.39471591961E+02  0.47000000000E+01 0. -1.
         -5    1    5    5    0  503  0.56799793241E+02 -0.36019220564E+02  0.10759457205E+03  0.12697355117E+03  0.47000000000E+01 0. -1.
<mgrwt>
<rscale>  0 0.27475543E+03</rscale>
<asrwt>0</asrwt>
<pdfrwt beam="1">  1        1 0.47131526E-01 0.27475543E+03</pdfrwt>
<pdfrwt beam="2">  1       -1 0.94775125E-02 0.27475543E+03</pdfrwt>
<totfact> 0.56154509E+03</totfact>
</mgrwt>
</event>
<event>
 9    1  0.2024718E-002  0.2747832E+03  0.7818608E-02  0.1098573E+00
         -2   -1    0    0    0  501 -0.00000000000E+00  0.00000000000E+00  0.26865483950E+02  0.26865483950E+02  0.00000000000E+00 0. -1.
          2   -1    0    0  501    0  0.00000000000E+00 -0.00000000000E+00 -0.70262838434E+03  0.70262838434E+03  0.00000000000E+00 0. -1.
         36    2    1    2    0    0  0.71054273576E-14  0.00000000000E+00 -0.67576290039E+03  0.72949386829E+03  0.27478319877E+03 0.  0.
         25    2    3    3    0    0  0.60957793189E+02 -0.23720378650E+02 -0.40337080032E+03  0.42171726526E+03  0.10420623952E+03 0.  0.
         25    2    3    3    0    0 -0.60957793189E+02  0.23720378650E+02 -0.27239210007E+03  0.30777660303E+03  0.12747734025E+03 0.  0.
          5    1    4    4  502    0  0.44143093120E+02  0.21300549765E+02 -0.74375373705E+02  0.89197042015E+02  0.47000000000E+01 0. -1.
         -5    1    4    4    0  502  0.16814700069E+02 -0.45020928415E+02 -0.32899542662E+03  0.33252022325E+03  0.47000000000E+01 0. -1.
          5    1    5    5  503    0 -0.86160003345E+02  0.45357455720E+02 -0.24749152729E+03  0.26599810347E+03  0.47000000000E+01 0.  1.
         -5    1    5    5    0  503  0.25202210156E+02 -0.21637077070E+02 -0.24900572773E+02  0.41778499558E+02  0.47000000000E+01 0.  1.
<mgrwt>
<rscale>  0 0.27478320E+03</rscale>
<asrwt>0</asrwt>
<pdfrwt beam="1">  1        2 0.10809667E+00 0.27478320E+03</pdfrwt>
<pdfrwt beam="2">  1       -2 0.41331515E-02 0.27478320E+03</pdfrwt>
<totfact> 0.10875840E+04</totfact>
</mgrwt>
</event>
<event>
 9    1  0.2024718E-002  0.2760205E+03  0.7818608E-02  0.1097882E+00
          2   -1    0    0  501    0  0.00000000000E+00  0.00000000000E+00  0.56882295082E+02  0.56882295082E+02  0.00000000000E+00 0.  1.
         -2   -1    0    0    0  501 -0.00000000000E+00 -0.00000000000E+00 -0.33484646328E+03  0.33484646328E+03  0.00000000000E+00 0.  1.
         36    2    1    2    0    0  0.00000000000E+00  0.00000000000E+00 -0.27796416819E+03  0.39172875836E+03  0.27602054511E+03 0.  0.
         25    2    3    3    0    0  0.12251617296E+02  0.55031799128E+02 -0.17292506453E+03  0.21907279590E+03  0.12211146924E+03 0.  0.
         25    2    3    3    0    0 -0.12251617296E+02 -0.55031799128E+02 -0.10503910367E+03  0.17265596246E+03  0.12489302235E+03 0.  0.
          5    1    4    4  502    0  0.35482290814E+02 -0.28347405444E+02 -0.79124215113E+02  0.91352612300E+02  0.47000000000E+01 0.  1.
         -5    1    4    4    0  502 -0.23230673518E+02  0.83379204573E+02 -0.93800849415E+02  0.12772018360E+03  0.47000000000E+01 0.  1.
          5    1    5    5  503    0 -0.40755817063E+02 -0.83941990206E+02 -0.88090692830E+02  0.12841088158E+03  0.47000000000E+01 0.  1.
         -5    1    5    5    0  503  0.28504199767E+02  0.28910191077E+02 -0.16948410836E+02  0.44245080883E+02  0.47000000000E+01 0.  1.
<mgrwt>
<rscale>  0 0.27602055E+03</rscale>
<asrwt>0</asrwt>
<pdfrwt beam="1">  1        2 0.87511222E-02 0.27602055E+03</pdfrwt>
<pdfrwt beam="2">  1       -2 0.51514841E-01 0.27602055E+03</pdfrwt>
<totfact> 0.27337544E+03</totfact>
</mgrwt>
</event>
<event>
 9    1  0.2024718E-002  0.2746018E+03  0.7818608E-02  0.1098674E+00
         -2   -1    0    0    0  501 -0.00000000000E+00  0.00000000000E+00  0.19928042533E+02  0.19928042533E+02  0.00000000000E+00 0.  1.
          2   -1    0    0  501    0  0.00000000000E+00 -0.00000000000E+00 -0.94598061103E+03  0.94598061103E+03  0.00000000000E+00 0.  1.
         36    2    1    2    0    0  0.71054273576E-14  0.00000000000E+00 -0.92605256850E+03  0.96590865357E+03  0.27460183431E+03 0.  0.
         25    2    3    3    0    0  0.60175872935E+01 -0.32980626225E+02 -0.60523255718E+03  0.61935821063E+03  0.12717787444E+03 0.  0.
         25    2    3    3    0    0 -0.60175872935E+01  0.32980626225E+02 -0.32082001132E+03  0.34655044293E+03  0.12667989884E+03 0.  0.
          5    1    4    4  502    0  0.31056648766E+02 -0.67584565576E+02 -0.23239780166E+03  0.24405535674E+03  0.47000000000E+01 0.  1.
         -5    1    4    4    0  502 -0.25039061473E+02  0.34603939352E+02 -0.37283475552E+03  0.37530285390E+03  0.47000000000E+01 0.  1.
          5    1    5    5  503    0 -0.66019729522E+02  0.19484609965E+02 -0.15643277165E+03  0.17097238595E+03  0.47000000000E+01 0.  1.
         -5    1    5    5    0  503  0.60002142228E+02  0.13496016260E+02 -0.16438723967E+03  0.17557805698E+03  0.47000000000E+01 0.  1.
<mgrwt>
<rscale>  0 0.27460183E+03</rscale>
<asrwt>0</asrwt>
<pdfrwt beam="1">  1        2 0.14553548E+00 0.27460183E+03</pdfrwt>
<pdfrwt beam="2">  1       -2 0.30658527E-02 0.27460183E+03</pdfrwt>
<totfact> 0.11604510E+04</totfact>
</mgrwt>
</event>
<event>
 9    1  0.2024718E-002  0.2748712E+03  0.7818608E-02  0.1098524E+00
         -3   -1    0    0    0  501 -0.00000000000E+00  0.00000000000E+00  0.55983063661E+03  0.55983063661E+03  0.00000000000E+00 0.  1.
          3   -1    0    0  501    0  0.00000000000E+00 -0.00000000000E+00 -0.33739756058E+02  0.33739756058E+02  0.00000000000E+00 0.  1.
         36    2    1    2    0    0  0.00000000000E+00  0.00000000000E+00  0.52609088055E+03  0.59357039267E+03  0.27487123613E+03 0.  0.
         25    2    3    3    0    0  0.21952828111E+02 -0.32838484894E+02  0.35525650791E+03  0.37879277700E+03  0.12536542085E+03 0.  0.
         25    2    3    3    0    0 -0.21952828111E+02  0.32838484894E+02  0.17083437264E+03  0.21477761566E+03  0.12403527144E+03 0.  0.
          5    1    4    4  502    0 -0.13869322696E+02  0.22274569272E+02  0.26862913424E+03  0.26994854383E+03  0.47000000000E+01 0. -1.
         -5    1    4    4    0  502  0.35822150807E+02 -0.55113054166E+02  0.86627373663E+02  0.10884423318E+03  0.47000000000E+01 0. -1.
          5    1    5    5  503    0 -0.39190698298E+02 -0.30395932612E+02  0.27047708720E+02  0.56687671494E+02  0.47000000000E+01 0. -1.
         -5    1    5    5    0  503  0.17237870187E+02  0.63234417506E+02  0.14378666392E+03  0.15808994417E+03  0.47000000000E+01 0. -1.
<mgrwt>
<rscale>  0 0.27487124E+03</rscale>
<asrwt>0</asrwt>
<pdfrwt beam="1">  1        3 0.51907321E-02 0.27487124E+03</pdfrwt>
<pdfrwt beam="2">  1       -3 0.86127784E-01 0.27487124E+03</pdfrwt>
<totfact> 0.69085853E+02</totfact>
</mgrwt>
</event>
<event>
 9    1  0.2024718E-002  0.2757229E+03  0.7818608E-02  0.1098048E+00
         -2   -1    0    0    0  501 -0.00000000000E+00  0.00000000000E+00  0.14010444764E+02  0.14010444764E+02  0.00000000000E+00 0.  1.
          2   -1    0    0  501    0  0.00000000000E+00 -0.00000000000E+00 -0.13565435905E+04  0.13565435905E+04  0.00000000000E+00 0.  1.
         36    2    1    2    0    0  0.00000000000E+00 -0.17763568394E-14 -0.13425331457E+04  0.13705540352E+04  0.27572289745E+03 0.  0.
         25    2    3    3    0    0  0.49302512401E+02 -0.64737588417E+01 -0.53424122067E+03  0.55082165003E+03  0.12457191095E+03 0.  0.
         25    2    3    3    0    0 -0.49302512401E+02  0.64737588417E+01 -0.80829192505E+03  0.81973238522E+03  0.12709327278E+03 0.  0.
          5    1    4    4  502    0 -0.41625683594E+02  0.51145436945E+01 -0.15660749595E+03  0.16219387744E+03  0.47000000000E+01 0. -1.
         -5    1    4    4    0  502  0.90928195996E+02 -0.11588302536E+02 -0.37763372471E+03  0.38862777258E+03  0.47000000000E+01 0. -1.
          5    1    5    5  503    0 -0.38188524373E+02 -0.56754057119E+02 -0.50893829245E+03  0.51353642706E+03  0.47000000000E+01 0.  1.
         -5    1    5    5    0  503 -0.11113988029E+02  0.63227815961E+02 -0.29935363260E+03  0.30619595815E+03  0.47000000000E+01 0.  1.
<mgrwt>
<rscale>  0 0.27572290E+03</rscale>
<asrwt>0</asrwt>
<pdfrwt beam="1">  1        2 0.20869903E+00 0.27572290E+03</pdfrwt>
<pdfrwt beam="2">  1       -2 0.21554529E-02 0.27572290E+03</pdfrwt>
<totfact> 0.11295947E+04</totfact>
</mgrwt>
</event>
<event>
 9    1  0.2024718E-002  0.2752206E+03  0.7818608E-02  0.1098328E+00
         -4   -1    0    0    0  501 -0.00000000000E+00  0.00000000000E+00  0.67283573152E+02  0.67283573152E+02  0.00000000000E+00 0.  1.
          4   -1    0    0  501    0  0.00000000000E+00 -0.00000000000E+00 -0.28144452892E+03  0.28144452892E+03  0.00000000000E+00 0.  1.
         36    2    1    2    0    0 -0.71054273576E-14  0.00000000000E+00 -0.21416095577E+03  0.34872810207E+03  0.27522059189E+03 0.  0.
         25    2    3    3    0    0  0.28568395942E+02  0.35883623940E+02 -0.60761429037E+02  0.15078892575E+03  0.13015975245E+03 0.  0.
         25    2    3    3    0    0 -0.28568395942E+02 -0.35883623940E+02 -0.15339952673E+03  0.19793917632E+03  0.11638176406E+03 0.  0.
          5    1    4    4  502    0 -0.53416884423E+01 -0.86312841002E+01  0.36666924306E+02  0.38335180170E+02  0.47000000000E+01 0.  1.
         -5    1    4    4    0  502  0.33910084384E+02  0.44514908040E+02 -0.97428353342E+02  0.11245374558E+03  0.47000000000E+01 0.  1.
          5    1    5    5  503    0 -0.42845670073E+02 -0.91900075109E+01 -0.26964200986E+01  0.44153916739E+02  0.47000000000E+01 0. -1.
         -5    1    5    5    0  503  0.14277274131E+02 -0.26693616429E+02 -0.15070310663E+03  0.15378525958E+03  0.47000000000E+01 0. -1.
<mgrwt>
<rscale>  0 0.27522059E+03</rscale>
<asrwt>0</asrwt>
<pdfrwt beam="1">  1        4 0.43299159E-01 0.27522059E+03</pdfrwt>
<pdfrwt beam="2">  1       -4 0.10351319E-01 0.27522059E+03</pdfrwt>
<totfact> 0.69680377E+02</totfact>
</mgrwt>
</event>
<event>
 9    1  0.2024718E-002  0.2745418E+03  0.7818608E-02  0.1098708E+00
          4   -1    0    0  501    0  0.00000000000E+00  0.00000000000E+00  0.14892769032E+03  0.14892769032E+03  0.00000000000E+00 0.  1.
         -4   -1    0    0    0  501 -0.00000000000E+00 -0.00000000000E+00 -0.12652650262E+03  0.12652650262E+03  0.00000000000E+00 0.  1.
         36    2    1    2    0    0  0.00000000000E+00 -0.71054273576E-14  0.22401187696E+02  0.27545419293E+03  0.27454179863E+03 0.  0.
         25    2    3    3    0    0 -0.52069102430E+02  0.23672188828E+02  0.20035825411E+02  0.13878425327E+03  0.12485219543E+03 0.  0.
         25    2    3    3    0    0  0.52069102430E+02 -0.23672188828E+02  0.23653622843E+01  0.13666993966E+03  0.12410283445E+03 0.  0.
          5    1    4    4  502    0 -0.54338591181E+02 -0.28977900058E+02 -0.27547287561E+02  0.67626505420E+02  0.47000000000E+01 0. -1.
         -5    1    4    4    0  502  0.22694887509E+01  0.52650088886E+02  0.47583112973E+02  0.71157747850E+02  0.47000000000E+01 0. -1.
          5    1    5    5  503    0 -0.88919317720E+01 -0.28430773140E+02  0.50425142050E+02  0.58755087122E+02  0.47000000000E+01 0.  1.
         -5    1    5    5    0  503  0.60961034203E+02  0.47585843115E+01 -0.48059779765E+02  0.77914852543E+02  0.47000000000E+01 0.  1.
<mgrwt>
<rscale>  0 0.27454180E+03</rscale>
<asrwt>0</asrwt>
<pdfrwt beam="1">  1        4 0.22911952E-01 0.27454180E+03</pdfrwt>
<pdfrwt beam="2">  1       -4 0.19465616E-01 0.27454180E+03</pdfrwt>
<totfact> 0.78213201E+02</totfact>
</mgrwt>
</event>
<event>
 9    1  0.2024718E-002  0.2775987E+03  0.7818608E-02  0.1097008E+00
          1   -1    0    0  501    0  0.00000000000E+00  0.00000000000E+00  0.10946751677E+04  0.10946751677E+04  0.00000000000E+00 0.  1.
         -1   -1    0    0    0  501 -0.00000000000E+00 -0.00000000000E+00 -0.17599067260E+02  0.17599067260E+02  0.00000000000E+00 0.  1.
         36    2    1    2    0    0  0.00000000000E+00  0.14210854715E-13  0.10770761004E+04  0.11122742349E+04  0.27759871688E+03 0.  0.
         25    2    3    3    0    0  0.43773191131E+02  0.42769983048E+02  0.62550324732E+03  0.64061408308E+03  0.12404324775E+03 0.  0.
         25    2    3    3    0    0 -0.43773191131E+02 -0.42769983048E+02  0.45157285308E+03  0.47166015185E+03  0.12165481285E+03 0.  0.
          5    1    4    4  502    0 -0.33096900753E+02  0.24845007446E+02  0.38941432953E+03  0.39163540351E+03  0.47000000000E+01 0. -1.
         -5    1    4    4    0  502  0.76870091884E+02  0.17924975602E+02  0.23608891779E+03  0.24897867957E+03  0.47000000000E+01 0. -1.
          5    1    5    5  503    0 -0.42771799268E+02 -0.68125120376E+02  0.16192849850E+03  0.18086842584E+03  0.47000000000E+01 0.  1.
         -5    1    5    5    0  503 -0.10013918632E+01  0.25355137328E+02  0.28964435458E+03  0.29079172601E+03  0.47000000000E+01 0.  1.
<mgrwt>
<rscale>  0 0.27759872E+03</rscale>
<asrwt>0</asrwt>
<pdfrwt beam="1">  1        1 0.16841151E+00 0.27759872E+03</pdfrwt>
<pdfrwt beam="2">  1       -1 0.27075497E-02 0.27759872E+03</pdfrwt>
<totfact> 0.59754713E+03</totfact>
</mgrwt>
</event>
<event>
 9    1  0.2024718E-002  0.2732868E+03  0.7818608E-02  0.1099413E+00
          2   -1    0    0  501    0  0.00000000000E+00  0.00000000000E+00  0.30517168898E+02  0.30517168898E+02  0.00000000000E+00 0.  1.
         -2   -1    0    0    0  501 -0.00000000000E+00 -0.00000000000E+00 -0.61183340199E+03  0.61183340199E+03  0.00000000000E+00 0.  1.
         36    2    1    2    0    0 -0.35527136788E-14 -0.14210854715E-13 -0.58131623309E+03  0.64235057089E+03  0.27328683295E+03 0.  0.
         25    2    3    3    0    0 -0.17496231577E+02 -0.40073690557E+02 -0.17062389195E+03  0.21066485622E+03  0.11556448567E+03 0.  0.
         25    2    3    3    0    0  0.17496231577E+02  0.40073690557E+02 -0.41069234114E+03  0.43168571466E+03  0.12558797069E+03 0.  0.
          5    1    4    4  502    0 -0.35578761720E+02 -0.74261887197E+02 -0.13303215391E+03  0.15652578110E+03  0.47000000000E+01 0. -1.
         -5    1    4    4    0  502  0.18082530144E+02  0.34188196639E+02 -0.37591738047E+02  0.54139075124E+02  0.47000000000E+01 0. -1.
          5    1    5    5  503    0 -0.13195223919E+02 -0.31332428376E+02 -0.39114376945E+02  0.52037097210E+02  0.47000000000E+01 0. -1.
         -5    1    5    5    0  503  0.30691455496E+02  0.71406118934E+02 -0.37157796419E+03  0.37964861745E+03  0.47000000000E+01 0. -1.
<mgrwt>
<rscale>  0 0.27328683E+03</rscale>
<asrwt>0</asrwt>
<pdfrwt beam="1">  1        2 0.46949494E-02 0.27328683E+03</pdfrwt>
<pdfrwt beam="2">  1       -2 0.94128209E-01 0.27328683E+03</pdfrwt>
<totfact> 0.16844867E+03</totfact>
</mgrwt>
</event>
<event>
 9    1  0.2024718E-002  0.2743028E+03  0.7818608E-02  0.1098842E+00
         -2   -1    0    0    0  501 -0.00000000000E+00  0.00000000000E+00  0.16217250945E+02  0.16217250945E+02  0.00000000000E+00 0. -1.
          2   -1    0    0  501    0  0.00000000000E+00 -0.00000000000E+00 -0.11599073089E+04  0.11599073089E+04  0.00000000000E+00 0. -1.
         36    2    1    2    0    0  0.00000000000E+00 -0.14210854715E-13 -0.11436900579E+04  0.11761245598E+04  0.27430281005E+03 0.  0.
         25    2    3    3    0    0 -0.13353477691E+02 -0.29352026798E+02 -0.76417372880E+03  0.77496100241E+03  0.12475259766E+03 0.  0.
         25    2    3    3    0    0  0.13353477691E+02  0.29352026798E+02 -0.37951632913E+03  0.40116355741E+03  0.12593529638E+03 0.  0.
          5    1    4    4  502    0 -0.25955116754E+02  0.36946595989E+02 -0.14103545308E+03  0.14816142571E+03  0.47000000000E+01 0. -1.
         -5    1    4    4    0  502  0.12601639063E+02 -0.66298622787E+02 -0.62313827572E+03  0.62679957670E+03  0.47000000000E+01 0. -1.
          5    1    5    5  503    0  0.41867961782E+02  0.66082901903E+02 -0.28705986754E+03  0.29756567964E+03  0.47000000000E+01 0.  1.
         -5    1    5    5    0  503 -0.28514484091E+02 -0.36730875105E+02 -0.92456461587E+02  0.10359787777E+03  0.47000000000E+01 0.  1.
<mgrwt>
<rscale>  0 0.27430281E+03</rscale>
<asrwt>0</asrwt>
<pdfrwt beam="1">  1        2 0.17844733E+00 0.27430281E+03</pdfrwt>
<pdfrwt beam="2">  1       -2 0.24949609E-02 0.27430281E+03</pdfrwt>
<totfact> 0.11726334E+04</totfact>
</mgrwt>
</event>
<event>
 9    1  0.2024718E-002  0.2748440E+03  0.7818608E-02  0.1098539E+00
          1   -1    0    0  501    0  0.00000000000E+00  0.00000000000E+00  0.28501202604E+03  0.28501202604E+03  0.00000000000E+00 0. -1.
         -1   -1    0    0    0  501 -0.00000000000E+00 -0.00000000000E+00 -0.66259671992E+02  0.66259671992E+02  0.00000000000E+00 0. -1.
         36    2    1    2    0    0 -0.27755575616E-16  0.00000000000E+00  0.21875235405E+03  0.35127169803E+03  0.27484398017E+03 0.  0.
         25    2    3    3    0    0 -0.16113261435E+00  0.50315526844E+02  0.13641303960E+03  0.19241360676E+03  0.12602698319E+03 0.  0.
         25    2    3    3    0    0  0.16113261435E+00 -0.50315526844E+02  0.82339314450E+02  0.15885809127E+03  0.12619212436E+03 0.  0.
          5    1    4    4  502    0 -0.20525743704E+01  0.84076176197E+02  0.46450091063E+02  0.96191046492E+02  0.47000000000E+01 0. -1.
         -5    1    4    4    0  502  0.18914417560E+01 -0.33760649353E+02  0.89962948532E+02  0.96222560272E+02  0.47000000000E+01 0. -1.
          5    1    5    5  503    0 -0.10736754496E+00 -0.57811148506E+02 -0.15962652504E+02  0.60158429953E+02  0.47000000000E+01 0. -1.
         -5    1    5    5    0  503  0.26850015931E+00  0.74956216622E+01  0.98301966954E+02  0.98699661314E+02  0.47000000000E+01 0. -1.
<mgrwt>
<rscale>  0 0.27484398E+03</rscale>
<asrwt>0</asrwt>
<pdfrwt beam="1">  1        1 0.43848003E-01 0.27484398E+03</pdfrwt>
<pdfrwt beam="2">  1       -1 0.10193796E-01 0.27484398E+03</pdfrwt>
<totfact> 0.54948984E+03</totfact>
</mgrwt>
</event>
<event>
 9    1  0.2024718E-002  0.2773592E+03  0.7818608E-02  0.1097140E+00
          1   -1    0    0  501    0  0.00000000000E+00  0.00000000000E+00  0.96948041819E+03  0.96948041819E+03  0.00000000000E+00 0.  1.
         -1   -1    0    0    0  501 -0.00000000000E+00 -0.00000000000E+00 -0.19837462012E+02  0.19837462012E+02  0.00000000000E+00 0.  1.
         36    2    1    2    0    0 -0.71054273576E-14  0.00000000000E+00  0.94964295618E+03  0.98931788021E+03  0.27735919647E+03 0.  0.
         25    2    3    3    0    0 -0.50343133148E+02  0.15111275062E+02  0.37218290517E+03  0.39607812268E+03  0.12487987299E+03 0.  0.
         25    2    3    3    0    0  0.50343133148E+02 -0.15111275062E+02  0.57746005102E+03  0.59323975753E+03  0.12534160403E+03 0.  0.
          5    1    4    4  502    0 -0.10036062742E+02  0.67026548137E+02  0.15795350223E+03  0.17194382681E+03  0.47000000000E+01 0. -1.
         -5    1    4    4    0  502 -0.40307070405E+02 -0.51915273075E+02  0.21422940294E+03  0.22413429587E+03  0.47000000000E+01 0. -1.
          5    1    5    5  503    0 -0.11804089017E+02  0.38138783847E+02  0.85280637720E+02  0.94280329448E+02  0.47000000000E+01 0. -1.
         -5    1    5    5    0  503  0.62147222164E+02 -0.53250058910E+02  0.49217941330E+03  0.49895942808E+03  0.47000000000E+01 0. -1.
<mgrwt>
<rscale>  0 0.27735920E+03</rscale>
<asrwt>0</asrwt>
<pdfrwt beam="1">  1        1 0.14915080E+00 0.27735920E+03</pdfrwt>
<pdfrwt beam="2">  1       -1 0.30519180E-02 0.27735920E+03</pdfrwt>
<totfact> 0.61987289E+03</totfact>
</mgrwt>
</event>
<event>
 9    1  0.2024718E-002  0.2771094E+03  0.7818608E-02  0.1097278E+00
         -1   -1    0    0    0  501 -0.00000000000E+00  0.00000000000E+00  0.98749613811E+01  0.98749613811E+01  0.00000000000E+00 0.  1.
          1   -1    0    0  501    0  0.00000000000E+00 -0.00000000000E+00 -0.19440488758E+04  0.19440488758E+04  0.00000000000E+00 0.  1.
         36    2    1    2    0    0  0.00000000000E+00  0.00000000000E+00 -0.19341739144E+04  0.19539238372E+04  0.27710941934E+03 0.  0.
         25    2    3    3    0    0  0.60794671259E+02  0.63891873928E+01 -0.73875566411E+03  0.75017319221E+03  0.11516541707E+03 0.  0.
         25    2    3    3    0    0 -0.60794671259E+02 -0.63891873928E+01 -0.11954182503E+04  0.12037506450E+04  0.12749120882E+03 0.  0.
          5    1    4    4  502    0  0.76822108657E+02 -0.59760558579E+01 -0.26637632482E+03  0.27733695398E+03  0.47000000000E+01 0.  1.
         -5    1    4    4    0  502 -0.16027437397E+02  0.12365243251E+02 -0.47237933929E+03  0.47283623823E+03  0.47000000000E+01 0.  1.
          5    1    5    5  503    0 -0.40965167946E+01 -0.53437437836E+01 -0.10044881938E+04  0.10045217561E+04  0.47000000000E+01 0. -1.
         -5    1    5    5    0  503 -0.56698154465E+02 -0.10454436092E+01 -0.19093005655E+03  0.19922888889E+03  0.47000000000E+01 0. -1.
<mgrwt>
<rscale>  0 0.27710942E+03</rscale>
<asrwt>0</asrwt>
<pdfrwt beam="1">  1        1 0.29908444E+00 0.27710942E+03</pdfrwt>
<pdfrwt beam="2">  1       -1 0.15192249E-02 0.27710942E+03</pdfrwt>
<totfact> 0.37581885E+03</totfact>
</mgrwt>
</event>
<event>
 9    1  0.2024718E-002  0.2752268E+03  0.7818608E-02  0.1098325E+00
          1   -1    0    0  501    0  0.00000000000E+00  0.00000000000E+00  0.40561133621E+03  0.40561133621E+03  0.00000000000E+00 0.  1.
         -1   -1    0    0    0  501 -0.00000000000E+00 -0.00000000000E+00 -0.46688655966E+02  0.46688655966E+02  0.00000000000E+00 0.  1.
         36    2    1    2    0    0 -0.71054273576E-14  0.35527136788E-14  0.35892268025E+03  0.45229999218E+03  0.27522680198E+03 0.  0.
         25    2    3    3    0    0 -0.50137765603E+02 -0.22753700288E+02  0.19096543960E+03  0.23444703283E+03  0.12436271815E+03 0.  0.
         25    2    3    3    0    0  0.50137765603E+02  0.22753700288E+02  0.16795724065E+03  0.21785295934E+03  0.12735285938E+03 0.  0.
          5    1    4    4  502    0 -0.76807726153E+02 -0.48465662820E+02  0.95191637514E+02  0.13165061763E+03  0.47000000000E+01 0. -1.
         -5    1    4    4    0  502  0.26669960550E+02  0.25711962532E+02  0.95773802087E+02  0.10279641521E+03  0.47000000000E+01 0. -1.
          5    1    5    5  503    0  0.61285433182E+02  0.38874899881E+02  0.18016383969E+03  0.19428911779E+03  0.47000000000E+01 0. -1.
         -5    1    5    5    0  503 -0.11147667579E+02 -0.16121199593E+02 -0.12206599039E+02  0.23563841556E+02  0.47000000000E+01 0. -1.
<mgrwt>
<rscale>  0 0.27522680E+03</rscale>
<asrwt>0</asrwt>
<pdfrwt beam="1">  1        1 0.62401742E-01 0.27522680E+03</pdfrwt>
<pdfrwt beam="2">  1       -1 0.71828704E-02 0.27522680E+03</pdfrwt>
<totfact> 0.60098064E+03</totfact>
</mgrwt>
</event>
<event>
 9    1  0.2024718E-002  0.2738907E+03  0.7818608E-02  0.1099073E+00
         -3   -1    0    0    0  501 -0.00000000000E+00  0.00000000000E+00  0.24609112371E+03  0.24609112371E+03  0.00000000000E+00 0. -1.
          3   -1    0    0  501    0  0.00000000000E+00 -0.00000000000E+00 -0.76207653755E+02  0.76207653755E+02  0.00000000000E+00 0. -1.
         36    2    1    2    0    0  0.00000000000E+00  0.00000000000E+00  0.16988346996E+03  0.32229877747E+03  0.27389068731E+03 0.  0.
         25    2    3    3    0    0  0.51237605427E+02 -0.29200581796E+02  0.69192883199E+02  0.15275864147E+03  0.12275822282E+03 0.  0.
         25    2    3    3    0    0 -0.51237605427E+02  0.29200581796E+02  0.10069058676E+03  0.16954013600E+03  0.12299307812E+03 0.  0.
          5    1    4    4  502    0 -0.13591963624E+02 -0.54799464696E+02  0.33391320221E+01  0.56753525078E+02  0.47000000000E+01 0. -1.
         -5    1    4    4    0  502  0.64829569051E+02  0.25598882901E+02  0.65853751177E+02  0.96005116391E+02  0.47000000000E+01 0. -1.
          5    1    5    5  503    0 -0.52061455236E+02  0.72203652475E+02  0.85959575462E+02  0.12383416801E+03  0.47000000000E+01 0.  1.
         -5    1    5    5    0  503  0.82384980858E+00 -0.43003070680E+02  0.14731011297E+02  0.45705967993E+02  0.47000000000E+01 0.  1.
<mgrwt>
<rscale>  0 0.27389069E+03</rscale>
<asrwt>0</asrwt>
<pdfrwt beam="1">  1        3 0.11724255E-01 0.27389069E+03</pdfrwt>
<pdfrwt beam="2">  1       -3 0.37860172E-01 0.27389069E+03</pdfrwt>
<totfact> 0.99207970E+02</totfact>
</mgrwt>
</event>
<event>
 9    1  0.2024718E-002  0.2747401E+03  0.7818608E-02  0.1098597E+00
          1   -1    0    0  501    0  0.00000000000E+00  0.00000000000E+00  0.21967386281E+02  0.21967386281E+02  0.00000000000E+00 0.  1.
         -1   -1    0    0    0  501 -0.00000000000E+00 -0.00000000000E+00 -0.85902483227E+03  0.85902483227E+03  0.00000000000E+00 0.  1.
         36    2    1    2    0    0  0.00000000000E+00 -0.88817841970E-15 -0.83705744599E+03  0.88099221855E+03  0.27474009766E+03 0.  0.
         25    2    3    3    0    0 -0.31075145460E+02  0.56398865613E+01 -0.56310346046E+03  0.57798983644E+03  0.12644868867E+03 0.  0.
         25    2    3    3    0    0  0.31075145460E+02 -0.56398865613E+01 -0.27395398553E+03  0.30300238211E+03  0.12554753836E+03 0.  0.
          5    1    4    4  502    0 -0.69275284863E+02  0.29940105592E+02 -0.44575440979E+03  0.45212228308E+03  0.47000000000E+01 0.  1.
         -5    1    4    4    0  502  0.38200139403E+02 -0.24300219031E+02 -0.11734905067E+03  0.12586755336E+03  0.47000000000E+01 0.  1.
          5    1    5    5  503    0  0.54344829858E+02  0.17343143644E+01 -0.39833840207E+02  0.67566213481E+02  0.47000000000E+01 0. -1.
         -5    1    5    5    0  503 -0.23269684397E+02 -0.73742009257E+01 -0.23412014532E+03  0.23543616863E+03  0.47000000000E+01 0. -1.
<mgrwt>
<rscale>  0 0.27474010E+03</rscale>
<asrwt>0</asrwt>
<pdfrwt beam="1">  1        1 0.33795986E-02 0.27474010E+03</pdfrwt>
<pdfrwt beam="2">  1       -1 0.13215764E+00 0.27474010E+03</pdfrwt>
<totfact> 0.15052903E+03</totfact>
</mgrwt>
</event>
<event>
 9    1  0.2024718E-002  0.2781860E+03  0.7818608E-02  0.1096684E+00
         -2   -1    0    0    0  501 -0.00000000000E+00  0.00000000000E+00  0.30744065224E+02  0.30744065224E+02  0.00000000000E+00 0.  1.
          2   -1    0    0  501    0  0.00000000000E+00 -0.00000000000E+00 -0.62928786335E+03  0.62928786335E+03  0.00000000000E+00 0.  1.
         36    2    1    2    0    0 -0.14210854715E-13 -0.71054273576E-14 -0.59854379812E+03  0.66003192857E+03  0.27818603211E+03 0.  0.
         25    2    3    3    0    0 -0.51955894989E+02 -0.33811784294E+02 -0.28716713707E+03  0.31783133781E+03  0.12128125535E+03 0.  0.
         25    2    3    3    0    0  0.51955894989E+02  0.33811784294E+02 -0.31137666105E+03  0.34220059076E+03  0.12768385758E+03 0.  0.
          5    1    4    4  502    0 -0.62331776633E+02 -0.17362972689E+02 -0.29040500046E+03  0.29756323276E+03  0.47000000000E+01 0. -1.
         -5    1    4    4    0  502  0.10375881643E+02 -0.16448811605E+02  0.32378633875E+01  0.20268105052E+02  0.47000000000E+01 0. -1.
          5    1    5    5  503    0 -0.74557304948E+01  0.62626802579E+02 -0.22291266129E+03  0.23171070083E+03  0.47000000000E+01 0.  1.
         -5    1    5    5    0  503  0.59411625484E+02 -0.28815018284E+02 -0.88463999763E+02  0.11048988992E+03  0.47000000000E+01 0.  1.
<mgrwt>
<rscale>  0 0.27818603E+03</rscale>
<asrwt>0</asrwt>
<pdfrwt beam="1">  1        2 0.96813515E-01 0.27818603E+03</pdfrwt>
<pdfrwt beam="2">  1       -2 0.47298563E-02 0.27818603E+03</pdfrwt>
<totfact> 0.10124457E+04</totfact>
</mgrwt>
</event>
<event>
 9    1  0.2024718E-002  0.2761803E+03  0.7818608E-02  0.1097794E+00
         -2   -1    0    0    0  501 -0.00000000000E+00  0.00000000000E+00  0.47469839011E+02  0.47469839011E+02  0.00000000000E+00 0.  1.
          2   -1    0    0  501    0  0.00000000000E+00 -0.00000000000E+00 -0.40170532000E+03  0.40170532000E+03  0.00000000000E+00 0.  1.
         36    2    1    2    0    0 -0.14210854715E-13  0.17763568394E-14 -0.35423548099E+03  0.44917515901E+03  0.27618028076E+03 0.  0.
         25    2    3    3    0    0 -0.25703739303E+02  0.10759995264E+02 -0.84910571080E+02  0.15121796688E+03  0.12198610050E+03 0.  0.
         25    2    3    3    0    0  0.25703739303E+02 -0.10759995264E+02 -0.26932490991E+03  0.29795719213E+03  0.12436286236E+03 0.  0.
          5    1    4    4  502    0 -0.71881666827E+02 -0.12654046956E+02 -0.49162287431E+02  0.88125588994E+02  0.47000000000E+01 0. -1.
         -5    1    4    4    0  502  0.46177927523E+02  0.23414042220E+02 -0.35748283650E+02  0.63092377886E+02  0.47000000000E+01 0. -1.
          5    1    5    5  503    0  0.73531426502E+02 -0.12222091330E+02 -0.20085583097E+03  0.21429280211E+03  0.47000000000E+01 0.  1.
         -5    1    5    5    0  503 -0.47827687198E+02  0.14620960656E+01 -0.68469078939E+02  0.83664390026E+02  0.47000000000E+01 0.  1.
<mgrwt>
<rscale>  0 0.27618028E+03</rscale>
<asrwt>0</asrwt>
<pdfrwt beam="1">  1        2 0.61800820E-01 0.27618028E+03</pdfrwt>
<pdfrwt beam="2">  1       -2 0.73030519E-02 0.27618028E+03</pdfrwt>
<totfact> 0.86115547E+03</totfact>
</mgrwt>
</event>
<event>
 9    1  0.2024718E-002  0.2755425E+03  0.7818608E-02  0.1098149E+00
         -3   -1    0    0    0  501 -0.00000000000E+00  0.00000000000E+00  0.75900351421E+02  0.75900351421E+02  0.00000000000E+00 0. -1.
          3   -1    0    0  501    0  0.00000000000E+00 -0.00000000000E+00 -0.25007689177E+03  0.25007689177E+03  0.00000000000E+00 0. -1.
         36    2    1    2    0    0  0.00000000000E+00  0.00000000000E+00 -0.17417654035E+03  0.32597724319E+03  0.27554254820E+03 0.  0.
         25    2    3    3    0    0  0.44775864206E+02  0.38724089293E+02 -0.10844905371E+03  0.17164700942E+03  0.11915143929E+03 0.  0.
         25    2    3    3    0    0 -0.44775864206E+02 -0.38724089293E+02 -0.65727486635E+02  0.15433023377E+03  0.12646456203E+03 0.  0.
          5    1    4    4  502    0  0.57568755475E+01 -0.39322300241E+02 -0.12625275962E+02  0.41962751405E+02  0.47000000000E+01 0. -1.
         -5    1    4    4    0  502  0.39018988659E+02  0.78046389534E+02 -0.95823777750E+02  0.12968425802E+03  0.47000000000E+01 0. -1.
          5    1    5    5  503    0 -0.66750584399E+02 -0.54437064530E+02 -0.84772951323E+02  0.12094452360E+03  0.47000000000E+01 0. -1.
         -5    1    5    5    0  503  0.21974720192E+02  0.15712975237E+02  0.19045464688E+02  0.33385710170E+02  0.47000000000E+01 0. -1.
<mgrwt>
<rscale>  0 0.27554255E+03</rscale>
<asrwt>0</asrwt>
<pdfrwt beam="1">  1        3 0.38473368E-01 0.27554255E+03</pdfrwt>
<pdfrwt beam="2">  1       -3 0.11676977E-01 0.27554255E+03</pdfrwt>
<totfact> 0.96925376E+02</totfact>
</mgrwt>
</event>
<event>
 9    1  0.2024718E-002  0.2747451E+03  0.7818608E-02  0.1098594E+00
          1   -1    0    0  501    0  0.00000000000E+00  0.00000000000E+00  0.76405255052E+03  0.76405255052E+03  0.00000000000E+00 0. -1.
         -1   -1    0    0    0  501 -0.00000000000E+00 -0.00000000000E+00 -0.24698844769E+02  0.24698844769E+02  0.00000000000E+00 0. -1.
         36    2    1    2    0    0 -0.35527136788E-14 -0.71054273576E-14  0.73935370575E+03  0.78875139528E+03  0.27474508433E+03 0.  0.
         25    2    3    3    0    0  0.23081938501E+02  0.54638797101E+02  0.40248542908E+03  0.42542308729E+03  0.12438693078E+03 0.  0.
         25    2    3    3    0    0 -0.23081938501E+02 -0.54638797101E+02  0.33686827667E+03  0.36332830799E+03  0.12251142612E+03 0.  0.
          5    1    4    4  502    0  0.58398436274E+02  0.58928678554E+02  0.15994949499E+03  0.18024676825E+03  0.47000000000E+01 0. -1.
         -5    1    4    4    0  502 -0.35316497772E+02 -0.42898814528E+01  0.24253593408E+03  0.24517631904E+03  0.47000000000E+01 0. -1.
          5    1    5    5  503    0 -0.40904713353E+02 -0.42418166974E+02  0.55477970118E+02  0.81070288222E+02  0.47000000000E+01 0.  1.
         -5    1    5    5    0  503  0.17822774852E+02 -0.12220630127E+02  0.28139030655E+03  0.28225801977E+03  0.47000000000E+01 0.  1.
<mgrwt>
<rscale>  0 0.27474508E+03</rscale>
<asrwt>0</asrwt>
<pdfrwt beam="1">  1        1 0.11754653E+00 0.27474508E+03</pdfrwt>
<pdfrwt beam="2">  1       -1 0.37998229E-02 0.27474508E+03</pdfrwt>
<totfact> 0.65509847E+03</totfact>
</mgrwt>
</event>
<event>
 9    1  0.2024718E-002  0.2755235E+03  0.7818608E-02  0.1098159E+00
          2   -1    0    0  501    0  0.00000000000E+00  0.00000000000E+00  0.68199404316E+03  0.68199404316E+03  0.00000000000E+00 0. -1.
         -2   -1    0    0    0  501 -0.00000000000E+00 -0.00000000000E+00 -0.27827653578E+02  0.27827653578E+02  0.00000000000E+00 0. -1.
         36    2    1    2    0    0  0.71054273576E-14  0.00000000000E+00  0.65416638958E+03  0.70982169673E+03  0.27552345799E+03 0.  0.
         25    2    3    3    0    0  0.38730618265E+02  0.41422396683E+02  0.30964828360E+03  0.33912512283E+03  0.12612657794E+03 0.  0.
         25    2    3    3    0    0 -0.38730618265E+02 -0.41422396683E+02  0.34451810598E+03  0.37069657390E+03  0.12452850604E+03 0.  0.
          5    1    4    4  502    0  0.25936268325E+02 -0.31221250339E+02  0.32264109769E+02  0.52062647518E+02  0.47000000000E+01 0.  1.
         -5    1    4    4    0  502  0.12794349940E+02  0.72643647022E+02  0.27738417383E+03  0.28706247532E+03  0.47000000000E+01 0.  1.
          5    1    5    5  503    0  0.36821587080E+02 -0.25197513797E+02  0.21642179794E+03  0.22102314042E+03  0.47000000000E+01 0.  1.
         -5    1    5    5    0  503 -0.75552205345E+02 -0.16224882886E+02  0.12809630804E+03  0.14967343348E+03  0.47000000000E+01 0.  1.
<mgrwt>
<rscale>  0 0.27552346E+03</rscale>
<asrwt>0</asrwt>
<pdfrwt beam="1">  1        2 0.10492215E+00 0.27552346E+03</pdfrwt>
<pdfrwt beam="2">  1       -2 0.42811780E-02 0.27552346E+03</pdfrwt>
<totfact> 0.10693569E+04</totfact>
</mgrwt>
</event>
<event>
 9    1  0.2024718E-002  0.2752617E+03  0.7818608E-02  0.1098305E+00
          2   -1    0    0  501    0  0.00000000000E+00  0.00000000000E+00  0.56034220534E+03  0.56034220534E+03  0.00000000000E+00 0. -1.
         -2   -1    0    0    0  501 -0.00000000000E+00 -0.00000000000E+00 -0.33804794484E+02  0.33804794484E+02  0.00000000000E+00 0. -1.
         36    2    1    2    0    0  0.71054273576E-14  0.00000000000E+00  0.52653741086E+03  0.59414699983E+03  0.27526171613E+03 0.  0.
         25    2    3    3    0    0  0.51880896787E+01 -0.36878081293E+02  0.25092620390E+03  0.28654567485E+03  0.13325747565E+03 0.  0.
         25    2    3    3    0    0 -0.51880896787E+01  0.36878081293E+02  0.27561120696E+03  0.30760132498E+03  0.13141586119E+03 0.  0.
          5    1    4    4  502    0 -0.62767861056E+02 -0.30385129884E+02  0.12323667485E+03  0.14167719833E+03  0.47000000000E+01 0.  1.
         -5    1    4    4    0  502  0.67955950735E+02 -0.64929514089E+01  0.12768952905E+03  0.14486847651E+03  0.47000000000E+01 0.  1.
          5    1    5    5  503    0  0.36527847511E+02  0.52702577624E+02  0.61963175416E+02  0.89293731245E+02  0.47000000000E+01 0. -1.
         -5    1    5    5    0  503 -0.41715937190E+02 -0.15824496331E+02  0.21364803155E+03  0.21830759374E+03  0.47000000000E+01 0. -1.
<mgrwt>
<rscale>  0 0.27526172E+03</rscale>
<asrwt>0</asrwt>
<pdfrwt beam="1">  1        2 0.86206486E-01 0.27526172E+03</pdfrwt>
<pdfrwt beam="2">  1       -2 0.52007380E-02 0.27526172E+03</pdfrwt>
<totfact> 0.10022976E+04</totfact>
</mgrwt>
</event>
<event>
 9    1  0.2024718E-002  0.2769971E+03  0.7818608E-02  0.1097340E+00
         -2   -1    0    0    0  501 -0.00000000000E+00  0.00000000000E+00  0.10857658470E+02  0.10857658470E+02  0.00000000000E+00 0.  1.
          2   -1    0    0  501    0  0.00000000000E+00 -0.00000000000E+00 -0.17666653891E+04  0.17666653891E+04  0.00000000000E+00 0.  1.
         36    2    1    2    0    0  0.00000000000E+00  0.53290705182E-14 -0.17558077307E+04  0.17775230476E+04  0.27699710775E+03 0.  0.
         25    2    3    3    0    0 -0.59343598766E+02  0.56097355462E+01 -0.83953130898E+03  0.85074619666E+03  0.12410938939E+03 0.  0.
         25    2    3    3    0    0  0.59343598766E+02 -0.56097355462E+01 -0.91627642170E+03  0.92677685095E+03  0.12569693176E+03 0.  0.
          5    1    4    4  502    0 -0.88919098199E+01 -0.44454669146E+02 -0.13218189061E+03  0.13981926145E+03  0.47000000000E+01 0.  1.
         -5    1    4    4    0  502 -0.50451688947E+02  0.50064404693E+02 -0.70734941837E+03  0.71092693521E+03  0.47000000000E+01 0.  1.
          5    1    5    5  503    0  0.92247951862E+02 -0.17149858397E+02 -0.79401239344E+03  0.79955085717E+03  0.47000000000E+01 0. -1.
         -5    1    5    5    0  503 -0.32904353096E+02  0.11540122851E+02 -0.12226402826E+03  0.12722599379E+03  0.47000000000E+01 0. -1.
<mgrwt>
<rscale>  0 0.27699711E+03</rscale>
<asrwt>0</asrwt>
<pdfrwt beam="1">  1        2 0.27179431E+00 0.27699711E+03</pdfrwt>
<pdfrwt beam="2">  1       -2 0.16704112E-02 0.27699711E+03</pdfrwt>
<totfact> 0.99298725E+03</totfact>
</mgrwt>
</event>
<event>
 9    1  0.2024718E-002  0.2746241E+03  0.7818608E-02  0.1098662E+00
          1   -1    0    0  501    0  0.00000000000E+00  0.00000000000E+00  0.25453784128E+03  0.25453784128E+03  0.00000000000E+00 0. -1.
         -1   -1    0    0    0  501 -0.00000000000E+00 -0.00000000000E+00 -0.74073834343E+02  0.74073834343E+02  0.00000000000E+00 0. -1.
         36    2    1    2    0    0 -0.17763568394E-14 -0.17763568394E-14  0.18046400693E+03  0.32861167562E+03  0.27462406223E+03 0.  0.
         25    2    3    3    0    0  0.15231227370E+01  0.68280116715E+01  0.13433447638E+03  0.19220336263E+03  0.13728597677E+03 0.  0.
         25    2    3    3    0    0 -0.15231227370E+01 -0.68280116715E+01  0.46129530559E+02  0.13640831299E+03  0.12818093702E+03 0.  0.
          5    1    4    4  502    0  0.51997629973E+02 -0.34638951843E+02  0.10064382240E+03  0.11855327703E+03  0.47000000000E+01 0. -1.
         -5    1    4    4    0  502 -0.50474507236E+02  0.41466963515E+02  0.33690653974E+02  0.73650085601E+02  0.47000000000E+01 0. -1.
          5    1    5    5  503    0  0.15239925269E+02 -0.18650595049E+02  0.87023486152E+02  0.90417239285E+02  0.47000000000E+01 0. -1.
         -5    1    5    5    0  503 -0.16763048006E+02  0.11822583377E+02 -0.40893955593E+02  0.45991073702E+02  0.47000000000E+01 0. -1.
<mgrwt>
<rscale>  0 0.27462406E+03</rscale>
<asrwt>0</asrwt>
<pdfrwt beam="1">  1        1 0.39159667E-01 0.27462406E+03</pdfrwt>
<pdfrwt beam="2">  1       -1 0.11395975E-01 0.27462406E+03</pdfrwt>
<totfact> 0.53263361E+03</totfact>
</mgrwt>
</event>
<event>
 9    1  0.2024718E-002  0.2739394E+03  0.7818608E-02  0.1099046E+00
         -2   -1    0    0    0  501 -0.00000000000E+00  0.00000000000E+00  0.97675408688E+01  0.97675408688E+01  0.00000000000E+00 0.  1.
          2   -1    0    0  501    0  0.00000000000E+00 -0.00000000000E+00 -0.19207191532E+04  0.19207191532E+04  0.00000000000E+00 0.  1.
         36    2    1    2    0    0  0.00000000000E+00 -0.14210854715E-13 -0.19109516124E+04  0.19304866941E+04  0.27393943000E+03 0.  0.
         25    2    3    3    0    0 -0.16528804965E+02  0.82664399744E+02 -0.11057201414E+04  0.11156893840E+04  0.12263427797E+03 0.  0.
         25    2    3    3    0    0  0.16528804965E+02 -0.82664399744E+02 -0.80523147097E+03  0.81479731009E+03  0.91598746232E+02 0.  0.
          5    1    4    4  502    0  0.14748082900E+02 -0.14257491921E+02 -0.40870752356E+02  0.45970538644E+02  0.47000000000E+01 0. -1.
         -5    1    4    4    0  502 -0.31276887865E+02  0.96921891665E+02 -0.10648493891E+04  0.10697188454E+04  0.47000000000E+01 0. -1.
          5    1    5    5  503    0 -0.16266672549E+02 -0.16184363292E+01 -0.28823276811E+02  0.33467824221E+02  0.47000000000E+01 0.  1.
         -5    1    5    5    0  503  0.32795477514E+02 -0.81045963415E+02 -0.77640819416E+03  0.78132948587E+03  0.47000000000E+01 0.  1.
<mgrwt>
<rscale>  0 0.27393943E+03</rscale>
<asrwt>0</asrwt>
<pdfrwt beam="1">  1        2 0.29549540E+00 0.27393943E+03</pdfrwt>
<pdfrwt beam="2">  1       -2 0.15026979E-02 0.27393943E+03</pdfrwt>
<totfact> 0.96225493E+03</totfact>
</mgrwt>
</event>
<event>
 9    1  0.2024718E-002  0.2764561E+03  0.7818608E-02  0.1097640E+00
          1   -1    0    0  501    0  0.00000000000E+00  0.00000000000E+00  0.11353554221E+03  0.11353554221E+03  0.00000000000E+00 0.  1.
         -1   -1    0    0    0  501 -0.00000000000E+00 -0.00000000000E+00 -0.16829082031E+03  0.16829082031E+03  0.00000000000E+00 0.  1.
         36    2    1    2    0    0 -0.35527136788E-14 -0.71054273576E-14 -0.54755278096E+02  0.28182636252E+03  0.27645606908E+03 0.  0.
         25    2    3    3    0    0  0.71816238637E+01  0.45148012575E+02 -0.58376147870E+02  0.14714129873E+03  0.12709393530E+03 0.  0.
         25    2    3    3    0    0 -0.71816238637E+01 -0.45148012575E+02  0.36208697746E+01  0.13468506378E+03  0.12663742317E+03 0.  0.
          5    1    4    4  502    0 -0.15312196682E+02  0.73754251856E+02  0.31113778140E+01  0.75537564867E+02  0.47000000000E+01 0. -1.
         -5    1    4    4    0  502  0.22493820546E+02 -0.28606239281E+02 -0.61487525684E+02  0.71603733864E+02  0.47000000000E+01 0. -1.
          5    1    5    5  503    0  0.55727817185E+02 -0.10757713012E+02  0.21109961491E+02  0.60737455262E+02  0.47000000000E+01 0. -1.
         -5    1    5    5    0  503 -0.62909441049E+02 -0.34390299562E+02 -0.17489091717E+02  0.73947608522E+02  0.47000000000E+01 0. -1.
<mgrwt>
<rscale>  0 0.27645607E+03</rscale>
<asrwt>0</asrwt>
<pdfrwt beam="1">  1        1 0.17467007E-01 0.27645607E+03</pdfrwt>
<pdfrwt beam="2">  1       -1 0.25890895E-01 0.27645607E+03</pdfrwt>
<totfact> 0.39794218E+03</totfact>
</mgrwt>
</event>
<event>
 9    1  0.2024718E-002  0.2745247E+03  0.7818608E-02  0.1098718E+00
          2   -1    0    0  501    0  0.00000000000E+00  0.00000000000E+00  0.12871063192E+04  0.12871063192E+04  0.00000000000E+00 0. -1.
         -2   -1    0    0    0  501 -0.00000000000E+00 -0.00000000000E+00 -0.14638227959E+02  0.14638227959E+02  0.00000000000E+00 0. -1.
         36    2    1    2    0    0  0.00000000000E+00  0.53290705182E-14  0.12724680912E+04  0.13017445471E+04  0.27452472171E+03 0.  0.
         25    2    3    3    0    0  0.47932725171E+02  0.97063493985E+00  0.40580114276E+03  0.42668629598E+03  0.12283378785E+03 0.  0.
         25    2    3    3    0    0 -0.47932725171E+02 -0.97063493985E+00  0.86666694843E+03  0.87505825113E+03  0.11098132768E+03 0.  0.
          5    1    4    4  502    0  0.49218827532E+02  0.55326679399E+02  0.27775774295E+03  0.28749780556E+03  0.47000000000E+01 0.  1.
         -5    1    4    4    0  502 -0.12861023611E+01 -0.54356044459E+02  0.12804339982E+03  0.13918849042E+03  0.47000000000E+01 0.  1.
          5    1    5    5  503    0 -0.15212052971E+02 -0.56148576570E+01  0.14548940730E+02  0.22286652025E+02  0.47000000000E+01 0.  1.
         -5    1    5    5    0  503 -0.32720672201E+02  0.46442227172E+01  0.85211800770E+03  0.85277159911E+03  0.47000000000E+01 0.  1.
<mgrwt>
<rscale>  0 0.27452472E+03</rscale>
<asrwt>0</asrwt>
<pdfrwt beam="1">  1        2 0.19801627E+00 0.27452472E+03</pdfrwt>
<pdfrwt beam="2">  1       -2 0.22520361E-02 0.27452472E+03</pdfrwt>
<totfact> 0.11563179E+04</totfact>
</mgrwt>
</event>
<event>
 9    1  0.2024718E-002  0.2765105E+03  0.7818608E-02  0.1097610E+00
          2   -1    0    0  501    0  0.00000000000E+00  0.00000000000E+00  0.88236384714E+03  0.88236384714E+03  0.00000000000E+00 0. -1.
         -2   -1    0    0    0  501 -0.00000000000E+00 -0.00000000000E+00 -0.21662843769E+02  0.21662843769E+02  0.00000000000E+00 0. -1.
         36    2    1    2    0    0  0.71054273576E-14  0.14210854715E-13  0.86070100337E+03  0.90402669091E+03  0.27651047118E+03 0.  0.
         25    2    3    3    0    0  0.31649666534E+02  0.47622479714E+02  0.33836009441E+03  0.36335683017E+03  0.11946141878E+03 0.  0.
         25    2    3    3    0    0 -0.31649666534E+02 -0.47622479714E+02  0.52234090897E+03  0.54066986074E+03  0.12733527073E+03 0.  0.
          5    1    4    4  502    0  0.19428580969E+02 -0.38040479220E+02  0.79414201443E+02  0.90295366484E+02  0.47000000000E+01 0. -1.
         -5    1    4    4    0  502  0.12221085565E+02  0.85662958934E+02  0.25894589296E+03  0.27306146368E+03  0.47000000000E+01 0. -1.
          5    1    5    5  503    0 -0.47277327046E+02 -0.32373154157E+01  0.45981546588E+03  0.46227478682E+03  0.47000000000E+01 0.  1.
         -5    1    5    5    0  503  0.15627660512E+02 -0.44385164298E+02  0.62525443080E+02  0.78395073922E+02  0.47000000000E+01 0.  1.
<mgrwt>
<rscale>  0 0.27651047E+03</rscale>
<asrwt>0</asrwt>
<pdfrwt beam="1">  1        2 0.13574826E+00 0.27651047E+03</pdfrwt>
<pdfrwt beam="2">  1       -2 0.33327459E-02 0.27651047E+03</pdfrwt>
<totfact> 0.11257063E+04</totfact>
</mgrwt>
</event>
<event>
 9    1  0.2024718E-002  0.2736776E+03  0.7818608E-02  0.1099193E+00
          2   -1    0    0  501    0  0.00000000000E+00  0.00000000000E+00  0.35912637742E+03  0.35912637742E+03  0.00000000000E+00 0.  1.
         -2   -1    0    0    0  501 -0.00000000000E+00 -0.00000000000E+00 -0.52140006742E+02  0.52140006742E+02  0.00000000000E+00 0.  1.
         36    2    1    2    0    0  0.00000000000E+00  0.00000000000E+00  0.30698637068E+03  0.41126638416E+03  0.27367756020E+03 0.  0.
         25    2    3    3    0    0 -0.13362069578E+02 -0.57231476358E+02  0.13008210356E+03  0.18890007733E+03  0.12372509349E+03 0.  0.
         25    2    3    3    0    0  0.13362069578E+02  0.57231476358E+02  0.17690426712E+03  0.22236630684E+03  0.12123393873E+03 0.  0.
          5    1    4    4  502    0 -0.56581259518E+02 -0.20793766254E+02  0.11543984321E+03  0.13031602758E+03  0.47000000000E+01 0.  1.
         -5    1    4    4    0  502  0.43219189941E+02 -0.36437710103E+02  0.14642260346E+02  0.58584049747E+02  0.47000000000E+01 0.  1.
          5    1    5    5  503    0  0.63112577561E+02  0.28026421787E+02  0.13223190560E+03  0.14925161515E+03  0.47000000000E+01 0.  1.
         -5    1    5    5    0  503 -0.49750507983E+02  0.29205054571E+02  0.44672361518E+02  0.73114691688E+02  0.47000000000E+01 0.  1.
<mgrwt>
<rscale>  0 0.27367756E+03</rscale>
<asrwt>0</asrwt>
<pdfrwt beam="1">  1        2 0.55250210E-01 0.27367756E+03</pdfrwt>
<pdfrwt beam="2">  1       -2 0.80215397E-02 0.27367756E+03</pdfrwt>
<totfact> 0.83978186E+03</totfact>
</mgrwt>
</event>
<event>
 9    1  0.2024718E-002  0.2761144E+03  0.7818608E-02  0.1097830E+00
          2   -1    0    0  501    0  0.00000000000E+00  0.00000000000E+00  0.43219820848E+03  0.43219820848E+03  0.00000000000E+00 0.  1.
         -2   -1    0    0    0  501 -0.00000000000E+00 -0.00000000000E+00 -0.44099661979E+02  0.44099661979E+02  0.00000000000E+00 0.  1.
         36    2    1    2    0    0  0.71054273576E-14 -0.35527136788E-14  0.38809854650E+03  0.47629787046E+03  0.27611443209E+03 0.  0.
         25    2    3    3    0    0 -0.12514616280E+02 -0.30320143704E+02  0.27093396658E+03  0.30211264141E+03  0.12957973267E+03 0.  0.
         25    2    3    3    0    0  0.12514616280E+02  0.30320143704E+02  0.11716457993E+03  0.17418522905E+03  0.12464761729E+03 0.  0.
          5    1    4    4  502    0  0.78801637991E+01 -0.66466822845E+02  0.24243253733E+03  0.25154633903E+03  0.47000000000E+01 0.  1.
         -5    1    4    4    0  502 -0.20394780079E+02  0.36146679141E+02  0.28501429245E+02  0.50566302381E+02  0.47000000000E+01 0.  1.
          5    1    5    5  503    0  0.67174798960E+02  0.29184663491E+02  0.75444110574E+02  0.10525256300E+03  0.47000000000E+01 0. -1.
         -5    1    5    5    0  503 -0.54660182679E+02  0.11354802124E+01  0.41720469352E+02  0.68932666050E+02  0.47000000000E+01 0. -1.
<mgrwt>
<rscale>  0 0.27611443E+03</rscale>
<asrwt>0</asrwt>
<pdfrwt beam="1">  1        2 0.66492029E-01 0.27611443E+03</pdfrwt>
<pdfrwt beam="2">  1       -2 0.67845637E-02 0.27611443E+03</pdfrwt>
<totfact> 0.89113984E+03</totfact>
</mgrwt>
</event>
<event>
 9    1  0.2024718E-002  0.2755365E+03  0.7818608E-02  0.1098152E+00
         -1   -1    0    0    0  501 -0.00000000000E+00  0.00000000000E+00  0.59612770808E+02  0.59612770808E+02  0.00000000000E+00 0.  1.
          1   -1    0    0  501    0  0.00000000000E+00 -0.00000000000E+00 -0.31838976933E+03  0.31838976933E+03  0.00000000000E+00 0.  1.
         36    2    1    2    0    0  0.00000000000E+00  0.00000000000E+00 -0.25877699852E+03  0.37800254013E+03  0.27553654093E+03 0.  0.
         25    2    3    3    0    0 -0.25573129255E+02 -0.44387504731E+02 -0.10100185848E+03  0.16902823421E+03  0.12547881505E+03 0.  0.
         25    2    3    3    0    0  0.25573129255E+02  0.44387504731E+02 -0.15777514003E+03  0.20897430593E+03  0.12709457191E+03 0.  0.
          5    1    4    4  502    0  0.27223215018E+02 -0.65752216545E+02 -0.28725088994E+02  0.76887438208E+02  0.47000000000E+01 0. -1.
         -5    1    4    4    0  502 -0.52796344273E+02  0.21364711814E+02 -0.72276769490E+02  0.92140795999E+02  0.47000000000E+01 0. -1.
          5    1    5    5  503    0  0.37184056211E+01  0.76958120898E+02 -0.44705259657E+02  0.89202181327E+02  0.47000000000E+01 0. -1.
         -5    1    5    5    0  503  0.21854723633E+02 -0.32570616167E+02 -0.11306988038E+03  0.11977212460E+03  0.47000000000E+01 0. -1.
<mgrwt>
<rscale>  0 0.27553654E+03</rscale>
<asrwt>0</asrwt>
<pdfrwt beam="1">  1        1 0.48983040E-01 0.27553654E+03</pdfrwt>
<pdfrwt beam="2">  1       -1 0.91711958E-02 0.27553654E+03</pdfrwt>
<totfact> 0.56274549E+03</totfact>
</mgrwt>
</event>
<event>
 9    1  0.2024718E-002  0.2740157E+03  0.7818608E-02  0.1099003E+00
          2   -1    0    0  501    0  0.00000000000E+00  0.00000000000E+00  0.24224323437E+04  0.24224323437E+04  0.00000000000E+00 0. -1.
         -2   -1    0    0    0  501 -0.00000000000E+00 -0.00000000000E+00 -0.77488865935E+01  0.77488865935E+01  0.00000000000E+00 0. -1.
         36    2    1    2    0    0 -0.35527136788E-14  0.71054273576E-14  0.24146834571E+04  0.24301812303E+04  0.27401571861E+03 0.  0.
         25    2    3    3    0    0  0.14101158474E+02 -0.13372120065E+02  0.16969843190E+04  0.17017376023E+04  0.12560824715E+03 0.  0.
         25    2    3    3    0    0 -0.14101158474E+02  0.13372120065E+02  0.71769913804E+03  0.72844362797E+03  0.12312761719E+03 0.  0.
          5    1    4    4  502    0 -0.53866173073E+02  0.49694569656E+01  0.89991959924E+03  0.90155622964E+03  0.47000000000E+01 0.  1.
         -5    1    4    4    0  502  0.67967331547E+02 -0.18341577030E+02  0.79706471981E+03  0.80018137267E+03  0.47000000000E+01 0.  1.
          5    1    5    5  503    0 -0.15487381922E+02  0.66622601322E+02  0.47504560548E+03  0.47996754817E+03  0.47000000000E+01 0. -1.
         -5    1    5    5    0  503  0.13862234483E+01 -0.53250481257E+02  0.24265353256E+03  0.24847607980E+03  0.47000000000E+01 0. -1.
<mgrwt>
<rscale>  0 0.27401572E+03</rscale>
<asrwt>0</asrwt>
<pdfrwt beam="1">  1        2 0.37268130E+00 0.27401572E+03</pdfrwt>
<pdfrwt beam="2">  1       -2 0.11921383E-02 0.27401572E+03</pdfrwt>
<totfact> 0.72980786E+03</totfact>
</mgrwt>
</event>
<event>
 9    1  0.2024718E-002  0.2745806E+03  0.7818608E-02  0.1098686E+00
          2   -1    0    0  501    0  0.00000000000E+00  0.00000000000E+00  0.12904492591E+04  0.12904492591E+04  0.00000000000E+00 0.  1.
         -2   -1    0    0    0  501 -0.00000000000E+00 -0.00000000000E+00 -0.14606246245E+02  0.14606246245E+02  0.00000000000E+00 0.  1.
         36    2    1    2    0    0  0.35527136788E-14  0.00000000000E+00  0.12758430128E+04  0.13050555053E+04  0.27458055026E+03 0.  0.
         25    2    3    3    0    0 -0.25276142759E+02  0.17769395520E+02  0.82092785920E+03  0.83228231958E+03  0.13347911696E+03 0.  0.
         25    2    3    3    0    0  0.25276142759E+02 -0.17769395520E+02  0.45491515363E+03  0.47277318574E+03  0.12494820264E+03 0.  0.
          5    1    4    4  502    0 -0.39782833218E+02  0.59629444204E+02  0.26474377973E+03  0.27431679376E+03  0.47000000000E+01 0.  1.
         -5    1    4    4    0  502  0.14506690459E+02 -0.41860048684E+02  0.55618407948E+03  0.55796552582E+03  0.47000000000E+01 0.  1.
          5    1    5    5  503    0  0.57840611949E+01 -0.65511509405E+02  0.34535281054E+03  0.35159048192E+03  0.47000000000E+01 0.  1.
         -5    1    5    5    0  503  0.19492081564E+02  0.47742113885E+02  0.10956234309E+03  0.12118270382E+03  0.47000000000E+01 0.  1.
<mgrwt>
<rscale>  0 0.27458055E+03</rscale>
<asrwt>0</asrwt>
<pdfrwt beam="1">  1        2 0.19853057E+00 0.27458055E+03</pdfrwt>
<pdfrwt beam="2">  1       -2 0.22471158E-02 0.27458055E+03</pdfrwt>
<totfact> 0.11551150E+04</totfact>
</mgrwt>
</event>
<event>
 9    1  0.2024718E-002  0.2748909E+03  0.7818608E-02  0.1098513E+00
         -4   -1    0    0    0  501 -0.00000000000E+00  0.00000000000E+00  0.11351745033E+03  0.11351745033E+03  0.00000000000E+00 0.  1.
          4   -1    0    0  501    0  0.00000000000E+00 -0.00000000000E+00 -0.16641715060E+03  0.16641715060E+03  0.00000000000E+00 0.  1.
         36    2    1    2    0    0  0.00000000000E+00 -0.71054273576E-14 -0.52899700270E+02  0.27993460093E+03  0.27489089201E+03 0.  0.
         25    2    3    3    0    0 -0.11940415898E+02 -0.53169017862E+02 -0.33200801584E+02  0.14186702441E+03  0.12670612218E+03 0.  0.
         25    2    3    3    0    0  0.11940415898E+02  0.53169017862E+02 -0.19698898686E+02  0.13806757652E+03  0.12531995486E+03 0.  0.
          5    1    4    4  502    0  0.30629180336E+02 -0.78453189194E+02 -0.45587881056E+01  0.84474387430E+02  0.47000000000E+01 0.  1.
         -5    1    4    4    0  502 -0.42569596234E+02  0.25284171332E+02 -0.28642013478E+02  0.57392636980E+02  0.47000000000E+01 0.  1.
          5    1    5    5  503    0 -0.28360890605E+02  0.29095601769E+02  0.43167203100E+02  0.59467567477E+02  0.47000000000E+01 0.  1.
         -5    1    5    5    0  503  0.40301306503E+02  0.24073416093E+02 -0.62866101786E+02  0.78600009046E+02  0.47000000000E+01 0.  1.
<mgrwt>
<rscale>  0 0.27489089E+03</rscale>
<asrwt>0</asrwt>
<pdfrwt beam="1">  1        4 0.25602638E-01 0.27489089E+03</pdfrwt>
<pdfrwt beam="2">  1       -4 0.17464223E-01 0.27489089E+03</pdfrwt>
<totfact> 0.77379783E+02</totfact>
</mgrwt>
</event>
<event>
 9    1  0.2024718E-002  0.2749946E+03  0.7818608E-02  0.1098455E+00
          2   -1    0    0  501    0  0.00000000000E+00  0.00000000000E+00  0.91426959709E+03  0.91426959709E+03  0.00000000000E+00 0. -1.
         -2   -1    0    0    0  501 -0.00000000000E+00 -0.00000000000E+00 -0.20678261767E+02  0.20678261767E+02  0.00000000000E+00 0. -1.
         36    2    1    2    0    0  0.00000000000E+00  0.35527136788E-14  0.89359133532E+03  0.93494785886E+03  0.27499458944E+03 0.  0.
         25    2    3    3    0    0  0.56839887187E+02  0.86923082141E+01  0.47677932415E+03  0.49583853169E+03  0.12341392372E+03 0.  0.
         25    2    3    3    0    0 -0.56839887187E+02 -0.86923082141E+01  0.41681201117E+03  0.43910932717E+03  0.12561217917E+03 0.  0.
          5    1    4    4  502    0 -0.15422151189E+02 -0.16786314130E+01  0.34284849800E+03  0.34323147165E+03  0.47000000000E+01 0. -1.
         -5    1    4    4    0  502  0.72262038376E+02  0.10370939627E+02  0.13393082615E+03  0.15260706003E+03  0.47000000000E+01 0. -1.
          5    1    5    5  503    0 -0.47566572655E+02  0.38812743166E+02  0.92161945426E+02  0.11083736757E+03  0.47000000000E+01 0.  1.
         -5    1    5    5    0  503 -0.92733145310E+01 -0.47505051380E+02  0.32465006574E+03  0.32827195959E+03  0.47000000000E+01 0.  1.
<mgrwt>
<rscale>  0 0.27499459E+03</rscale>
<asrwt>0</asrwt>
<pdfrwt beam="1">  1        2 0.14065683E+00 0.27499459E+03</pdfrwt>
<pdfrwt beam="2">  1       -2 0.31812718E-02 0.27499459E+03</pdfrwt>
<totfact> 0.11504361E+04</totfact>
</mgrwt>
</event>
<event>
 9    1  0.2024718E-002  0.2743949E+03  0.7818608E-02  0.1098790E+00
          2   -1    0    0  501    0  0.00000000000E+00  0.00000000000E+00  0.34040259179E+02  0.34040259179E+02  0.00000000000E+00 0.  1.
         -2   -1    0    0    0  501 -0.00000000000E+00 -0.00000000000E+00 -0.55296684625E+03  0.55296684625E+03  0.00000000000E+00 0.  1.
         36    2    1    2    0    0  0.00000000000E+00  0.88817841970E-15 -0.51892658707E+03  0.58700710543E+03  0.27439485975E+03 0.  0.
         25    2    3    3    0    0 -0.42458584462E+02  0.37006048426E+01 -0.18842442517E+03  0.23095906610E+03  0.12657764550E+03 0.  0.
         25    2    3    3    0    0  0.42458584462E+02 -0.37006048426E+01 -0.33050216190E+03  0.35604803933E+03  0.12538780411E+03 0.  0.
          5    1    4    4  502    0 -0.35921687799E+02 -0.57826924127E+01  0.50964398307E+01  0.37038775423E+02  0.47000000000E+01 0. -1.
         -5    1    4    4    0  502 -0.65368966633E+01  0.94832972553E+01 -0.19352086500E+03  0.19392029067E+03  0.47000000000E+01 0. -1.
          5    1    5    5  503    0  0.24348082683E+01  0.40730756173E+02 -0.33366697388E+02  0.52918326545E+02  0.47000000000E+01 0. -1.
         -5    1    5    5    0  503  0.40023776194E+02 -0.44431361016E+02 -0.29713546451E+03  0.30312971278E+03  0.47000000000E+01 0. -1.
<mgrwt>
<rscale>  0 0.27439486E+03</rscale>
<asrwt>0</asrwt>
<pdfrwt beam="1">  1        2 0.52369634E-02 0.27439486E+03</pdfrwt>
<pdfrwt beam="2">  1       -2 0.85071815E-01 0.27439486E+03</pdfrwt>
<totfact> 0.18325775E+03</totfact>
</mgrwt>
</event>
<event>
 9    1  0.2024718E-002  0.2752306E+03  0.7818608E-02  0.1098323E+00
         -1   -1    0    0    0  501 -0.00000000000E+00  0.00000000000E+00  0.17591685282E+03  0.17591685282E+03  0.00000000000E+00 0.  1.
          1   -1    0    0  501    0  0.00000000000E+00 -0.00000000000E+00 -0.10765292726E+03  0.10765292726E+03  0.00000000000E+00 0.  1.
         36    2    1    2    0    0  0.00000000000E+00 -0.14210854715E-13  0.68263925557E+02  0.28356978008E+03  0.27523055180E+03 0.  0.
         25    2    3    3    0    0 -0.23377572046E+02  0.44947715092E+02  0.19965308386E+02  0.13992923883E+03  0.12889829468E+03 0.  0.
         25    2    3    3    0    0  0.23377572046E+02 -0.44947715092E+02  0.48298617172E+02  0.14364054126E+03  0.12543141833E+03 0.  0.
          5    1    4    4  502    0 -0.56124215086E+02 -0.11726673508E+02  0.41419439394E+02  0.70887956313E+02  0.47000000000E+01 0.  1.
         -5    1    4    4    0  502  0.32746643040E+02  0.56674388600E+02 -0.21454131008E+02  0.69041282512E+02  0.47000000000E+01 0.  1.
          5    1    5    5  503    0  0.61815356083E+02 -0.65104221157E+02  0.43035055966E+02  0.99668469949E+02  0.47000000000E+01 0. -1.
         -5    1    5    5    0  503 -0.38437784037E+02  0.20156506065E+02  0.52635612057E+01  0.43972071306E+02  0.47000000000E+01 0. -1.
<mgrwt>
<rscale>  0 0.27523055E+03</rscale>
<asrwt>0</asrwt>
<pdfrwt beam="1">  1        1 0.16561989E-01 0.27523055E+03</pdfrwt>
<pdfrwt beam="2">  1       -1 0.27064131E-01 0.27523055E+03</pdfrwt>
<totfact> 0.39593205E+03</totfact>
</mgrwt>
</event>
<event>
 9    1  0.2024718E-002  0.2743696E+03  0.7818608E-02  0.1098805E+00
         -2   -1    0    0    0  501 -0.00000000000E+00  0.00000000000E+00  0.12580021034E+03  0.12580021034E+03  0.00000000000E+00 0. -1.
          2   -1    0    0  501    0  0.00000000000E+00 -0.00000000000E+00 -0.14959965061E+03  0.14959965061E+03  0.00000000000E+00 0. -1.
         36    2    1    2    0    0 -0.53290705182E-14  0.00000000000E+00 -0.23799440267E+02  0.27539986095E+03  0.27436958660E+03 0.  0.
         25    2    3    3    0    0  0.53730238413E+01  0.69183458498E+02 -0.20767671599E+02  0.13407556182E+03  0.11282614847E+03 0.  0.
         25    2    3    3    0    0 -0.53730238413E+01 -0.69183458498E+02 -0.30317686682E+01  0.14132429912E+03  0.12307780298E+03 0.  0.
          5    1    4    4  502    0 -0.39946535773E+02  0.76175238897E+02 -0.17192774066E+02  0.87841187499E+02  0.47000000000E+01 0.  1.
         -5    1    4    4    0  502  0.45319559614E+02 -0.69917803985E+01 -0.35748975329E+01  0.46234374324E+02  0.47000000000E+01 0.  1.
          5    1    5    5  503    0 -0.96602275414E+01 -0.20844194904E+01  0.52726468789E+02  0.53850118957E+02  0.47000000000E+01 0. -1.
         -5    1    5    5    0  503  0.42872037001E+01 -0.67099039008E+02 -0.55758237457E+02  0.87474180166E+02  0.47000000000E+01 0. -1.
<mgrwt>
<rscale>  0 0.27436959E+03</rscale>
<asrwt>0</asrwt>
<pdfrwt beam="1">  1        2 0.23015331E-01 0.27436959E+03</pdfrwt>
<pdfrwt beam="2">  1       -2 0.19353879E-01 0.27436959E+03</pdfrwt>
<totfact> 0.52185564E+03</totfact>
</mgrwt>
</event>
<event>
 9    1  0.2024718E-002  0.2745432E+03  0.7818608E-02  0.1098707E+00
         -1   -1    0    0    0  501 -0.00000000000E+00  0.00000000000E+00  0.65816867642E+02  0.65816867642E+02  0.00000000000E+00 0. -1.
          1   -1    0    0  501    0  0.00000000000E+00 -0.00000000000E+00 -0.28630195376E+03  0.28630195376E+03  0.00000000000E+00 0. -1.
         36    2    1    2    0    0  0.00000000000E+00 -0.14210854715E-13 -0.22048508612E+03  0.35211882140E+03  0.27454324101E+03 0.  0.
         25    2    3    3    0    0 -0.47754184833E+02 -0.40101992582E+02 -0.10657507699E+03  0.17136378737E+03  0.11882200389E+03 0.  0.
         25    2    3    3    0    0  0.47754184833E+02  0.40101992582E+02 -0.11391000913E+03  0.18075503403E+03  0.12573090380E+03 0.  0.
          5    1    4    4  502    0  0.35355422739E+02 -0.28441294289E+02 -0.17415543444E+02  0.48829338428E+02  0.47000000000E+01 0. -1.
         -5    1    4    4    0  502 -0.83109607572E+02 -0.11660698292E+02 -0.89159533545E+02  0.12253444894E+03  0.47000000000E+01 0. -1.
          5    1    5    5  503    0  0.86266514850E+02  0.52107445849E+01 -0.57489345009E+02  0.10390465934E+03  0.47000000000E+01 0. -1.
         -5    1    5    5    0  503 -0.38512330017E+02  0.34891247997E+02 -0.56420664118E+02  0.76850374688E+02  0.47000000000E+01 0. -1.
<mgrwt>
<rscale>  0 0.27454324E+03</rscale>
<asrwt>0</asrwt>
<pdfrwt beam="1">  1        1 0.44046455E-01 0.27454324E+03</pdfrwt>
<pdfrwt beam="2">  1       -1 0.10125672E-01 0.27454324E+03</pdfrwt>
<totfact> 0.55205909E+03</totfact>
</mgrwt>
</event>
<event>
 9    1  0.2024718E-002  0.2740658E+03  0.7818608E-02  0.1098975E+00
         -2   -1    0    0    0  501 -0.00000000000E+00  0.00000000000E+00  0.40703123959E+02  0.40703123959E+02  0.00000000000E+00 0. -1.
          2   -1    0    0  501    0  0.00000000000E+00 -0.00000000000E+00 -0.46134092961E+03  0.46134092961E+03  0.00000000000E+00 0. -1.
         36    2    1    2    0    0 -0.71054273576E-14  0.00000000000E+00 -0.42063780565E+03  0.50204405357E+03  0.27406580995E+03 0.  0.
         25    2    3    3    0    0  0.26481884845E+02 -0.53263344699E+02 -0.19660580991E+03  0.23759739120E+03  0.11941692386E+03 0.  0.
         25    2    3    3    0    0 -0.26481884845E+02  0.53263344699E+02 -0.22403199574E+03  0.26444666237E+03  0.12729268639E+03 0.  0.
          5    1    4    4  502    0  0.24549274133E+02  0.25716203286E+02 -0.13854534077E+02  0.38445130854E+02  0.47000000000E+01 0.  1.
         -5    1    4    4    0  502  0.19326107120E+01 -0.78979547985E+02 -0.18275127583E+03  0.19915226035E+03  0.47000000000E+01 0.  1.
          5    1    5    5  503    0 -0.62468174708E+02  0.27363875168E+02 -0.49737113845E+02  0.84539487870E+02  0.47000000000E+01 0. -1.
         -5    1    5    5    0  503  0.35986289864E+02  0.25899469531E+02 -0.17429488190E+03  0.17990717450E+03  0.47000000000E+01 0. -1.
<mgrwt>
<rscale>  0 0.27406581E+03</rscale>
<asrwt>0</asrwt>
<pdfrwt beam="1">  1        2 0.70975526E-01 0.27406581E+03</pdfrwt>
<pdfrwt beam="2">  1       -2 0.62620192E-02 0.27406581E+03</pdfrwt>
<totfact> 0.93824056E+03</totfact>
</mgrwt>
</event>
<event>
 9    1  0.2024718E-002  0.2733066E+03  0.7818608E-02  0.1099402E+00
          1   -1    0    0  501    0  0.00000000000E+00  0.00000000000E+00  0.10752036211E+04  0.10752036211E+04  0.00000000000E+00 0. -1.
         -1   -1    0    0    0  501 -0.00000000000E+00 -0.00000000000E+00 -0.17367986218E+02  0.17367986218E+02  0.00000000000E+00 0. -1.
         36    2    1    2    0    0  0.35527136788E-14  0.00000000000E+00  0.10578356349E+04  0.10925716073E+04  0.27330658004E+03 0.  0.
         25    2    3    3    0    0  0.30901483238E+02 -0.29448140946E+02  0.35525014868E+03  0.37735785487E+03  0.11989240103E+03 0.  0.
         25    2    3    3    0    0 -0.30901483238E+02  0.29448140946E+02  0.70258548622E+03  0.71521375247E+03  0.12681581761E+03 0.  0.
          5    1    4    4  502    0  0.95857046286E+01  0.13759421869E+02 -0.13681020352E+01  0.17469090605E+02  0.47000000000E+01 0.  1.
         -5    1    4    4    0  502  0.21315778609E+02 -0.43207562815E+02  0.35661825072E+03  0.35988876427E+03  0.47000000000E+01 0.  1.
          5    1    5    5  503    0 -0.46422385352E+02 -0.31591487494E+02  0.49597890999E+03  0.49916953943E+03  0.47000000000E+01 0.  1.
         -5    1    5    5    0  503  0.15520902114E+02  0.61039628440E+02  0.20660657623E+03  0.21604421303E+03  0.47000000000E+01 0.  1.
<mgrwt>
<rscale>  0 0.27330658E+03</rscale>
<asrwt>0</asrwt>
<pdfrwt beam="1">  1        1 0.16541589E+00 0.27330658E+03</pdfrwt>
<pdfrwt beam="2">  1       -1 0.26719987E-02 0.27330658E+03</pdfrwt>
<totfact> 0.62921725E+03</totfact>
</mgrwt>
</event>
<event>
 9    1  0.2024718E-002  0.2766981E+03  0.7818608E-02  0.1097506E+00
         -2   -1    0    0    0  501 -0.00000000000E+00  0.00000000000E+00  0.52502374940E+03  0.52502374940E+03  0.00000000000E+00 0. -1.
          2   -1    0    0  501    0  0.00000000000E+00 -0.00000000000E+00 -0.36456380094E+02  0.36456380094E+02  0.00000000000E+00 0. -1.
         36    2    1    2    0    0 -0.35527136788E-14  0.00000000000E+00  0.48856736931E+03  0.56148012949E+03  0.27669814142E+03 0.  0.
         25    2    3    3    0    0 -0.23509210179E+01 -0.62928213232E+02  0.17513226802E+03  0.22442551712E+03  0.12541935489E+03 0.  0.
         25    2    3    3    0    0  0.23509210179E+01  0.62928213232E+02  0.31343510129E+03  0.33705461238E+03  0.10676498562E+03 0.  0.
          5    1    4    4  502    0 -0.54684805557E+02 -0.59818337678E+02  0.13765101399E+03  0.15980786318E+03  0.47000000000E+01 0.  1.
         -5    1    4    4    0  502  0.52333884539E+02 -0.31098755541E+01  0.37481254024E+02  0.64617653936E+02  0.47000000000E+01 0.  1.
          5    1    5    5  503    0 -0.99425375801E+01 -0.12120415090E+02  0.20630263086E+01  0.16495593140E+02  0.47000000000E+01 0. -1.
         -5    1    5    5    0  503  0.12293458598E+02  0.75048628322E+02  0.31137207498E+03  0.32055901924E+03  0.47000000000E+01 0. -1.
<mgrwt>
<rscale>  0 0.27669814E+03</rscale>
<asrwt>0</asrwt>
<pdfrwt beam="1">  1        2 0.56086742E-02 0.27669814E+03</pdfrwt>
<pdfrwt beam="2">  1       -2 0.80772879E-01 0.27669814E+03</pdfrwt>
<totfact> 0.18796266E+03</totfact>
</mgrwt>
</event>
<event>
 9    1  0.2024718E-002  0.2747376E+03  0.7818608E-02  0.1098598E+00
          1   -1    0    0  501    0  0.00000000000E+00  0.00000000000E+00  0.14680811669E+03  0.14680811669E+03  0.00000000000E+00 0.  1.
         -1   -1    0    0    0  501 -0.00000000000E+00 -0.00000000000E+00 -0.12853637909E+03  0.12853637909E+03  0.00000000000E+00 0.  1.
         36    2    1    2    0    0  0.00000000000E+00  0.00000000000E+00  0.18271737601E+02  0.27534449578E+03  0.27473757472E+03 0.  0.
         25    2    3    3    0    0  0.66513310171E+01 -0.53573233496E+02 -0.39389034946E+01  0.13841328755E+03  0.12739070476E+03 0.  0.
         25    2    3    3    0    0 -0.66513310171E+01  0.53573233496E+02  0.22210641096E+02  0.13693120823E+03  0.12386489276E+03 0.  0.
          5    1    4    4  502    0  0.48463922359E+02 -0.71019624415E+02 -0.22858727194E+02  0.89090685435E+02  0.47000000000E+01 0. -1.
         -5    1    4    4    0  502 -0.41812591342E+02  0.17446390918E+02  0.18919823699E+02  0.49322602117E+02  0.47000000000E+01 0. -1.
          5    1    5    5  503    0 -0.55866261605E+02 -0.68430937376E+01  0.31264254249E+01  0.56566170575E+02  0.47000000000E+01 0.  1.
         -5    1    5    5    0  503  0.49214930588E+02  0.60416327234E+02  0.19084215671E+02  0.80365037653E+02  0.47000000000E+01 0.  1.
<mgrwt>
<rscale>  0 0.27473757E+03</rscale>
<asrwt>0</asrwt>
<pdfrwt beam="1">  1        1 0.22585864E-01 0.27473757E+03</pdfrwt>
<pdfrwt beam="2">  1       -1 0.19774828E-01 0.27473757E+03</pdfrwt>
<totfact> 0.44511371E+03</totfact>
</mgrwt>
</event>
<event>
 9    1  0.2024718E-002  0.2870056E+03  0.7818608E-02  0.1091923E+00
          2   -1    0    0  501    0  0.00000000000E+00  0.00000000000E+00  0.22144135920E+03  0.22144135920E+03  0.00000000000E+00 0.  1.
         -2   -1    0    0    0  501 -0.00000000000E+00 -0.00000000000E+00 -0.92995486314E+02  0.92995486314E+02  0.00000000000E+00 0.  1.
         36    2    1    2    0    0 -0.14210854715E-13 -0.71054273576E-14  0.12844587289E+03  0.31443684551E+03  0.28700555318E+03 0.  0.
         25    2    3    3    0    0  0.58358571963E+02 -0.36587910404E+02  0.75324600544E+02  0.16003393723E+03  0.12325853930E+03 0.  0.
         25    2    3    3    0    0 -0.58358571963E+02  0.36587910404E+02  0.53121272342E+02  0.15440290828E+03  0.12756955123E+03 0.  0.
          5    1    4    4  502    0  0.17616879526E+01 -0.71428210765E+02  0.22653780512E+02  0.75102440766E+02  0.47000000000E+01 0. -1.
         -5    1    4    4    0  502  0.56596884011E+02  0.34840300362E+02  0.52670820032E+02  0.84931496466E+02  0.47000000000E+01 0. -1.
          5    1    5    5  503    0  0.20582293794E+02  0.57558739410E+02  0.10666234938E+02  0.62229397137E+02  0.47000000000E+01 0. -1.
         -5    1    5    5    0  503 -0.78940865757E+02 -0.20970829006E+02  0.42455037404E+02  0.92173511145E+02  0.47000000000E+01 0. -1.
<mgrwt>
<rscale>  0 0.28700555E+03</rscale>
<asrwt>0</asrwt>
<pdfrwt beam="1">  1        2 0.34067901E-01 0.28700555E+03</pdfrwt>
<pdfrwt beam="2">  1       -2 0.14306998E-01 0.28700555E+03</pdfrwt>
<totfact> 0.56143368E+03</totfact>
</mgrwt>
</event>
<event>
 9    1  0.2024718E-002  0.2736031E+03  0.7818608E-02  0.1099235E+00
          2   -1    0    0  501    0  0.00000000000E+00  0.00000000000E+00  0.30887271660E+04  0.30887271660E+04  0.00000000000E+00 0.  1.
         -2   -1    0    0    0  501 -0.00000000000E+00 -0.00000000000E+00 -0.60590220382E+01  0.60590220382E+01  0.00000000000E+00 0.  1.
         36    2    1    2    0    0  0.00000000000E+00 -0.71054273576E-14  0.30826681440E+04  0.30947861881E+04  0.27360311379E+03 0.  0.
         25    2    3    3    0    0 -0.28708302905E+02 -0.49357902962E+02  0.12072540290E+04  0.12150916479E+04  0.12539957417E+03 0.  0.
         25    2    3    3    0    0  0.28708302905E+02  0.49357902962E+02  0.18754141150E+04  0.18796945401E+04  0.11319492968E+03 0.  0.
          5    1    4    4  502    0  0.47690018693E+02 -0.62453151374E+01  0.34373976649E+03  0.34712023696E+03  0.47000000000E+01 0. -1.
         -5    1    4    4    0  502 -0.76398321598E+02 -0.43112587825E+02  0.86351426248E+03  0.86797141098E+03  0.47000000000E+01 0. -1.
          5    1    5    5  503    0  0.54476667280E+02  0.18007786703E+02  0.44641252397E+03  0.45010911924E+03  0.47000000000E+01 0. -1.
         -5    1    5    5    0  503 -0.25768364376E+02  0.31350116259E+02  0.14290015911E+04  0.14295854209E+04  0.47000000000E+01 0. -1.
<mgrwt>
<rscale>  0 0.27360311E+03</rscale>
<asrwt>0</asrwt>
<pdfrwt beam="1">  1        2 0.47518754E+00 0.27360311E+03</pdfrwt>
<pdfrwt beam="2">  1       -2 0.93215971E-03 0.27360311E+03</pdfrwt>
<totfact> 0.43544402E+03</totfact>
</mgrwt>
</event>
<event>
 9    1  0.2024718E-002  0.2747434E+03  0.7818608E-02  0.1098595E+00
          2   -1    0    0  501    0  0.00000000000E+00  0.00000000000E+00  0.53077071802E+03  0.53077071802E+03  0.00000000000E+00 0.  1.
         -2   -1    0    0    0  501 -0.00000000000E+00 -0.00000000000E+00 -0.35553932909E+02  0.35553932909E+02  0.00000000000E+00 0.  1.
         36    2    1    2    0    0  0.00000000000E+00 -0.71054273576E-14  0.49521678511E+03  0.56632465093E+03  0.27474341847E+03 0.  0.
         25    2    3    3    0    0  0.10742240117E+02  0.29567617148E+02  0.32490483627E+03  0.34988474164E+03  0.12596245510E+03 0.  0.
         25    2    3    3    0    0 -0.10742240117E+02 -0.29567617148E+02  0.17031194884E+03  0.21643990929E+03  0.12980922428E+03 0.  0.
          5    1    4    4  502    0  0.23162571931E+02  0.72664067604E+02  0.13930991609E+03  0.15888962892E+03  0.47000000000E+01 0.  1.
         -5    1    4    4    0  502 -0.12420331815E+02 -0.43096450455E+02  0.18559492018E+03  0.19099511272E+03  0.47000000000E+01 0.  1.
          5    1    5    5  503    0  0.55891390402E+02 -0.27826568592E+02  0.55855630715E+02  0.83905345022E+02  0.47000000000E+01 0. -1.
         -5    1    5    5    0  503 -0.66633630519E+02 -0.17410485561E+01  0.11445631813E+03  0.13253456427E+03  0.47000000000E+01 0. -1.
<mgrwt>
<rscale>  0 0.27474342E+03</rscale>
<asrwt>0</asrwt>
<pdfrwt beam="1">  1        2 0.81657028E-01 0.27474342E+03</pdfrwt>
<pdfrwt beam="2">  1       -2 0.54698362E-02 0.27474342E+03</pdfrwt>
<totfact> 0.98703198E+03</totfact>
</mgrwt>
</event>
<event>
 9    1  0.2024718E-002  0.2745580E+03  0.7818608E-02  0.1098699E+00
         -2   -1    0    0    0  501 -0.00000000000E+00  0.00000000000E+00  0.55033644116E+02  0.55033644116E+02  0.00000000000E+00 0. -1.
          2   -1    0    0  501    0  0.00000000000E+00 -0.00000000000E+00 -0.34243630918E+03  0.34243630918E+03  0.00000000000E+00 0. -1.
         36    2    1    2    0    0  0.71054273576E-14  0.17763568394E-14 -0.28740266507E+03  0.39746995330E+03  0.27455795725E+03 0.  0.
         25    2    3    3    0    0  0.56010094071E+02 -0.61250939874E+01 -0.10785449945E+03  0.17131552927E+03  0.12058926197E+03 0.  0.
         25    2    3    3    0    0 -0.56010094071E+02  0.61250939874E+01 -0.17954816562E+03  0.22615442403E+03  0.12543377662E+03 0.  0.
          5    1    4    4  502    0  0.86744386869E+02  0.84426242489E+01 -0.10546524225E+03  0.13689731144E+03  0.47000000000E+01 0.  1.
         -5    1    4    4    0  502 -0.30734292797E+02 -0.14567718236E+02 -0.23892572016E+01  0.34418217826E+02  0.47000000000E+01 0.  1.
          5    1    5    5  503    0  0.24273478908E+02 -0.19928979635E+02 -0.11635168251E+03  0.12060750404E+03  0.47000000000E+01 0. -1.
         -5    1    5    5    0  503 -0.80283572979E+02  0.26054073622E+02 -0.63196483105E+02  0.10554691999E+03  0.47000000000E+01 0. -1.
<mgrwt>
<rscale>  0 0.27455796E+03</rscale>
<asrwt>0</asrwt>
<pdfrwt beam="1">  1        2 0.52682509E-01 0.27455796E+03</pdfrwt>
<pdfrwt beam="2">  1       -2 0.84667145E-02 0.27455796E+03</pdfrwt>
<totfact> 0.81247316E+03</totfact>
</mgrwt>
</event>
<event>
 9    1  0.2024718E-002  0.2750384E+03  0.7818608E-02  0.1098430E+00
          3   -1    0    0  501    0  0.00000000000E+00  0.00000000000E+00  0.26955888728E+03  0.26955888728E+03  0.00000000000E+00 0.  1.
         -3   -1    0    0    0  501 -0.00000000000E+00 -0.00000000000E+00 -0.70157304520E+02  0.70157304520E+02  0.00000000000E+00 0.  1.
         36    2    1    2    0    0  0.00000000000E+00  0.00000000000E+00  0.19940158276E+03  0.33971619180E+03  0.27503836053E+03 0.  0.
         25    2    3    3    0    0 -0.41785076539E+02  0.46989039614E+02  0.10672368138E+03  0.17372595576E+03  0.12180640818E+03 0.  0.
         25    2    3    3    0    0  0.41785076539E+02 -0.46989039614E+02  0.92677901381E+02  0.16599023604E+03  0.12251368328E+03 0.  0.
          5    1    4    4  502    0 -0.80992121269E+02  0.79304486096E+01  0.61913424156E+02  0.10236199399E+03  0.47000000000E+01 0. -1.
         -5    1    4    4    0  502  0.39207044730E+02  0.39058591004E+02  0.44810257224E+02  0.71363961775E+02  0.47000000000E+01 0. -1.
          5    1    5    5  503    0  0.54577268644E+02  0.53305459377E+01 -0.40406535962E+01  0.55186138243E+02  0.47000000000E+01 0.  1.
         -5    1    5    5    0  503 -0.12792192106E+02 -0.52319585552E+02  0.96718554977E+02  0.11080409779E+03  0.47000000000E+01 0.  1.
<mgrwt>
<rscale>  0 0.27503836E+03</rscale>
<asrwt>0</asrwt>
<pdfrwt beam="1">  1        3 0.41470598E-01 0.27503836E+03</pdfrwt>
<pdfrwt beam="2">  1       -3 0.10793432E-01 0.27503836E+03</pdfrwt>
<totfact> 0.95615389E+02</totfact>
</mgrwt>
</event>
<event>
 9    1  0.2024718E-002  0.2751913E+03  0.7818608E-02  0.1098345E+00
          2   -1    0    0  501    0  0.00000000000E+00  0.00000000000E+00  0.20896878078E+04  0.20896878078E+04  0.00000000000E+00 0. -1.
         -2   -1    0    0    0  501 -0.00000000000E+00 -0.00000000000E+00 -0.90599948066E+01  0.90599948066E+01  0.00000000000E+00 0. -1.
         36    2    1    2    0    0  0.00000000000E+00  0.00000000000E+00  0.20806278130E+04  0.20987478026E+04  0.27519128392E+03 0.  0.
         25    2    3    3    0    0 -0.41833207958E+02  0.16429831099E+02  0.13024329766E+04  0.13091240555E+04  0.12431483195E+03 0.  0.
         25    2    3    3    0    0  0.41833207958E+02 -0.16429831099E+02  0.77819483633E+03  0.78962374707E+03  0.12608926208E+03 0.  0.
          5    1    4    4  502    0 -0.84329129357E+02  0.12265464309E+02  0.70466610702E+03  0.70981564934E+03  0.47000000000E+01 0. -1.
         -5    1    4    4    0  502  0.42495921398E+02  0.41643667899E+01  0.59776686961E+03  0.59930840616E+03  0.47000000000E+01 0. -1.
          5    1    5    5  503    0  0.12923858356E+02  0.11303143392E+02  0.10092440128E+02  0.20463003521E+02  0.47000000000E+01 0.  1.
         -5    1    5    5    0  503  0.28909349602E+02 -0.27732974491E+02  0.76810239620E+03  0.76916074355E+03  0.47000000000E+01 0.  1.
<mgrwt>
<rscale>  0 0.27519128E+03</rscale>
<asrwt>0</asrwt>
<pdfrwt beam="1">  1        2 0.32149005E+00 0.27519128E+03</pdfrwt>
<pdfrwt beam="2">  1       -2 0.13938470E-02 0.27519128E+03</pdfrwt>
<totfact> 0.87521277E+03</totfact>
</mgrwt>
</event>
<event>
 9    1  0.2024718E-002  0.2764018E+03  0.7818608E-02  0.1097671E+00
          1   -1    0    0  501    0  0.00000000000E+00  0.00000000000E+00  0.14017838506E+02  0.14017838506E+02  0.00000000000E+00 0.  1.
         -1   -1    0    0    0  501 -0.00000000000E+00 -0.00000000000E+00 -0.13625129592E+04  0.13625129592E+04  0.00000000000E+00 0.  1.
         36    2    1    2    0    0  0.00000000000E+00  0.00000000000E+00 -0.13484951207E+04  0.13765307977E+04  0.27640178454E+03 0.  0.
         25    2    3    3    0    0  0.36326526267E+02 -0.32061061576E+02 -0.31294222180E+03  0.33271799331E+03  0.10208281299E+03 0.  0.
         25    2    3    3    0    0 -0.36326526267E+02  0.32061061576E+02 -0.10355528989E+04  0.10438128044E+04  0.12176960224E+03 0.  0.
          5    1    4    4  502    0  0.11313212134E+02 -0.67523028346E+02 -0.20914979902E+03  0.22012059548E+03  0.47000000000E+01 0. -1.
         -5    1    4    4    0  502  0.25013314133E+02  0.35461966770E+02 -0.10379242279E+03  0.11259739783E+03  0.47000000000E+01 0. -1.
          5    1    5    5  503    0  0.28483360920E+00  0.55625249631E+00 -0.89690175312E+03  0.89691428537E+03  0.47000000000E+01 0.  1.
         -5    1    5    5    0  503 -0.36611359876E+02  0.31504809080E+02 -0.13865114574E+03  0.14689851899E+03  0.47000000000E+01 0.  1.
<mgrwt>
<rscale>  0 0.27640178E+03</rscale>
<asrwt>0</asrwt>
<pdfrwt beam="1">  1        1 0.21565906E-02 0.27640178E+03</pdfrwt>
<pdfrwt beam="2">  1       -1 0.20961737E+00 0.27640178E+03</pdfrwt>
<totfact> 0.78374440E+02</totfact>
</mgrwt>
</event>
<event>
 9    1  0.2024718E-002  0.2687195E+03  0.7818608E-02  0.1102015E+00
          2   -1    0    0  501    0  0.00000000000E+00  0.00000000000E+00  0.20143254422E+03  0.20143254422E+03  0.00000000000E+00 0. -1.
         -2   -1    0    0    0  501 -0.00000000000E+00 -0.00000000000E+00 -0.89620783298E+02  0.89620783298E+02  0.00000000000E+00 0. -1.
         36    2    1    2    0    0  0.00000000000E+00  0.00000000000E+00  0.11181176092E+03  0.29105332751E+03  0.26871949981E+03 0.  0.
         25    2    3    3    0    0  0.40015507468E+02  0.48237829925E+01  0.53077848291E+02  0.14203920602E+03  0.12543272439E+03 0.  0.
         25    2    3    3    0    0 -0.40015507468E+02 -0.48237829925E+01  0.58733912627E+02  0.14901412149E+03  0.13088554615E+03 0.  0.
          5    1    4    4  502    0  0.41086539966E+02  0.41976402430E+02 -0.18067062144E+02  0.61633033853E+02  0.47000000000E+01 0.  1.
         -5    1    4    4    0  502 -0.10710324980E+01 -0.37152619437E+02  0.71144910435E+02  0.80406172167E+02  0.47000000000E+01 0.  1.
          5    1    5    5  503    0  0.18344422150E+01  0.27990391810E+02  0.84915444991E+02  0.89551940291E+02  0.47000000000E+01 0. -1.
         -5    1    5    5    0  503 -0.41849949683E+02 -0.32814174803E+02 -0.26181532364E+02  0.59462181203E+02  0.47000000000E+01 0. -1.
<mgrwt>
<rscale>  0 0.26871950E+03</rscale>
<asrwt>0</asrwt>
<pdfrwt beam="1">  1        2 0.30989622E-01 0.26871950E+03</pdfrwt>
<pdfrwt beam="2">  1       -2 0.13787813E-01 0.26871950E+03</pdfrwt>
<totfact> 0.65996565E+03</totfact>
</mgrwt>
</event>
<event>
 9    1  0.2024718E-002  0.2751302E+03  0.7818608E-02  0.1098379E+00
         -1   -1    0    0    0  501 -0.00000000000E+00  0.00000000000E+00  0.12516036972E+02  0.12516036972E+02  0.00000000000E+00 0.  1.
          1   -1    0    0  501    0  0.00000000000E+00 -0.00000000000E+00 -0.15119923357E+04  0.15119923357E+04  0.00000000000E+00 0.  1.
         36    2    1    2    0    0  0.00000000000E+00  0.71054273576E-14 -0.14994762987E+04  0.15245083726E+04  0.27513016537E+03 0.  0.
         25    2    3    3    0    0  0.34088959243E+01  0.42307255240E+02 -0.13052368810E+04  0.13116310980E+04  0.12219368694E+03 0.  0.
         25    2    3    3    0    0 -0.34088959243E+01 -0.42307255240E+02 -0.19423941766E+03  0.21287727467E+03  0.76067458748E+02 0.  0.
          5    1    4    4  502    0  0.24795156126E+02  0.68189289903E+02 -0.11682872539E+04  0.11705476396E+04  0.47000000000E+01 0. -1.
         -5    1    4    4    0  502 -0.21386260202E+02 -0.25882034663E+02 -0.13694962714E+03  0.14108345834E+03  0.47000000000E+01 0. -1.
          5    1    5    5  503    0  0.16533871037E+02 -0.48245040924E+02 -0.18020705219E+03  0.18734360016E+03  0.47000000000E+01 0.  1.
         -5    1    5    5    0  503 -0.19942766962E+02  0.59377856841E+01 -0.14032365475E+02  0.25533674505E+02  0.47000000000E+01 0.  1.
<mgrwt>
<rscale>  0 0.27513017E+03</rscale>
<asrwt>0</asrwt>
<pdfrwt beam="1">  1        1 0.23261432E+00 0.27513017E+03</pdfrwt>
<pdfrwt beam="2">  1       -1 0.19255432E-02 0.27513017E+03</pdfrwt>
<totfact> 0.50932301E+03</totfact>
</mgrwt>
</event>
<event>
 9    1  0.2024718E-002  0.2753542E+03  0.7818608E-02  0.1098254E+00
         -4   -1    0    0    0  501 -0.00000000000E+00  0.00000000000E+00  0.16389354926E+02  0.16389354926E+02  0.00000000000E+00 0.  1.
          4   -1    0    0  501    0  0.00000000000E+00 -0.00000000000E+00 -0.11565426602E+04  0.11565426602E+04  0.00000000000E+00 0.  1.
         36    2    1    2    0    0  0.35527136788E-14  0.00000000000E+00 -0.11401533053E+04  0.11729320151E+04  0.27535423109E+03 0.  0.
         25    2    3    3    0    0  0.12740595366E+02  0.23627657381E+02 -0.35563422650E+03  0.37774806664E+03  0.12448819150E+03 0.  0.
         25    2    3    3    0    0 -0.12740595366E+02 -0.23627657381E+02 -0.78451907876E+03  0.79518394848E+03  0.12699109426E+03 0.  0.
          5    1    4    4  502    0 -0.20406747904E+02  0.13752589468E+02 -0.33747195816E+03  0.33840062297E+03  0.47000000000E+01 0. -1.
         -5    1    4    4    0  502  0.33147343269E+02  0.98750679129E+01 -0.18162268342E+02  0.39347443671E+02  0.47000000000E+01 0. -1.
          5    1    5    5  503    0  0.21089510138E+02 -0.41104717316E+02 -0.70860864966E+03  0.71012863172E+03  0.47000000000E+01 0. -1.
         -5    1    5    5    0  503 -0.33830105503E+02  0.17477059935E+02 -0.75910429102E+02  0.85055316758E+02  0.47000000000E+01 0. -1.
<mgrwt>
<rscale>  0 0.27535423E+03</rscale>
<asrwt>0</asrwt>
<pdfrwt beam="1">  1        4 0.17792963E+00 0.27535423E+03</pdfrwt>
<pdfrwt beam="2">  1       -4 0.25214394E-02 0.27535423E+03</pdfrwt>
<totfact> 0.26586982E+02</totfact>
</mgrwt>
</event>
<event>
 9    1  0.2024718E-002  0.2740963E+03  0.7818608E-02  0.1098958E+00
          2   -1    0    0  501    0  0.00000000000E+00  0.00000000000E+00  0.15096890856E+02  0.15096890856E+02  0.00000000000E+00 0. -1.
         -2   -1    0    0    0  501 -0.00000000000E+00 -0.00000000000E+00 -0.12441104180E+04  0.12441104180E+04  0.00000000000E+00 0. -1.
         36    2    1    2    0    0 -0.71054273576E-14  0.00000000000E+00 -0.12290135272E+04  0.12592073089E+04  0.27409632755E+03 0.  0.
         25    2    3    3    0    0  0.35440560005E+02 -0.34989987579E+02 -0.47005507935E+03  0.48868997791E+03  0.12403944679E+03 0.  0.
         25    2    3    3    0    0 -0.35440560005E+02  0.34989987579E+02 -0.75895844781E+03  0.77051733096E+03  0.12328300488E+03 0.  0.
          5    1    4    4  502    0 -0.33775786358E+02  0.91356726052E+01 -0.53501515746E+02  0.64099660258E+02  0.47000000000E+01 0. -1.
         -5    1    4    4    0  502  0.69216346363E+02 -0.44125660184E+02 -0.41655356360E+03  0.42459031765E+03  0.47000000000E+01 0. -1.
          5    1    5    5  503    0 -0.40375821326E+02  0.24407002590E+02 -0.92531545024E+02  0.10397156125E+03  0.47000000000E+01 0. -1.
         -5    1    5    5    0  503  0.49352613209E+01  0.10582984989E+02 -0.66642690278E+03  0.66654576972E+03  0.47000000000E+01 0. -1.
<mgrwt>
<rscale>  0 0.27409633E+03</rscale>
<asrwt>0</asrwt>
<pdfrwt beam="1">  1        2 0.23225991E-02 0.27409633E+03</pdfrwt>
<pdfrwt beam="2">  1       -2 0.19140156E+00 0.27409633E+03</pdfrwt>
<totfact> 0.72909618E+02</totfact>
</mgrwt>
</event>
<event>
 9    1  0.2024718E-002  0.2743736E+03  0.7818608E-02  0.1098802E+00
         -1   -1    0    0    0  501 -0.00000000000E+00  0.00000000000E+00  0.21178108707E+02  0.21178108707E+02  0.00000000000E+00 0.  1.
          1   -1    0    0  501    0  0.00000000000E+00 -0.00000000000E+00 -0.88866387621E+03  0.88866387621E+03  0.00000000000E+00 0.  1.
         36    2    1    2    0    0  0.71054273576E-14 -0.71054273576E-14 -0.86748576750E+03  0.90984198491E+03  0.27437361516E+03 0.  0.
         25    2    3    3    0    0  0.61014972027E+02  0.40812648452E+01 -0.37240619581E+03  0.39752265471E+03  0.12489356589E+03 0.  0.
         25    2    3    3    0    0 -0.61014972027E+02 -0.40812648452E+01 -0.49507957169E+03  0.51231933020E+03  0.11673829815E+03 0.  0.
          5    1    4    4  502    0  0.70890376174E+02  0.42800847349E+02 -0.14906863184E+03  0.17058987358E+03  0.47000000000E+01 0. -1.
         -5    1    4    4    0  502 -0.98754041468E+01 -0.38719582503E+02 -0.22333756396E+03  0.22693278113E+03  0.47000000000E+01 0. -1.
          5    1    5    5  503    0 -0.35190584035E+02  0.42804779675E+02 -0.39343359206E+03  0.39734457053E+03  0.47000000000E+01 0. -1.
         -5    1    5    5    0  503 -0.25824387992E+02 -0.46886044520E+02 -0.10164597963E+03  0.11497475967E+03  0.47000000000E+01 0. -1.
<mgrwt>
<rscale>  0 0.27437362E+03</rscale>
<asrwt>0</asrwt>
<pdfrwt beam="1">  1        1 0.13671755E+00 0.27437362E+03</pdfrwt>
<pdfrwt beam="2">  1       -1 0.32581699E-02 0.27437362E+03</pdfrwt>
<totfact> 0.64983417E+03</totfact>
</mgrwt>
</event>
<event>
 9    1  0.2024718E-002  0.2741552E+03  0.7818608E-02  0.1098925E+00
          1   -1    0    0  501    0  0.00000000000E+00  0.00000000000E+00  0.65354704062E+03  0.65354704062E+03  0.00000000000E+00 0.  1.
         -1   -1    0    0    0  501 -0.00000000000E+00 -0.00000000000E+00 -0.28751212242E+02  0.28751212242E+02  0.00000000000E+00 0.  1.
         36    2    1    2    0    0 -0.71054273576E-14  0.71054273576E-14  0.62479582838E+03  0.68229825286E+03  0.27415520914E+03 0.  0.
         25    2    3    3    0    0  0.31647808765E+02 -0.14244180750E+02  0.19009249179E+03  0.22895281970E+03  0.12279966502E+03 0.  0.
         25    2    3    3    0    0 -0.31647808765E+02  0.14244180750E+02  0.43470333659E+03  0.45334543316E+03  0.12389758045E+03 0.  0.
          5    1    4    4  502    0  0.55599374279E+02 -0.20203229233E+02  0.29250019784E+02  0.66159765334E+02  0.47000000000E+01 0. -1.
         -5    1    4    4    0  502 -0.23951565515E+02  0.59590484828E+01  0.16084247201E+03  0.16279305437E+03  0.47000000000E+01 0. -1.
          5    1    5    5  503    0 -0.38637124210E+02  0.63086918754E+02  0.19596460086E+03  0.20951611269E+03  0.47000000000E+01 0.  1.
         -5    1    5    5    0  503  0.69893154453E+01 -0.48842738003E+02  0.23873873573E+03  0.24382932048E+03  0.47000000000E+01 0.  1.
<mgrwt>
<rscale>  0 0.27415521E+03</rscale>
<asrwt>0</asrwt>
<pdfrwt beam="1">  1        1 0.10054569E+00 0.27415521E+03</pdfrwt>
<pdfrwt beam="2">  1       -1 0.44232639E-02 0.27415521E+03</pdfrwt>
<totfact> 0.65691286E+03</totfact>
</mgrwt>
</event>
<event>
 9    1  0.2024718E-002  0.2734396E+03  0.7818608E-02  0.1099327E+00
         -1   -1    0    0    0  501 -0.00000000000E+00  0.00000000000E+00  0.10790911321E+03  0.10790911321E+03  0.00000000000E+00 0.  1.
          1   -1    0    0  501    0  0.00000000000E+00 -0.00000000000E+00 -0.17322267521E+03  0.17322267521E+03  0.00000000000E+00 0.  1.
         36    2    1    2    0    0  0.71054273576E-14  0.00000000000E+00 -0.65313561991E+02  0.28113178842E+03  0.27343961140E+03 0.  0.
         25    2    3    3    0    0  0.20247600225E+02  0.96590869707E+01  0.75260957330E+01  0.12753729769E+03  0.12532301030E+03 0.  0.
         25    2    3    3    0    0 -0.20247600225E+02 -0.96590869707E+01 -0.72839657724E+02  0.15359449073E+03  0.13335062268E+03 0.  0.
          5    1    4    4  502    0  0.67952018464E+01  0.54282875513E+01  0.66238639264E+02  0.66972295805E+02  0.47000000000E+01 0. -1.
         -5    1    4    4    0  502  0.13452398379E+02  0.42307994194E+01 -0.58712543531E+02  0.60565001888E+02  0.47000000000E+01 0. -1.
          5    1    5    5  503    0  0.21652874825E+02  0.43399614615E+02 -0.70603147123E+02  0.85786175580E+02  0.47000000000E+01 0. -1.
         -5    1    5    5    0  503 -0.41900475050E+02 -0.53058701586E+02 -0.22365106006E+01  0.67808315146E+02  0.47000000000E+01 0. -1.
<mgrwt>
<rscale>  0 0.27343961E+03</rscale>
<asrwt>0</asrwt>
<pdfrwt beam="1">  1        1 0.26649642E-01 0.27343961E+03</pdfrwt>
<pdfrwt beam="2">  1       -1 0.16601402E-01 0.27343961E+03</pdfrwt>
<totfact> 0.47781154E+03</totfact>
</mgrwt>
</event>
<event>
 9    1  0.2024718E-002  0.2733759E+03  0.7818608E-02  0.1099363E+00
         -4   -1    0    0    0  501 -0.00000000000E+00  0.00000000000E+00  0.29441696419E+02  0.29441696419E+02  0.00000000000E+00 0.  1.
          4   -1    0    0  501    0  0.00000000000E+00 -0.00000000000E+00 -0.63459639723E+03  0.63459639723E+03  0.00000000000E+00 0.  1.
         36    2    1    2    0    0 -0.53290705182E-14  0.71054273576E-14 -0.60515470081E+03  0.66403809365E+03  0.27337589123E+03 0.  0.
         25    2    3    3    0    0 -0.15374160698E+02 -0.32726193676E+02 -0.23543890461E+03  0.27033891776E+03  0.12784476556E+03 0.  0.
         25    2    3    3    0    0  0.15374160698E+02  0.32726193676E+02 -0.36971579619E+03  0.39369917588E+03  0.13039134391E+03 0.  0.
          5    1    4    4  502    0  0.24801864591E+02 -0.72111559504E+02 -0.13519212773E+03  0.15528751045E+03  0.47000000000E+01 0.  1.
         -5    1    4    4    0  502 -0.40176025289E+02  0.39385365827E+02 -0.10024677688E+03  0.11505140731E+03  0.47000000000E+01 0.  1.
          5    1    5    5  503    0 -0.74789561792E+01  0.35689131800E+02 -0.36830774594E+03  0.37013826421E+03  0.47000000000E+01 0. -1.
         -5    1    5    5    0  503  0.22853116877E+02 -0.29629381231E+01 -0.14080502551E+01  0.23560911673E+02  0.47000000000E+01 0. -1.
<mgrwt>
<rscale>  0 0.27337589E+03</rscale>
<asrwt>0</asrwt>
<pdfrwt beam="1">  1        4 0.97630205E-01 0.27337589E+03</pdfrwt>
<pdfrwt beam="2">  1       -4 0.45294922E-02 0.27337589E+03</pdfrwt>
<totfact> 0.47332624E+02</totfact>
</mgrwt>
</event>
<event>
 9    1  0.2024718E-002  0.2747917E+03  0.7818608E-02  0.1098568E+00
         -2   -1    0    0    0  501 -0.00000000000E+00  0.00000000000E+00  0.11414697705E+02  0.11414697705E+02  0.00000000000E+00 0.  1.
          2   -1    0    0  501    0  0.00000000000E+00 -0.00000000000E+00 -0.16537992919E+04  0.16537992919E+04  0.00000000000E+00 0.  1.
         36    2    1    2    0    0  0.71054273576E-14  0.00000000000E+00 -0.16423845942E+04  0.16652139896E+04  0.27479169552E+03 0.  0.
         25    2    3    3    0    0  0.32272909529E+02  0.68919675185E+01 -0.61553763612E+03  0.63033352978E+03  0.13169942055E+03 0.  0.
         25    2    3    3    0    0 -0.32272909529E+02 -0.68919675185E+01 -0.10268469581E+04  0.10348804598E+04  0.12439393442E+03 0.  0.
          5    1    4    4  502    0 -0.28262364754E+02 -0.46686887462E+02 -0.25326384703E+03  0.25911984281E+03  0.47000000000E+01 0.  1.
         -5    1    4    4    0  502  0.60535274283E+02  0.53578854981E+02 -0.36227378909E+03  0.37121368697E+03  0.47000000000E+01 0.  1.
          5    1    5    5  503    0  0.16342399237E+02  0.38799002666E+02 -0.16185981428E+03  0.16731146434E+03  0.47000000000E+01 0.  1.
         -5    1    5    5    0  503 -0.48615308766E+02 -0.45690970185E+02 -0.86498714378E+03  0.86756899547E+03  0.47000000000E+01 0.  1.
<mgrwt>
<rscale>  0 0.27479170E+03</rscale>
<asrwt>0</asrwt>
<pdfrwt beam="1">  1        2 0.25443056E+00 0.27479170E+03</pdfrwt>
<pdfrwt beam="2">  1       -2 0.17561081E-02 0.27479170E+03</pdfrwt>
<totfact> 0.10579230E+04</totfact>
</mgrwt>
</event>
<event>
 9    1  0.2024718E-002  0.2755685E+03  0.7818608E-02  0.1098134E+00
         -2   -1    0    0    0  501 -0.00000000000E+00  0.00000000000E+00  0.58811756404E+02  0.58811756404E+02  0.00000000000E+00 0. -1.
          2   -1    0    0  501    0  0.00000000000E+00 -0.00000000000E+00 -0.32280104539E+03  0.32280104539E+03  0.00000000000E+00 0. -1.
         36    2    1    2    0    0  0.14210854715E-13  0.17763568394E-14 -0.26398928899E+03  0.38161280180E+03  0.27556847751E+03 0.  0.
         25    2    3    3    0    0  0.44616328902E+02  0.14095663083E+02 -0.13533553547E+03  0.19576053971E+03  0.13348099949E+03 0.  0.
         25    2    3    3    0    0 -0.44616328902E+02 -0.14095663083E+02 -0.12865375352E+03  0.18585226209E+03  0.12569793358E+03 0.  0.
          5    1    4    4  502    0  0.39273595981E+02  0.16331638976E+02  0.14920555971E+02  0.45319430308E+02  0.47000000000E+01 0.  1.
         -5    1    4    4    0  502  0.53427329201E+01 -0.22359758931E+01 -0.15025609144E+03  0.15044110940E+03  0.47000000000E+01 0.  1.
          5    1    5    5  503    0  0.38660608170E+02 -0.60196222292E+01 -0.10116863711E+02  0.40685616712E+02  0.47000000000E+01 0. -1.
         -5    1    5    5    0  503 -0.83276937072E+02 -0.80760408536E+01 -0.11853688981E+03  0.14516664537E+03  0.47000000000E+01 0. -1.
<mgrwt>
<rscale>  0 0.27556848E+03</rscale>
<asrwt>0</asrwt>
<pdfrwt beam="1">  1        2 0.49661699E-01 0.27556848E+03</pdfrwt>
<pdfrwt beam="2">  1       -2 0.90479626E-02 0.27556848E+03</pdfrwt>
<totfact> 0.78010430E+03</totfact>
</mgrwt>
</event>
<event>
 9    1  0.2024718E-002  0.2754248E+03  0.7818608E-02  0.1098214E+00
          2   -1    0    0  501    0  0.00000000000E+00  0.00000000000E+00  0.11168344152E+04  0.11168344152E+04  0.00000000000E+00 0.  1.
         -2   -1    0    0    0  501 -0.00000000000E+00 -0.00000000000E+00 -0.16980765499E+02  0.16980765499E+02  0.00000000000E+00 0.  1.
         36    2    1    2    0    0  0.00000000000E+00  0.00000000000E+00  0.10998536497E+04  0.11338151807E+04  0.27542478687E+03 0.  0.
         25    2    3    3    0    0 -0.84430158458E+01 -0.31426195990E+02  0.30523397519E+03  0.32988590751E+03  0.12082235743E+03 0.  0.
         25    2    3    3    0    0  0.84430158458E+01  0.31426195990E+02  0.79461967455E+03  0.80392927323E+03  0.11757108000E+03 0.  0.
          5    1    4    4  502    0 -0.57966949750E+02  0.10049366742E+02  0.12162771574E+03  0.13519078471E+03  0.47000000000E+01 0. -1.
         -5    1    4    4    0  502  0.49523933904E+02 -0.41475562733E+02  0.18360625945E+03  0.19469512280E+03  0.47000000000E+01 0. -1.
          5    1    5    5  503    0  0.53258348052E+02 -0.69116580981E+01  0.23073026122E+03  0.23694464775E+03  0.47000000000E+01 0.  1.
         -5    1    5    5    0  503 -0.44815332206E+02  0.38337854089E+02  0.56388941333E+03  0.56698462547E+03  0.47000000000E+01 0.  1.
<mgrwt>
<rscale>  0 0.27542479E+03</rscale>
<asrwt>0</asrwt>
<pdfrwt beam="1">  1        2 0.17182062E+00 0.27542479E+03</pdfrwt>
<pdfrwt beam="2">  1       -2 0.26124263E-02 0.27542479E+03</pdfrwt>
<totfact> 0.11603411E+04</totfact>
</mgrwt>
</event>
<event>
 9    1  0.2024718E-002  0.2774356E+03  0.7818608E-02  0.1097098E+00
         -1   -1    0    0    0  501 -0.00000000000E+00  0.00000000000E+00  0.42265620559E+02  0.42265620559E+02  0.00000000000E+00 0. -1.
          1   -1    0    0  501    0  0.00000000000E+00 -0.00000000000E+00 -0.45527853937E+03  0.45527853937E+03  0.00000000000E+00 0. -1.
         36    2    1    2    0    0  0.00000000000E+00  0.00000000000E+00 -0.41301291881E+03  0.49754415993E+03  0.27743561411E+03 0.  0.
         25    2    3    3    0    0  0.35640214720E+02 -0.45194176942E+02 -0.16769025342E+03  0.21671956776E+03  0.12463792129E+03 0.  0.
         25    2    3    3    0    0 -0.35640214720E+02  0.45194176942E+02 -0.24532266540E+03  0.28082459217E+03  0.12396169924E+03 0.  0.
          5    1    4    4  502    0  0.77887103580E+01  0.29718214902E+02 -0.11905397789E+03  0.12304379691E+03  0.47000000000E+01 0.  1.
         -5    1    4    4    0  502  0.27851504362E+02 -0.74912391844E+02 -0.48636275528E+02  0.93675770849E+02  0.47000000000E+01 0.  1.
          5    1    5    5  503    0 -0.59580337197E+02  0.17244417409E+02 -0.44198268388E+02  0.76307034019E+02  0.47000000000E+01 0. -1.
         -5    1    5    5    0  503  0.23940122477E+02  0.27949759533E+02 -0.20112439701E+03  0.20451755816E+03  0.47000000000E+01 0. -1.
<mgrwt>
<rscale>  0 0.27743561E+03</rscale>
<asrwt>0</asrwt>
<pdfrwt beam="1">  1        1 0.70042856E-01 0.27743561E+03</pdfrwt>
<pdfrwt beam="2">  1       -1 0.65024028E-02 0.27743561E+03</pdfrwt>
<totfact> 0.60194427E+03</totfact>
</mgrwt>
</event>
<event>
 9    1  0.2024718E-002  0.2751193E+03  0.7818608E-02  0.1098385E+00
         -1   -1    0    0    0  501 -0.00000000000E+00  0.00000000000E+00  0.14543260558E+03  0.14543260558E+03  0.00000000000E+00 0.  1.
          1   -1    0    0  501    0  0.00000000000E+00 -0.00000000000E+00 -0.13011287629E+03  0.13011287629E+03  0.00000000000E+00 0.  1.
         36    2    1    2    0    0 -0.35527136788E-14  0.00000000000E+00  0.15319729290E+02  0.27554548186E+03  0.27511928044E+03 0.  0.
         25    2    3    3    0    0  0.15648184277E+02  0.42714771083E+01  0.62616721462E+02  0.14266169683E+03  0.12715500284E+03 0.  0.
         25    2    3    3    0    0 -0.15648184277E+02 -0.42714771083E+01 -0.47296992172E+02  0.13288378503E+03  0.12311776342E+03 0.  0.
          5    1    4    4  502    0 -0.28718293353E+02 -0.48539410029E+02  0.14470487555E+02  0.58414892871E+02  0.47000000000E+01 0.  1.
         -5    1    4    4    0  502  0.44366477629E+02  0.52810887137E+02  0.48146233907E+02  0.84246803956E+02  0.47000000000E+01 0.  1.
          5    1    5    5  503    0 -0.39102647379E+01 -0.12303553481E+02  0.41043686771E+02  0.43282118968E+02  0.47000000000E+01 0. -1.
         -5    1    5    5    0  503 -0.11737919539E+02  0.80320763730E+01 -0.88340678943E+02  0.89601666067E+02  0.47000000000E+01 0. -1.
<mgrwt>
<rscale>  0 0.27511928E+03</rscale>
<asrwt>0</asrwt>
<pdfrwt beam="1">  1        1 0.20017365E-01 0.27511928E+03</pdfrwt>
<pdfrwt beam="2">  1       -1 0.22374247E-01 0.27511928E+03</pdfrwt>
<totfact> 0.42479869E+03</totfact>
</mgrwt>
</event>
<event>
 9    1  0.2024718E-002  0.2750111E+03  0.7818608E-02  0.1098445E+00
          2   -1    0    0  501    0  0.00000000000E+00  0.00000000000E+00  0.78139778485E+03  0.78139778485E+03  0.00000000000E+00 0. -1.
         -2   -1    0    0    0  501 -0.00000000000E+00 -0.00000000000E+00 -0.24197380517E+02  0.24197380517E+02  0.00000000000E+00 0. -1.
         36    2    1    2    0    0  0.00000000000E+00  0.71054273576E-14  0.75720040434E+03  0.80559516537E+03  0.27501112367E+03 0.  0.
         25    2    3    3    0    0 -0.12054658118E+02  0.39265347246E+01  0.20889570458E+03  0.24355875436E+03  0.12459020417E+03 0.  0.
         25    2    3    3    0    0  0.12054658118E+02 -0.39265347246E+01  0.54830469976E+03  0.56203641101E+03  0.12282569384E+03 0.  0.
          5    1    4    4  502    0 -0.24757797840E+02 -0.47241893810E+02  0.16899300145E+03  0.17727230360E+03  0.47000000000E+01 0. -1.
         -5    1    4    4    0  502  0.12703139722E+02  0.51168428535E+02  0.39902703135E+02  0.66286450765E+02  0.47000000000E+01 0. -1.
          5    1    5    5  503    0  0.26769806859E+02 -0.12726341542E+02  0.54250747952E+03  0.54333694671E+03  0.47000000000E+01 0. -1.
         -5    1    5    5    0  503 -0.14715148741E+02  0.87998068171E+01  0.57972202358E+01  0.18699464296E+02  0.47000000000E+01 0. -1.
<mgrwt>
<rscale>  0 0.27501112E+03</rscale>
<asrwt>0</asrwt>
<pdfrwt beam="1">  1        2 0.12021502E+00 0.27501112E+03</pdfrwt>
<pdfrwt beam="2">  1       -2 0.37226745E-02 0.27501112E+03</pdfrwt>
<totfact> 0.11159741E+04</totfact>
</mgrwt>
</event>
<event>
 9    1  0.2024718E-002  0.2757905E+03  0.7818608E-02  0.1098011E+00
         -2   -1    0    0    0  501 -0.00000000000E+00  0.00000000000E+00  0.41130619534E+03  0.41130619534E+03  0.00000000000E+00 0. -1.
          2   -1    0    0  501    0  0.00000000000E+00 -0.00000000000E+00 -0.46230998913E+02  0.46230998913E+02  0.00000000000E+00 0. -1.
         36    2    1    2    0    0  0.00000000000E+00 -0.71054273576E-14  0.36507519643E+03  0.45753719426E+03  0.27579047315E+03 0.  0.
         25    2    3    3    0    0 -0.48830360597E+01  0.55807177951E+02  0.23153925511E+03  0.26735834361E+03  0.12137451171E+03 0.  0.
         25    2    3    3    0    0  0.48830360597E+01 -0.55807177951E+02  0.13353594132E+03  0.19017885064E+03  0.12327961086E+03 0.  0.
          5    1    4    4  502    0  0.38579223753E+01 -0.17451778185E+01  0.20165593332E+03  0.20175513539E+03  0.47000000000E+01 0.  1.
         -5    1    4    4    0  502 -0.87409584350E+01  0.57552355769E+02  0.29883321785E+02  0.65603208228E+02  0.47000000000E+01 0.  1.
          5    1    5    5  503    0  0.17794189919E+02 -0.17269095191E+01 -0.19751072583E+02  0.27051992155E+02  0.47000000000E+01 0.  1.
         -5    1    5    5    0  503 -0.12911153859E+02 -0.54080268431E+02  0.15328701391E+03  0.16312685849E+03  0.47000000000E+01 0.  1.
<mgrwt>
<rscale>  0 0.27579047E+03</rscale>
<asrwt>0</asrwt>
<pdfrwt beam="1">  1        2 0.71124617E-02 0.27579047E+03</pdfrwt>
<pdfrwt beam="2">  1       -2 0.63277874E-01 0.27579047E+03</pdfrwt>
<totfact> 0.23346781E+03</totfact>
</mgrwt>
</event>
<event>
 9    1  0.2024718E-002  0.2751416E+03  0.7818608E-02  0.1098372E+00
         -2   -1    0    0    0  501 -0.00000000000E+00  0.00000000000E+00  0.22813207519E+03  0.22813207519E+03  0.00000000000E+00 0. -1.
          2   -1    0    0  501    0  0.00000000000E+00 -0.00000000000E+00 -0.82959492225E+02  0.82959492225E+02  0.00000000000E+00 0. -1.
         36    2    1    2    0    0  0.14210854715E-13  0.35527136788E-14  0.14517258296E+03  0.31109156741E+03  0.27514157169E+03 0.  0.
         25    2    3    3    0    0  0.70050308471E+02  0.15882711571E+02  0.91023958904E+02  0.15526801736E+03  0.10326417519E+03 0.  0.
         25    2    3    3    0    0 -0.70050308471E+02 -0.15882711571E+02  0.54148624059E+02  0.15582355005E+03  0.12723835514E+03 0.  0.
          5    1    4    4  502    0  0.60840030260E+02  0.36009632163E+02  0.10503190072E+02  0.71628275787E+02  0.47000000000E+01 0. -1.
         -5    1    4    4    0  502  0.92102782111E+01 -0.20126920592E+02  0.80520768833E+02  0.83639741575E+02  0.47000000000E+01 0. -1.
          5    1    5    5  503    0 -0.91615290996E+02  0.35011974432E+01  0.76027003121E+02  0.11919653993E+03  0.47000000000E+01 0. -1.
         -5    1    5    5    0  503  0.21564982525E+02 -0.19383909014E+02 -0.21878379062E+02  0.36627010120E+02  0.47000000000E+01 0. -1.
<mgrwt>
<rscale>  0 0.27514157E+03</rscale>
<asrwt>0</asrwt>
<pdfrwt beam="1">  1        2 0.12762999E-01 0.27514157E+03</pdfrwt>
<pdfrwt beam="2">  1       -2 0.35097242E-01 0.27514157E+03</pdfrwt>
<totfact> 0.36025829E+03</totfact>
</mgrwt>
</event>
<event>
 9    1  0.2024718E-002  0.2754203E+03  0.7818608E-02  0.1098217E+00
          1   -1    0    0  501    0  0.00000000000E+00  0.00000000000E+00  0.28481613435E+04  0.28481613435E+04  0.00000000000E+00 0.  1.
         -1   -1    0    0    0  501 -0.00000000000E+00 -0.00000000000E+00 -0.66583624299E+01  0.66583624299E+01  0.00000000000E+00 0.  1.
         36    2    1    2    0    0  0.00000000000E+00 -0.71054273576E-14  0.28415029811E+04  0.28548197059E+04  0.27542033682E+03 0.  0.
         25    2    3    3    0    0 -0.53755713022E+02 -0.20969429086E+02  0.14910620477E+04  0.14975987245E+04  0.12730481547E+03 0.  0.
         25    2    3    3    0    0  0.53755713022E+02  0.20969429086E+02  0.13504409334E+04  0.13572209814E+04  0.12259153372E+03 0.  0.
          5    1    4    4  502    0  0.33477250838E+02 -0.36862041181E+02  0.45588842615E+03  0.45862390202E+03  0.47000000000E+01 0.  1.
         -5    1    4    4    0  502 -0.87232963861E+02  0.15892612095E+02  0.10351736215E+04  0.10389748225E+04  0.47000000000E+01 0.  1.
          5    1    5    5  503    0  0.36141347109E+02  0.71792020964E+02  0.72630926366E+03  0.73075818691E+03  0.47000000000E+01 0.  1.
         -5    1    5    5    0  503  0.17614365913E+02 -0.50822591879E+02  0.62413166974E+03  0.62646279451E+03  0.47000000000E+01 0.  1.
<mgrwt>
<rscale>  0 0.27542034E+03</rscale>
<asrwt>0</asrwt>
<pdfrwt beam="1">  1        1 0.43817769E+00 0.27542034E+03</pdfrwt>
<pdfrwt beam="2">  1       -1 0.10243657E-02 0.27542034E+03</pdfrwt>
<totfact> 0.16756422E+03</totfact>
</mgrwt>
</event>
<event>
 9    1  0.2024718E-002  0.2766397E+03  0.7818608E-02  0.1097539E+00
          2   -1    0    0  501    0  0.00000000000E+00  0.00000000000E+00  0.75113781318E+03  0.75113781318E+03  0.00000000000E+00 0.  1.
         -2   -1    0    0    0  501 -0.00000000000E+00 -0.00000000000E+00 -0.25471197760E+02  0.25471197760E+02  0.00000000000E+00 0.  1.
         36    2    1    2    0    0 -0.71054273576E-14 -0.71054273576E-14  0.72566661542E+03  0.77660901094E+03  0.27663969191E+03 0.  0.
         25    2    3    3    0    0  0.54125202889E+02 -0.99799060054E+01  0.38222955325E+03  0.40671098756E+03  0.12761371367E+03 0.  0.
         25    2    3    3    0    0 -0.54125202889E+02  0.99799060054E+01  0.34343706218E+03  0.36989802338E+03  0.12588246865E+03 0.  0.
          5    1    4    4  502    0  0.11588725304E+01  0.53491394932E+02  0.11453603624E+03  0.12650401541E+03  0.47000000000E+01 0. -1.
         -5    1    4    4    0  502  0.52966330358E+02 -0.63471300938E+02  0.26769351701E+03  0.28020697215E+03  0.47000000000E+01 0. -1.
          5    1    5    5  503    0 -0.50022410454E+02  0.60926827910E+02  0.26193242556E+03  0.27357815240E+03  0.47000000000E+01 0. -1.
         -5    1    5    5    0  503 -0.41027924345E+01 -0.50946921905E+02  0.81504636612E+02  0.96319870985E+02  0.47000000000E+01 0. -1.
<mgrwt>
<rscale>  0 0.27663969E+03</rscale>
<asrwt>0</asrwt>
<pdfrwt beam="1">  1        2 0.11555965E+00 0.27663969E+03</pdfrwt>
<pdfrwt beam="2">  1       -2 0.39186464E-02 0.27663969E+03</pdfrwt>
<totfact> 0.10858439E+04</totfact>
</mgrwt>
</event>
<event>
 9    1  0.2024718E-002  0.2734822E+03  0.7818608E-02  0.1099303E+00
         -1   -1    0    0    0  501 -0.00000000000E+00  0.00000000000E+00  0.78204204628E+02  0.78204204628E+02  0.00000000000E+00 0.  1.
          1   -1    0    0  501    0  0.00000000000E+00 -0.00000000000E+00 -0.23909366275E+03  0.23909366275E+03  0.00000000000E+00 0.  1.
         36    2    1    2    0    0  0.00000000000E+00  0.00000000000E+00 -0.16088945812E+03  0.31729786737E+03  0.27348220949E+03 0.  0.
         25    2    3    3    0    0 -0.33504969597E+02 -0.71345885532E+01 -0.13520088041E+03  0.19023825977E+03  0.12937477372E+03 0.  0.
         25    2    3    3    0    0  0.33504969597E+02  0.71345885532E+01 -0.25688577708E+02  0.12705960760E+03  0.11962757006E+03 0.  0.
          5    1    4    4  502    0  0.30194957214E+02 -0.22065584156E+02 -0.11588140959E+03  0.12185736143E+03  0.47000000000E+01 0. -1.
         -5    1    4    4    0  502 -0.63699926811E+02  0.14930995603E+02 -0.19319470817E+02  0.68380898342E+02  0.47000000000E+01 0. -1.
          5    1    5    5  503    0  0.43170340119E+02 -0.43044518719E+02  0.13345974341E+02  0.62583655126E+02  0.47000000000E+01 0. -1.
         -5    1    5    5    0  503 -0.96653705229E+01  0.50179107272E+02 -0.39034552048E+02  0.64475952475E+02  0.47000000000E+01 0. -1.
<mgrwt>
<rscale>  0 0.27348221E+03</rscale>
<asrwt>0</asrwt>
<pdfrwt beam="1">  1        1 0.36783640E-01 0.27348221E+03</pdfrwt>
<pdfrwt beam="2">  1       -1 0.12031416E-01 0.27348221E+03</pdfrwt>
<totfact> 0.52935554E+03</totfact>
</mgrwt>
</event>
<event>
 9    1  0.2024718E-002  0.2746009E+03  0.7818608E-02  0.1098675E+00
         -2   -1    0    0    0  501 -0.00000000000E+00  0.00000000000E+00  0.68391186193E+02  0.68391186193E+02  0.00000000000E+00 0. -1.
          2   -1    0    0  501    0  0.00000000000E+00 -0.00000000000E+00 -0.27564091705E+03  0.27564091705E+03  0.00000000000E+00 0. -1.
         36    2    1    2    0    0 -0.14210854715E-13 -0.35527136788E-14 -0.20724973085E+03  0.34403210324E+03  0.27460086876E+03 0.  0.
         25    2    3    3    0    0 -0.51541659734E+02 -0.29675248091E+02 -0.82345193766E+02  0.16208077024E+03  0.12630234404E+03 0.  0.
         25    2    3    3    0    0  0.51541659734E+02  0.29675248091E+02 -0.12490453709E+03  0.18195133300E+03  0.11818621390E+03 0.  0.
          5    1    4    4  502    0  0.40367030205E+02 -0.12545089057E+02 -0.97873813307E+01  0.43643547293E+02  0.47000000000E+01 0. -1.
         -5    1    4    4    0  502 -0.91908689939E+02 -0.17130159034E+02 -0.72557812435E+02  0.11843722295E+03  0.47000000000E+01 0. -1.
          5    1    5    5  503    0  0.24732649679E+02  0.18730546763E+02 -0.14371623543E+03  0.14710194991E+03  0.47000000000E+01 0.  1.
         -5    1    5    5    0  503  0.26809010054E+02  0.10944701328E+02  0.18811698337E+02  0.34849383088E+02  0.47000000000E+01 0.  1.
<mgrwt>
<rscale>  0 0.27460087E+03</rscale>
<asrwt>0</asrwt>
<pdfrwt beam="1">  1        2 0.42406295E-01 0.27460087E+03</pdfrwt>
<pdfrwt beam="2">  1       -2 0.10521721E-01 0.27460087E+03</pdfrwt>
<totfact> 0.72763243E+03</totfact>
</mgrwt>
</event>
<event>
 9    1  0.2024718E-002  0.2787353E+03  0.7818608E-02  0.1096382E+00
          2   -1    0    0  501    0  0.00000000000E+00  0.00000000000E+00  0.43708355854E+03  0.43708355854E+03  0.00000000000E+00 0.  1.
         -2   -1    0    0    0  501 -0.00000000000E+00 -0.00000000000E+00 -0.44438507728E+02  0.44438507728E+02  0.00000000000E+00 0.  1.
         36    2    1    2    0    0 -0.35527136788E-14 -0.71054273576E-14  0.39264505081E+03  0.48152206626E+03  0.27873529445E+03 0.  0.
         25    2    3    3    0    0  0.11184890628E+02  0.41789571475E+02  0.10313477570E+03  0.16374677921E+03  0.11960249028E+03 0.  0.
         25    2    3    3    0    0 -0.11184890628E+02 -0.41789571475E+02  0.28951027510E+03  0.31777528705E+03  0.12366674414E+03 0.  0.
          5    1    4    4  502    0  0.39390024124E+01 -0.15202821108E+02  0.10480518677E+03  0.10607949229E+03  0.47000000000E+01 0.  1.
         -5    1    4    4    0  502  0.72458882154E+01  0.56992392583E+02 -0.16704110679E+01  0.57667286926E+02  0.47000000000E+01 0.  1.
          5    1    5    5  503    0  0.45199983503E+02 -0.50797447670E+02  0.11059552094E+03  0.12991104052E+03  0.47000000000E+01 0. -1.
         -5    1    5    5    0  503 -0.56384874131E+02  0.90078761955E+01  0.17891475417E+03  0.18786424653E+03  0.47000000000E+01 0. -1.
<mgrwt>
<rscale>  0 0.27873529E+03</rscale>
<asrwt>0</asrwt>
<pdfrwt beam="1">  1        2 0.67243622E-01 0.27873529E+03</pdfrwt>
<pdfrwt beam="2">  1       -2 0.68366938E-02 0.27873529E+03</pdfrwt>
<totfact> 0.87017862E+03</totfact>
</mgrwt>
</event>
<event>
 9    1  0.2024718E-002  0.2738006E+03  0.7818608E-02  0.1099124E+00
          2   -1    0    0  501    0  0.00000000000E+00  0.00000000000E+00  0.26743645440E+04  0.26743645440E+04  0.00000000000E+00 0. -1.
         -2   -1    0    0    0  501 -0.00000000000E+00 -0.00000000000E+00 -0.70079034172E+01  0.70079034172E+01  0.00000000000E+00 0. -1.
         36    2    1    2    0    0 -0.35527136788E-14  0.00000000000E+00  0.26673566406E+04  0.26813724474E+04  0.27380057288E+03 0.  0.
         25    2    3    3    0    0 -0.31516155767E+02 -0.25270223803E+02  0.14773189464E+04  0.14829726451E+04  0.12290136165E+03 0.  0.
         25    2    3    3    0    0  0.31516155767E+02  0.25270223803E+02  0.11900376942E+04  0.11983998023E+04  0.13542717646E+03 0.  0.
          5    1    4    4  502    0 -0.52512903118E+02  0.34227684620E+02  0.57141354296E+03  0.57486056262E+03  0.47000000000E+01 0. -1.
         -5    1    4    4    0  502  0.20996747351E+02 -0.59497908422E+02  0.90590540341E+03  0.90811208253E+03  0.47000000000E+01 0. -1.
          5    1    5    5  503    0 -0.30129956444E+02 -0.48222724505E+01  0.73158871064E+02  0.79406416631E+02  0.47000000000E+01 0.  1.
         -5    1    5    5    0  503  0.61646112211E+02  0.30092496253E+02  0.11168788232E+04  0.11189933856E+04  0.47000000000E+01 0.  1.
<mgrwt>
<rscale>  0 0.27380057E+03</rscale>
<asrwt>0</asrwt>
<pdfrwt beam="1">  1        2 0.41143989E+00 0.27380057E+03</pdfrwt>
<pdfrwt beam="2">  1       -2 0.10781411E-02 0.27380057E+03</pdfrwt>
<totfact> 0.61345677E+03</totfact>
</mgrwt>
</event>
<event>
 9    1  0.2024718E-002  0.2748023E+03  0.7818608E-02  0.1098562E+00
         -2   -1    0    0    0  501 -0.00000000000E+00  0.00000000000E+00  0.48134672861E+02  0.48134672861E+02  0.00000000000E+00 0. -1.
          2   -1    0    0  501    0  0.00000000000E+00 -0.00000000000E+00 -0.39221354003E+03  0.39221354003E+03  0.00000000000E+00 0. -1.
         36    2    1    2    0    0  0.71054273576E-14  0.00000000000E+00 -0.34407886717E+03  0.44034821290E+03  0.27480225939E+03 0.  0.
         25    2    3    3    0    0 -0.52220526632E+02  0.82970780446E+01 -0.20279979318E+03  0.24319243093E+03  0.12336521973E+03 0.  0.
         25    2    3    3    0    0  0.52220526632E+02 -0.82970780446E+01 -0.14127907399E+03  0.19715578197E+03  0.12694408498E+03 0.  0.
          5    1    4    4  502    0  0.14889693843E+02 -0.89775136439E+01  0.91145754903E+01  0.20185742997E+02  0.47000000000E+01 0. -1.
         -5    1    4    4    0  502 -0.67110220476E+02  0.17274591689E+02 -0.21191436868E+03  0.22300668793E+03  0.47000000000E+01 0. -1.
          5    1    5    5  503    0  0.84174789212E+02  0.20363443052E+02 -0.12243642547E+03  0.15004277135E+03  0.47000000000E+01 0.  1.
         -5    1    5    5    0  503 -0.31954262580E+02 -0.28660521097E+02 -0.18842648520E+02  0.47113010621E+02  0.47000000000E+01 0.  1.
<mgrwt>
<rscale>  0 0.27480226E+03</rscale>
<asrwt>0</asrwt>
<pdfrwt beam="1">  1        2 0.60340546E-01 0.27480226E+03</pdfrwt>
<pdfrwt beam="2">  1       -2 0.74053341E-02 0.27480226E+03</pdfrwt>
<totfact> 0.86475984E+03</totfact>
</mgrwt>
</event>
<event>
 9    1  0.2024718E-002  0.2746817E+03  0.7818608E-02  0.1098630E+00
          1   -1    0    0  501    0  0.00000000000E+00  0.00000000000E+00  0.17444826778E+04  0.17444826778E+04  0.00000000000E+00 0. -1.
         -1   -1    0    0    0  501 -0.00000000000E+00 -0.00000000000E+00 -0.10812665977E+02  0.10812665977E+02  0.00000000000E+00 0. -1.
         36    2    1    2    0    0  0.00000000000E+00  0.71054273576E-14  0.17336700118E+04  0.17552953438E+04  0.27468169576E+03 0.  0.
         25    2    3    3    0    0 -0.50268172644E+02 -0.20014331290E+02  0.65193621197E+03  0.66497520102E+03  0.11934710240E+03 0.  0.
         25    2    3    3    0    0  0.50268172644E+02  0.20014331290E+02  0.10817337998E+04  0.10903201427E+04  0.12538954233E+03 0.  0.
          5    1    4    4  502    0  0.22363474015E+01  0.46133195525E+02  0.22428097262E+03  0.22903562531E+03  0.47000000000E+01 0. -1.
         -5    1    4    4    0  502 -0.52504520046E+02 -0.66147526815E+02  0.42765523935E+03  0.43593957571E+03  0.47000000000E+01 0. -1.
          5    1    5    5  503    0 -0.19838940538E+02 -0.28741819808E+02  0.12808110589E+03  0.13284026292E+03  0.47000000000E+01 0. -1.
         -5    1    5    5    0  503  0.70107113182E+02  0.48756151097E+02  0.95365269394E+03  0.95747987981E+03  0.47000000000E+01 0. -1.
<mgrwt>
<rscale>  0 0.27468170E+03</rscale>
<asrwt>0</asrwt>
<pdfrwt beam="1">  1        1 0.26838173E+00 0.27468170E+03</pdfrwt>
<pdfrwt beam="2">  1       -1 0.16634885E-02 0.27468170E+03</pdfrwt>
<totfact> 0.44386749E+03</totfact>
</mgrwt>
</event>
<event>
 9    1  0.2024718E-002  0.2749847E+03  0.7818608E-02  0.1098460E+00
          1   -1    0    0  501    0  0.00000000000E+00  0.00000000000E+00  0.11809432465E+04  0.11809432465E+04  0.00000000000E+00 0. -1.
         -1   -1    0    0    0  501 -0.00000000000E+00 -0.00000000000E+00 -0.16007662160E+02  0.16007662160E+02  0.00000000000E+00 0. -1.
         36    2    1    2    0    0  0.00000000000E+00  0.35527136788E-14  0.11649355844E+04  0.11969509087E+04  0.27498465791E+03 0.  0.
         25    2    3    3    0    0  0.20778354985E+02  0.45926313765E+01  0.61038410250E+03  0.62382759454E+03  0.12704047709E+03 0.  0.
         25    2    3    3    0    0 -0.20778354985E+02 -0.45926313765E+01  0.55455148185E+03  0.57312331414E+03  0.14314382587E+03 0.  0.
          5    1    4    4  502    0  0.57723510996E+02  0.38616511200E+02  0.23572321469E+03  0.24578600978E+03  0.47000000000E+01 0. -1.
         -5    1    4    4    0  502 -0.36945156011E+02 -0.34023879824E+02  0.37466088781E+03  0.37804158475E+03  0.47000000000E+01 0. -1.
          5    1    5    5  503    0 -0.31766010513E+02 -0.33270604842E+02  0.51891755754E+02  0.69504365947E+02  0.47000000000E+01 0.  1.
         -5    1    5    5    0  503  0.10987655528E+02  0.28677973465E+02  0.50265972610E+03  0.50361894819E+03  0.47000000000E+01 0.  1.
<mgrwt>
<rscale>  0 0.27498466E+03</rscale>
<asrwt>0</asrwt>
<pdfrwt beam="1">  1        1 0.18168351E+00 0.27498466E+03</pdfrwt>
<pdfrwt beam="2">  1       -1 0.24627182E-02 0.27498466E+03</pdfrwt>
<totfact> 0.59615840E+03</totfact>
</mgrwt>
</event>
<event>
 9    1  0.2024718E-002  0.2751568E+03  0.7818608E-02  0.1098364E+00
         -2   -1    0    0    0  501 -0.00000000000E+00  0.00000000000E+00  0.34442559360E+03  0.34442559360E+03  0.00000000000E+00 0. -1.
          2   -1    0    0  501    0  0.00000000000E+00 -0.00000000000E+00 -0.54954715762E+02  0.54954715762E+02  0.00000000000E+00 0. -1.
         36    2    1    2    0    0  0.35527136788E-14  0.00000000000E+00  0.28947087784E+03  0.39938030936E+03  0.27515675967E+03 0.  0.
         25    2    3    3    0    0  0.15283201938E+02  0.49724313139E+02  0.11624675792E+03  0.17884894359E+03  0.12556891462E+03 0.  0.
         25    2    3    3    0    0 -0.15283201938E+02 -0.49724313139E+02  0.17322411992E+03  0.22053136577E+03  0.12618004592E+03 0.  0.
          5    1    4    4  502    0 -0.34141272331E+02  0.51132138018E+01  0.10567593100E+03  0.11127112754E+03  0.47000000000E+01 0.  1.
         -5    1    4    4    0  502  0.49424474268E+02  0.44611099338E+02  0.10570826922E+02  0.67577816054E+02  0.47000000000E+01 0.  1.
          5    1    5    5  503    0  0.25498422081E+02 -0.80569872279E+02  0.98563022365E+02  0.12991702439E+03  0.47000000000E+01 0.  1.
         -5    1    5    5    0  503 -0.40781624019E+02  0.30845559139E+02  0.74661097557E+02  0.90614341385E+02  0.47000000000E+01 0.  1.
<mgrwt>
<rscale>  0 0.27515676E+03</rscale>
<asrwt>0</asrwt>
<pdfrwt beam="1">  1        2 0.84545718E-02 0.27515676E+03</pdfrwt>
<pdfrwt beam="2">  1       -2 0.52988552E-01 0.27515676E+03</pdfrwt>
<totfact> 0.26974762E+03</totfact>
</mgrwt>
</event>
<event>
 9    1  0.2024718E-002  0.2757388E+03  0.7818608E-02  0.1098039E+00
          2   -1    0    0  501    0  0.00000000000E+00  0.00000000000E+00  0.59526210411E+03  0.59526210411E+03  0.00000000000E+00 0.  1.
         -2   -1    0    0    0  501 -0.00000000000E+00 -0.00000000000E+00 -0.31932108823E+02  0.31932108823E+02  0.00000000000E+00 0.  1.
         36    2    1    2    0    0 -0.17763568394E-14 -0.14210854715E-13  0.56332999529E+03  0.62719421294E+03  0.27573882053E+03 0.  0.
         25    2    3    3    0    0 -0.13734630415E+02  0.62176048293E+02  0.29714136845E+03  0.32741268721E+03  0.12186703348E+03 0.  0.
         25    2    3    3    0    0  0.13734630415E+02 -0.62176048293E+02  0.26618862684E+03  0.29978152573E+03  0.12230321767E+03 0.  0.
          5    1    4    4  502    0  0.63452708129E+01 -0.35267158950E+02  0.10402133962E+03  0.11012067952E+03  0.47000000000E+01 0. -1.
         -5    1    4    4    0  502 -0.20079901228E+02  0.97443207243E+02  0.19312002883E+03  0.21729200769E+03  0.47000000000E+01 0. -1.
          5    1    5    5  503    0 -0.25290711293E+02 -0.76085055423E+02  0.99051235268E+02  0.12752173518E+03  0.47000000000E+01 0.  1.
         -5    1    5    5    0  503  0.39025341707E+02  0.13909007130E+02  0.16713739157E+03  0.17225979054E+03  0.47000000000E+01 0.  1.
<mgrwt>
<rscale>  0 0.27573882E+03</rscale>
<asrwt>0</asrwt>
<pdfrwt beam="1">  1        2 0.91578777E-01 0.27573882E+03</pdfrwt>
<pdfrwt beam="2">  1       -2 0.49126326E-02 0.27573882E+03</pdfrwt>
<totfact> 0.10196180E+04</totfact>
</mgrwt>
</event>
<event>
 9    1  0.2024718E-002  0.2758763E+03  0.7818608E-02  0.1097963E+00
          2   -1    0    0  501    0  0.00000000000E+00  0.00000000000E+00  0.66822442895E+02  0.66822442895E+02  0.00000000000E+00 0.  1.
         -2   -1    0    0    0  501 -0.00000000000E+00 -0.00000000000E+00 -0.28473858887E+03  0.28473858887E+03  0.00000000000E+00 0.  1.
         36    2    1    2    0    0  0.00000000000E+00  0.00000000000E+00 -0.21791614597E+03  0.35156103176E+03  0.27587626280E+03 0.  0.
         25    2    3    3    0    0 -0.53500838097E+02  0.63846170707E+01 -0.15276476305E+03  0.19931043719E+03  0.11612267019E+03 0.  0.
         25    2    3    3    0    0  0.53500838097E+02 -0.63846170707E+01 -0.65151382923E+02  0.15225059457E+03  0.12661926330E+03 0.  0.
          5    1    4    4  502    0 -0.60366833843E+02 -0.97536719805E+01 -0.16591771862E+03  0.17688998869E+03  0.47000000000E+01 0. -1.
         -5    1    4    4    0  502  0.68659957453E+01  0.16138289051E+02  0.13152955570E+02  0.22420448508E+02  0.47000000000E+01 0. -1.
          5    1    5    5  503    0 -0.55904636831E+01  0.42733495674E+01  0.34658571051E+02  0.35676621869E+02  0.47000000000E+01 0. -1.
         -5    1    5    5    0  503  0.59091301780E+02 -0.10657966638E+02 -0.99809953973E+02  0.11657397270E+03  0.47000000000E+01 0. -1.
<mgrwt>
<rscale>  0 0.27587626E+03</rscale>
<asrwt>0</asrwt>
<pdfrwt beam="1">  1        2 0.10280376E-01 0.27587626E+03</pdfrwt>
<pdfrwt beam="2">  1       -2 0.43805937E-01 0.27587626E+03</pdfrwt>
<totfact> 0.30788977E+03</totfact>
</mgrwt>
</event>
<event>
 9    1  0.2024718E-002  0.2753598E+03  0.7818608E-02  0.1098251E+00
         -2   -1    0    0    0  501 -0.00000000000E+00  0.00000000000E+00  0.68460898065E+02  0.68460898065E+02  0.00000000000E+00 0.  1.
          2   -1    0    0  501    0  0.00000000000E+00 -0.00000000000E+00 -0.27688443213E+03  0.27688443213E+03  0.00000000000E+00 0.  1.
         36    2    1    2    0    0  0.00000000000E+00  0.00000000000E+00 -0.20842353407E+03  0.34534533020E+03  0.27535981467E+03 0.  0.
         25    2    3    3    0    0  0.45309498013E+01 -0.36226111417E+02 -0.46478688476E+02  0.13786674706E+03  0.12455565345E+03 0.  0.
         25    2    3    3    0    0 -0.45309498013E+01  0.36226111417E+02 -0.16194484559E+03  0.20747858314E+03  0.12445227517E+03 0.  0.
          5    1    4    4  502    0  0.23306365811E+02  0.92124432936E+00  0.37275610448E+02  0.44222126958E+02  0.47000000000E+01 0. -1.
         -5    1    4    4    0  502 -0.18775416010E+02 -0.37147355746E+02 -0.83754298924E+02  0.93644620099E+02  0.47000000000E+01 0. -1.
          5    1    5    5  503    0  0.54637932038E+02  0.12463323325E+02 -0.11546903498E+03  0.12843607782E+03  0.47000000000E+01 0. -1.
         -5    1    5    5    0  503 -0.59168881839E+02  0.23762788092E+02 -0.46475810613E+02  0.79042505325E+02  0.47000000000E+01 0. -1.
<mgrwt>
<rscale>  0 0.27535981E+03</rscale>
<asrwt>0</asrwt>
<pdfrwt beam="1">  1        2 0.42597606E-01 0.27535981E+03</pdfrwt>
<pdfrwt beam="2">  1       -2 0.10532446E-01 0.27535981E+03</pdfrwt>
<totfact> 0.72301621E+03</totfact>
</mgrwt>
</event>
<event>
 9    1  0.2024718E-002  0.2743632E+03  0.7818608E-02  0.1098808E+00
         -2   -1    0    0    0  501 -0.00000000000E+00  0.00000000000E+00  0.20217405245E+02  0.20217405245E+02  0.00000000000E+00 0. -1.
          2   -1    0    0  501    0  0.00000000000E+00 -0.00000000000E+00 -0.93082148199E+03  0.93082148199E+03  0.00000000000E+00 0. -1.
         36    2    1    2    0    0  0.00000000000E+00  0.71054273576E-14 -0.91060407675E+03  0.95103888724E+03  0.27436322722E+03 0.  0.
         25    2    3    3    0    0 -0.38196015350E+02 -0.42387378713E+02 -0.48722480952E+03  0.50555395792E+03  0.12223405374E+03 0.  0.
         25    2    3    3    0    0  0.38196015350E+02  0.42387378713E+02 -0.42337926723E+03  0.44548492932E+03  0.12629803193E+03 0.  0.
          5    1    4    4  502    0 -0.26548497093E+02  0.37687310126E+02 -0.10407619865E+03  0.11392585820E+03  0.47000000000E+01 0. -1.
         -5    1    4    4    0  502 -0.11647518256E+02 -0.80074688839E+02 -0.38314861087E+03  0.39162809972E+03  0.47000000000E+01 0. -1.
          5    1    5    5  503    0  0.29819109401E+02  0.71891768100E+02 -0.13865671775E+03  0.15907665128E+03  0.47000000000E+01 0. -1.
         -5    1    5    5    0  503  0.83769059484E+01 -0.29504389387E+02 -0.28472254948E+03  0.28640827804E+03  0.47000000000E+01 0. -1.
<mgrwt>
<rscale>  0 0.27436323E+03</rscale>
<asrwt>0</asrwt>
<pdfrwt beam="1">  1        2 0.14320331E+00 0.27436323E+03</pdfrwt>
<pdfrwt beam="2">  1       -2 0.31103700E-02 0.27436323E+03</pdfrwt>
<totfact> 0.11610953E+04</totfact>
</mgrwt>
</event>
<event>
 9    1  0.2024718E-002  0.2741444E+03  0.7818608E-02  0.1098931E+00
          2   -1    0    0  501    0  0.00000000000E+00  0.00000000000E+00  0.13335993577E+04  0.13335993577E+04  0.00000000000E+00 0. -1.
         -2   -1    0    0    0  501 -0.00000000000E+00 -0.00000000000E+00 -0.14088781965E+02  0.14088781965E+02  0.00000000000E+00 0. -1.
         36    2    1    2    0    0  0.17763568394E-14 -0.17763568394E-14  0.13195105758E+04  0.13476881397E+04  0.27414441873E+03 0.  0.
         25    2    3    3    0    0  0.12830437560E+02  0.10285837664E+01  0.88219408525E+03  0.89097741303E+03  0.12413165736E+03 0.  0.
         25    2    3    3    0    0 -0.12830437560E+02 -0.10285837664E+01  0.43731649053E+03  0.45671072669E+03  0.13104692620E+03 0.  0.
          5    1    4    4  502    0  0.24138003588E+02 -0.89689515891E+01  0.87149696482E+03  0.87188997873E+03  0.47000000000E+01 0. -1.
         -5    1    4    4    0  502 -0.11307566028E+02  0.99975353555E+01  0.10697120428E+02  0.19087434299E+02  0.47000000000E+01 0. -1.
          5    1    5    5  503    0 -0.16041062921E+02 -0.17041774142E+02  0.43898568561E+03  0.43963423427E+03  0.47000000000E+01 0. -1.
         -5    1    5    5    0  503  0.32106253615E+01  0.16013190375E+02 -0.16691950800E+01  0.17076492422E+02  0.47000000000E+01 0. -1.
<mgrwt>
<rscale>  0 0.27414442E+03</rscale>
<asrwt>0</asrwt>
<pdfrwt beam="1">  1        2 0.20516903E+00 0.27414442E+03</pdfrwt>
<pdfrwt beam="2">  1       -2 0.21675060E-02 0.27414442E+03</pdfrwt>
<totfact> 0.11531317E+04</totfact>
</mgrwt>
</event>
<event>
 9    1  0.2024718E-002  0.2745540E+03  0.7818608E-02  0.1098701E+00
         -1   -1    0    0    0  501 -0.00000000000E+00  0.00000000000E+00  0.16827095771E+04  0.16827095771E+04  0.00000000000E+00 0.  1.
          1   -1    0    0  501    0  0.00000000000E+00 -0.00000000000E+00 -0.11199186674E+02  0.11199186674E+02  0.00000000000E+00 0.  1.
         36    2    1    2    0    0 -0.17763568394E-14  0.00000000000E+00  0.16715103904E+04  0.16939087637E+04  0.27455402872E+03 0.  0.
         25    2    3    3    0    0 -0.87251909232E+01  0.54643086239E+02  0.85449613269E+03  0.86554594883E+03  0.12627015852E+03 0.  0.
         25    2    3    3    0    0  0.87251909232E+01 -0.54643086239E+02  0.81701425771E+03  0.82836281491E+03  0.12494262683E+03 0.  0.
          5    1    4    4  502    0 -0.13427515906E+02 -0.40130944738E+02  0.23969217413E+03  0.24344448905E+03  0.47000000000E+01 0.  1.
         -5    1    4    4    0  502  0.47023249830E+01  0.94774030977E+02  0.61480395855E+03  0.62210145978E+03  0.47000000000E+01 0.  1.
          5    1    5    5  503    0 -0.54838671726E+02 -0.11213729951E+02  0.25731668124E+03  0.26337614186E+03  0.47000000000E+01 0. -1.
         -5    1    5    5    0  503  0.63563862649E+02 -0.43429356288E+02  0.55969757647E+03  0.56498667305E+03  0.47000000000E+01 0. -1.
<mgrwt>
<rscale>  0 0.27455403E+03</rscale>
<asrwt>0</asrwt>
<pdfrwt beam="1">  1        1 0.17229531E-02 0.27455403E+03</pdfrwt>
<pdfrwt beam="2">  1       -1 0.25887820E+00 0.27455403E+03</pdfrwt>
<totfact> 0.52150340E+02</totfact>
</mgrwt>
</event>
<event>
 9    1  0.2024718E-002  0.2758634E+03  0.7818608E-02  0.1097970E+00
          1   -1    0    0  501    0  0.00000000000E+00  0.00000000000E+00  0.44562406607E+03  0.44562406607E+03  0.00000000000E+00 0. -1.
         -1   -1    0    0    0  501 -0.00000000000E+00 -0.00000000000E+00 -0.42693296736E+02  0.42693296736E+02  0.00000000000E+00 0. -1.
         36    2    1    2    0    0  0.00000000000E+00  0.14210854715E-13  0.40293076934E+03  0.48831736281E+03  0.27586344800E+03 0.  0.
         25    2    3    3    0    0 -0.25501445528E+02  0.53731933446E+02  0.18283136156E+03  0.22864200464E+03  0.12374334374E+03 0.  0.
         25    2    3    3    0    0  0.25501445528E+02 -0.53731933446E+02  0.22009940778E+03  0.25967535817E+03  0.12429842292E+03 0.  0.
          5    1    4    4  502    0 -0.31339477438E+01 -0.33470990230E+02  0.10221921854E+03  0.10770788019E+03  0.47000000000E+01 0.  1.
         -5    1    4    4    0  502 -0.22367497784E+02  0.87202923676E+02  0.80612143018E+02  0.12093412445E+03  0.47000000000E+01 0.  1.
          5    1    5    5  503    0  0.25436053766E+02  0.36509852543E+02  0.50249960914E+02  0.67283807382E+02  0.47000000000E+01 0.  1.
         -5    1    5    5    0  503  0.65391762383E-01 -0.90241785990E+02  0.16984944687E+03  0.19239155079E+03  0.47000000000E+01 0.  1.
<mgrwt>
<rscale>  0 0.27586345E+03</rscale>
<asrwt>0</asrwt>
<pdfrwt beam="1">  1        1 0.68557545E-01 0.27586345E+03</pdfrwt>
<pdfrwt beam="2">  1       -1 0.65681998E-02 0.27586345E+03</pdfrwt>
<totfact> 0.60953683E+03</totfact>
</mgrwt>
</event>
<event>
 9    1  0.2024718E-002  0.2746149E+03  0.7818608E-02  0.1098667E+00
          2   -1    0    0  501    0  0.00000000000E+00  0.00000000000E+00  0.83177061398E+03  0.83177061398E+03  0.00000000000E+00 0.  1.
         -2   -1    0    0    0  501 -0.00000000000E+00 -0.00000000000E+00 -0.22666507620E+02  0.22666507620E+02  0.00000000000E+00 0.  1.
         36    2    1    2    0    0 -0.35527136788E-14  0.00000000000E+00  0.80910410636E+03  0.85443712160E+03  0.27461489369E+03 0.  0.
         25    2    3    3    0    0  0.31760789347E+02 -0.24620881522E+02  0.26169435883E+03  0.29310996511E+03  0.12575602830E+03 0.  0.
         25    2    3    3    0    0 -0.31760789347E+02  0.24620881522E+02  0.54740974753E+03  0.56132715649E+03  0.11754067117E+03 0.  0.
          5    1    4    4  502    0 -0.26632246806E+02  0.36746610647E+02  0.11385830505E+03  0.12265966571E+03  0.47000000000E+01 0. -1.
         -5    1    4    4    0  502  0.58393036153E+02 -0.61367492169E+02  0.14783605379E+03  0.17045029940E+03  0.47000000000E+01 0. -1.
          5    1    5    5  503    0 -0.26492110667E+02  0.62205613025E+02  0.18716494218E+03  0.19905822214E+03  0.47000000000E+01 0. -1.
         -5    1    5    5    0  503 -0.52686786809E+01 -0.37584731503E+02  0.36024480534E+03  0.36226893435E+03  0.47000000000E+01 0. -1.
<mgrwt>
<rscale>  0 0.27461489E+03</rscale>
<asrwt>0</asrwt>
<pdfrwt beam="1">  1        2 0.12796469E+00 0.27461489E+03</pdfrwt>
<pdfrwt beam="2">  1       -2 0.34871557E-02 0.27461489E+03</pdfrwt>
<totfact> 0.11363308E+04</totfact>
</mgrwt>
</event>
<event>
 9    1  0.2024718E-002  0.2742900E+03  0.7818608E-02  0.1098849E+00
         -2   -1    0    0    0  501 -0.00000000000E+00  0.00000000000E+00  0.90226585208E+01  0.90226585208E+01  0.00000000000E+00 0.  1.
          2   -1    0    0  501    0  0.00000000000E+00 -0.00000000000E+00 -0.20846137044E+04  0.20846137044E+04  0.00000000000E+00 0.  1.
         36    2    1    2    0    0  0.10658141036E-13 -0.28421709430E-13 -0.20755910459E+04  0.20936363629E+04  0.27429004796E+03 0.  0.
         25    2    3    3    0    0  0.28279647605E+02 -0.57272696145E+02 -0.12661325721E+04  0.12726237039E+04  0.11135304786E+03 0.  0.
         25    2    3    3    0    0 -0.28279647605E+02  0.57272696145E+02 -0.80945847375E+03  0.82101265904E+03  0.12148607078E+03 0.  0.
          5    1    4    4  502    0  0.56682179449E+02 -0.74482756942E+02 -0.85329796711E+03  0.85842883294E+03  0.47000000000E+01 0. -1.
         -5    1    4    4    0  502 -0.28402531845E+02  0.17210060797E+02 -0.41283460503E+03  0.41419487095E+03  0.47000000000E+01 0. -1.
          5    1    5    5  503    0 -0.41490565007E+02 -0.13483903820E+02 -0.11963394745E+03  0.12742705375E+03  0.47000000000E+01 0.  1.
         -5    1    5    5    0  503  0.13210917403E+02  0.70756599965E+02 -0.68982452630E+03  0.69358560529E+03  0.47000000000E+01 0.  1.
<mgrwt>
<rscale>  0 0.27429005E+03</rscale>
<asrwt>0</asrwt>
<pdfrwt beam="1">  1        2 0.32070981E+00 0.27429005E+03</pdfrwt>
<pdfrwt beam="2">  1       -2 0.13881013E-02 0.27429005E+03</pdfrwt>
<totfact> 0.88593658E+03</totfact>
</mgrwt>
</event>
<event>
 9    1  0.2024718E-002  0.2751562E+03  0.7818608E-02  0.1098364E+00
          2   -1    0    0  501    0  0.00000000000E+00  0.00000000000E+00  0.21683154420E+03  0.21683154420E+03  0.00000000000E+00 0. -1.
         -2   -1    0    0    0  501 -0.00000000000E+00 -0.00000000000E+00 -0.87292368517E+02  0.87292368517E+02  0.00000000000E+00 0. -1.
         36    2    1    2    0    0  0.00000000000E+00  0.00000000000E+00  0.12953917568E+03  0.30412391271E+03  0.27515623970E+03 0.  0.
         25    2    3    3    0    0  0.16390062601E+02  0.42789728031E+02  0.49258726900E+02  0.14077135678E+03  0.12365499479E+03 0.  0.
         25    2    3    3    0    0 -0.16390062601E+02 -0.42789728031E+02  0.80280448781E+02  0.16335255593E+03  0.13468300597E+03 0.  0.
          5    1    4    4  502    0  0.69338334543E+02  0.13255479829E+02  0.31300686113E+02  0.77364949000E+02  0.47000000000E+01 0. -1.
         -5    1    4    4    0  502 -0.52948271942E+02  0.29534248202E+02  0.17958040787E+02  0.63406407779E+02  0.47000000000E+01 0. -1.
          5    1    5    5  503    0  0.49308968947E+02 -0.48142469419E+02  0.66427728644E+02  0.95832170554E+02  0.47000000000E+01 0. -1.
         -5    1    5    5    0  503 -0.65699031548E+02  0.53527413873E+01  0.13852720137E+02  0.67520385380E+02  0.47000000000E+01 0. -1.
<mgrwt>
<rscale>  0 0.27515624E+03</rscale>
<asrwt>0</asrwt>
<pdfrwt beam="1">  1        2 0.33358699E-01 0.27515624E+03</pdfrwt>
<pdfrwt beam="2">  1       -2 0.13429595E-01 0.27515624E+03</pdfrwt>
<totfact> 0.63632579E+03</totfact>
</mgrwt>
</event>
<event>
 9    1  0.2024718E-002  0.2745060E+03  0.7818608E-02  0.1098728E+00
         -1   -1    0    0    0  501 -0.00000000000E+00  0.00000000000E+00  0.18445380282E+02  0.18445380282E+02  0.00000000000E+00 0.  1.
          1   -1    0    0  501    0  0.00000000000E+00 -0.00000000000E+00 -0.10213066948E+04  0.10213066948E+04  0.00000000000E+00 0.  1.
         36    2    1    2    0    0 -0.35527136788E-14  0.71054273576E-14 -0.10028613146E+04  0.10397520751E+04  0.27450603178E+03 0.  0.
         25    2    3    3    0    0  0.18188050250E+02 -0.43375299919E+02 -0.38463752091E+03  0.40748629842E+03  0.12604300496E+03 0.  0.
         25    2    3    3    0    0 -0.18188050250E+02  0.43375299919E+02 -0.61822379365E+03  0.63226577670E+03  0.12388354020E+03 0.  0.
          5    1    4    4  502    0  0.45239543030E+02  0.30828427745E+02 -0.17454545529E+03  0.18298965592E+03  0.47000000000E+01 0.  1.
         -5    1    4    4    0  502 -0.27051492779E+02 -0.74203727665E+02 -0.21009206562E+03  0.22449664251E+03  0.47000000000E+01 0.  1.
          5    1    5    5  503    0 -0.19683493166E+02 -0.35003214075E+02 -0.95955624398E+02  0.10412606183E+03  0.47000000000E+01 0.  1.
         -5    1    5    5    0  503  0.14954429155E+01  0.78378513994E+02 -0.52226816926E+03  0.52813971487E+03  0.47000000000E+01 0.  1.
<mgrwt>
<rscale>  0 0.27450603E+03</rscale>
<asrwt>0</asrwt>
<pdfrwt beam="1">  1        1 0.15712411E+00 0.27450603E+03</pdfrwt>
<pdfrwt beam="2">  1       -1 0.28377507E-02 0.27450603E+03</pdfrwt>
<totfact> 0.63085946E+03</totfact>
</mgrwt>
</event>
<event>
 9    1  0.2024718E-002  0.2749782E+03  0.7818608E-02  0.1098464E+00
          2   -1    0    0  501    0  0.00000000000E+00  0.00000000000E+00  0.18427987584E+03  0.18427987584E+03  0.00000000000E+00 0. -1.
         -2   -1    0    0    0  501 -0.00000000000E+00 -0.00000000000E+00 -0.10257900930E+03  0.10257900930E+03  0.00000000000E+00 0. -1.
         36    2    1    2    0    0 -0.71054273576E-14  0.00000000000E+00  0.81700866542E+02  0.28685888513E+03  0.27497815984E+03 0.  0.
         25    2    3    3    0    0 -0.54551167519E+02  0.12340817638E+01  0.50766582951E+02  0.14466569488E+03  0.12399017902E+03 0.  0.
         25    2    3    3    0    0  0.54551167519E+02 -0.12340817638E+01  0.30934283590E+02  0.14219319026E+03  0.12761120883E+03 0.  0.
          5    1    4    4  502    0 -0.38719964471E+02  0.60786143516E+02  0.37811737113E+02  0.81523054137E+02  0.47000000000E+01 0. -1.
         -5    1    4    4    0  502 -0.15831203049E+02 -0.59552061753E+02  0.12954845838E+02  0.63142640740E+02  0.47000000000E+01 0. -1.
          5    1    5    5  503    0  0.82297202951E+02  0.37260673005E+02  0.26709801848E+02  0.94322271394E+02  0.47000000000E+01 0. -1.
         -5    1    5    5    0  503 -0.27746035431E+02 -0.38494754768E+02  0.42244817424E+01  0.47870918863E+02  0.47000000000E+01 0. -1.
<mgrwt>
<rscale>  0 0.27497816E+03</rscale>
<asrwt>0</asrwt>
<pdfrwt beam="1">  1        2 0.28350750E-01 0.27497816E+03</pdfrwt>
<pdfrwt beam="2">  1       -2 0.15781386E-01 0.27497816E+03</pdfrwt>
<totfact> 0.58296263E+03</totfact>
</mgrwt>
</event>
<event>
 9    1  0.2024718E-002  0.2759073E+03  0.7818608E-02  0.1097945E+00
         -2   -1    0    0    0  501 -0.00000000000E+00  0.00000000000E+00  0.25528211137E+03  0.25528211137E+03  0.00000000000E+00 0.  1.
          2   -1    0    0  501    0  0.00000000000E+00 -0.00000000000E+00 -0.74549739023E+02  0.74549739023E+02  0.00000000000E+00 0.  1.
         36    2    1    2    0    0  0.17763568394E-14 -0.35527136788E-14  0.18073237235E+03  0.32983185039E+03  0.27590733792E+03 0.  0.
         25    2    3    3    0    0  0.52189674113E+01  0.25008279116E+01  0.22234705454E+02  0.12751345357E+03  0.12542650020E+03 0.  0.
         25    2    3    3    0    0 -0.52189674113E+01 -0.25008279116E+01  0.15849766689E+03  0.20231839683E+03  0.12560944042E+03 0.  0.
          5    1    4    4  502    0 -0.23503875582E+02  0.14908998520E+02  0.66995507116E+02  0.72699369860E+02  0.47000000000E+01 0.  1.
         -5    1    4    4    0  502  0.28722842993E+02 -0.12408170609E+02 -0.44760801662E+02  0.54814083710E+02  0.47000000000E+01 0.  1.
          5    1    5    5  503    0 -0.22177905833E+01  0.46055890276E+02  0.11991191032E+02  0.47874234057E+02  0.47000000000E+01 0. -1.
         -5    1    5    5    0  503 -0.30011768280E+01 -0.48556718188E+02  0.14650647586E+03  0.15444416277E+03  0.47000000000E+01 0. -1.
<mgrwt>
<rscale>  0 0.27590734E+03</rscale>
<asrwt>0</asrwt>
<pdfrwt beam="1">  1        2 0.11469191E-01 0.27590734E+03</pdfrwt>
<pdfrwt beam="2">  1       -2 0.39274170E-01 0.27590734E+03</pdfrwt>
<totfact> 0.33197205E+03</totfact>
</mgrwt>
</event>
<event>
 9    1  0.2024718E-002  0.2745857E+03  0.7818608E-02  0.1098683E+00
          2   -1    0    0  501    0  0.00000000000E+00  0.00000000000E+00  0.69377217458E+03  0.69377217458E+03  0.00000000000E+00 0.  1.
         -2   -1    0    0    0  501 -0.00000000000E+00 -0.00000000000E+00 -0.27169322686E+02  0.27169322686E+02  0.00000000000E+00 0.  1.
         36    2    1    2    0    0  0.00000000000E+00  0.35527136788E-14  0.66660285190E+03  0.72094149727E+03  0.27458565208E+03 0.  0.
         25    2    3    3    0    0  0.43965585624E+02  0.27111913403E+02  0.31508894874E+03  0.34421754591E+03  0.12859488611E+03 0.  0.
         25    2    3    3    0    0 -0.43965585624E+02 -0.27111913403E+02  0.35151390316E+03  0.37672395135E+03  0.12526325415E+03 0.  0.
          5    1    4    4  502    0  0.71507402762E+02  0.73849164505E+01  0.84218082629E+02  0.11082698716E+03  0.47000000000E+01 0. -1.
         -5    1    4    4    0  502 -0.27541817138E+02  0.19726996953E+02  0.23087086611E+03  0.23339055876E+03  0.47000000000E+01 0. -1.
          5    1    5    5  503    0 -0.29173521074E+02 -0.46246745806E+02  0.50115884284E+02  0.74320573780E+02  0.47000000000E+01 0. -1.
         -5    1    5    5    0  503 -0.14792064550E+02  0.19134832402E+02  0.30139801888E+03  0.30240337757E+03  0.47000000000E+01 0. -1.
<mgrwt>
<rscale>  0 0.27458565E+03</rscale>
<asrwt>0</asrwt>
<pdfrwt beam="1">  1        2 0.10673417E+00 0.27458565E+03</pdfrwt>
<pdfrwt beam="2">  1       -2 0.41798963E-02 0.27458565E+03</pdfrwt>
<totfact> 0.10858566E+04</totfact>
</mgrwt>
</event>
<event>
 9    1  0.2024718E-002  0.2728273E+03  0.7818608E-02  0.1099672E+00
         -1   -1    0    0    0  501 -0.00000000000E+00  0.00000000000E+00  0.69480462982E+03  0.69480462982E+03  0.00000000000E+00 0.  1.
          1   -1    0    0  501    0  0.00000000000E+00 -0.00000000000E+00 -0.26782619411E+02  0.26782619411E+02  0.00000000000E+00 0.  1.
         36    2    1    2    0    0  0.00000000000E+00  0.35527136788E-14  0.66802201041E+03  0.72158724923E+03  0.27282732976E+03 0.  0.
         25    2    3    3    0    0 -0.18164689757E+02  0.15406602036E+02  0.45541303339E+03  0.47293902589E+03  0.12531149944E+03 0.  0.
         25    2    3    3    0    0  0.18164689757E+02 -0.15406602036E+02  0.21260897702E+03  0.24864822334E+03  0.12671244027E+03 0.  0.
          5    1    4    4  502    0 -0.15352688222E+02 -0.24010015922E+02  0.18682834979E+02  0.34399479982E+02  0.47000000000E+01 0.  1.
         -5    1    4    4    0  502 -0.28120015352E+01  0.39416617957E+02  0.43673019841E+03  0.43853954591E+03  0.47000000000E+01 0.  1.
          5    1    5    5  503    0 -0.41380229817E+02  0.11640499126E+02  0.25085386814E+02  0.49991912058E+02  0.47000000000E+01 0. -1.
         -5    1    5    5    0  503  0.59544919574E+02 -0.27047101162E+02  0.18752359021E+03  0.19865631128E+03  0.47000000000E+01 0. -1.
<mgrwt>
<rscale>  0 0.27282733E+03</rscale>
<asrwt>0</asrwt>
<pdfrwt beam="1">  1        1 0.41204035E-02 0.27282733E+03</pdfrwt>
<pdfrwt beam="2">  1       -1 0.10689301E+00 0.27282733E+03</pdfrwt>
<totfact> 0.18881845E+03</totfact>
</mgrwt>
</event>
<event>
 9    1  0.2024718E-002  0.2752365E+03  0.7818608E-02  0.1098320E+00
          1   -1    0    0  501    0  0.00000000000E+00  0.00000000000E+00  0.41816655632E+03  0.41816655632E+03  0.00000000000E+00 0. -1.
         -1   -1    0    0    0  501 -0.00000000000E+00 -0.00000000000E+00 -0.45290030436E+02  0.45290030436E+02  0.00000000000E+00 0. -1.
         36    2    1    2    0    0  0.00000000000E+00  0.00000000000E+00  0.37287652588E+03  0.46345658675E+03  0.27523645153E+03 0.  0.
         25    2    3    3    0    0 -0.51822773180E+02  0.33815166632E+02  0.14551967723E+03  0.19692685364E+03  0.11736755901E+03 0.  0.
         25    2    3    3    0    0  0.51822773180E+02 -0.33815166632E+02  0.22735684865E+03  0.26652973311E+03  0.12457085009E+03 0.  0.
          5    1    4    4  502    0 -0.83115379916E+02  0.12041609912E+02  0.60436916979E+02  0.10357546853E+03  0.47000000000E+01 0.  1.
         -5    1    4    4    0  502  0.31292606736E+02  0.21773556720E+02  0.85082760255E+02  0.93351385106E+02  0.47000000000E+01 0.  1.
          5    1    5    5  503    0  0.74406385538E+02 -0.40662201774E+02  0.22710800504E+03  0.24246620551E+03  0.47000000000E+01 0.  1.
         -5    1    5    5    0  503 -0.22583612357E+02  0.68470351421E+01  0.24884360314E+00  0.24063527598E+02  0.47000000000E+01 0.  1.
<mgrwt>
<rscale>  0 0.27523645E+03</rscale>
<asrwt>0</asrwt>
<pdfrwt beam="1">  1        1 0.64333314E-01 0.27523645E+03</pdfrwt>
<pdfrwt beam="2">  1       -1 0.69676972E-02 0.27523645E+03</pdfrwt>
<totfact> 0.60517306E+03</totfact>
</mgrwt>
</event>
<event>
 9    1  0.2024718E-002  0.2753997E+03  0.7818608E-02  0.1098228E+00
         -2   -1    0    0    0  501 -0.00000000000E+00  0.00000000000E+00  0.99337296588E+01  0.99337296588E+01  0.00000000000E+00 0.  1.
          2   -1    0    0  501    0  0.00000000000E+00 -0.00000000000E+00 -0.19087747622E+04  0.19087747622E+04  0.00000000000E+00 0.  1.
         36    2    1    2    0    0 -0.71054273576E-14  0.00000000000E+00 -0.18988410326E+04  0.19187084919E+04  0.27539972743E+03 0.  0.
         25    2    3    3    0    0  0.38893324730E+02 -0.76162913966E+01 -0.64041621732E+03  0.65353241434E+03  0.12410071146E+03 0.  0.
         25    2    3    3    0    0 -0.38893324730E+02  0.76162913966E+01 -0.12584248152E+04  0.12651760775E+04  0.12436556178E+03 0.  0.
          5    1    4    4  502    0  0.52351542473E+02 -0.46212805744E+02 -0.21441060720E+03  0.22554446545E+03  0.47000000000E+01 0. -1.
         -5    1    4    4    0  502 -0.13458217743E+02  0.38596514347E+02 -0.42600561012E+03  0.42798794889E+03  0.47000000000E+01 0. -1.
          5    1    5    5  503    0 -0.79414261445E+02  0.16695355366E+01 -0.10294000663E+04  0.10324708222E+04  0.47000000000E+01 0. -1.
         -5    1    5    5    0  503  0.40520936714E+02  0.59467558601E+01 -0.22902474892E+03  0.23270525529E+03  0.47000000000E+01 0. -1.
<mgrwt>
<rscale>  0 0.27539973E+03</rscale>
<asrwt>0</asrwt>
<pdfrwt beam="1">  1        2 0.29365734E+00 0.27539973E+03</pdfrwt>
<pdfrwt beam="2">  1       -2 0.15282678E-02 0.27539973E+03</pdfrwt>
<totfact> 0.95250753E+03</totfact>
</mgrwt>
</event>
<event>
 9    1  0.2024718E-002  0.2752307E+03  0.7818608E-02  0.1098323E+00
          1   -1    0    0  501    0  0.00000000000E+00  0.00000000000E+00  0.69839158270E+03  0.69839158270E+03  0.00000000000E+00 0. -1.
         -1   -1    0    0    0  501 -0.00000000000E+00 -0.00000000000E+00 -0.27116578653E+02  0.27116578653E+02  0.00000000000E+00 0. -1.
         36    2    1    2    0    0 -0.71054273576E-14 -0.35527136788E-14  0.67127500404E+03  0.72550816135E+03  0.27523074162E+03 0.  0.
         25    2    3    3    0    0  0.49762903510E+02  0.91245280231E+01  0.39709621352E+03  0.41930183948E+03  0.12477590403E+03 0.  0.
         25    2    3    3    0    0 -0.49762903510E+02 -0.91245280231E+01  0.27417879053E+03  0.30620632187E+03  0.12660449755E+03 0.  0.
          5    1    4    4  502    0 -0.35119729506E+02  0.30648259404E+02  0.14601228496E+03  0.15334402030E+03  0.47000000000E+01 0. -1.
         -5    1    4    4    0  502  0.84882633016E+02 -0.21523731380E+02  0.25108392856E+03  0.26595781918E+03  0.47000000000E+01 0. -1.
          5    1    5    5  503    0 -0.12538104628E+02 -0.64091513091E+02  0.17423944072E+03  0.18613543140E+03  0.47000000000E+01 0.  1.
         -5    1    5    5    0  503 -0.37224798882E+02  0.54966985068E+02  0.99939349808E+02  0.12007089047E+03  0.47000000000E+01 0.  1.
<mgrwt>
<rscale>  0 0.27523074E+03</rscale>
<asrwt>0</asrwt>
<pdfrwt beam="1">  1        1 0.10744484E+00 0.27523074E+03</pdfrwt>
<pdfrwt beam="2">  1       -1 0.41717819E-02 0.27523074E+03</pdfrwt>
<totfact> 0.65146302E+03</totfact>
</mgrwt>
</event>
<event>
 9    1  0.2024718E-002  0.2741208E+03  0.7818608E-02  0.1098944E+00
          1   -1    0    0  501    0  0.00000000000E+00  0.00000000000E+00  0.11301474797E+04  0.11301474797E+04  0.00000000000E+00 0. -1.
         -1   -1    0    0    0  501 -0.00000000000E+00 -0.00000000000E+00 -0.16622210303E+02  0.16622210303E+02  0.00000000000E+00 0. -1.
         36    2    1    2    0    0 -0.14210854715E-13  0.00000000000E+00  0.11135252694E+04  0.11467696900E+04  0.27412076959E+03 0.  0.
         25    2    3    3    0    0  0.33247993780E+02 -0.34232053863E+02  0.34998103972E+03  0.37217089334E+03  0.11724838200E+03 0.  0.
         25    2    3    3    0    0 -0.33247993780E+02  0.34232053863E+02  0.76354422963E+03  0.77459879662E+03  0.12135173061E+03 0.  0.
          5    1    4    4  502    0 -0.27674699364E+02  0.28343457133E+01  0.20110761881E+02  0.34647586409E+02  0.47000000000E+01 0.  1.
         -5    1    4    4    0  502  0.60922693144E+02 -0.37066399576E+02  0.32987027784E+03  0.33752330693E+03  0.47000000000E+01 0.  1.
          5    1    5    5  503    0 -0.49778963367E+02  0.40995124582E+02  0.18892762065E+03  0.19968545585E+03  0.47000000000E+01 0. -1.
         -5    1    5    5    0  503  0.16530969586E+02 -0.67630707193E+01  0.57461660898E+03  0.57491334077E+03  0.47000000000E+01 0. -1.
<mgrwt>
<rscale>  0 0.27412077E+03</rscale>
<asrwt>0</asrwt>
<pdfrwt beam="1">  1        1 0.17386878E+00 0.27412077E+03</pdfrwt>
<pdfrwt beam="2">  1       -1 0.25572640E-02 0.27412077E+03</pdfrwt>
<totfact> 0.61275297E+03</totfact>
</mgrwt>
</event>
<event>
 9    1  0.2024718E-002  0.2763042E+03  0.7818608E-02  0.1097725E+00
          2   -1    0    0  501    0  0.00000000000E+00  0.00000000000E+00  0.58892977534E+03  0.58892977534E+03  0.00000000000E+00 0. -1.
         -2   -1    0    0    0  501 -0.00000000000E+00 -0.00000000000E+00 -0.32407934862E+02  0.32407934862E+02  0.00000000000E+00 0. -1.
         36    2    1    2    0    0 -0.14210854715E-13  0.00000000000E+00  0.55652184048E+03  0.62133771020E+03  0.27630416427E+03 0.  0.
         25    2    3    3    0    0  0.44142491408E+02  0.35595318838E+02  0.29393969018E+03  0.32520838627E+03  0.12706048469E+03 0.  0.
         25    2    3    3    0    0 -0.44142491408E+02 -0.35595318838E+02  0.26258215030E+03  0.29612932393E+03  0.12460980926E+03 0.  0.
          5    1    4    4  502    0 -0.23923599208E+01 -0.17644493185E+02  0.22693340175E+03  0.22767940258E+03  0.47000000000E+01 0. -1.
         -5    1    4    4    0  502  0.46534851329E+02  0.53239812024E+02  0.67006288428E+02  0.97528983699E+02  0.47000000000E+01 0. -1.
          5    1    5    5  503    0 -0.33348592976E+02 -0.51918368786E+01  0.26128776742E+03  0.26350041978E+03  0.47000000000E+01 0.  1.
         -5    1    5    5    0  503 -0.10793898432E+02 -0.30403481959E+02  0.12943828784E+01  0.32628904144E+02  0.47000000000E+01 0.  1.
<mgrwt>
<rscale>  0 0.27630416E+03</rscale>
<asrwt>0</asrwt>
<pdfrwt beam="1">  1        2 0.90604573E-01 0.27630416E+03</pdfrwt>
<pdfrwt beam="2">  1       -2 0.49858366E-02 0.27630416E+03</pdfrwt>
<totfact> 0.10094649E+04</totfact>
</mgrwt>
</event>
<event>
 9    1  0.2024718E-002  0.2742948E+03  0.7818608E-02  0.1098846E+00
         -2   -1    0    0    0  501 -0.00000000000E+00  0.00000000000E+00  0.20376183926E+03  0.20376183926E+03  0.00000000000E+00 0.  1.
          2   -1    0    0  501    0  0.00000000000E+00 -0.00000000000E+00 -0.92310761780E+02  0.92310761780E+02  0.00000000000E+00 0.  1.
         36    2    1    2    0    0  0.00000000000E+00  0.00000000000E+00  0.11145107748E+03  0.29607260104E+03  0.27429480931E+03 0.  0.
         25    2    3    3    0    0  0.43261757152E+02 -0.20110393962E+02  0.20251817797E+02  0.13566792904E+03  0.12537800154E+03 0.  0.
         25    2    3    3    0    0 -0.43261757152E+02  0.20110393962E+02  0.91199259679E+02  0.16040467199E+03  0.12302985920E+03 0.  0.
          5    1    4    4  502    0  0.10350178371E+02 -0.16358437753E+02 -0.52195992980E+02  0.55868026287E+02  0.47000000000E+01 0. -1.
         -5    1    4    4    0  502  0.32911578781E+02 -0.37519562092E+01  0.72447810777E+02  0.79799902755E+02  0.47000000000E+01 0. -1.
          5    1    5    5  503    0  0.99828870616E+01 -0.11174195479E+02 -0.24541015835E+02  0.29135410360E+02  0.47000000000E+01 0. -1.
         -5    1    5    5    0  503 -0.53244644214E+02  0.31284589441E+02  0.11574027551E+03  0.13126926163E+03  0.47000000000E+01 0. -1.
<mgrwt>
<rscale>  0 0.27429481E+03</rscale>
<asrwt>0</asrwt>
<pdfrwt beam="1">  1        2 0.14201656E-01 0.27429481E+03</pdfrwt>
<pdfrwt beam="2">  1       -2 0.31347975E-01 0.27429481E+03</pdfrwt>
<totfact> 0.39038604E+03</totfact>
</mgrwt>
</event>
<event>
 9    1  0.2024718E-002  0.2758159E+03  0.7818608E-02  0.1097996E+00
          2   -1    0    0  501    0  0.00000000000E+00  0.00000000000E+00  0.33222977453E+03  0.33222977453E+03  0.00000000000E+00 0.  1.
         -2   -1    0    0    0  501 -0.00000000000E+00 -0.00000000000E+00 -0.57245341996E+02  0.57245341996E+02  0.00000000000E+00 0.  1.
         36    2    1    2    0    0  0.14210854715E-13 -0.35527136788E-14  0.27498443254E+03  0.38947511653E+03  0.27581593184E+03 0.  0.
         25    2    3    3    0    0 -0.46672746253E+02  0.25529692490E+02  0.13339720433E+03  0.18990275937E+03  0.12425028552E+03 0.  0.
         25    2    3    3    0    0  0.46672746253E+02 -0.25529692490E+02  0.14158722820E+03  0.19957235715E+03  0.13020012330E+03 0.  0.
          5    1    4    4  502    0 -0.67450655935E+02  0.45799998464E+02  0.37995656423E+02  0.90072141934E+02  0.47000000000E+01 0. -1.
         -5    1    4    4    0  502  0.20777909683E+02 -0.20270305974E+02  0.95401547910E+02  0.99830617441E+02  0.47000000000E+01 0. -1.
          5    1    5    5  503    0  0.68265035857E+02 -0.31605447530E+02  0.23019360777E+02  0.78809900423E+02  0.47000000000E+01 0.  1.
         -5    1    5    5    0  503 -0.21592289604E+02  0.60757550400E+01  0.11856786743E+03  0.12076245673E+03  0.47000000000E+01 0.  1.
<mgrwt>
<rscale>  0 0.27581593E+03</rscale>
<asrwt>0</asrwt>
<pdfrwt beam="1">  1        2 0.51112272E-01 0.27581593E+03</pdfrwt>
<pdfrwt beam="2">  1       -2 0.88069759E-02 0.27581593E+03</pdfrwt>
<totfact> 0.78916763E+03</totfact>
</mgrwt>
</event>
<event>
 9    1  0.2024718E-002  0.2750734E+03  0.7818608E-02  0.1098411E+00
         -2   -1    0    0    0  501 -0.00000000000E+00  0.00000000000E+00  0.71506020994E+01  0.71506020994E+01  0.00000000000E+00 0. -1.
          2   -1    0    0  501    0  0.00000000000E+00 -0.00000000000E+00 -0.26454188261E+04  0.26454188261E+04  0.00000000000E+00 0. -1.
         36    2    1    2    0    0  0.00000000000E+00  0.71054273576E-14 -0.26382682240E+04  0.26525694282E+04  0.27507335321E+03 0.  0.
         25    2    3    3    0    0  0.96351139074E+01 -0.32150755484E+02 -0.15125942666E+04  0.15185784545E+04  0.13043236022E+03 0.  0.
         25    2    3    3    0    0 -0.96351139074E+01  0.32150755484E+02 -0.11256739574E+04  0.11339909737E+04  0.13291788287E+03 0.  0.
          5    1    4    4  502    0 -0.11719674547E+02  0.20628195108E+02 -0.12315021799E+04  0.12317396569E+04  0.47000000000E+01 0.  1.
         -5    1    4    4    0  502  0.21354788455E+02 -0.52778950592E+02 -0.28109208669E+03  0.28683879762E+03  0.47000000000E+01 0.  1.
          5    1    5    5  503    0 -0.56520763209E+02  0.24642211250E+02 -0.94821164326E+03  0.95022589192E+03  0.47000000000E+01 0. -1.
         -5    1    5    5    0  503  0.46885649302E+02  0.75085442336E+01 -0.17746231412E+03  0.18376508177E+03  0.47000000000E+01 0. -1.
<mgrwt>
<rscale>  0 0.27507335E+03</rscale>
<asrwt>0</asrwt>
<pdfrwt beam="1">  1        2 0.40698791E+00 0.27507335E+03</pdfrwt>
<pdfrwt beam="2">  1       -2 0.11000916E-02 0.27507335E+03</pdfrwt>
<totfact> 0.61835030E+03</totfact>
</mgrwt>
</event>
<event>
 9    1  0.2024718E-002  0.2749700E+03  0.7818608E-02  0.1098468E+00
         -2   -1    0    0    0  501 -0.00000000000E+00  0.00000000000E+00  0.48268339034E+03  0.48268339034E+03  0.00000000000E+00 0. -1.
          2   -1    0    0  501    0  0.00000000000E+00 -0.00000000000E+00 -0.39160501250E+02  0.39160501250E+02  0.00000000000E+00 0. -1.
         36    2    1    2    0    0  0.00000000000E+00  0.71054273576E-14  0.44352288909E+03  0.52184389159E+03  0.27496998753E+03 0.  0.
         25    2    3    3    0    0  0.45994704441E+02 -0.12151838738E+02  0.15215327403E+03  0.20265012760E+03  0.12511305047E+03 0.  0.
         25    2    3    3    0    0 -0.45994704441E+02  0.12151838738E+02  0.29136961507E+03  0.31919376400E+03  0.12134754373E+03 0.  0.
          5    1    4    4  502    0 -0.26846513647E+02  0.36395618478E+02  0.62185036808E+02  0.77035349952E+02  0.47000000000E+01 0. -1.
         -5    1    4    4    0  502  0.72841218088E+02 -0.48547457216E+02  0.89968237217E+02  0.12561477764E+03  0.47000000000E+01 0. -1.
          5    1    5    5  503    0  0.32522544821E+02 -0.22940685117E+02  0.13313825732E+03  0.13903911866E+03  0.47000000000E+01 0.  1.
         -5    1    5    5    0  503 -0.78517249261E+02  0.35092523855E+02  0.15823135775E+03  0.18015464534E+03  0.47000000000E+01 0.  1.
<mgrwt>
<rscale>  0 0.27496999E+03</rscale>
<asrwt>0</asrwt>
<pdfrwt beam="1">  1        2 0.60246928E-02 0.27496999E+03</pdfrwt>
<pdfrwt beam="2">  1       -2 0.74258979E-01 0.27496999E+03</pdfrwt>
<totfact> 0.20575676E+03</totfact>
</mgrwt>
</event>
<event>
 9    1  0.2024718E-002  0.2732988E+03  0.7818608E-02  0.1099406E+00
          1   -1    0    0  501    0  0.00000000000E+00  0.00000000000E+00  0.39104101272E+03  0.39104101272E+03  0.00000000000E+00 0. -1.
         -1   -1    0    0    0  501 -0.00000000000E+00 -0.00000000000E+00 -0.47752167110E+02  0.47752167110E+02  0.00000000000E+00 0. -1.
         36    2    1    2    0    0  0.00000000000E+00  0.00000000000E+00  0.34328884561E+03  0.43879317983E+03  0.27329877999E+03 0.  0.
         25    2    3    3    0    0  0.12211004226E+02  0.41983891436E+02  0.23183090616E+03  0.26751545171E+03  0.12612371739E+03 0.  0.
         25    2    3    3    0    0 -0.12211004226E+02 -0.41983891436E+02  0.11145793945E+03  0.17127772812E+03  0.12248033360E+03 0.  0.
          5    1    4    4  502    0  0.58951782101E+01  0.69299353968E+02  0.56040868962E+02  0.89441727289E+02  0.47000000000E+01 0.  1.
         -5    1    4    4    0  502  0.63158260156E+01 -0.27315462532E+02  0.17579003719E+03  0.17807372442E+03  0.47000000000E+01 0.  1.
          5    1    5    5  503    0  0.15468703287E+02  0.30802477001E+02  0.79860238226E+02  0.87108099625E+02  0.47000000000E+01 0.  1.
         -5    1    5    5    0  503 -0.27679707512E+02 -0.72786368437E+02  0.31597701225E+02  0.84169628494E+02  0.47000000000E+01 0.  1.
<mgrwt>
<rscale>  0 0.27329878E+03</rscale>
<asrwt>0</asrwt>
<pdfrwt beam="1">  1        1 0.60160154E-01 0.27329878E+03</pdfrwt>
<pdfrwt beam="2">  1       -1 0.73464875E-02 0.27329878E+03</pdfrwt>
<totfact> 0.60849758E+03</totfact>
</mgrwt>
</event>
<event>
 9    1  0.2024718E-002  0.2745913E+03  0.7818608E-02  0.1098680E+00
          2   -1    0    0  501    0  0.00000000000E+00  0.00000000000E+00  0.60365278910E+03  0.60365278910E+03  0.00000000000E+00 0. -1.
         -2   -1    0    0    0  501 -0.00000000000E+00 -0.00000000000E+00 -0.31226724855E+02  0.31226724855E+02  0.00000000000E+00 0. -1.
         36    2    1    2    0    0  0.00000000000E+00  0.71054273576E-14  0.57242606425E+03  0.63487951396E+03  0.27459132946E+03 0.  0.
         25    2    3    3    0    0  0.11050774539E+02 -0.26759312249E+02  0.39464443838E+03  0.41541056897E+03  0.12642597698E+03 0.  0.
         25    2    3    3    0    0 -0.11050774539E+02  0.26759312249E+02  0.17778162587E+03  0.21946894499E+03  0.12538792170E+03 0.  0.
          5    1    4    4  502    0  0.59173532055E+02 -0.74234838883E+01  0.10265556104E+03  0.11881443187E+03  0.47000000000E+01 0. -1.
         -5    1    4    4    0  502 -0.48122757516E+02 -0.19335828361E+02  0.29198887734E+03  0.29659613710E+03  0.47000000000E+01 0. -1.
          5    1    5    5  503    0  0.15459545609E+02  0.68350848400E+02  0.62600233490E+02  0.94083554676E+02  0.47000000000E+01 0. -1.
         -5    1    5    5    0  503 -0.26510320148E+02 -0.41591536151E+02  0.11518139238E+03  0.12538539031E+03  0.47000000000E+01 0. -1.
<mgrwt>
<rscale>  0 0.27459133E+03</rscale>
<asrwt>0</asrwt>
<pdfrwt beam="1">  1        2 0.92869651E-01 0.27459133E+03</pdfrwt>
<pdfrwt beam="2">  1       -2 0.48041120E-02 0.27459133E+03</pdfrwt>
<totfact> 0.10376043E+04</totfact>
</mgrwt>
</event>
<event>
 9    1  0.2024718E-002  0.2746852E+03  0.7818608E-02  0.1098628E+00
          2   -1    0    0  501    0  0.00000000000E+00  0.00000000000E+00  0.25443335112E+04  0.25443335112E+04  0.00000000000E+00 0.  1.
         -2   -1    0    0    0  501 -0.00000000000E+00 -0.00000000000E+00 -0.74137253676E+01  0.74137253676E+01  0.00000000000E+00 0.  1.
         36    2    1    2    0    0  0.00000000000E+00 -0.14210854715E-13  0.25369197859E+04  0.25517472366E+04  0.27468520088E+03 0.  0.
         25    2    3    3    0    0 -0.36409290651E+02 -0.30683294719E+02  0.97921326445E+03  0.98833764836E+03  0.12524212101E+03 0.  0.
         25    2    3    3    0    0  0.36409290651E+02  0.30683294719E+02  0.15577065214E+04  0.15634095882E+04  0.12463078558E+03 0.  0.
          5    1    4    4  502    0 -0.18958643147E+02  0.44453033535E+02  0.22522609356E+03  0.23040048949E+03  0.47000000000E+01 0.  1.
         -5    1    4    4    0  502 -0.17450647504E+02 -0.75136328254E+02  0.75398717089E+03  0.75793715886E+03  0.47000000000E+01 0.  1.
          5    1    5    5  503    0  0.52872900586E+02 -0.61949442637E+01  0.27988906660E+03  0.28494543434E+03  0.47000000000E+01 0. -1.
         -5    1    5    5    0  503 -0.16463609935E+02  0.36878238983E+02  0.12778174548E+04  0.12784641539E+04  0.47000000000E+01 0. -1.
<mgrwt>
<rscale>  0 0.27468520E+03</rscale>
<asrwt>0</asrwt>
<pdfrwt beam="1">  1        2 0.39143523E+00 0.27468520E+03</pdfrwt>
<pdfrwt beam="2">  1       -2 0.11405752E-02 0.27468520E+03</pdfrwt>
<totfact> 0.66756202E+03</totfact>
</mgrwt>
</event>
<event>
 9    1  0.2024718E-002  0.2765241E+03  0.7818608E-02  0.1097603E+00
          2   -1    0    0  501    0  0.00000000000E+00  0.00000000000E+00  0.26098508232E+02  0.26098508232E+02  0.00000000000E+00 0.  1.
         -2   -1    0    0    0  501 -0.00000000000E+00 -0.00000000000E+00 -0.73247100816E+03  0.73247100816E+03  0.00000000000E+00 0.  1.
         36    2    1    2    0    0  0.00000000000E+00 -0.35527136788E-14 -0.70637249992E+03  0.75856951639E+03  0.27652414460E+03 0.  0.
         25    2    3    3    0    0  0.56367103213E+02 -0.29093515558E+02 -0.35778573656E+03  0.38294426055E+03  0.12088006633E+03 0.  0.
         25    2    3    3    0    0 -0.56367103213E+02  0.29093515558E+02 -0.34858676337E+03  0.37562525583E+03  0.12473138440E+03 0.  0.
          5    1    4    4  502    0  0.82370423855E+02 -0.30965319753E+02 -0.15389723232E+03  0.17734200255E+03  0.47000000000E+01 0. -1.
         -5    1    4    4    0  502 -0.26003320642E+02  0.18718041959E+01 -0.20388850424E+03  0.20560225800E+03  0.47000000000E+01 0. -1.
          5    1    5    5  503    0  0.22079359530E+02  0.52452670850E+02 -0.16376963934E+03  0.17343980387E+03  0.47000000000E+01 0. -1.
         -5    1    5    5    0  503 -0.78446462743E+02 -0.23359155292E+02 -0.18481712403E+03  0.20218545197E+03  0.47000000000E+01 0. -1.
<mgrwt>
<rscale>  0 0.27652414E+03</rscale>
<asrwt>0</asrwt>
<pdfrwt beam="1">  1        2 0.40151554E-02 0.27652414E+03</pdfrwt>
<pdfrwt beam="2">  1       -2 0.11268784E+00 0.27652414E+03</pdfrwt>
<totfact> 0.13627271E+03</totfact>
</mgrwt>
</event>
<event>
 9    1  0.2024718E-002  0.2748522E+03  0.7818608E-02  0.1098534E+00
         -2   -1    0    0    0  501 -0.00000000000E+00  0.00000000000E+00  0.10341222536E+02  0.10341222536E+02  0.00000000000E+00 0.  1.
          2   -1    0    0  501    0  0.00000000000E+00 -0.00000000000E+00 -0.18262767320E+04  0.18262767320E+04  0.00000000000E+00 0.  1.
         36    2    1    2    0    0  0.00000000000E+00  0.00000000000E+00 -0.18159355095E+04  0.18366179546E+04  0.27485220827E+03 0.  0.
         25    2    3    3    0    0  0.24355666307E+02 -0.26548584364E+02 -0.12765397808E+04  0.12824279886E+04  0.11734440026E+03 0.  0.
         25    2    3    3    0    0 -0.24355666307E+02  0.26548584364E+02 -0.53939572874E+03  0.55418996596E+03  0.12198664019E+03 0.  0.
          5    1    4    4  502    0  0.71195824358E+02 -0.14981454046E+02 -0.85745497322E+03  0.86054890068E+03  0.47000000000E+01 0.  1.
         -5    1    4    4    0  502 -0.46840158051E+02 -0.11567130318E+02 -0.41908480755E+03  0.42187908792E+03  0.47000000000E+01 0.  1.
          5    1    5    5  503    0 -0.27811018690E+02 -0.19426669124E+02 -0.40043235229E+02  0.52691545066E+02  0.47000000000E+01 0.  1.
         -5    1    5    5    0  503  0.34553523828E+01  0.45975253488E+02 -0.49935249351E+03  0.50149842090E+03  0.47000000000E+01 0.  1.
<mgrwt>
<rscale>  0 0.27485221E+03</rscale>
<asrwt>0</asrwt>
<pdfrwt beam="1">  1        2 0.28096554E+00 0.27485221E+03</pdfrwt>
<pdfrwt beam="2">  1       -2 0.15909579E-02 0.27485221E+03</pdfrwt>
<totfact> 0.99220025E+03</totfact>
</mgrwt>
</event>
<event>
 9    1  0.2024718E-002  0.2749773E+03  0.7818608E-02  0.1098464E+00
         -1   -1    0    0    0  501 -0.00000000000E+00  0.00000000000E+00  0.13300897554E+03  0.13300897554E+03  0.00000000000E+00 0.  1.
          1   -1    0    0  501    0  0.00000000000E+00 -0.00000000000E+00 -0.14211915690E+03  0.14211915690E+03  0.00000000000E+00 0.  1.
         36    2    1    2    0    0  0.71054273576E-14  0.00000000000E+00 -0.91101813639E+01  0.27512813244E+03  0.27497726061E+03 0.  0.
         25    2    3    3    0    0  0.45047457479E+02 -0.28075140823E+02 -0.21551282945E+02  0.13878636976E+03  0.12641088433E+03 0.  0.
         25    2    3    3    0    0 -0.45047457479E+02  0.28075140823E+02  0.12441101582E+02  0.13634176268E+03  0.12496722884E+03 0.  0.
          5    1    4    4  502    0 -0.50830757858E+01 -0.68928566404E+02 -0.25517675787E+02  0.73825650715E+02  0.47000000000E+01 0.  1.
         -5    1    4    4    0  502  0.50130533264E+02  0.40853425581E+02  0.39663928420E+01  0.64960719048E+02  0.47000000000E+01 0.  1.
          5    1    5    5  503    0 -0.36233818497E+02 -0.47041251793E+02  0.10871621850E+02  0.60547924282E+02  0.47000000000E+01 0.  1.
         -5    1    5    5    0  503 -0.88136389816E+01  0.75116392616E+02  0.15694797311E+01  0.75793838393E+02  0.47000000000E+01 0.  1.
<mgrwt>
<rscale>  0 0.27497726E+03</rscale>
<asrwt>0</asrwt>
<pdfrwt beam="1">  1        1 0.21864486E-01 0.27497726E+03</pdfrwt>
<pdfrwt beam="2">  1       -1 0.20462919E-01 0.27497726E+03</pdfrwt>
<totfact> 0.43890849E+03</totfact>
</mgrwt>
</event>
<event>
 9    1  0.2024718E-002  0.2748079E+03  0.7818608E-02  0.1098559E+00
         -2   -1    0    0    0  501 -0.00000000000E+00  0.00000000000E+00  0.38640906411E+02  0.38640906411E+02  0.00000000000E+00 0. -1.
          2   -1    0    0  501    0  0.00000000000E+00 -0.00000000000E+00 -0.48859725683E+03  0.48859725683E+03  0.00000000000E+00 0. -1.
         36    2    1    2    0    0  0.71054273576E-14  0.00000000000E+00 -0.44995635041E+03  0.52723816324E+03  0.27480786651E+03 0.  0.
         25    2    3    3    0    0  0.16443712784E+02 -0.15627769379E+02 -0.31924165769E+03  0.34614434320E+03  0.13185616199E+03 0.  0.
         25    2    3    3    0    0 -0.16443712784E+02  0.15627769379E+02 -0.13071469272E+03  0.18109382004E+03  0.12326401704E+03 0.  0.
          5    1    4    4  502    0  0.29472951880E+02 -0.70288077933E+02 -0.16193386976E+03  0.17903557459E+03  0.47000000000E+01 0. -1.
         -5    1    4    4    0  502 -0.13029239097E+02  0.54660308554E+02 -0.15730778793E+03  0.16710876861E+03  0.47000000000E+01 0. -1.
          5    1    5    5  503    0  0.29164204358E+02  0.32663257463E+02 -0.12416660425E+03  0.13174549258E+03  0.47000000000E+01 0.  1.
         -5    1    5    5    0  503 -0.45607917142E+02 -0.17035488084E+02 -0.65480884710E+01  0.49348327458E+02  0.47000000000E+01 0.  1.
<mgrwt>
<rscale>  0 0.27480787E+03</rscale>
<asrwt>0</asrwt>
<pdfrwt beam="1">  1        2 0.75168807E-01 0.27480787E+03</pdfrwt>
<pdfrwt beam="2">  1       -2 0.59447550E-02 0.27480787E+03</pdfrwt>
<totfact> 0.95362256E+03</totfact>
</mgrwt>
</event>
<event>
 9    1  0.2024718E-002  0.2846072E+03  0.7818608E-02  0.1093199E+00
         -1   -1    0    0    0  501 -0.00000000000E+00  0.00000000000E+00  0.62698729594E+03  0.62698729594E+03  0.00000000000E+00 0. -1.
          1   -1    0    0  501    0  0.00000000000E+00 -0.00000000000E+00 -0.32297798704E+02  0.32297798704E+02  0.00000000000E+00 0. -1.
         36    2    1    2    0    0  0.14210854715E-13  0.00000000000E+00  0.59468949724E+03  0.65928509465E+03  0.28460716417E+03 0.  0.
         25    2    3    3    0    0 -0.62857804692E+02  0.21748705703E+02  0.28240907162E+03  0.31599262008E+03  0.12518922638E+03 0.  0.
         25    2    3    3    0    0  0.62857804692E+02 -0.21748705703E+02  0.31228042562E+03  0.34329247457E+03  0.12612116816E+03 0.  0.
          5    1    4    4  502    0 -0.18942650753E+02  0.60089657801E+02  0.22626296092E+03  0.23491830171E+03  0.47000000000E+01 0.  1.
         -5    1    4    4    0  502 -0.43915153939E+02 -0.38340952098E+02  0.56146110695E+02  0.81074318372E+02  0.47000000000E+01 0.  1.
          5    1    5    5  503    0  0.46533259068E+02 -0.54774020074E+02  0.29245546974E+03  0.30119400601E+03  0.47000000000E+01 0. -1.
         -5    1    5    5    0  503  0.16324545624E+02  0.33025314371E+02  0.19824955878E+02  0.42098468555E+02  0.47000000000E+01 0. -1.
<mgrwt>
<rscale>  0 0.28460716E+03</rscale>
<asrwt>0</asrwt>
<pdfrwt beam="1">  1        1 0.49688926E-02 0.28460716E+03</pdfrwt>
<pdfrwt beam="2">  1       -1 0.96459575E-01 0.28460716E+03</pdfrwt>
<totfact> 0.18334592E+03</totfact>
</mgrwt>
</event>
<event>
 9    1  0.2024718E-002  0.2747221E+03  0.7818608E-02  0.1098607E+00
          1   -1    0    0  501    0  0.00000000000E+00  0.00000000000E+00  0.27081391350E+03  0.27081391350E+03  0.00000000000E+00 0.  1.
         -1   -1    0    0    0  501 -0.00000000000E+00 -0.00000000000E+00 -0.69671690399E+02  0.69671690399E+02  0.00000000000E+00 0.  1.
         36    2    1    2    0    0  0.35527136788E-14 -0.14210854715E-13  0.20114222310E+03  0.34048560390E+03  0.27472213698E+03 0.  0.
         25    2    3    3    0    0 -0.19875527348E+02  0.50375562689E+02  0.75848449438E+02  0.15555061438E+03  0.12454024429E+03 0.  0.
         25    2    3    3    0    0  0.19875527348E+02 -0.50375562689E+02  0.12529377366E+03  0.18493498952E+03  0.12477855074E+03 0.  0.
          5    1    4    4  502    0  0.27890633123E+02  0.70222635111E+02  0.70308788849E+02  0.10331757686E+03  0.47000000000E+01 0.  1.
         -5    1    4    4    0  502 -0.47766160470E+02 -0.19847072421E+02  0.55396605887E+01  0.52233037526E+02  0.47000000000E+01 0.  1.
          5    1    5    5  503    0  0.39876929875E+02 -0.81975317739E+00  0.12499428692E+03  0.13128786423E+03  0.47000000000E+01 0.  1.
         -5    1    5    5    0  503 -0.20001402528E+02 -0.49555809512E+02  0.29948674519E+00  0.53647125289E+02  0.47000000000E+01 0.  1.
<mgrwt>
<rscale>  0 0.27472214E+03</rscale>
<asrwt>0</asrwt>
<pdfrwt beam="1">  1        1 0.41663678E-01 0.27472214E+03</pdfrwt>
<pdfrwt beam="2">  1       -1 0.10718722E-01 0.27472214E+03</pdfrwt>
<totfact> 0.54202891E+03</totfact>
</mgrwt>
</event>
<event>
 9    1  0.2024718E-002  0.2764180E+03  0.7818608E-02  0.1097662E+00
         -1   -1    0    0    0  501 -0.00000000000E+00  0.00000000000E+00  0.13941740533E+03  0.13941740533E+03  0.00000000000E+00 0. -1.
          1   -1    0    0  501    0  0.00000000000E+00 -0.00000000000E+00 -0.13701110956E+03  0.13701110956E+03  0.00000000000E+00 0. -1.
         36    2    1    2    0    0  0.71054273576E-14  0.00000000000E+00  0.24062957651E+01  0.27642851489E+03  0.27641804135E+03 0.  0.
         25    2    3    3    0    0  0.36939297021E+02  0.86090340364E+01 -0.47896795652E+02  0.14121651617E+03  0.12731604091E+03 0.  0.
         25    2    3    3    0    0 -0.36939297021E+02 -0.86090340364E+01  0.50303091418E+02  0.13521199872E+03  0.11963802264E+03 0.  0.
          5    1    4    4  502    0  0.80138463187E+02 -0.65082433252E+01 -0.91345994661E+01  0.81055915396E+02  0.47000000000E+01 0. -1.
         -5    1    4    4    0  502 -0.43199166167E+02  0.15117277362E+02 -0.38762196186E+02  0.60160600774E+02  0.47000000000E+01 0. -1.
          5    1    5    5  503    0  0.26946267642E+02 -0.93778882888E+01  0.63527146825E+02  0.69798528010E+02  0.47000000000E+01 0.  1.
         -5    1    5    5    0  503 -0.63885564663E+02  0.76885425236E+00 -0.13224055407E+02  0.65413470712E+02  0.47000000000E+01 0.  1.
<mgrwt>
<rscale>  0 0.27641804E+03</rscale>
<asrwt>0</asrwt>
<pdfrwt beam="1">  1        1 0.21078632E-01 0.27641804E+03</pdfrwt>
<pdfrwt beam="2">  1       -1 0.21448832E-01 0.27641804E+03</pdfrwt>
<totfact> 0.42605951E+03</totfact>
</mgrwt>
</event>
<event>
 9    1  0.2024718E-002  0.2728362E+03  0.7818608E-02  0.1099667E+00
         -2   -1    0    0    0  501 -0.00000000000E+00  0.00000000000E+00  0.97236366297E+01  0.97236366297E+01  0.00000000000E+00 0. -1.
          2   -1    0    0  501    0  0.00000000000E+00 -0.00000000000E+00 -0.19138818422E+04  0.19138818422E+04  0.00000000000E+00 0. -1.
         36    2    1    2    0    0  0.00000000000E+00  0.00000000000E+00 -0.19041582056E+04  0.19236054789E+04  0.27283615293E+03 0.  0.
         25    2    3    3    0    0 -0.58710263069E+01 -0.31656203528E+02 -0.12806561624E+04  0.12870844995E+04  0.12437732299E+03 0.  0.
         25    2    3    3    0    0  0.58710263069E+01  0.31656203528E+02 -0.62350204321E+03  0.63652097934E+03  0.12396602388E+03 0.  0.
          5    1    4    4  502    0  0.30671954851E+02 -0.43858321560E+02 -0.11372710224E+04  0.11385393228E+04  0.47000000000E+01 0.  1.
         -5    1    4    4    0  502 -0.36542981158E+02  0.12202118032E+02 -0.14338514002E+03  0.14854517674E+03  0.47000000000E+01 0.  1.
          5    1    5    5  503    0  0.45889241120E+02  0.19045154188E+00 -0.50945873322E+03  0.51154291078E+03  0.47000000000E+01 0.  1.
         -5    1    5    5    0  503 -0.40018214813E+02  0.31465751986E+02 -0.11404331000E+03  0.12497806855E+03  0.47000000000E+01 0.  1.
<mgrwt>
<rscale>  0 0.27283615E+03</rscale>
<asrwt>0</asrwt>
<pdfrwt beam="1">  1        2 0.29444352E+00 0.27283615E+03</pdfrwt>
<pdfrwt beam="2">  1       -2 0.14959433E-02 0.27283615E+03</pdfrwt>
<totfact> 0.97660758E+03</totfact>
</mgrwt>
</event>
<event>
 9    1  0.2024718E-002  0.2749111E+03  0.7818608E-02  0.1098501E+00
          2   -1    0    0  501    0  0.00000000000E+00  0.00000000000E+00  0.45208361366E+03  0.45208361366E+03  0.00000000000E+00 0.  1.
         -2   -1    0    0    0  501 -0.00000000000E+00 -0.00000000000E+00 -0.41793226662E+02  0.41793226662E+02  0.00000000000E+00 0.  1.
         36    2    1    2    0    0 -0.14210854715E-13  0.00000000000E+00  0.41029038700E+03  0.49387684032E+03  0.27491113427E+03 0.  0.
         25    2    3    3    0    0  0.46510283783E+02 -0.41644894631E+02  0.23158445890E+03  0.26854028753E+03  0.12076845895E+03 0.  0.
         25    2    3    3    0    0 -0.46510283783E+02  0.41644894631E+02  0.17870592810E+03  0.22533655279E+03  0.12224258481E+03 0.  0.
          5    1    4    4  502    0 -0.35948680200E+02 -0.38710410165E+02  0.82387169805E+02  0.97982341326E+02  0.47000000000E+01 0. -1.
         -5    1    4    4    0  502  0.82458963983E+02 -0.29344844659E+01  0.14919728909E+03  0.17055794620E+03  0.47000000000E+01 0. -1.
          5    1    5    5  503    0  0.22251424120E+01 -0.21575682317E+02  0.12962717633E+03  0.13151333077E+03  0.47000000000E+01 0. -1.
         -5    1    5    5    0  503 -0.48735426195E+02  0.63220576948E+02  0.49078751771E+02  0.93823222027E+02  0.47000000000E+01 0. -1.
<mgrwt>
<rscale>  0 0.27491113E+03</rscale>
<asrwt>0</asrwt>
<pdfrwt beam="1">  1        2 0.69551322E-01 0.27491113E+03</pdfrwt>
<pdfrwt beam="2">  1       -2 0.64297275E-02 0.27491113E+03</pdfrwt>
<totfact> 0.92131743E+03</totfact>
</mgrwt>
</event>
<event>
 9    1  0.2024718E-002  0.2755636E+03  0.7818608E-02  0.1098137E+00
         -1   -1    0    0    0  501 -0.00000000000E+00  0.00000000000E+00  0.78721945216E+02  0.78721945216E+02  0.00000000000E+00 0. -1.
          1   -1    0    0  501    0  0.00000000000E+00 -0.00000000000E+00 -0.24115030924E+03  0.24115030924E+03  0.00000000000E+00 0. -1.
         36    2    1    2    0    0  0.00000000000E+00  0.00000000000E+00 -0.16242836402E+03  0.31987225445E+03  0.27556357838E+03 0.  0.
         25    2    3    3    0    0 -0.53564935363E+02  0.16504447917E+02 -0.83674836115E+02  0.16185557831E+03  0.12670497595E+03 0.  0.
         25    2    3    3    0    0  0.53564935363E+02 -0.16504447917E+02 -0.78753527905E+02  0.15801667614E+03  0.12500221070E+03 0.  0.
          5    1    4    4  502    0 -0.62536681633E+02  0.64168320403E+02 -0.57086599181E+02  0.10634556737E+03  0.47000000000E+01 0.  1.
         -5    1    4    4    0  502  0.89717462698E+01 -0.47663872487E+02 -0.26588236934E+02  0.55510010942E+02  0.47000000000E+01 0.  1.
          5    1    5    5  503    0 -0.28227928303E+01  0.41500712227E+02 -0.62730201257E+02  0.75415153812E+02  0.47000000000E+01 0. -1.
         -5    1    5    5    0  503  0.56387728193E+02 -0.58005160144E+02 -0.16023326648E+02  0.82601522329E+02  0.47000000000E+01 0. -1.
<mgrwt>
<rscale>  0 0.27556358E+03</rscale>
<asrwt>0</asrwt>
<pdfrwt beam="1">  1        1 0.37100047E-01 0.27556358E+03</pdfrwt>
<pdfrwt beam="2">  1       -1 0.12111069E-01 0.27556358E+03</pdfrwt>
<totfact> 0.51844821E+03</totfact>
</mgrwt>
</event>
<event>
 9    1  0.2024718E-002  0.2756412E+03  0.7818608E-02  0.1098094E+00
         -2   -1    0    0    0  501 -0.00000000000E+00  0.00000000000E+00  0.43408236568E+03  0.43408236568E+03  0.00000000000E+00 0.  1.
          2   -1    0    0  501    0  0.00000000000E+00 -0.00000000000E+00 -0.43757872271E+02  0.43757872271E+02  0.00000000000E+00 0.  1.
         36    2    1    2    0    0 -0.71054273576E-14  0.71054273576E-14  0.39032449341E+03  0.47784023795E+03  0.27564122125E+03 0.  0.
         25    2    3    3    0    0  0.36351552392E+02 -0.43206722997E+02  0.20892954299E+03  0.25043301746E+03  0.12600351592E+03 0.  0.
         25    2    3    3    0    0 -0.36351552392E+02  0.43206722997E+02  0.18139495042E+03  0.22740722049E+03  0.12498663777E+03 0.  0.
          5    1    4    4  502    0  0.43249844214E+02  0.26312342618E+02  0.31804671805E+02  0.59970955864E+02  0.47000000000E+01 0. -1.
         -5    1    4    4    0  502 -0.68982918219E+01 -0.69519065616E+02  0.17712487119E+03  0.19046206160E+03  0.47000000000E+01 0. -1.
          5    1    5    5  503    0  0.38703380739E+02 -0.82069540596E+01  0.89712910679E+02  0.98162121606E+02  0.47000000000E+01 0.  1.
         -5    1    5    5    0  503 -0.75054933131E+02  0.51413677057E+02  0.91682039740E+02  0.12924509889E+03  0.47000000000E+01 0.  1.
<mgrwt>
<rscale>  0 0.27564122E+03</rscale>
<asrwt>0</asrwt>
<pdfrwt beam="1">  1        2 0.67319806E-02 0.27564122E+03</pdfrwt>
<pdfrwt beam="2">  1       -2 0.66781900E-01 0.27564122E+03</pdfrwt>
<totfact> 0.22369942E+03</totfact>
</mgrwt>
</event>
<event>
 9    1  0.2024718E-002  0.2760594E+03  0.7818608E-02  0.1097861E+00
         -2   -1    0    0    0  501 -0.00000000000E+00  0.00000000000E+00  0.34444068840E+03  0.34444068840E+03  0.00000000000E+00 0. -1.
          2   -1    0    0  501    0  0.00000000000E+00 -0.00000000000E+00 -0.55313446439E+02  0.55313446439E+02  0.00000000000E+00 0. -1.
         36    2    1    2    0    0  0.00000000000E+00  0.00000000000E+00  0.28912724196E+03  0.39975413484E+03  0.27605942526E+03 0.  0.
         25    2    3    3    0    0 -0.15461325620E+02 -0.54226521720E+02  0.11782439284E+03  0.18034576058E+03  0.12434805010E+03 0.  0.
         25    2    3    3    0    0  0.15461325620E+02  0.54226521720E+02  0.17130284912E+03  0.21940837426E+03  0.12496319591E+03 0.  0.
          5    1    4    4  502    0 -0.55551756204E+02 -0.40842850535E+02  0.17368435127E+02  0.71259305329E+02  0.47000000000E+01 0.  1.
         -5    1    4    4    0  502  0.40090430584E+02 -0.13383671184E+02  0.10045595771E+03  0.10908645525E+03  0.47000000000E+01 0.  1.
          5    1    5    5  503    0 -0.40474860325E+02 -0.14782587132E+02  0.31032035961E+02  0.53308690254E+02  0.47000000000E+01 0. -1.
         -5    1    5    5    0  503  0.55936185945E+02  0.69009108852E+02  0.14027081316E+03  0.16609968401E+03  0.47000000000E+01 0. -1.
<mgrwt>
<rscale>  0 0.27605943E+03</rscale>
<asrwt>0</asrwt>
<pdfrwt beam="1">  1        2 0.85097612E-02 0.27605943E+03</pdfrwt>
<pdfrwt beam="2">  1       -2 0.52990874E-01 0.27605943E+03</pdfrwt>
<totfact> 0.26754033E+03</totfact>
</mgrwt>
</event>
<event>
 9    1  0.2024718E-002  0.2802440E+03  0.7818608E-02  0.1095556E+00
         -2   -1    0    0    0  501 -0.00000000000E+00  0.00000000000E+00  0.13778994789E+02  0.13778994789E+02  0.00000000000E+00 0.  1.
          2   -1    0    0  501    0  0.00000000000E+00 -0.00000000000E+00 -0.14249353824E+04  0.14249353824E+04  0.00000000000E+00 0.  1.
         36    2    1    2    0    0  0.00000000000E+00 -0.35527136788E-14 -0.14111563876E+04  0.14387143772E+04  0.28024401659E+03 0.  0.
         25    2    3    3    0    0  0.53307387518E+02 -0.19475882981E+02 -0.88785060433E+03  0.89847839205E+03  0.12555372473E+03 0.  0.
         25    2    3    3    0    0 -0.53307387518E+02  0.19475882981E+02 -0.52330578332E+03  0.54023598518E+03  0.12159354111E+03 0.  0.
          5    1    4    4  502    0 -0.24137577249E+01 -0.12385441886E+02 -0.58545454446E+01  0.14683020787E+02  0.47000000000E+01 0. -1.
         -5    1    4    4    0  502  0.55721145243E+02 -0.70904410957E+01 -0.88199605888E+03  0.88379537126E+03  0.47000000000E+01 0. -1.
          5    1    5    5  503    0 -0.17055881609E+02 -0.51321025940E+02 -0.22755158892E+03  0.23393709929E+03  0.47000000000E+01 0. -1.
         -5    1    5    5    0  503 -0.36251505909E+02  0.70796908921E+02 -0.29575419440E+03  0.30629888589E+03  0.47000000000E+01 0. -1.
<mgrwt>
<rscale>  0 0.28024402E+03</rscale>
<asrwt>0</asrwt>
<pdfrwt beam="1">  1        2 0.21922084E+00 0.28024402E+03</pdfrwt>
<pdfrwt beam="2">  1       -2 0.21198452E-02 0.28024402E+03</pdfrwt>
<totfact> 0.10629837E+04</totfact>
</mgrwt>
</event>
<event>
 9    1  0.2024718E-002  0.2731850E+03  0.7818608E-02  0.1099470E+00
         -3   -1    0    0    0  501 -0.00000000000E+00  0.00000000000E+00  0.30982763340E+03  0.30982763340E+03  0.00000000000E+00 0. -1.
          3   -1    0    0  501    0  0.00000000000E+00 -0.00000000000E+00 -0.60219010695E+02  0.60219010695E+02  0.00000000000E+00 0. -1.
         36    2    1    2    0    0 -0.35527136788E-14  0.14210854715E-13  0.24960862270E+03  0.37004664409E+03  0.27318501840E+03 0.  0.
         25    2    3    3    0    0 -0.24683192709E+02  0.43710469122E+02  0.10480217336E+03  0.17058982792E+03  0.12489006659E+03 0.  0.
         25    2    3    3    0    0  0.24683192709E+02 -0.43710469122E+02  0.14480644934E+03  0.19945681618E+03  0.12764892728E+03 0.  0.
          5    1    4    4  502    0 -0.11211267388E+02 -0.27473184781E+02 -0.12580471533E+02  0.32570334086E+02  0.47000000000E+01 0.  1.
         -5    1    4    4    0  502 -0.13471925321E+02  0.71183653903E+02  0.11738264489E+03  0.13801949383E+03  0.47000000000E+01 0.  1.
          5    1    5    5  503    0  0.31188842489E+02 -0.60273034205E+02  0.16715722925E+02  0.70050609854E+02  0.47000000000E+01 0. -1.
         -5    1    5    5    0  503 -0.65056497793E+01  0.16562565082E+02  0.12809072642E+03  0.12940620632E+03  0.47000000000E+01 0. -1.
<mgrwt>
<rscale>  0 0.27318502E+03</rscale>
<asrwt>0</asrwt>
<pdfrwt beam="1">  1        3 0.92644633E-02 0.27318502E+03</pdfrwt>
<pdfrwt beam="2">  1       -3 0.47665789E-01 0.27318502E+03</pdfrwt>
<totfact> 0.93572134E+02</totfact>
</mgrwt>
</event>
<event>
 9    1  0.2024718E-002  0.2716898E+03  0.7818608E-02  0.1100316E+00
          1   -1    0    0  501    0  0.00000000000E+00  0.00000000000E+00  0.13438266978E+04  0.13438266978E+04  0.00000000000E+00 0.  1.
         -1   -1    0    0    0  501 -0.00000000000E+00 -0.00000000000E+00 -0.13732300715E+02  0.13732300715E+02  0.00000000000E+00 0.  1.
         36    2    1    2    0    0 -0.35527136788E-14 -0.35527136788E-14  0.13300943971E+04  0.13575589985E+04  0.27168976663E+03 0.  0.
         25    2    3    3    0    0  0.12406453070E+02  0.22081942983E+02  0.91181732437E+03  0.92068629364E+03  0.12494353118E+03 0.  0.
         25    2    3    3    0    0 -0.12406453070E+02 -0.22081942983E+02  0.41827707268E+03  0.43687270484E+03  0.12353347087E+03 0.  0.
          5    1    4    4  502    0 -0.70400831368E+01  0.44498031672E+02  0.11945538441E+03  0.12775490777E+03  0.47000000000E+01 0.  1.
         -5    1    4    4    0  502  0.19446536206E+02 -0.22416088689E+02  0.79236193996E+03  0.79293138587E+03  0.47000000000E+01 0.  1.
          5    1    5    5  503    0 -0.43255146501E+02 -0.32001485766E+02  0.77145792420E+02  0.94173595440E+02  0.47000000000E+01 0.  1.
         -5    1    5    5    0  503  0.30848693431E+02  0.99195427836E+01  0.34113128026E+03  0.34269910940E+03  0.47000000000E+01 0.  1.
<mgrwt>
<rscale>  0 0.27168977E+03</rscale>
<asrwt>0</asrwt>
<pdfrwt beam="1">  1        1 0.20674247E+00 0.27168977E+03</pdfrwt>
<pdfrwt beam="2">  1       -1 0.21126627E-02 0.27168977E+03</pdfrwt>
<totfact> 0.57620690E+03</totfact>
</mgrwt>
</event>
<event>
 9    1  0.2024718E-002  0.2746394E+03  0.7818608E-02  0.1098653E+00
          2   -1    0    0  501    0  0.00000000000E+00  0.00000000000E+00  0.53723173108E+03  0.53723173108E+03  0.00000000000E+00 0.  1.
         -2   -1    0    0    0  501 -0.00000000000E+00 -0.00000000000E+00 -0.35099756359E+02  0.35099756359E+02  0.00000000000E+00 0.  1.
         36    2    1    2    0    0  0.00000000000E+00  0.00000000000E+00  0.50213197472E+03  0.57233148744E+03  0.27463942083E+03 0.  0.
         25    2    3    3    0    0 -0.59763934511E+02  0.17180948680E+02  0.22436110975E+03  0.26275564202E+03  0.12180191698E+03 0.  0.
         25    2    3    3    0    0  0.59763934511E+02 -0.17180948680E+02  0.27777086498E+03  0.30957584542E+03  0.12171128860E+03 0.  0.
          5    1    4    4  502    0 -0.43486609365E+02  0.51899309928E+02  0.50354010580E+02  0.84511774011E+02  0.47000000000E+01 0.  1.
         -5    1    4    4    0  502 -0.16277325147E+02 -0.34718361249E+02  0.17400709917E+03  0.17824386801E+03  0.47000000000E+01 0.  1.
          5    1    5    5  503    0  0.14641909350E+02 -0.59561097241E+02  0.20444347212E+03  0.21349738431E+03  0.47000000000E+01 0.  1.
         -5    1    5    5    0  503  0.45122025161E+02  0.42380148562E+02  0.73327392854E+02  0.96078461111E+02  0.47000000000E+01 0.  1.
<mgrwt>
<rscale>  0 0.27463942E+03</rscale>
<asrwt>0</asrwt>
<pdfrwt beam="1">  1        2 0.82651030E-01 0.27463942E+03</pdfrwt>
<pdfrwt beam="2">  1       -2 0.53999629E-02 0.27463942E+03</pdfrwt>
<totfact> 0.99287626E+03</totfact>
</mgrwt>
</event>
<event>
 9    1  0.2024718E-002  0.2752121E+03  0.7818608E-02  0.1098333E+00
          1   -1    0    0  501    0  0.00000000000E+00  0.00000000000E+00  0.97335734338E+02  0.97335734338E+02  0.00000000000E+00 0. -1.
         -1   -1    0    0    0  501 -0.00000000000E+00 -0.00000000000E+00 -0.19453717858E+03  0.19453717858E+03  0.00000000000E+00 0. -1.
         36    2    1    2    0    0  0.00000000000E+00  0.00000000000E+00 -0.97201444240E+02  0.29187291292E+03  0.27521205739E+03 0.  0.
         25    2    3    3    0    0  0.45967139752E+02 -0.30264140837E+02 -0.11013160462E+02  0.13017231605E+03  0.11745061091E+03 0.  0.
         25    2    3    3    0    0 -0.45967139752E+02  0.30264140837E+02 -0.86188283778E+02  0.16170059687E+03  0.12525879853E+03 0.  0.
          5    1    4    4  502    0  0.46331124910E+02  0.21583187317E+02 -0.44783078001E+02  0.68117700970E+02  0.47000000000E+01 0. -1.
         -5    1    4    4    0  502 -0.36398515720E+00 -0.51847328154E+02  0.33769917538E+02  0.62054615078E+02  0.47000000000E+01 0. -1.
          5    1    5    5  503    0 -0.33075269719E+02  0.11381223415E+02  0.28062384268E+02  0.45089833934E+02  0.47000000000E+01 0. -1.
         -5    1    5    5    0  503 -0.12891870033E+02  0.18882917422E+02 -0.11425066805E+03  0.11661076293E+03  0.47000000000E+01 0. -1.
<mgrwt>
<rscale>  0 0.27521206E+03</rscale>
<asrwt>0</asrwt>
<pdfrwt beam="1">  1        1 0.14974728E-01 0.27521206E+03</pdfrwt>
<pdfrwt beam="2">  1       -1 0.29928797E-01 0.27521206E+03</pdfrwt>
<totfact> 0.38108340E+03</totfact>
</mgrwt>
</event>
<event>
 9    1  0.2024718E-002  0.2745049E+03  0.7818608E-02  0.1098729E+00
         -2   -1    0    0    0  501 -0.00000000000E+00  0.00000000000E+00  0.50625493884E+01  0.50625493884E+01  0.00000000000E+00 0. -1.
          2   -1    0    0  501    0  0.00000000000E+00 -0.00000000000E+00 -0.37210978742E+04  0.37210978742E+04  0.00000000000E+00 0. -1.
         36    2    1    2    0    0  0.17763568394E-14  0.00000000000E+00 -0.37160353248E+04  0.37261604236E+04  0.27450494908E+03 0.  0.
         25    2    3    3    0    0  0.41088510380E+01  0.26594015412E+02 -0.23679593144E+04  0.23721108639E+04  0.13767538488E+03 0.  0.
         25    2    3    3    0    0 -0.41088510380E+01 -0.26594015412E+02 -0.13480760104E+04  0.13540495597E+04  0.12416584059E+03 0.  0.
          5    1    4    4  502    0 -0.10888137499E+02  0.19743749981E+02 -0.62839144604E+02  0.66926939988E+02  0.47000000000E+01 0. -1.
         -5    1    4    4    0  502  0.14996988537E+02  0.68502654310E+01 -0.23051201698E+04  0.23051839239E+04  0.47000000000E+01 0. -1.
          5    1    5    5  503    0 -0.28929985150E+02 -0.53132643962E+02 -0.34438922674E+03  0.34969422556E+03  0.47000000000E+01 0. -1.
         -5    1    5    5    0  503  0.24821134112E+02  0.26538628549E+02 -0.10036867837E+04  0.10043553342E+04  0.47000000000E+01 0. -1.
<mgrwt>
<rscale>  0 0.27450495E+03</rscale>
<asrwt>0</asrwt>
<pdfrwt beam="1">  1        2 0.57247776E+00 0.27450495E+03</pdfrwt>
<pdfrwt beam="2">  1       -2 0.77885217E-03 0.27450495E+03</pdfrwt>
<totfact> 0.21955051E+03</totfact>
</mgrwt>
</event>
<event>
 9    1  0.2024718E-002  0.2753136E+03  0.7818608E-02  0.1098276E+00
         -2   -1    0    0    0  501 -0.00000000000E+00  0.00000000000E+00  0.19316564670E+03  0.19316564670E+03  0.00000000000E+00 0. -1.
          2   -1    0    0  501    0  0.00000000000E+00 -0.00000000000E+00 -0.98099227021E+02  0.98099227021E+02  0.00000000000E+00 0. -1.
         36    2    1    2    0    0  0.00000000000E+00  0.00000000000E+00  0.95066419683E+02  0.29126487373E+03  0.27531364390E+03 0.  0.
         25    2    3    3    0    0 -0.76819038981E+01  0.16357163716E+02  0.11041790209E+03  0.16315237586E+03  0.11874348906E+03 0.  0.
         25    2    3    3    0    0  0.76819038981E+01 -0.16357163716E+02 -0.15351482410E+02  0.12811249786E+03  0.12589906927E+03 0.  0.
          5    1    4    4  502    0 -0.45216180816E+02  0.18315574324E+02  0.11499034870E+03  0.12499933426E+03  0.47000000000E+01 0. -1.
         -5    1    4    4    0  502  0.37534276918E+02 -0.19584106080E+01 -0.45724466077E+01  0.38153041607E+02  0.47000000000E+01 0. -1.
          5    1    5    5  503    0  0.10534154411E+01 -0.70813027948E+02 -0.17169185183E+02  0.73023732657E+02  0.47000000000E+01 0. -1.
         -5    1    5    5    0  503  0.66284884570E+01  0.54455864232E+02  0.18177027730E+01  0.55088765205E+02  0.47000000000E+01 0. -1.
<mgrwt>
<rscale>  0 0.27531364E+03</rscale>
<asrwt>0</asrwt>
<pdfrwt beam="1">  1        2 0.15092189E-01 0.27531364E+03</pdfrwt>
<pdfrwt beam="2">  1       -2 0.29717792E-01 0.27531364E+03</pdfrwt>
<totfact> 0.40030111E+03</totfact>
</mgrwt>
</event>
<event>
 9    1  0.2024718E-002  0.2753755E+03  0.7818608E-02  0.1098242E+00
          1   -1    0    0  501    0  0.00000000000E+00  0.00000000000E+00  0.76774863689E+03  0.76774863689E+03  0.00000000000E+00 0. -1.
         -1   -1    0    0    0  501 -0.00000000000E+00 -0.00000000000E+00 -0.24692872144E+02  0.24692872144E+02  0.00000000000E+00 0. -1.
         36    2    1    2    0    0  0.71054273576E-14  0.00000000000E+00  0.74305576475E+03  0.79244150904E+03  0.27537551764E+03 0.  0.
         25    2    3    3    0    0 -0.44953455354E+02  0.36308155447E+02  0.40418804875E+03  0.42549771553E+03  0.11975488242E+03 0.  0.
         25    2    3    3    0    0  0.44953455354E+02 -0.36308155447E+02  0.33886771600E+03  0.36694379351E+03  0.12836402670E+03 0.  0.
          5    1    4    4  502    0 -0.34010107196E+02 -0.82381920971E+01  0.24395062105E+02  0.42915780962E+02  0.47000000000E+01 0.  1.
         -5    1    4    4    0  502 -0.10943348158E+02  0.44546347544E+02  0.37979298665E+03  0.38258193457E+03  0.47000000000E+01 0.  1.
          5    1    5    5  503    0  0.51212809396E+02  0.36868879501E+02  0.20012208006E+03  0.20988807267E+03  0.47000000000E+01 0.  1.
         -5    1    5    5    0  503 -0.62593540424E+01 -0.73177034948E+02  0.13874563593E+03  0.15705572084E+03  0.47000000000E+01 0.  1.
<mgrwt>
<rscale>  0 0.27537552E+03</rscale>
<asrwt>0</asrwt>
<pdfrwt beam="1">  1        1 0.11811516E+00 0.27537552E+03</pdfrwt>
<pdfrwt beam="2">  1       -1 0.37989040E-02 0.27537552E+03</pdfrwt>
<totfact> 0.65061285E+03</totfact>
</mgrwt>
</event>
<event>
 9    1  0.2024718E-002  0.2754010E+03  0.7818608E-02  0.1098228E+00
          2   -1    0    0  501    0  0.00000000000E+00  0.00000000000E+00  0.22159408803E+03  0.22159408803E+03  0.00000000000E+00 0.  1.
         -2   -1    0    0    0  501 -0.00000000000E+00 -0.00000000000E+00 -0.85568295311E+02  0.85568295311E+02  0.00000000000E+00 0.  1.
         36    2    1    2    0    0  0.00000000000E+00  0.00000000000E+00  0.13602579272E+03  0.30716238334E+03  0.27540100482E+03 0.  0.
         25    2    3    3    0    0 -0.22968307077E+02  0.41673533895E+02  0.18196380283E+02  0.13580106250E+03  0.12588325450E+03 0.  0.
         25    2    3    3    0    0  0.22968307077E+02 -0.41673533895E+02  0.11782941243E+03  0.17136132084E+03  0.11496393038E+03 0.  0.
          5    1    4    4  502    0 -0.60464085764E+02  0.14648585760E+02  0.49617455989E+02  0.79714921256E+02  0.47000000000E+01 0. -1.
         -5    1    4    4    0  502  0.37495778687E+02  0.27024948135E+02 -0.31421075706E+02  0.56086141244E+02  0.47000000000E+01 0. -1.
          5    1    5    5  503    0  0.24611046741E+02 -0.50830188959E+02  0.37363235620E+01  0.56793149632E+02  0.47000000000E+01 0.  1.
         -5    1    5    5    0  503 -0.16427396645E+01  0.91566550642E+01  0.11409308887E+03  0.11456817121E+03  0.47000000000E+01 0.  1.
<mgrwt>
<rscale>  0 0.27540100E+03</rscale>
<asrwt>0</asrwt>
<pdfrwt beam="1">  1        2 0.34091398E-01 0.27540100E+03</pdfrwt>
<pdfrwt beam="2">  1       -2 0.13164353E-01 0.27540100E+03</pdfrwt>
<totfact> 0.64203594E+03</totfact>
</mgrwt>
</event>
<event>
 9    1  0.2024718E-002  0.2753155E+03  0.7818608E-02  0.1098275E+00
          1   -1    0    0  501    0  0.00000000000E+00  0.00000000000E+00  0.13545315714E+03  0.13545315714E+03  0.00000000000E+00 0. -1.
         -1   -1    0    0    0  501 -0.00000000000E+00 -0.00000000000E+00 -0.13989827413E+03  0.13989827413E+03  0.00000000000E+00 0. -1.
         36    2    1    2    0    0  0.00000000000E+00  0.71054273576E-14 -0.44451169866E+01  0.27535143127E+03  0.27531554921E+03 0.  0.
         25    2    3    3    0    0  0.32856694197E+02 -0.49913594259E+02  0.14497550170E+02  0.13891678171E+03  0.12456630377E+03 0.  0.
         25    2    3    3    0    0 -0.32856694197E+02  0.49913594259E+02 -0.18942667157E+02  0.13643464956E+03  0.12118027775E+03 0.  0.
          5    1    4    4  502    0 -0.40375119430E+02 -0.10153020392E+02 -0.22575211239E+02  0.47591640595E+02  0.47000000000E+01 0.  1.
         -5    1    4    4    0  502  0.73231813627E+02 -0.39760573867E+02  0.37072761409E+02  0.91325141115E+02  0.47000000000E+01 0.  1.
          5    1    5    5  503    0 -0.17536053252E+01  0.32347285080E+02 -0.68058500050E+02  0.75521330846E+02  0.47000000000E+01 0.  1.
         -5    1    5    5    0  503 -0.31103088872E+02  0.17566309179E+02  0.49115832893E+02  0.60913318710E+02  0.47000000000E+01 0.  1.
<mgrwt>
<rscale>  0 0.27531555E+03</rscale>
<asrwt>0</asrwt>
<pdfrwt beam="1">  1        1 0.20838947E-01 0.27531555E+03</pdfrwt>
<pdfrwt beam="2">  1       -1 0.21522811E-01 0.27531555E+03</pdfrwt>
<totfact> 0.42988481E+03</totfact>
</mgrwt>
</event>
<event>
 9    1  0.2024718E-002  0.2749322E+03  0.7818608E-02  0.1098489E+00
         -2   -1    0    0    0  501 -0.00000000000E+00  0.00000000000E+00  0.83643791965E+02  0.83643791965E+02  0.00000000000E+00 0. -1.
          2   -1    0    0  501    0  0.00000000000E+00 -0.00000000000E+00 -0.22592155192E+03  0.22592155192E+03  0.00000000000E+00 0. -1.
         36    2    1    2    0    0 -0.35527136788E-14  0.71054273576E-14 -0.14227775996E+03  0.30956534389E+03  0.27493224831E+03 0.  0.
         25    2    3    3    0    0  0.16559055422E+02 -0.21325485978E+02 -0.10144540691E+02  0.12557854914E+03  0.12222144505E+03 0.  0.
         25    2    3    3    0    0 -0.16559055422E+02  0.21325485978E+02 -0.13213321927E+03  0.18398679475E+03  0.12515180518E+03 0.  0.
          5    1    4    4  502    0  0.58267005205E+02  0.31781277313E+01 -0.37775274891E+02  0.69672130616E+02  0.47000000000E+01 0.  1.
         -5    1    4    4    0  502 -0.41707949783E+02 -0.24503613710E+02  0.27630734200E+02  0.55906418526E+02  0.47000000000E+01 0.  1.
          5    1    5    5  503    0  0.26490393340E+02  0.57133222436E+02 -0.36152492152E+02  0.72767016800E+02  0.47000000000E+01 0.  1.
         -5    1    5    5    0  503 -0.43049448762E+02 -0.35807736457E+02 -0.95980727117E+02  0.11121977795E+03  0.47000000000E+01 0.  1.
<mgrwt>
<rscale>  0 0.27493225E+03</rscale>
<asrwt>0</asrwt>
<pdfrwt beam="1">  1        2 0.34757161E-01 0.27493225E+03</pdfrwt>
<pdfrwt beam="2">  1       -2 0.12868276E-01 0.27493225E+03</pdfrwt>
<totfact> 0.65235642E+03</totfact>
</mgrwt>
</event>
<event>
 9    1  0.2024718E-002  0.2752930E+03  0.7818608E-02  0.1098288E+00
         -1   -1    0    0    0  501 -0.00000000000E+00  0.00000000000E+00  0.28668461683E+03  0.28668461683E+03  0.00000000000E+00 0. -1.
          1   -1    0    0  501    0  0.00000000000E+00 -0.00000000000E+00 -0.66088504832E+02  0.66088504832E+02  0.00000000000E+00 0. -1.
         36    2    1    2    0    0  0.00000000000E+00  0.00000000000E+00  0.22059611200E+03  0.35277312166E+03  0.27529299072E+03 0.  0.
         25    2    3    3    0    0  0.38326219615E+02  0.29656863038E+02  0.16433554927E+03  0.20836479988E+03  0.11858030376E+03 0.  0.
         25    2    3    3    0    0 -0.38326219615E+02 -0.29656863038E+02  0.56260562729E+02  0.14440832178E+03  0.12385509213E+03 0.  0.
          5    1    4    4  502    0  0.17727236929E+02 -0.25081210190E+02 -0.28313342364E+01  0.31199815501E+02  0.47000000000E+01 0.  1.
         -5    1    4    4    0  502  0.20598982685E+02  0.54738073228E+02  0.16716688350E+03  0.17716498438E+03  0.47000000000E+01 0.  1.
          5    1    5    5  503    0  0.18872112866E+02  0.33939795503E+02  0.42299721088E+02  0.57614431933E+02  0.47000000000E+01 0. -1.
         -5    1    5    5    0  503 -0.57198332481E+02 -0.63596658542E+02  0.13960841641E+02  0.86793889852E+02  0.47000000000E+01 0. -1.
<mgrwt>
<rscale>  0 0.27529299E+03</rscale>
<asrwt>0</asrwt>
<pdfrwt beam="1">  1        1 0.10167462E-01 0.27529299E+03</pdfrwt>
<pdfrwt beam="2">  1       -1 0.44105325E-01 0.27529299E+03</pdfrwt>
<totfact> 0.32333495E+03</totfact>
</mgrwt>
</event>
<event>
 9    1  0.2024718E-002  0.2745919E+03  0.7818608E-02  0.1098680E+00
          2   -1    0    0  501    0  0.00000000000E+00  0.00000000000E+00  0.17781034018E+03  0.17781034018E+03  0.00000000000E+00 0. -1.
         -2   -1    0    0    0  501 -0.00000000000E+00 -0.00000000000E+00 -0.10601280929E+03  0.10601280929E+03  0.00000000000E+00 0. -1.
         36    2    1    2    0    0  0.71054273576E-14  0.00000000000E+00  0.71797530889E+02  0.28382314947E+03  0.27459186939E+03 0.  0.
         25    2    3    3    0    0 -0.37503051952E+02 -0.35596596113E+01  0.78531236987E+02  0.15122250127E+03  0.12362014248E+03 0.  0.
         25    2    3    3    0    0  0.37503051952E+02  0.35596596113E+01 -0.67337060981E+01  0.13260064820E+03  0.12695841454E+03 0.  0.
          5    1    4    4  502    0 -0.18641074875E+02  0.12383372946E+02 -0.31180473995E+02  0.38667163803E+02  0.47000000000E+01 0. -1.
         -5    1    4    4    0  502 -0.18861977078E+02 -0.15943032558E+02  0.10971171098E+03  0.11255533747E+03  0.47000000000E+01 0. -1.
          5    1    5    5  503    0  0.92621888517E+01 -0.18183142480E+02 -0.62687970298E+02  0.66093013495E+02  0.47000000000E+01 0. -1.
         -5    1    5    5    0  503  0.28240863101E+02  0.21742802091E+02  0.55954264200E+02  0.66507634701E+02  0.47000000000E+01 0. -1.
<mgrwt>
<rscale>  0 0.27459187E+03</rscale>
<asrwt>0</asrwt>
<pdfrwt beam="1">  1        2 0.27355437E-01 0.27459187E+03</pdfrwt>
<pdfrwt beam="2">  1       -2 0.16309663E-01 0.27459187E+03</pdfrwt>
<totfact> 0.57406650E+03</totfact>
</mgrwt>
</event>
<event>
 9    1  0.2024718E-002  0.2741121E+03  0.7818608E-02  0.1098949E+00
          1   -1    0    0  501    0  0.00000000000E+00  0.00000000000E+00  0.24324657171E+03  0.24324657171E+03  0.00000000000E+00 0. -1.
         -1   -1    0    0    0  501 -0.00000000000E+00 -0.00000000000E+00 -0.77223510804E+02  0.77223510804E+02  0.00000000000E+00 0. -1.
         36    2    1    2    0    0  0.71054273576E-14  0.00000000000E+00  0.16602306091E+03  0.32047008252E+03  0.27411205197E+03 0.  0.
         25    2    3    3    0    0  0.32705258620E+02 -0.38485948610E+02  0.52545643952E+02  0.14466758048E+03  0.12496744360E+03 0.  0.
         25    2    3    3    0    0 -0.32705258620E+02  0.38485948610E+02  0.11347741696E+03  0.17580250204E+03  0.12441299523E+03 0.  0.
          5    1    4    4  502    0 -0.28608033438E+02  0.19864449482E+01  0.63884028250E+02  0.70182794231E+02  0.47000000000E+01 0.  1.
         -5    1    4    4    0  502  0.61313292058E+02 -0.40472393558E+02 -0.11338384298E+02  0.74484786244E+02  0.47000000000E+01 0.  1.
          5    1    5    5  503    0 -0.34165946328E+02  0.80238626442E+02  0.53040240545E+02  0.10218075249E+03  0.47000000000E+01 0.  1.
         -5    1    5    5    0  503  0.14606877078E+01 -0.41752677832E+02  0.60437176412E+02  0.73621749554E+02  0.47000000000E+01 0.  1.
<mgrwt>
<rscale>  0 0.27411205E+03</rscale>
<asrwt>0</asrwt>
<pdfrwt beam="1">  1        1 0.37422549E-01 0.27411205E+03</pdfrwt>
<pdfrwt beam="2">  1       -1 0.11880540E-01 0.27411205E+03</pdfrwt>
<totfact> 0.52838200E+03</totfact>
</mgrwt>
</event>
<event>
 9    1  0.2024718E-002  0.2745219E+03  0.7818608E-02  0.1098719E+00
         -2   -1    0    0    0  501 -0.00000000000E+00  0.00000000000E+00  0.14456997958E+02  0.14456997958E+02  0.00000000000E+00 0. -1.
          2   -1    0    0  501    0  0.00000000000E+00 -0.00000000000E+00 -0.13032143021E+04  0.13032143021E+04  0.00000000000E+00 0. -1.
         36    2    1    2    0    0 -0.71054273576E-14  0.35527136788E-14 -0.12887573041E+04  0.13176713000E+04  0.27452188622E+03 0.  0.
         25    2    3    3    0    0  0.19191781452E+02 -0.23963523668E+02 -0.88586454462E+03  0.89528226465E+03  0.12582434994E+03 0.  0.
         25    2    3    3    0    0 -0.19191781452E+02  0.23963523668E+02 -0.40289275951E+03  0.42238903540E+03  0.12307455714E+03 0.  0.
          5    1    4    4  502    0  0.66696744059E+02 -0.27546370053E+02 -0.35667365329E+03  0.36393054711E+03  0.47000000000E+01 0. -1.
         -5    1    4    4    0  502 -0.47504962607E+02  0.35828463856E+01 -0.52919089133E+03  0.53135171754E+03  0.47000000000E+01 0. -1.
          5    1    5    5  503    0 -0.43486977839E+02 -0.92257327817E+00 -0.37504371802E+03  0.37758687584E+03  0.47000000000E+01 0.  1.
         -5    1    5    5    0  503  0.24295196387E+02  0.24886096946E+02 -0.27849041487E+02  0.44802159551E+02  0.47000000000E+01 0.  1.
<mgrwt>
<rscale>  0 0.27452189E+03</rscale>
<asrwt>0</asrwt>
<pdfrwt beam="1">  1        2 0.20049448E+00 0.27452189E+03</pdfrwt>
<pdfrwt beam="2">  1       -2 0.22241539E-02 0.27452189E+03</pdfrwt>
<totfact> 0.11537977E+04</totfact>
</mgrwt>
</event>
<event>
 9    1  0.2024718E-002  0.2751527E+03  0.7818608E-02  0.1098366E+00
         -1   -1    0    0    0  501 -0.00000000000E+00  0.00000000000E+00  0.11083127572E+02  0.11083127572E+02  0.00000000000E+00 0. -1.
          1   -1    0    0  501    0  0.00000000000E+00 -0.00000000000E+00 -0.17077541555E+04  0.17077541555E+04  0.00000000000E+00 0. -1.
         36    2    1    2    0    0  0.00000000000E+00  0.71054273576E-14 -0.16966710280E+04  0.17188372831E+04  0.27515273698E+03 0.  0.
         25    2    3    3    0    0  0.18160557042E+02 -0.46549664238E+02 -0.81221811930E+03  0.82324480372E+03  0.12464772948E+03 0.  0.
         25    2    3    3    0    0 -0.18160557042E+02  0.46549664238E+02 -0.88445290865E+03  0.89559247937E+03  0.13165205815E+03 0.  0.
          5    1    4    4  502    0  0.21024555136E+02  0.11549783134E+02 -0.29313459261E+02  0.38168027234E+02  0.47000000000E+01 0.  1.
         -5    1    4    4    0  502 -0.28639980937E+01 -0.58099447372E+02 -0.78290466004E+03  0.78507677649E+03  0.47000000000E+01 0.  1.
          5    1    5    5  503    0 -0.50534888099E+02 -0.27924059698E+02 -0.43474410638E+03  0.43858642940E+03  0.47000000000E+01 0. -1.
         -5    1    5    5    0  503  0.32374331057E+02  0.74473723936E+02 -0.44970880228E+03  0.45700604997E+03  0.47000000000E+01 0. -1.
<mgrwt>
<rscale>  0 0.27515274E+03</rscale>
<asrwt>0</asrwt>
<pdfrwt beam="1">  1        1 0.26273133E+00 0.27515274E+03</pdfrwt>
<pdfrwt beam="2">  1       -1 0.17050970E-02 0.27515274E+03</pdfrwt>
<totfact> 0.45242718E+03</totfact>
</mgrwt>
</event>
<event>
 9    1  0.2024718E-002  0.2755889E+03  0.7818608E-02  0.1098123E+00
          2   -1    0    0  501    0  0.00000000000E+00  0.00000000000E+00  0.21045636081E+04  0.21045636081E+04  0.00000000000E+00 0. -1.
         -2   -1    0    0    0  501 -0.00000000000E+00 -0.00000000000E+00 -0.90219691512E+01  0.90219691512E+01  0.00000000000E+00 0. -1.
         36    2    1    2    0    0  0.00000000000E+00  0.00000000000E+00  0.20955416390E+04  0.21135855773E+04  0.27558888185E+03 0.  0.
         25    2    3    3    0    0  0.44986233628E+02  0.22905061627E+01  0.95983902828E+03  0.97038092345E+03  0.13534832381E+03 0.  0.
         25    2    3    3    0    0 -0.44986233628E+02 -0.22905061627E+01  0.11357026107E+04  0.11432046538E+04  0.12274955377E+03 0.  0.
          5    1    4    4  502    0  0.76981500532E+01  0.44458572749E+02  0.11453387952E+03  0.12319060745E+03  0.47000000000E+01 0.  1.
         -5    1    4    4    0  502  0.37288083575E+02 -0.42168066586E+02  0.84530514875E+03  0.84719031600E+03  0.47000000000E+01 0.  1.
          5    1    5    5  503    0 -0.56865423534E+02 -0.52148677281E+02  0.58106720769E+03  0.58618627653E+03  0.47000000000E+01 0. -1.
         -5    1    5    5    0  503  0.11879189906E+02  0.49858171118E+02  0.55463540301E+03  0.55701837730E+03  0.47000000000E+01 0. -1.
<mgrwt>
<rscale>  0 0.27558888E+03</rscale>
<asrwt>0</asrwt>
<pdfrwt beam="1">  1        2 0.32377862E+00 0.27558888E+03</pdfrwt>
<pdfrwt beam="2">  1       -2 0.13879969E-02 0.27558888E+03</pdfrwt>
<totfact> 0.86481950E+03</totfact>
</mgrwt>
</event>
<event>
 9    1  0.2024718E-002  0.2732315E+03  0.7818608E-02  0.1099444E+00
          1   -1    0    0  501    0  0.00000000000E+00  0.00000000000E+00  0.54847052757E+03  0.54847052757E+03  0.00000000000E+00 0. -1.
         -1   -1    0    0    0  501 -0.00000000000E+00 -0.00000000000E+00 -0.34028914014E+02  0.34028914014E+02  0.00000000000E+00 0. -1.
         36    2    1    2    0    0 -0.71054273576E-14  0.00000000000E+00  0.51444161355E+03  0.58249944158E+03  0.27323145077E+03 0.  0.
         25    2    3    3    0    0 -0.31783942449E+02  0.30917486499E+02  0.10259419622E+03  0.14220922811E+03  0.87930571997E+02 0.  0.
         25    2    3    3    0    0  0.31783942449E+02 -0.30917486499E+02  0.41184741734E+03  0.44029021348E+03  0.14923493877E+03 0.  0.
          5    1    4    4  502    0  0.18099373132E+02 -0.19479958561E+02  0.34232902569E+02  0.43600891179E+02  0.47000000000E+01 0. -1.
         -5    1    4    4    0  502 -0.49883315581E+02  0.50397445061E+02  0.68361293649E+02  0.98608336926E+02  0.47000000000E+01 0. -1.
          5    1    5    5  503    0 -0.43810360083E+02  0.34213450270E+02  0.14596521418E+03  0.15626209259E+03  0.47000000000E+01 0.  1.
         -5    1    5    5    0  503  0.75594302532E+02 -0.65130936769E+02  0.26588220316E+03  0.28402812089E+03  0.47000000000E+01 0.  1.
<mgrwt>
<rscale>  0 0.27323145E+03</rscale>
<asrwt>0</asrwt>
<pdfrwt beam="1">  1        1 0.84380074E-01 0.27323145E+03</pdfrwt>
<pdfrwt beam="2">  1       -1 0.52352180E-02 0.27323145E+03</pdfrwt>
<totfact> 0.65115169E+03</totfact>
</mgrwt>
</event>
<event>
 9    1  0.2024718E-002  0.2798423E+03  0.7818608E-02  0.1095775E+00
         -2   -1    0    0    0  501 -0.00000000000E+00  0.00000000000E+00  0.49278213959E+03  0.49278213959E+03  0.00000000000E+00 0.  1.
          2   -1    0    0  501    0  0.00000000000E+00 -0.00000000000E+00 -0.39729381298E+02  0.39729381298E+02  0.00000000000E+00 0.  1.
         36    2    1    2    0    0  0.00000000000E+00 -0.88817841970E-15  0.45305275829E+03  0.53251152089E+03  0.27984230932E+03 0.  0.
         25    2    3    3    0    0  0.60275806757E+02  0.65580604110E+01  0.18124832518E+03  0.22729956545E+03  0.12303640127E+03 0.  0.
         25    2    3    3    0    0 -0.60275806757E+02 -0.65580604110E+01  0.27180443311E+03  0.30521195544E+03  0.12490198896E+03 0.  0.
          5    1    4    4  502    0  0.23949011188E+02  0.14280642125E+02  0.18726192636E+03  0.18938482236E+03  0.47000000000E+01 0.  1.
         -5    1    4    4    0  502  0.36326795569E+02 -0.77225817136E+01 -0.60136011793E+01  0.37914743093E+02  0.47000000000E+01 0.  1.
          5    1    5    5  503    0  0.32091505460E+02  0.10038124633E+02  0.13528886452E+03  0.13948403325E+03  0.47000000000E+01 0. -1.
         -5    1    5    5    0  503 -0.92367312217E+02 -0.16596185044E+02  0.13651556860E+03  0.16572792219E+03  0.47000000000E+01 0. -1.
<mgrwt>
<rscale>  0 0.27984231E+03</rscale>
<asrwt>0</asrwt>
<pdfrwt beam="1">  1        2 0.61122128E-02 0.27984231E+03</pdfrwt>
<pdfrwt beam="2">  1       -2 0.75812633E-01 0.27984231E+03</pdfrwt>
<totfact> 0.19312665E+03</totfact>
</mgrwt>
</event>
<event>
 9    1  0.2024718E-002  0.2746802E+03  0.7818608E-02  0.1098631E+00
          2   -1    0    0  501    0  0.00000000000E+00  0.00000000000E+00  0.66135165828E+03  0.66135165828E+03  0.00000000000E+00 0.  1.
         -2   -1    0    0    0  501 -0.00000000000E+00 -0.00000000000E+00 -0.28520832372E+02  0.28520832372E+02  0.00000000000E+00 0.  1.
         36    2    1    2    0    0  0.00000000000E+00 -0.71054273576E-14  0.63283082591E+03  0.68987249065E+03  0.27468017610E+03 0.  0.
         25    2    3    3    0    0  0.23570690219E+02  0.20015342177E+02  0.43204110591E+03  0.45147083896E+03  0.12731932248E+03 0.  0.
         25    2    3    3    0    0 -0.23570690219E+02 -0.20015342177E+02  0.20078971999E+03  0.23840165169E+03  0.12475032871E+03 0.  0.
          5    1    4    4  502    0  0.37378141025E+02 -0.17067182929E+02  0.39470103396E+03  0.39686195379E+03  0.47000000000E+01 0. -1.
         -5    1    4    4    0  502 -0.13807450807E+02  0.37082525106E+02  0.37340071953E+02  0.54608885170E+02  0.47000000000E+01 0. -1.
          5    1    5    5  503    0 -0.37115816455E+02  0.26721960866E+02  0.17912178852E+03  0.18492796475E+03  0.47000000000E+01 0.  1.
         -5    1    5    5    0  503  0.13545126236E+02 -0.46737303044E+02  0.21667931474E+02  0.53473686939E+02  0.47000000000E+01 0.  1.
<mgrwt>
<rscale>  0 0.27468018E+03</rscale>
<asrwt>0</asrwt>
<pdfrwt beam="1">  1        2 0.10174640E+00 0.27468018E+03</pdfrwt>
<pdfrwt beam="2">  1       -2 0.43878209E-02 0.27468018E+03</pdfrwt>
<totfact> 0.10688936E+04</totfact>
</mgrwt>
</event>
<event>
 9    1  0.2024718E-002  0.2750390E+03  0.7818608E-02  0.1098430E+00
          2   -1    0    0  501    0  0.00000000000E+00  0.00000000000E+00  0.38205189106E+03  0.38205189106E+03  0.00000000000E+00 0.  1.
         -2   -1    0    0    0  501 -0.00000000000E+00 -0.00000000000E+00 -0.49500108306E+02  0.49500108306E+02  0.00000000000E+00 0.  1.
         36    2    1    2    0    0 -0.13322676296E-14  0.00000000000E+00  0.33255178275E+03  0.43155199936E+03  0.27503897895E+03 0.  0.
         25    2    3    3    0    0 -0.57210466751E+00  0.24126845130E+02  0.76692089009E+02  0.14524685024E+03  0.12096503225E+03 0.  0.
         25    2    3    3    0    0  0.57210466751E+00 -0.24126845130E+02  0.25585969374E+03  0.28630514912E+03  0.12619042584E+03 0.  0.
          5    1    4    4  502    0  0.31947464070E+02 -0.31259856056E+02  0.66175305649E+02  0.79994250662E+02  0.47000000000E+01 0. -1.
         -5    1    4    4    0  502 -0.32519568738E+02  0.55386701186E+02  0.10516783359E+02  0.65252599576E+02  0.47000000000E+01 0. -1.
          5    1    5    5  503    0  0.80541068272E+00 -0.69442636036E+02  0.21172707431E+03  0.22287523950E+03  0.47000000000E+01 0. -1.
         -5    1    5    5    0  503 -0.23330601521E+00  0.45315790906E+02  0.44132619429E+02  0.63429909623E+02  0.47000000000E+01 0. -1.
<mgrwt>
<rscale>  0 0.27503898E+03</rscale>
<asrwt>0</asrwt>
<pdfrwt beam="1">  1        2 0.58777212E-01 0.27503898E+03</pdfrwt>
<pdfrwt beam="2">  1       -2 0.76154015E-02 0.27503898E+03</pdfrwt>
<totfact> 0.85186501E+03</totfact>
</mgrwt>
</event>
<event>
 9    1  0.2024718E-002  0.2746370E+03  0.7818608E-02  0.1098655E+00
         -2   -1    0    0    0  501 -0.00000000000E+00  0.00000000000E+00  0.60195537354E+02  0.60195537354E+02  0.00000000000E+00 0.  1.
          2   -1    0    0  501    0  0.00000000000E+00 -0.00000000000E+00 -0.31325190208E+03  0.31325190208E+03  0.00000000000E+00 0.  1.
         36    2    1    2    0    0  0.00000000000E+00 -0.71054273576E-14 -0.25305636472E+03  0.37344743943E+03  0.27463697182E+03 0.  0.
         25    2    3    3    0    0  0.28977741203E+02 -0.40950142791E+02 -0.81979071820E+02  0.15590977007E+03  0.12276263482E+03 0.  0.
         25    2    3    3    0    0 -0.28977741203E+02  0.40950142791E+02 -0.17107729290E+03  0.21753766936E+03  0.12465381568E+03 0.  0.
          5    1    4    4  502    0  0.69724565150E+02 -0.54832314527E+02 -0.48734198116E+02  0.10131737150E+03  0.47000000000E+01 0.  1.
         -5    1    4    4    0  502 -0.40746823947E+02  0.13882171736E+02 -0.33244873704E+02  0.54592398569E+02  0.47000000000E+01 0.  1.
          5    1    5    5  503    0 -0.50413196987E+02 -0.18313440995E+02 -0.27048394315E+02  0.60254279405E+02  0.47000000000E+01 0. -1.
         -5    1    5    5    0  503  0.21435455784E+02  0.59263583786E+02 -0.14402889859E+03  0.15728338996E+03  0.47000000000E+01 0. -1.
<mgrwt>
<rscale>  0 0.27463697E+03</rscale>
<asrwt>0</asrwt>
<pdfrwt beam="1">  1        2 0.48192600E-01 0.27463697E+03</pdfrwt>
<pdfrwt beam="2">  1       -2 0.92608520E-02 0.27463697E+03</pdfrwt>
<totfact> 0.77658462E+03</totfact>
</mgrwt>
</event>
<event>
 9    1  0.2024718E-002  0.2759872E+03  0.7818608E-02  0.1097901E+00
          1   -1    0    0  501    0  0.00000000000E+00  0.00000000000E+00  0.13149955434E+04  0.13149955434E+04  0.00000000000E+00 0.  1.
         -1   -1    0    0    0  501 -0.00000000000E+00 -0.00000000000E+00 -0.14480835646E+02  0.14480835646E+02  0.00000000000E+00 0.  1.
         36    2    1    2    0    0 -0.35527136788E-14 -0.35527136788E-14  0.13005147077E+04  0.13294763790E+04  0.27598720506E+03 0.  0.
         25    2    3    3    0    0  0.96365786485E+01  0.24008287350E+02  0.89220886031E+03  0.90136772101E+03  0.12553030134E+03 0.  0.
         25    2    3    3    0    0 -0.96365786485E+01 -0.24008287350E+02  0.40830584742E+03  0.42810865801E+03  0.12607179112E+03 0.  0.
          5    1    4    4  502    0  0.49143991120E+02  0.12720862788E+02  0.15856196674E+03  0.16655611520E+03  0.47000000000E+01 0.  1.
         -5    1    4    4    0  502 -0.39507412472E+02  0.11287424562E+02  0.73364689356E+03  0.73481160581E+03  0.47000000000E+01 0.  1.
          5    1    5    5  503    0 -0.11029153061E+02  0.22686124851E+02  0.10799631186E+02  0.27839262055E+02  0.47000000000E+01 0.  1.
         -5    1    5    5    0  503  0.13925744129E+01 -0.46694412201E+02  0.39750621623E+03  0.40026939596E+03  0.47000000000E+01 0.  1.
<mgrwt>
<rscale>  0 0.27598721E+03</rscale>
<asrwt>0</asrwt>
<pdfrwt beam="1">  1        1 0.20230691E+00 0.27598721E+03</pdfrwt>
<pdfrwt beam="2">  1       -1 0.22278219E-02 0.27598721E+03</pdfrwt>
<totfact> 0.55783602E+03</totfact>
</mgrwt>
</event>
<event>
 9    1  0.2024718E-002  0.2749384E+03  0.7818608E-02  0.1098486E+00
         -3   -1    0    0    0  501 -0.00000000000E+00  0.00000000000E+00  0.76292017954E+01  0.76292017954E+01  0.00000000000E+00 0. -1.
          3   -1    0    0  501    0  0.00000000000E+00 -0.00000000000E+00 -0.24770333118E+04  0.24770333118E+04  0.00000000000E+00 0. -1.
         36    2    1    2    0    0  0.00000000000E+00  0.71054273576E-14 -0.24694041100E+04  0.24846625136E+04  0.27493844395E+03 0.  0.
         25    2    3    3    0    0 -0.51693288108E+02  0.40652895338E+02 -0.10299748834E+04  0.10383459386E+04  0.11397005655E+03 0.  0.
         25    2    3    3    0    0  0.51693288108E+02 -0.40652895338E+02 -0.14394292267E+04  0.14463165751E+04  0.12470077319E+03 0.  0.
          5    1    4    4  502    0 -0.61745746385E+02  0.48533959135E+02 -0.37194447901E+03  0.38017478592E+03  0.47000000000E+01 0. -1.
         -5    1    4    4    0  502  0.10052458276E+02 -0.78810637967E+01 -0.65803040438E+03  0.65817115264E+03  0.47000000000E+01 0. -1.
          5    1    5    5  503    0 -0.83023313000E+01  0.35062586848E+02 -0.64478235769E+03  0.64580546025E+03  0.47000000000E+01 0. -1.
         -5    1    5    5    0  503  0.59995619408E+02 -0.75715482186E+02 -0.79464686897E+03  0.80051111482E+03  0.47000000000E+01 0. -1.
<mgrwt>
<rscale>  0 0.27493844E+03</rscale>
<asrwt>0</asrwt>
<pdfrwt beam="1">  1        3 0.38108229E+00 0.27493844E+03</pdfrwt>
<pdfrwt beam="2">  1       -3 0.11737226E-02 0.27493844E+03</pdfrwt>
<totfact> 0.91387904E+01</totfact>
</mgrwt>
</event>
<event>
 9    1  0.2024718E-002  0.2760358E+03  0.7818608E-02  0.1097874E+00
          2   -1    0    0  501    0  0.00000000000E+00  0.00000000000E+00  0.62349775465E+02  0.62349775465E+02  0.00000000000E+00 0. -1.
         -2   -1    0    0    0  501 -0.00000000000E+00 -0.00000000000E+00 -0.30551742658E+03  0.30551742658E+03  0.00000000000E+00 0. -1.
         36    2    1    2    0    0  0.35527136788E-14  0.14210854715E-13 -0.24316765112E+03  0.36786720205E+03  0.27603581614E+03 0.  0.
         25    2    3    3    0    0  0.18392820635E+02  0.75156890372E+02 -0.85169349666E+02  0.15194178754E+03  0.99225171490E+02 0.  0.
         25    2    3    3    0    0 -0.18392820635E+02 -0.75156890372E+02 -0.15799830145E+03  0.21592541451E+03  0.12519371928E+03 0.  0.
          5    1    4    4  502    0  0.51268782588E+02  0.23480836270E+02 -0.14712049366E+02  0.58466846474E+02  0.47000000000E+01 0. -1.
         -5    1    4    4    0  502 -0.32875961953E+02  0.51676054102E+02 -0.70457300300E+02  0.93474941067E+02  0.47000000000E+01 0. -1.
          5    1    5    5  503    0 -0.36999157964E+02 -0.42135757208E+01 -0.13315962960E+03  0.13834836054E+03  0.47000000000E+01 0.  1.
         -5    1    5    5    0  503  0.18606337329E+02 -0.70943314652E+02 -0.24838671858E+02  0.77577053967E+02  0.47000000000E+01 0.  1.
<mgrwt>
<rscale>  0 0.27603582E+03</rscale>
<asrwt>0</asrwt>
<pdfrwt beam="1">  1        2 0.95922731E-02 0.27603582E+03</pdfrwt>
<pdfrwt beam="2">  1       -2 0.47002681E-01 0.27603582E+03</pdfrwt>
<totfact> 0.29238200E+03</totfact>
</mgrwt>
</event>
<event>
 9    1  0.2024718E-002  0.2785864E+03  0.7818608E-02  0.1096464E+00
          2   -1    0    0  501    0  0.00000000000E+00  0.00000000000E+00  0.66472062080E+03  0.66472062080E+03  0.00000000000E+00 0. -1.
         -2   -1    0    0    0  501 -0.00000000000E+00 -0.00000000000E+00 -0.29189096080E+02  0.29189096080E+02  0.00000000000E+00 0. -1.
         36    2    1    2    0    0  0.00000000000E+00 -0.71054273576E-14  0.63553152472E+03  0.69390971688E+03  0.27858638924E+03 0.  0.
         25    2    3    3    0    0  0.10391870111E+02  0.41353092151E+02  0.18921523307E+03  0.22658884913E+03  0.11714108132E+03 0.  0.
         25    2    3    3    0    0 -0.10391870111E+02 -0.41353092151E+02  0.44631629165E+03  0.46732086775E+03  0.13180474969E+03 0.  0.
          5    1    4    4  502    0 -0.47542784520E+02  0.23457990463E+02  0.13500762750E+03  0.14511975455E+03  0.47000000000E+01 0.  1.
         -5    1    4    4    0  502  0.57934654632E+02  0.17895101688E+02  0.54207605565E+02  0.81469094587E+02  0.47000000000E+01 0.  1.
          5    1    5    5  503    0 -0.55059700748E+02 -0.66283032765E+02  0.30428711245E+03  0.31628744503E+03  0.47000000000E+01 0.  1.
         -5    1    5    5    0  503  0.44667830637E+02  0.24929940613E+02  0.14202917920E+03  0.15103342272E+03  0.47000000000E+01 0.  1.
<mgrwt>
<rscale>  0 0.27858639E+03</rscale>
<asrwt>0</asrwt>
<pdfrwt beam="1">  1        2 0.10226470E+00 0.27858639E+03</pdfrwt>
<pdfrwt beam="2">  1       -2 0.44906307E-02 0.27858639E+03</pdfrwt>
<totfact> 0.10264122E+04</totfact>
</mgrwt>
</event>
<event>
 9    1  0.2024718E-002  0.2747983E+03  0.7818608E-02  0.1098564E+00
         -3   -1    0    0    0  501 -0.00000000000E+00  0.00000000000E+00  0.55746159860E+02  0.55746159860E+02  0.00000000000E+00 0.  1.
          3   -1    0    0  501    0  0.00000000000E+00 -0.00000000000E+00 -0.33865164555E+03  0.33865164555E+03  0.00000000000E+00 0.  1.
         36    2    1    2    0    0  0.00000000000E+00 -0.35527136788E-14 -0.28290548569E+03  0.39439780541E+03  0.27479831710E+03 0.  0.
         25    2    3    3    0    0 -0.11957931111E+02  0.15157092012E+02 -0.21386268469E+03  0.24660318216E+03  0.12125655444E+03 0.  0.
         25    2    3    3    0    0  0.11957931111E+02 -0.15157092012E+02 -0.69042800998E+02  0.14779462325E+03  0.12924245718E+03 0.  0.
          5    1    4    4  502    0  0.21913432393E+02 -0.17593644026E+02 -0.19260448470E+03  0.19470057102E+03  0.47000000000E+01 0. -1.
         -5    1    4    4    0  502 -0.33871363503E+02  0.32750736038E+02 -0.21258199996E+02  0.51902611145E+02  0.47000000000E+01 0. -1.
          5    1    5    5  503    0 -0.43040283519E+02 -0.19667835087E+02  0.12549051896E+02  0.49181891443E+02  0.47000000000E+01 0.  1.
         -5    1    5    5    0  503  0.54998214629E+02  0.45107430749E+01 -0.81591852894E+02  0.98612731805E+02  0.47000000000E+01 0.  1.
<mgrwt>
<rscale>  0 0.27479832E+03</rscale>
<asrwt>0</asrwt>
<pdfrwt beam="1">  1        3 0.52100252E-01 0.27479832E+03</pdfrwt>
<pdfrwt beam="2">  1       -3 0.85763324E-02 0.27479832E+03</pdfrwt>
<totfact> 0.88978207E+02</totfact>
</mgrwt>
</event>
<event>
 9    1  0.2024718E-002  0.2768904E+03  0.7818608E-02  0.1097400E+00
         -1   -1    0    0    0  501 -0.00000000000E+00  0.00000000000E+00  0.29753928138E+02  0.29753928138E+02  0.00000000000E+00 0.  1.
          1   -1    0    0  501    0  0.00000000000E+00 -0.00000000000E+00 -0.64418613891E+03  0.64418613891E+03  0.00000000000E+00 0.  1.
         36    2    1    2    0    0 -0.71054273576E-14  0.00000000000E+00 -0.61443221078E+03  0.67394006705E+03  0.27689036159E+03 0.  0.
         25    2    3    3    0    0  0.52521304389E+02 -0.50531973162E+01 -0.38963451323E+03  0.41095260168E+03  0.11951135807E+03 0.  0.
         25    2    3    3    0    0 -0.52521304389E+02  0.50531973162E+01 -0.22479769755E+03  0.26298746538E+03  0.12587446089E+03 0.  0.
          5    1    4    4  502    0 -0.29022924027E+02  0.28789438994E+02 -0.14947961959E+03  0.15504002254E+03  0.47000000000E+01 0.  1.
         -5    1    4    4    0  502  0.81544228417E+02 -0.33842636310E+02 -0.24015489364E+03  0.25591257913E+03  0.47000000000E+01 0.  1.
          5    1    5    5  503    0  0.28696847451E+01 -0.54634237897E+02 -0.92002619501E+02  0.10714339474E+03  0.47000000000E+01 0. -1.
         -5    1    5    5    0  503 -0.55390989134E+02  0.59687435214E+02 -0.13279507805E+03  0.15584407064E+03  0.47000000000E+01 0. -1.
<mgrwt>
<rscale>  0 0.27689036E+03</rscale>
<asrwt>0</asrwt>
<pdfrwt beam="1">  1        1 0.99105561E-01 0.27689036E+03</pdfrwt>
<pdfrwt beam="2">  1       -1 0.45775274E-02 0.27689036E+03</pdfrwt>
<totfact> 0.63725463E+03</totfact>
</mgrwt>
</event>
<event>
 9    1  0.2024718E-002  0.2751493E+03  0.7818608E-02  0.1098368E+00
         -2   -1    0    0    0  501 -0.00000000000E+00  0.00000000000E+00  0.24099661211E+03  0.24099661211E+03  0.00000000000E+00 0.  1.
          2   -1    0    0  501    0  0.00000000000E+00 -0.00000000000E+00 -0.78535482634E+02  0.78535482634E+02  0.00000000000E+00 0.  1.
         36    2    1    2    0    0  0.71054273576E-14  0.00000000000E+00  0.16246112948E+03  0.31953209475E+03  0.27514930671E+03 0.  0.
         25    2    3    3    0    0  0.57587233749E+02  0.67150440889E+01  0.89882776060E+02  0.16303616974E+03  0.12304673057E+03 0.  0.
         25    2    3    3    0    0 -0.57587233749E+02 -0.67150440889E+01  0.72578353418E+02  0.15649592501E+03  0.12594433632E+03 0.  0.
          5    1    4    4  502    0 -0.38169201516E+02  0.10187665174E+02  0.21477263742E+02  0.45211053117E+02  0.47000000000E+01 0. -1.
         -5    1    4    4    0  502  0.95756435265E+02 -0.34726210854E+01  0.68405512318E+02  0.11782511662E+03  0.47000000000E+01 0. -1.
          5    1    5    5  503    0  0.30687581442E+02 -0.33184422148E+02  0.32620396545E+02  0.55938482271E+02  0.47000000000E+01 0. -1.
         -5    1    5    5    0  503 -0.88274815191E+02  0.26469378059E+02  0.39957956873E+02  0.10055744273E+03  0.47000000000E+01 0. -1.
<mgrwt>
<rscale>  0 0.27514931E+03</rscale>
<asrwt>0</asrwt>
<pdfrwt beam="1">  1        2 0.12082382E-01 0.27514931E+03</pdfrwt>
<pdfrwt beam="2">  1       -2 0.37076402E-01 0.27514931E+03</pdfrwt>
<totfact> 0.34739193E+03</totfact>
</mgrwt>
</event>
<event>
 9    1  0.2024718E-002  0.2748275E+03  0.7818608E-02  0.1098548E+00
         -4   -1    0    0    0  501 -0.00000000000E+00  0.00000000000E+00  0.15072124426E+03  0.15072124426E+03  0.00000000000E+00 0.  1.
          4   -1    0    0  501    0  0.00000000000E+00 -0.00000000000E+00 -0.12528117018E+03  0.12528117018E+03  0.00000000000E+00 0.  1.
         36    2    1    2    0    0 -0.71054273576E-14 -0.35527136788E-14  0.25440074085E+02  0.27600241444E+03  0.27482746480E+03 0.  0.
         25    2    3    3    0    0 -0.46841055915E+02 -0.80190103446E+01 -0.24861670517E+02  0.13345807166E+03  0.12220705865E+03 0.  0.
         25    2    3    3    0    0  0.46841055915E+02  0.80190103446E+01  0.50301744603E+02  0.14254434278E+03  0.12462036392E+03 0.  0.
          5    1    4    4  502    0 -0.13106228015E+02  0.50756395727E+02  0.14958531527E+02  0.54715926250E+02  0.47000000000E+01 0. -1.
         -5    1    4    4    0  502 -0.33734827900E+02 -0.58775406071E+02 -0.39820202045E+02  0.78742145406E+02  0.47000000000E+01 0. -1.
          5    1    5    5  503    0  0.71731666554E+01 -0.17519064626E+02  0.82798564910E+02  0.85065059198E+02  0.47000000000E+01 0. -1.
         -5    1    5    5    0  503  0.39667889260E+02  0.25538074970E+02 -0.32496820307E+02  0.57479283586E+02  0.47000000000E+01 0. -1.
<mgrwt>
<rscale>  0 0.27482746E+03</rscale>
<asrwt>0</asrwt>
<pdfrwt beam="1">  1        4 0.19274026E-01 0.27482746E+03</pdfrwt>
<pdfrwt beam="2">  1       -4 0.23187884E-01 0.27482746E+03</pdfrwt>
<totfact> 0.77897300E+02</totfact>
</mgrwt>
</event>
<event>
 9    1  0.2024718E-002  0.2740810E+03  0.7818608E-02  0.1098966E+00
         -2   -1    0    0    0  501 -0.00000000000E+00  0.00000000000E+00  0.10728551712E+03  0.10728551712E+03  0.00000000000E+00 0.  1.
          2   -1    0    0  501    0  0.00000000000E+00 -0.00000000000E+00 -0.17504780146E+03  0.17504780146E+03  0.00000000000E+00 0.  1.
         36    2    1    2    0    0  0.00000000000E+00  0.00000000000E+00 -0.67762284346E+02  0.28233331858E+03  0.27408096541E+03 0.  0.
         25    2    3    3    0    0 -0.40857970231E+02 -0.36340985648E+02 -0.58976415420E+02  0.14655743283E+03  0.12251866214E+03 0.  0.
         25    2    3    3    0    0  0.40857970231E+02  0.36340985648E+02 -0.87858689263E+01  0.13577588575E+03  0.12396716778E+03 0.  0.
          5    1    4    4  502    0 -0.59742846533E+02 -0.33869483091E+01 -0.82206673203E+02  0.10178755449E+03  0.47000000000E+01 0. -1.
         -5    1    4    4    0  502  0.18884876302E+02 -0.32954037339E+02  0.23230257783E+02  0.44769878340E+02  0.47000000000E+01 0. -1.
          5    1    5    5  503    0  0.12897161695E+02 -0.32603700327E+02 -0.41358042794E+02  0.54423485359E+02  0.47000000000E+01 0.  1.
         -5    1    5    5    0  503  0.27960808537E+02  0.68944685976E+02  0.32572173868E+02  0.81352400387E+02  0.47000000000E+01 0.  1.
<mgrwt>
<rscale>  0 0.27408097E+03</rscale>
<asrwt>0</asrwt>
<pdfrwt beam="1">  1        2 0.26930431E-01 0.27408097E+03</pdfrwt>
<pdfrwt beam="2">  1       -2 0.16505464E-01 0.27408097E+03</pdfrwt>
<totfact> 0.57255795E+03</totfact>
</mgrwt>
</event>
<event>
 9    1  0.2024718E-002  0.2763314E+03  0.7818608E-02  0.1097710E+00
         -1   -1    0    0    0  501 -0.00000000000E+00  0.00000000000E+00  0.10673476009E+02  0.10673476009E+02  0.00000000000E+00 0. -1.
          1   -1    0    0  501    0  0.00000000000E+00 -0.00000000000E+00 -0.17885232132E+04  0.17885232132E+04  0.00000000000E+00 0. -1.
         36    2    1    2    0    0  0.00000000000E+00  0.00000000000E+00 -0.17778497372E+04  0.17991966892E+04  0.27633139241E+03 0.  0.
         25    2    3    3    0    0  0.16120197206E+02  0.33805240240E+02 -0.65128676202E+03  0.66452359019E+03  0.12654841171E+03 0.  0.
         25    2    3    3    0    0 -0.16120197206E+02 -0.33805240240E+02 -0.11265629752E+04  0.11346730990E+04  0.13013934682E+03 0.  0.
          5    1    4    4  502    0  0.71360290118E+02  0.24879216656E+02 -0.38676771474E+03  0.39410991055E+03  0.47000000000E+01 0. -1.
         -5    1    4    4    0  502 -0.55240092912E+02  0.89260235842E+01 -0.26451904728E+03  0.27041367964E+03  0.47000000000E+01 0. -1.
          5    1    5    5  503    0  0.18393937145E+02  0.35102266134E+02 -0.15528363963E+03  0.16032967520E+03  0.47000000000E+01 0.  1.
         -5    1    5    5    0  503 -0.34514134352E+02 -0.68907506374E+02 -0.97127933554E+03  0.97434342383E+03  0.47000000000E+01 0.  1.
<mgrwt>
<rscale>  0 0.27633139E+03</rscale>
<asrwt>0</asrwt>
<pdfrwt beam="1">  1        1 0.27515747E+00 0.27633139E+03</pdfrwt>
<pdfrwt beam="2">  1       -1 0.16420729E-02 0.27633139E+03</pdfrwt>
<totfact> 0.42344724E+03</totfact>
</mgrwt>
</event>
<event>
 9    1  0.2024718E-002  0.2755600E+03  0.7818608E-02  0.1098139E+00
         -3   -1    0    0    0  501 -0.00000000000E+00  0.00000000000E+00  0.10033315329E+03  0.10033315329E+03  0.00000000000E+00 0.  1.
          3   -1    0    0  501    0  0.00000000000E+00 -0.00000000000E+00 -0.18920290814E+03  0.18920290814E+03  0.00000000000E+00 0.  1.
         36    2    1    2    0    0  0.71054273576E-14 -0.71054273576E-14 -0.88869754847E+02  0.28953606143E+03  0.27555997087E+03 0.  0.
         25    2    3    3    0    0  0.59761080333E+02  0.11928900518E+02 -0.38143695633E+02  0.14141444765E+03  0.12177610232E+03 0.  0.
         25    2    3    3    0    0 -0.59761080333E+02 -0.11928900518E+02 -0.50726059214E+02  0.14812161378E+03  0.12511272516E+03 0.  0.
          5    1    4    4  502    0  0.11946004369E+02 -0.47250378470E+02  0.11695038859E+02  0.50340532574E+02  0.47000000000E+01 0. -1.
         -5    1    4    4    0  502  0.47815075964E+02  0.59179278988E+02 -0.49838734492E+02  0.91073915073E+02  0.47000000000E+01 0. -1.
          5    1    5    5  503    0 -0.22582772044E+02 -0.46931200724E+02  0.23964208047E+02  0.57522973340E+02  0.47000000000E+01 0. -1.
         -5    1    5    5    0  503 -0.37178308289E+02  0.35002300206E+02 -0.74690267260E+02  0.90598640444E+02  0.47000000000E+01 0. -1.
<mgrwt>
<rscale>  0 0.27555997E+03</rscale>
<asrwt>0</asrwt>
<pdfrwt beam="1">  1        3 0.29108140E-01 0.27555997E+03</pdfrwt>
<pdfrwt beam="2">  1       -3 0.15435870E-01 0.27555997E+03</pdfrwt>
<totfact> 0.10206479E+03</totfact>
</mgrwt>
</event>
<event>
 9    1  0.2024718E-002  0.2751338E+03  0.7818608E-02  0.1098377E+00
          2   -1    0    0  501    0  0.00000000000E+00  0.00000000000E+00  0.16974088038E+04  0.16974088038E+04  0.00000000000E+00 0. -1.
         -2   -1    0    0    0  501 -0.00000000000E+00 -0.00000000000E+00 -0.11149145776E+02  0.11149145776E+02  0.00000000000E+00 0. -1.
         36    2    1    2    0    0  0.00000000000E+00  0.00000000000E+00  0.16862596580E+04  0.17085579496E+04  0.27513384521E+03 0.  0.
         25    2    3    3    0    0  0.36665605300E+02 -0.36239526054E+02  0.10081320138E+04  0.10163812543E+04  0.11850327834E+03 0.  0.
         25    2    3    3    0    0 -0.36665605300E+02  0.36239526054E+02  0.67812764425E+03  0.69217669530E+03  0.12881694673E+03 0.  0.
          5    1    4    4  502    0  0.33944004306E+02  0.37822562324E+02  0.53862910800E+03  0.54104172449E+03  0.47000000000E+01 0. -1.
         -5    1    4    4    0  502  0.27216009935E+01 -0.74062088378E+02  0.46950290579E+03  0.47533952980E+03  0.47000000000E+01 0. -1.
          5    1    5    5  503    0  0.19354259348E+02 -0.39259769550E+02  0.24704624130E+03  0.25093794492E+03  0.47000000000E+01 0. -1.
         -5    1    5    5    0  503 -0.56019864648E+02  0.75499295604E+02  0.43108140295E+03  0.44123875039E+03  0.47000000000E+01 0. -1.
<mgrwt>
<rscale>  0 0.27513385E+03</rscale>
<asrwt>0</asrwt>
<pdfrwt beam="1">  1        2 0.26113961E+00 0.27513385E+03</pdfrwt>
<pdfrwt beam="2">  1       -2 0.17152545E-02 0.27513385E+03</pdfrwt>
<totfact> 0.10386339E+04</totfact>
</mgrwt>
</event>
<event>
 9    1  0.2024718E-002  0.2841689E+03  0.7818608E-02  0.1093434E+00
          1   -1    0    0  501    0  0.00000000000E+00  0.00000000000E+00  0.48297858645E+03  0.48297858645E+03  0.00000000000E+00 0. -1.
         -1   -1    0    0    0  501 -0.00000000000E+00 -0.00000000000E+00 -0.41798944570E+02  0.41798944570E+02  0.00000000000E+00 0. -1.
         36    2    1    2    0    0  0.00000000000E+00  0.14210854715E-13  0.44117964188E+03  0.52477753102E+03  0.28416892978E+03 0.  0.
         25    2    3    3    0    0 -0.30382949023E+02  0.35609536193E+02  0.29580054564E+03  0.32423675576E+03  0.12425919814E+03 0.  0.
         25    2    3    3    0    0  0.30382949023E+02 -0.35609536193E+02  0.14537909623E+03  0.20054077526E+03  0.12996291110E+03 0.  0.
          5    1    4    4  502    0 -0.57641364661E+02  0.41155334205E+02  0.28551988835E+03  0.29421078345E+03  0.47000000000E+01 0.  1.
         -5    1    4    4    0  502  0.27258415639E+02 -0.55457980120E+01  0.10280657293E+02  0.30025972309E+02  0.47000000000E+01 0.  1.
          5    1    5    5  503    0  0.14527421848E+02  0.43301323593E+02  0.17033394841E+02  0.48972207937E+02  0.47000000000E+01 0. -1.
         -5    1    5    5    0  503  0.15855527174E+02 -0.78910859786E+02  0.12834570139E+03  0.15156856732E+03  0.47000000000E+01 0. -1.
<mgrwt>
<rscale>  0 0.28416893E+03</rscale>
<asrwt>0</asrwt>
<pdfrwt beam="1">  1        1 0.74304394E-01 0.28416893E+03</pdfrwt>
<pdfrwt beam="2">  1       -1 0.64306072E-02 0.28416893E+03</pdfrwt>
<totfact> 0.56683572E+03</totfact>
</mgrwt>
</event>
<event>
 9    1  0.2024718E-002  0.2740644E+03  0.7818608E-02  0.1098976E+00
          1   -1    0    0  501    0  0.00000000000E+00  0.00000000000E+00  0.58408852070E+03  0.58408852070E+03  0.00000000000E+00 0.  1.
         -1   -1    0    0    0  501 -0.00000000000E+00 -0.00000000000E+00 -0.32148923456E+02  0.32148923456E+02  0.00000000000E+00 0.  1.
         36    2    1    2    0    0  0.35527136788E-14  0.00000000000E+00  0.55193959724E+03  0.61623744415E+03  0.27406435116E+03 0.  0.
         25    2    3    3    0    0  0.29901170738E+02 -0.37780816015E+02  0.21224716995E+03  0.25160524213E+03  0.12623338167E+03 0.  0.
         25    2    3    3    0    0 -0.29901170738E+02  0.37780816015E+02  0.33969242729E+03  0.36463220202E+03  0.12346751606E+03 0.  0.
          5    1    4    4  502    0 -0.24706501715E+02 -0.51492956629E+02  0.17446982705E+03  0.18364026345E+03  0.47000000000E+01 0.  1.
         -5    1    4    4    0  502  0.54607672453E+02  0.13712140613E+02  0.37777342904E+02  0.67964978686E+02  0.47000000000E+01 0.  1.
          5    1    5    5  503    0  0.23322992954E+02 -0.21419753848E+02  0.20968596807E+03  0.21211568320E+03  0.47000000000E+01 0. -1.
         -5    1    5    5    0  503 -0.53224163691E+02  0.59200569864E+02  0.13000645922E+03  0.15251651881E+03  0.47000000000E+01 0. -1.
<mgrwt>
<rscale>  0 0.27406435E+03</rscale>
<asrwt>0</asrwt>
<pdfrwt beam="1">  1        1 0.89859765E-01 0.27406435E+03</pdfrwt>
<pdfrwt beam="2">  1       -1 0.49459886E-02 0.27406435E+03</pdfrwt>
<totfact> 0.65066838E+03</totfact>
</mgrwt>
</event>
<event>
 9    1  0.2024718E-002  0.2760745E+03  0.7818608E-02  0.1097852E+00
         -2   -1    0    0    0  501 -0.00000000000E+00  0.00000000000E+00  0.15883664333E+02  0.15883664333E+02  0.00000000000E+00 0.  1.
          2   -1    0    0  501    0  0.00000000000E+00 -0.00000000000E+00 -0.11996150539E+04  0.11996150539E+04  0.00000000000E+00 0.  1.
         36    2    1    2    0    0  0.71054273576E-14  0.00000000000E+00 -0.11837313896E+04  0.12154987183E+04  0.27607450332E+03 0.  0.
         25    2    3    3    0    0  0.46773979075E+02 -0.24757764029E+02 -0.54879543284E+03  0.56641086905E+03  0.12978479679E+03 0.  0.
         25    2    3    3    0    0 -0.46773979075E+02  0.24757764029E+02 -0.63493595677E+03  0.64908784923E+03  0.12397828362E+03 0.  0.
          5    1    4    4  502    0  0.79139454843E+01 -0.68438972620E+00 -0.49732804330E+03  0.49741368254E+03  0.47000000000E+01 0. -1.
         -5    1    4    4    0  502  0.38860033590E+02 -0.24073374303E+02 -0.51467389534E+02  0.68997186511E+02  0.47000000000E+01 0. -1.
          5    1    5    5  503    0 -0.39123709507E+02 -0.36172784968E+02 -0.13247736039E+03  0.14286873708E+03  0.47000000000E+01 0. -1.
         -5    1    5    5    0  503 -0.76502695675E+01  0.60930548997E+02 -0.50245859638E+03  0.50621911215E+03  0.47000000000E+01 0. -1.
<mgrwt>
<rscale>  0 0.27607450E+03</rscale>
<asrwt>0</asrwt>
<pdfrwt beam="1">  1        2 0.18455623E+00 0.27607450E+03</pdfrwt>
<pdfrwt beam="2">  1       -2 0.24436398E-02 0.27607450E+03</pdfrwt>
<totfact> 0.11478658E+04</totfact>
</mgrwt>
</event>
<event>
 9    1  0.2024718E-002  0.2748140E+03  0.7818608E-02  0.1098556E+00
          2   -1    0    0  501    0  0.00000000000E+00  0.00000000000E+00  0.23810189022E+04  0.23810189022E+04  0.00000000000E+00 0.  1.
         -2   -1    0    0    0  501 -0.00000000000E+00 -0.00000000000E+00 -0.79296656281E+01  0.79296656281E+01  0.00000000000E+00 0.  1.
         36    2    1    2    0    0  0.35527136788E-14  0.00000000000E+00  0.23730892365E+04  0.23889485678E+04  0.27481400072E+03 0.  0.
         25    2    3    3    0    0 -0.12752665694E+02 -0.29876860929E+02  0.75904823416E+03  0.77021293266E+03  0.12656414402E+03 0.  0.
         25    2    3    3    0    0  0.12752665694E+02  0.29876860929E+02  0.16140410024E+04  0.16187356351E+04  0.11883367285E+03 0.  0.
          5    1    4    4  502    0 -0.53377781795E+02 -0.51976239692E+02  0.31438430563E+03  0.32312582488E+03  0.47000000000E+01 0. -1.
         -5    1    4    4    0  502  0.40625116100E+02  0.22099378763E+02  0.44466392853E+03  0.44708710777E+03  0.47000000000E+01 0. -1.
          5    1    5    5  503    0 -0.10540139066E+02 -0.41062437932E+02  0.37068935057E+03  0.37313523415E+03  0.47000000000E+01 0. -1.
         -5    1    5    5    0  503  0.23292804760E+02  0.70939298861E+02  0.12433516518E+04  0.12456004010E+04  0.47000000000E+01 0. -1.
<mgrwt>
<rscale>  0 0.27481400E+03</rscale>
<asrwt>0</asrwt>
<pdfrwt beam="1">  1        2 0.36631003E+00 0.27481400E+03</pdfrwt>
<pdfrwt beam="2">  1       -2 0.12199505E-02 0.27481400E+03</pdfrwt>
<totfact> 0.74310980E+03</totfact>
</mgrwt>
</event>
<event>
 9    1  0.2024718E-002  0.2746917E+03  0.7818608E-02  0.1098624E+00
          2   -1    0    0  501    0  0.00000000000E+00  0.00000000000E+00  0.72855511084E+02  0.72855511084E+02  0.00000000000E+00 0.  1.
         -2   -1    0    0    0  501 -0.00000000000E+00 -0.00000000000E+00 -0.25892184168E+03  0.25892184168E+03  0.00000000000E+00 0.  1.
         36    2    1    2    0    0  0.00000000000E+00  0.71054273576E-14 -0.18606633059E+03  0.33177735276E+03  0.27469170432E+03 0.  0.
         25    2    3    3    0    0 -0.22137199631E+02 -0.20355548126E+02 -0.13177738768E+03  0.18288788391E+03  0.12320022009E+03 0.  0.
         25    2    3    3    0    0  0.22137199631E+02  0.20355548126E+02 -0.54288942917E+02  0.14888946885E+03  0.13533802372E+03 0.  0.
          5    1    4    4  502    0  0.12832206978E+02  0.43534797742E+02 -0.84186061777E+02  0.95756603678E+02  0.47000000000E+01 0.  1.
         -5    1    4    4    0  502 -0.34969406610E+02 -0.63890345869E+02 -0.47591325899E+02  0.87131280231E+02  0.47000000000E+01 0.  1.
          5    1    5    5  503    0  0.52485120988E+02  0.41160030073E+02  0.16588911450E+02  0.68892074898E+02  0.47000000000E+01 0. -1.
         -5    1    5    5    0  503 -0.30347921356E+02 -0.20804481947E+02 -0.70877854367E+02  0.79997393953E+02  0.47000000000E+01 0. -1.
<mgrwt>
<rscale>  0 0.27469170E+03</rscale>
<asrwt>0</asrwt>
<pdfrwt beam="1">  1        2 0.11208540E-01 0.27469170E+03</pdfrwt>
<pdfrwt beam="2">  1       -2 0.39834130E-01 0.27469170E+03</pdfrwt>
<totfact> 0.33231963E+03</totfact>
</mgrwt>
</event>
<event>
 9    1  0.2024718E-002  0.2740225E+03  0.7818608E-02  0.1098999E+00
         -2   -1    0    0    0  501 -0.00000000000E+00  0.00000000000E+00  0.14199299284E+03  0.14199299284E+03  0.00000000000E+00 0. -1.
          2   -1    0    0  501    0  0.00000000000E+00 -0.00000000000E+00 -0.13220428171E+03  0.13220428171E+03  0.00000000000E+00 0. -1.
         36    2    1    2    0    0  0.35527136788E-14  0.14210854715E-13  0.97887111321E+01  0.27419727455E+03  0.27402249270E+03 0.  0.
         25    2    3    3    0    0 -0.29905875565E+02 -0.39578315514E+02 -0.21455683779E+02  0.13578589440E+03  0.12456587935E+03 0.  0.
         25    2    3    3    0    0  0.29905875565E+02  0.39578315514E+02  0.31244394911E+02  0.13841138015E+03  0.12538218969E+03 0.  0.
          5    1    4    4  502    0 -0.62185156894E+01  0.45047290294E+02 -0.12068393155E+02  0.47282813088E+02  0.47000000000E+01 0. -1.
         -5    1    4    4    0  502 -0.23687359876E+02 -0.84625605808E+02 -0.93872906243E+01  0.88503081311E+02  0.47000000000E+01 0. -1.
          5    1    5    5  503    0  0.26824615765E+02 -0.36664876142E+02 -0.16171690100E+02  0.48450869075E+02  0.47000000000E+01 0.  1.
         -5    1    5    5    0  503  0.30812598004E+01  0.76243191657E+02  0.47416085011E+02  0.89960511080E+02  0.47000000000E+01 0.  1.
<mgrwt>
<rscale>  0 0.27402249E+03</rscale>
<asrwt>0</asrwt>
<pdfrwt beam="1">  1        2 0.20339120E-01 0.27402249E+03</pdfrwt>
<pdfrwt beam="2">  1       -2 0.21845076E-01 0.27402249E+03</pdfrwt>
<totfact> 0.48772349E+03</totfact>
</mgrwt>
</event>
<event>
 9    1  0.2024718E-002  0.2750785E+03  0.7818608E-02  0.1098408E+00
          2   -1    0    0  501    0  0.00000000000E+00  0.00000000000E+00  0.14682863273E+03  0.14682863273E+03  0.00000000000E+00 0.  1.
         -2   -1    0    0    0  501 -0.00000000000E+00 -0.00000000000E+00 -0.12883757494E+03  0.12883757494E+03  0.00000000000E+00 0.  1.
         36    2    1    2    0    0  0.00000000000E+00  0.71054273576E-14  0.17991057789E+02  0.27566620766E+03  0.27507849768E+03 0.  0.
         25    2    3    3    0    0  0.12974895981E+02 -0.55196921928E+02 -0.47050152143E+01  0.13781747830E+03  0.12552478656E+03 0.  0.
         25    2    3    3    0    0 -0.12974895981E+02  0.55196921928E+02  0.22696073003E+02  0.13784872936E+03  0.12358038817E+03 0.  0.
          5    1    4    4  502    0  0.60189304265E+02 -0.62426736072E+02  0.10486610946E+02  0.87475189246E+02  0.47000000000E+01 0. -1.
         -5    1    4    4    0  502 -0.47214408284E+02  0.72298141439E+01 -0.15191626160E+02  0.50342289057E+02  0.47000000000E+01 0. -1.
          5    1    5    5  503    0  0.16765211381E+02  0.88195693029E+02  0.24383274520E+02  0.93146050146E+02  0.47000000000E+01 0. -1.
         -5    1    5    5    0  503 -0.29740107362E+02 -0.32998771101E+02 -0.16872015170E+01  0.44702679215E+02  0.47000000000E+01 0. -1.
<mgrwt>
<rscale>  0 0.27507850E+03</rscale>
<asrwt>0</asrwt>
<pdfrwt beam="1">  1        2 0.22589020E-01 0.27507850E+03</pdfrwt>
<pdfrwt beam="2">  1       -2 0.19821165E-01 0.27507850E+03</pdfrwt>
<totfact> 0.51177143E+03</totfact>
</mgrwt>
</event>
<event>
 9    1  0.2024718E-002  0.2746189E+03  0.7818608E-02  0.1098665E+00
          2   -1    0    0  501    0  0.00000000000E+00  0.00000000000E+00  0.66231223864E+03  0.66231223864E+03  0.00000000000E+00 0. -1.
         -2   -1    0    0    0  501 -0.00000000000E+00 -0.00000000000E+00 -0.28466753013E+02  0.28466753013E+02  0.00000000000E+00 0. -1.
         36    2    1    2    0    0  0.00000000000E+00 -0.71054273576E-14  0.63384548563E+03  0.69077899165E+03  0.27461885525E+03 0.  0.
         25    2    3    3    0    0  0.50465466003E+02  0.29752970525E+02  0.30409122662E+03  0.33509414622E+03  0.12800238361E+03 0.  0.
         25    2    3    3    0    0 -0.50465466003E+02 -0.29752970525E+02  0.32975425901E+03  0.35568484544E+03  0.11975740238E+03 0.  0.
          5    1    4    4  502    0  0.46567165606E+02 -0.18998917939E+02  0.34758090580E+02  0.61316185923E+02  0.47000000000E+01 0. -1.
         -5    1    4    4    0  502  0.38983003969E+01  0.48751888463E+02  0.26933313604E+03  0.27377796029E+03  0.47000000000E+01 0. -1.
          5    1    5    5  503    0 -0.21862270187E+01 -0.11664925511E+01 -0.99855199247E+01  0.11311096393E+02  0.47000000000E+01 0.  1.
         -5    1    5    5    0  503 -0.48279238984E+02 -0.28586477973E+02  0.33973977893E+03  0.34437374904E+03  0.47000000000E+01 0.  1.
<mgrwt>
<rscale>  0 0.27461886E+03</rscale>
<asrwt>0</asrwt>
<pdfrwt beam="1">  1        2 0.10189418E+00 0.27461886E+03</pdfrwt>
<pdfrwt beam="2">  1       -2 0.43795010E-02 0.27461886E+03</pdfrwt>
<totfact> 0.10700989E+04</totfact>
</mgrwt>
</event>
<event>
 9    1  0.2024718E-002  0.2814336E+03  0.7818608E-02  0.1094908E+00
         -1   -1    0    0    0  501 -0.00000000000E+00  0.00000000000E+00  0.17967589341E+02  0.17967589341E+02  0.00000000000E+00 0. -1.
          1   -1    0    0  501    0  0.00000000000E+00 -0.00000000000E+00 -0.11020522348E+04  0.11020522348E+04  0.00000000000E+00 0. -1.
         36    2    1    2    0    0  0.00000000000E+00  0.00000000000E+00 -0.10840846455E+04  0.11200198242E+04  0.28143362975E+03 0.  0.
         25    2    3    3    0    0  0.37764259543E+02  0.45968838625E+02 -0.56872897431E+03  0.58577733262E+03  0.12705575066E+03 0.  0.
         25    2    3    3    0    0 -0.37764259543E+02 -0.45968838625E+02 -0.51535567119E+03  0.53424249156E+03  0.12760994684E+03 0.  0.
          5    1    4    4  502    0  0.74043890181E+02 -0.80822711267E+01 -0.28137963800E+03  0.29110893401E+03  0.47000000000E+01 0. -1.
         -5    1    4    4    0  502 -0.36279630638E+02  0.54051109752E+02 -0.28734933630E+03  0.29466839861E+03  0.47000000000E+01 0. -1.
          5    1    5    5  503    0 -0.17088660266E+02 -0.79371818628E+01 -0.25437080823E+01  0.19585239759E+02  0.47000000000E+01 0. -1.
         -5    1    5    5    0  503 -0.20675599277E+02 -0.38031656762E+02 -0.51281196311E+03  0.51465725180E+03  0.47000000000E+01 0. -1.
<mgrwt>
<rscale>  0 0.28143363E+03</rscale>
<asrwt>0</asrwt>
<pdfrwt beam="1">  1        1 0.16954651E+00 0.28143363E+03</pdfrwt>
<pdfrwt beam="2">  1       -1 0.27642443E-02 0.28143363E+03</pdfrwt>
<totfact> 0.57266031E+03</totfact>
</mgrwt>
</event>
<event>
 9    1  0.2024718E-002  0.2759180E+03  0.7818608E-02  0.1097940E+00
         -3   -1    0    0    0  501 -0.00000000000E+00  0.00000000000E+00  0.18907400594E+02  0.18907400594E+02  0.00000000000E+00 0. -1.
          3   -1    0    0  501    0  0.00000000000E+00 -0.00000000000E+00 -0.10066261855E+04  0.10066261855E+04  0.00000000000E+00 0. -1.
         36    2    1    2    0    0  0.00000000000E+00  0.71054273576E-14 -0.98771878490E+03  0.10255335861E+04  0.27591799171E+03 0.  0.
         25    2    3    3    0    0  0.25080806295E+02 -0.25492703517E+02 -0.30884924368E+03  0.33447628707E+03  0.12331912467E+03 0.  0.
         25    2    3    3    0    0 -0.25080806295E+02  0.25492703517E+02 -0.67886954122E+03  0.69105729903E+03  0.12416687063E+03 0.  0.
          5    1    4    4  502    0  0.61690253855E+02  0.43884204268E+01 -0.82588145286E+02  0.10328522351E+03  0.47000000000E+01 0.  1.
         -5    1    4    4    0  502 -0.36609447560E+02 -0.29881123944E+02 -0.22626109840E+03  0.23119106355E+03  0.47000000000E+01 0.  1.
          5    1    5    5  503    0  0.34742403238E+02  0.41719409431E+02 -0.17292550995E+03  0.18130875792E+03  0.47000000000E+01 0. -1.
         -5    1    5    5    0  503 -0.59823209533E+02 -0.16226705914E+02 -0.50594403127E+03  0.50974854111E+03  0.47000000000E+01 0. -1.
<mgrwt>
<rscale>  0 0.27591799E+03</rscale>
<asrwt>0</asrwt>
<pdfrwt beam="1">  1        3 0.15486560E+00 0.27591799E+03</pdfrwt>
<pdfrwt beam="2">  1       -3 0.29088302E-02 0.27591799E+03</pdfrwt>
<totfact> 0.42930168E+02</totfact>
</mgrwt>
</event>
<event>
 9    1  0.2024718E-002  0.2762170E+03  0.7818608E-02  0.1097773E+00
         -1   -1    0    0    0  501 -0.00000000000E+00  0.00000000000E+00  0.52841320561E+02  0.52841320561E+02  0.00000000000E+00 0. -1.
          1   -1    0    0  501    0  0.00000000000E+00 -0.00000000000E+00 -0.36096659962E+03  0.36096659962E+03  0.00000000000E+00 0. -1.
         36    2    1    2    0    0  0.35527136788E-14  0.71054273576E-14 -0.30812527906E+03  0.41380792018E+03  0.27621695677E+03 0.  0.
         25    2    3    3    0    0 -0.28876111292E+02 -0.38950291799E+02 -0.11515324931E+03  0.17441100758E+03  0.12168801791E+03 0.  0.
         25    2    3    3    0    0  0.28876111292E+02  0.38950291799E+02 -0.19297202975E+03  0.23939691260E+03  0.13312295994E+03 0.  0.
          5    1    4    4  502    0 -0.50298774252E+02  0.29162568055E+02 -0.63053630174E+02  0.85896870403E+02  0.47000000000E+01 0. -1.
         -5    1    4    4    0  502  0.21422662960E+02 -0.68112859854E+02 -0.52099619133E+02  0.88514137174E+02  0.47000000000E+01 0. -1.
          5    1    5    5  503    0  0.12854032744E+02  0.88203835975E+02 -0.11298217054E+03  0.14398681780E+03  0.47000000000E+01 0.  1.
         -5    1    5    5    0  503  0.16022078548E+02 -0.49253544176E+02 -0.79989859206E+02  0.95410094805E+02  0.47000000000E+01 0.  1.
<mgrwt>
<rscale>  0 0.27621696E+03</rscale>
<asrwt>0</asrwt>
<pdfrwt beam="1">  1        1 0.55533321E-01 0.27621696E+03</pdfrwt>
<pdfrwt beam="2">  1       -1 0.81294342E-02 0.27621696E+03</pdfrwt>
<totfact> 0.57763419E+03</totfact>
</mgrwt>
</event>
<event>
 9    1  0.2024718E-002  0.2775119E+03  0.7818608E-02  0.1097056E+00
          1   -1    0    0  501    0  0.00000000000E+00  0.00000000000E+00  0.57889224029E+03  0.57889224029E+03  0.00000000000E+00 0. -1.
         -1   -1    0    0    0  501 -0.00000000000E+00 -0.00000000000E+00 -0.33258710824E+02  0.33258710824E+02  0.00000000000E+00 0. -1.
         36    2    1    2    0    0 -0.14210854715E-13  0.00000000000E+00  0.54563352947E+03  0.61215095112E+03  0.27751187087E+03 0.  0.
         25    2    3    3    0    0  0.57268243875E+02 -0.36970068866E+01  0.26392885312E+03  0.29817592452E+03  0.12632150583E+03 0.  0.
         25    2    3    3    0    0 -0.57268243875E+02  0.36970068866E+01  0.28170467635E+03  0.31397502660E+03  0.12621201621E+03 0.  0.
          5    1    4    4  502    0  0.76210774030E+02  0.43038740380E+02  0.15549611441E+03  0.17849803038E+03  0.47000000000E+01 0. -1.
         -5    1    4    4    0  502 -0.18942530155E+02 -0.46735747267E+02  0.10843273871E+03  0.11967789414E+03  0.47000000000E+01 0. -1.
          5    1    5    5  503    0 -0.87703230239E+02  0.34879994259E+02  0.18232132302E+03  0.20535731158E+03  0.47000000000E+01 0. -1.
         -5    1    5    5    0  503  0.30434986364E+02 -0.31182987372E+02  0.99383353329E+02  0.10861771502E+03  0.47000000000E+01 0. -1.
<mgrwt>
<rscale>  0 0.27751187E+03</rscale>
<asrwt>0</asrwt>
<pdfrwt beam="1">  1        1 0.89060338E-01 0.27751187E+03</pdfrwt>
<pdfrwt beam="2">  1       -1 0.51167251E-02 0.27751187E+03</pdfrwt>
<totfact> 0.62628869E+03</totfact>
</mgrwt>
</event>
<event>
 9    1  0.2024718E-002  0.2752115E+03  0.7818608E-02  0.1098333E+00
         -1   -1    0    0    0  501 -0.00000000000E+00  0.00000000000E+00  0.40151783775E+02  0.40151783775E+02  0.00000000000E+00 0.  1.
          1   -1    0    0  501    0  0.00000000000E+00 -0.00000000000E+00 -0.47159389802E+03  0.47159389802E+03  0.00000000000E+00 0.  1.
         36    2    1    2    0    0  0.17763568394E-14  0.00000000000E+00 -0.43144211425E+03  0.51174568180E+03  0.27521145487E+03 0.  0.
         25    2    3    3    0    0  0.12102117219E+01  0.16490066235E+02 -0.13728216524E+03  0.18818796131E+03  0.12765159221E+03 0.  0.
         25    2    3    3    0    0 -0.12102117219E+01 -0.16490066235E+02 -0.29415994901E+03  0.32355772048E+03  0.13373905932E+03 0.  0.
          5    1    4    4  502    0 -0.15423826686E+02  0.41710906097E+02 -0.14890702511E+03  0.15547696371E+03  0.47000000000E+01 0. -1.
         -5    1    4    4    0  502  0.16634038408E+02 -0.25220839862E+02  0.11624859873E+02  0.32710997603E+02  0.47000000000E+01 0. -1.
          5    1    5    5  503    0 -0.13148741442E+02  0.13447019803E+02 -0.29008628357E+03  0.29073330331E+03  0.47000000000E+01 0.  1.
         -5    1    5    5    0  503  0.11938529720E+02 -0.29937086038E+02 -0.40736654427E+01  0.32824417168E+02  0.47000000000E+01 0.  1.
<mgrwt>
<rscale>  0 0.27521145E+03</rscale>
<asrwt>0</asrwt>
<pdfrwt beam="1">  1        1 0.72552911E-01 0.27521145E+03</pdfrwt>
<pdfrwt beam="2">  1       -1 0.61771972E-02 0.27521145E+03</pdfrwt>
<totfact> 0.62102022E+03</totfact>
</mgrwt>
</event>
<event>
 9    1  0.2024718E-002  0.2755165E+03  0.7818608E-02  0.1098163E+00
          1   -1    0    0  501    0  0.00000000000E+00  0.00000000000E+00  0.20439073424E+03  0.20439073424E+03  0.00000000000E+00 0.  1.
         -1   -1    0    0    0  501 -0.00000000000E+00 -0.00000000000E+00 -0.92848319723E+02  0.92848319723E+02  0.00000000000E+00 0.  1.
         36    2    1    2    0    0 -0.35527136788E-14  0.71054273576E-14  0.11154241452E+03  0.29723905397E+03  0.27551650580E+03 0.  0.
         25    2    3    3    0    0  0.28439995910E+02 -0.85407336050E+00  0.60345360267E+02  0.14104367897E+03  0.12426662489E+03 0.  0.
         25    2    3    3    0    0 -0.28439995910E+02  0.85407336050E+00  0.51197054253E+02  0.15619537500E+03  0.14479742401E+03 0.  0.
          5    1    4    4  502    0 -0.85930468276E+01  0.29524815287E+02  0.82419136017E+02  0.88094035855E+02  0.47000000000E+01 0.  1.
         -5    1    4    4    0  502  0.37033042737E+02 -0.30378888647E+02 -0.22073775749E+02  0.52949643112E+02  0.47000000000E+01 0.  1.
          5    1    5    5  503    0 -0.32856159642E+02  0.48928113755E+02  0.80233033241E+02  0.99664021418E+02  0.47000000000E+01 0.  1.
         -5    1    5    5    0  503  0.44161637326E+01 -0.48074040395E+02 -0.29035978988E+02  0.56531353582E+02  0.47000000000E+01 0.  1.
<mgrwt>
<rscale>  0 0.27551651E+03</rscale>
<asrwt>0</asrwt>
<pdfrwt beam="1">  1        1 0.31444728E-01 0.27551651E+03</pdfrwt>
<pdfrwt beam="2">  1       -1 0.14284357E-01 0.27551651E+03</pdfrwt>
<totfact> 0.49243887E+03</totfact>
</mgrwt>
</event>
<event>
 9    1  0.2024718E-002  0.2737497E+03  0.7818608E-02  0.1099153E+00
          2   -1    0    0  501    0  0.00000000000E+00  0.00000000000E+00  0.65249382345E+02  0.65249382345E+02  0.00000000000E+00 0.  1.
         -2   -1    0    0    0  501 -0.00000000000E+00 -0.00000000000E+00 -0.28712500903E+03  0.28712500903E+03  0.00000000000E+00 0.  1.
         36    2    1    2    0    0 -0.35527136788E-14  0.35527136788E-14 -0.22187562668E+03  0.35237439137E+03  0.27374973603E+03 0.  0.
         25    2    3    3    0    0  0.17780986699E+01  0.80015672117E+01 -0.31675331025E+02  0.12670815107E+03  0.12241095637E+03 0.  0.
         25    2    3    3    0    0 -0.17780986699E+01 -0.80015672117E+01 -0.19020029566E+03  0.22566624031E+03  0.12116894335E+03 0.  0.
          5    1    4    4  502    0  0.33805283344E+02 -0.19502027052E+02  0.31642379022E+02  0.50462425539E+02  0.47000000000E+01 0.  1.
         -5    1    4    4    0  502 -0.32027184674E+02  0.27503594264E+02 -0.63317710047E+02  0.76245725527E+02  0.47000000000E+01 0.  1.
          5    1    5    5  503    0 -0.26057045385E+02 -0.52119029391E+02 -0.51056300604E+02  0.77615711491E+02  0.47000000000E+01 0.  1.
         -5    1    5    5    0  503  0.24278946715E+02  0.44117462180E+02 -0.13914399506E+03  0.14805052882E+03  0.47000000000E+01 0.  1.
<mgrwt>
<rscale>  0 0.27374974E+03</rscale>
<asrwt>0</asrwt>
<pdfrwt beam="1">  1        2 0.10038367E-01 0.27374974E+03</pdfrwt>
<pdfrwt beam="2">  1       -2 0.44173078E-01 0.27374974E+03</pdfrwt>
<totfact> 0.31194242E+03</totfact>
</mgrwt>
</event>
<event>
 9    1  0.2024718E-002  0.2744355E+03  0.7818608E-02  0.1098768E+00
         -2   -1    0    0    0  501 -0.00000000000E+00  0.00000000000E+00  0.23365385409E+02  0.23365385409E+02  0.00000000000E+00 0. -1.
          2   -1    0    0  501    0  0.00000000000E+00 -0.00000000000E+00 -0.80583753277E+03  0.80583753277E+03  0.00000000000E+00 0. -1.
         36    2    1    2    0    0 -0.71054273576E-14 -0.35527136788E-14 -0.78247214736E+03  0.82920291818E+03  0.27443545347E+03 0.  0.
         25    2    3    3    0    0 -0.52583201509E+02 -0.15904735269E+01 -0.42773183872E+03  0.44910178485E+03  0.12637390798E+03 0.  0.
         25    2    3    3    0    0  0.52583201509E+02  0.15904735269E+01 -0.35474030864E+03  0.38010113332E+03  0.12597087874E+03 0.  0.
          5    1    4    4  502    0 -0.70154414532E+02 -0.24317024913E+02 -0.12869966456E+03  0.14865615775E+03  0.47000000000E+01 0.  1.
         -5    1    4    4    0  502  0.17571213022E+02  0.22726551386E+02 -0.29903217416E+03  0.30044562710E+03  0.47000000000E+01 0.  1.
          5    1    5    5  503    0  0.19249620122E+02 -0.46685074729E+02 -0.28204489229E+03  0.28656841303E+03  0.47000000000E+01 0. -1.
         -5    1    5    5    0  503  0.33333581387E+02  0.48275548256E+02 -0.72695416346E+02  0.93532720293E+02  0.47000000000E+01 0. -1.
<mgrwt>
<rscale>  0 0.27443545E+03</rscale>
<asrwt>0</asrwt>
<pdfrwt beam="1">  1        2 0.12397501E+00 0.27443545E+03</pdfrwt>
<pdfrwt beam="2">  1       -2 0.35946747E-02 0.27443545E+03</pdfrwt>
<totfact> 0.11309032E+04</totfact>
</mgrwt>
</event>
<event>
 9    1  0.2024718E-002  0.2755045E+03  0.7818608E-02  0.1098170E+00
         -2   -1    0    0    0  501 -0.00000000000E+00  0.00000000000E+00  0.53929353429E+02  0.53929353429E+02  0.00000000000E+00 0. -1.
          2   -1    0    0  501    0  0.00000000000E+00 -0.00000000000E+00 -0.35186194252E+03  0.35186194252E+03  0.00000000000E+00 0. -1.
         36    2    1    2    0    0  0.00000000000E+00  0.14210854715E-13 -0.29793258910E+03  0.40579129595E+03  0.27550453395E+03 0.  0.
         25    2    3    3    0    0 -0.18107420056E+02  0.43210320230E+02 -0.20457658153E+03  0.24413074364E+03  0.12471259697E+03 0.  0.
         25    2    3    3    0    0  0.18107420056E+02 -0.43210320230E+02 -0.93356007568E+02  0.16166055232E+03  0.12338468135E+03 0.  0.
          5    1    4    4  502    0 -0.17777050506E+02  0.97201250261E+01 -0.20899140216E+03  0.21002380944E+03  0.47000000000E+01 0.  1.
         -5    1    4    4    0  502 -0.33036954922E+00  0.33490195204E+02  0.44148206344E+01  0.34106934193E+02  0.47000000000E+01 0.  1.
          5    1    5    5  503    0 -0.49050563814E+02 -0.41842692856E+02 -0.45667147864E+02  0.79147628834E+02  0.47000000000E+01 0.  1.
         -5    1    5    5    0  503  0.67157983870E+02 -0.13676273742E+01 -0.47688859704E+02  0.82512923485E+02  0.47000000000E+01 0.  1.
<mgrwt>
<rscale>  0 0.27550453E+03</rscale>
<asrwt>0</asrwt>
<pdfrwt beam="1">  1        2 0.54132604E-01 0.27550453E+03</pdfrwt>
<pdfrwt beam="2">  1       -2 0.82968239E-02 0.27550453E+03</pdfrwt>
<totfact> 0.81459248E+03</totfact>
</mgrwt>
</event>
<event>
 9    1  0.2024718E-002  0.2755165E+03  0.7818608E-02  0.1098163E+00
         -2   -1    0    0    0  501 -0.00000000000E+00  0.00000000000E+00  0.91038775486E+02  0.91038775486E+02  0.00000000000E+00 0.  1.
          2   -1    0    0  501    0  0.00000000000E+00 -0.00000000000E+00 -0.20845326674E+03  0.20845326674E+03  0.00000000000E+00 0.  1.
         36    2    1    2    0    0  0.00000000000E+00  0.35527136788E-14 -0.11741449126E+03  0.29949204223E+03  0.27551646158E+03 0.  0.
         25    2    3    3    0    0 -0.57038944490E+02 -0.21223925877E+02 -0.74429800747E+02  0.15553443055E+03  0.12225901860E+03 0.  0.
         25    2    3    3    0    0  0.57038944490E+02  0.21223925877E+02 -0.42984690509E+02  0.14395761168E+03  0.12317554191E+03 0.  0.
          5    1    4    4  502    0 -0.80455844495E+02 -0.15763433386E+02 -0.93532625327E+02  0.12446714726E+03  0.47000000000E+01 0.  1.
         -5    1    4    4    0  502  0.23416900005E+02 -0.54604924914E+01  0.19102824580E+02  0.31067283290E+02  0.47000000000E+01 0.  1.
          5    1    5    5  503    0  0.44931210889E+02  0.57706839934E+02 -0.66239564938E+02  0.98785945611E+02  0.47000000000E+01 0. -1.
         -5    1    5    5    0  503  0.12107733602E+02 -0.36482914056E+02  0.23254874429E+02  0.45171666072E+02  0.47000000000E+01 0. -1.
<mgrwt>
<rscale>  0 0.27551646E+03</rscale>
<asrwt>0</asrwt>
<pdfrwt beam="1">  1        2 0.32069733E-01 0.27551646E+03</pdfrwt>
<pdfrwt beam="2">  1       -2 0.14005966E-01 0.27551646E+03</pdfrwt>
<totfact> 0.62014545E+03</totfact>
</mgrwt>
</event>
<event>
 9    1  0.2024718E-002  0.2768459E+03  0.7818608E-02  0.1097424E+00
          2   -1    0    0  501    0  0.00000000000E+00  0.00000000000E+00  0.74403494767E+03  0.74403494767E+03  0.00000000000E+00 0.  1.
         -2   -1    0    0    0  501 -0.00000000000E+00 -0.00000000000E+00 -0.25752702505E+02  0.25752702505E+02  0.00000000000E+00 0.  1.
         36    2    1    2    0    0  0.00000000000E+00 -0.35527136788E-14  0.71828224516E+03  0.76978765017E+03  0.27684588247E+03 0.  0.
         25    2    3    3    0    0 -0.40514237670E+02 -0.14208258939E+02  0.48436366472E+03  0.50132819594E+03  0.12197754818E+03 0.  0.
         25    2    3    3    0    0  0.40514237670E+02  0.14208258939E+02  0.23391858044E+03  0.26845945423E+03  0.12453633292E+03 0.  0.
          5    1    4    4  502    0  0.62585384451E+01  0.12942266684E+02  0.12524925100E+01  0.15176636910E+02  0.47000000000E+01 0. -1.
         -5    1    4    4    0  502 -0.46772776115E+02 -0.27150525623E+02  0.48311117221E+03  0.48615155903E+03  0.47000000000E+01 0. -1.
          5    1    5    5  503    0  0.46424502869E+02  0.22729519173E+02  0.24625881365E+03  0.25166914553E+03  0.47000000000E+01 0. -1.
         -5    1    5    5    0  503 -0.59102651985E+01 -0.85212602337E+01 -0.12340233215E+02  0.16790308707E+02  0.47000000000E+01 0. -1.
<mgrwt>
<rscale>  0 0.27684588E+03</rscale>
<asrwt>0</asrwt>
<pdfrwt beam="1">  1        2 0.11446690E+00 0.27684588E+03</pdfrwt>
<pdfrwt beam="2">  1       -2 0.39619548E-02 0.27684588E+03</pdfrwt>
<totfact> 0.10807446E+04</totfact>
</mgrwt>
</event>
<event>
 9    1  0.2024718E-002  0.2724727E+03  0.7818608E-02  0.1099873E+00
         -2   -1    0    0    0  501 -0.00000000000E+00  0.00000000000E+00  0.42119954195E+02  0.42119954195E+02  0.00000000000E+00 0.  1.
          2   -1    0    0  501    0  0.00000000000E+00 -0.00000000000E+00 -0.44065450702E+03  0.44065450702E+03  0.00000000000E+00 0.  1.
         36    2    1    2    0    0  0.00000000000E+00 -0.71054273576E-14 -0.39853455282E+03  0.48277446121E+03  0.27247273369E+03 0.  0.
         25    2    3    3    0    0 -0.46290521989E+02 -0.18550623871E+02 -0.20836140983E+03  0.24878512904E+03  0.12646195180E+03 0.  0.
         25    2    3    3    0    0  0.46290521989E+02  0.18550623871E+02 -0.19017314299E+03  0.23398933217E+03  0.12687886026E+03 0.  0.
          5    1    4    4  502    0 -0.30968726386E+02 -0.71114769985E+02 -0.14797171022E+03  0.16713494413E+03  0.47000000000E+01 0.  1.
         -5    1    4    4    0  502 -0.15321795603E+02  0.52564146114E+02 -0.60389699610E+02  0.81650184912E+02  0.47000000000E+01 0.  1.
          5    1    5    5  503    0  0.84003162361E+02  0.38342060059E+02 -0.14273034423E+03  0.17006083035E+03  0.47000000000E+01 0.  1.
         -5    1    5    5    0  503 -0.37712640372E+02 -0.19791436188E+02 -0.47442798758E+02  0.63928501814E+02  0.47000000000E+01 0.  1.
<mgrwt>
<rscale>  0 0.27247273E+03</rscale>
<asrwt>0</asrwt>
<pdfrwt beam="1">  1        2 0.67793001E-01 0.27247273E+03</pdfrwt>
<pdfrwt beam="2">  1       -2 0.64799929E-02 0.27247273E+03</pdfrwt>
<totfact> 0.93600415E+03</totfact>
</mgrwt>
</event>
<event>
 9    1  0.2024718E-002  0.2760769E+03  0.7818608E-02  0.1097851E+00
          1   -1    0    0  501    0  0.00000000000E+00  0.00000000000E+00  0.67086177050E+02  0.67086177050E+02  0.00000000000E+00 0.  1.
         -1   -1    0    0    0  501 -0.00000000000E+00 -0.00000000000E+00 -0.28403195700E+03  0.28403195700E+03  0.00000000000E+00 0.  1.
         36    2    1    2    0    0 -0.71054273576E-14  0.00000000000E+00 -0.21694577995E+03  0.35111813405E+03  0.27607693243E+03 0.  0.
         25    2    3    3    0    0 -0.59379481696E+02 -0.57315955939E+01 -0.11005935088E+03  0.17713146099E+03  0.12531448329E+03 0.  0.
         25    2    3    3    0    0  0.59379481696E+02  0.57315955939E+01 -0.10688642907E+03  0.17398667306E+03  0.12364416544E+03 0.  0.
          5    1    4    4  502    0 -0.31879337920E+02  0.50582760102E+02 -0.12786695308E+02  0.61322894441E+02  0.47000000000E+01 0. -1.
         -5    1    4    4    0  502 -0.27500143776E+02 -0.56314355696E+02 -0.97272655571E+02  0.11580856655E+03  0.47000000000E+01 0. -1.
          5    1    5    5  503    0  0.81821572065E+02  0.41206693009E+02 -0.89958032195E+02  0.12848073303E+03  0.47000000000E+01 0. -1.
         -5    1    5    5    0  503 -0.22442090370E+02 -0.35475097415E+02 -0.16928396874E+02  0.45505940024E+02  0.47000000000E+01 0. -1.
<mgrwt>
<rscale>  0 0.27607693E+03</rscale>
<asrwt>0</asrwt>
<pdfrwt beam="1">  1        1 0.10320950E-01 0.27607693E+03</pdfrwt>
<pdfrwt beam="2">  1       -1 0.43697224E-01 0.27607693E+03</pdfrwt>
<totfact> 0.32228181E+03</totfact>
</mgrwt>
</event>
<event>
 9    1  0.2024718E-002  0.2749475E+03  0.7818608E-02  0.1098481E+00
          2   -1    0    0  501    0  0.00000000000E+00  0.00000000000E+00  0.94079270249E+02  0.94079270249E+02  0.00000000000E+00 0.  1.
         -2   -1    0    0    0  501 -0.00000000000E+00 -0.00000000000E+00 -0.20088408073E+03  0.20088408073E+03  0.00000000000E+00 0.  1.
         36    2    1    2    0    0  0.00000000000E+00 -0.35527136788E-14 -0.10680481049E+03  0.29496335098E+03  0.27494746931E+03 0.  0.
         25    2    3    3    0    0 -0.13906149610E+02  0.25053177314E+02 -0.10681175521E+03  0.16880067509E+03  0.12752989521E+03 0.  0.
         25    2    3    3    0    0  0.13906149610E+02 -0.25053177314E+02  0.69447222471E-02  0.12616267589E+03  0.12286569110E+03 0.  0.
          5    1    4    4  502    0 -0.31837956766E+02  0.30009912775E+02 -0.13084529817E+03  0.13804648641E+03  0.47000000000E+01 0. -1.
         -5    1    4    4    0  502  0.17931807156E+02 -0.49567354613E+01  0.24033542964E+02  0.30754188686E+02  0.47000000000E+01 0. -1.
          5    1    5    5  503    0  0.53792866998E+02  0.77794678755E+01  0.33869159278E+02  0.64213726029E+02  0.47000000000E+01 0. -1.
         -5    1    5    5    0  503 -0.39886717388E+02 -0.32832645189E+02 -0.33862214556E+02  0.61948949860E+02  0.47000000000E+01 0. -1.
<mgrwt>
<rscale>  0 0.27494747E+03</rscale>
<asrwt>0</asrwt>
<pdfrwt beam="1">  1        2 0.14473734E-01 0.27494747E+03</pdfrwt>
<pdfrwt beam="2">  1       -2 0.30905243E-01 0.27494747E+03</pdfrwt>
<totfact> 0.39173510E+03</totfact>
</mgrwt>
</event>
<event>
 9    1  0.2024718E-002  0.2741185E+03  0.7818608E-02  0.1098945E+00
         -2   -1    0    0    0  501 -0.00000000000E+00  0.00000000000E+00  0.96645838965E+01  0.96645838965E+01  0.00000000000E+00 0.  1.
          2   -1    0    0  501    0  0.00000000000E+00 -0.00000000000E+00 -0.19437185915E+04  0.19437185915E+04  0.00000000000E+00 0.  1.
         36    2    1    2    0    0  0.14210854715E-13  0.14210854715E-13 -0.19340540076E+04  0.19533831754E+04  0.27411845176E+03 0.  0.
         25    2    3    3    0    0  0.33366728339E+02  0.47053237886E+02 -0.98347831058E+03  0.99275018938E+03  0.12245817804E+03 0.  0.
         25    2    3    3    0    0 -0.33366728339E+02 -0.47053237886E+02 -0.95057569705E+03  0.96063298605E+03  0.12607232966E+03 0.  0.
          5    1    4    4  502    0  0.71266833686E+02  0.43463374071E+01 -0.38972798992E+03  0.39624215874E+03  0.47000000000E+01 0. -1.
         -5    1    4    4    0  502 -0.37900105348E+02  0.42706900479E+02 -0.59375032066E+03  0.59650803064E+03  0.47000000000E+01 0. -1.
          5    1    5    5  503    0 -0.92577485776E+01  0.97757187359E+01 -0.76242562570E+03  0.76255897825E+03  0.47000000000E+01 0. -1.
         -5    1    5    5    0  503 -0.24108979761E+02 -0.56828956622E+02 -0.18815007135E+03  0.19807400779E+03  0.47000000000E+01 0. -1.
<mgrwt>
<rscale>  0 0.27411845E+03</rscale>
<asrwt>0</asrwt>
<pdfrwt beam="1">  1        2 0.29903377E+00 0.27411845E+03</pdfrwt>
<pdfrwt beam="2">  1       -2 0.14868584E-02 0.27411845E+03</pdfrwt>
<totfact> 0.95048775E+03</totfact>
</mgrwt>
</event>
<event>
 9    1  0.2024718E-002  0.2745515E+03  0.7818608E-02  0.1098703E+00
         -2   -1    0    0    0  501 -0.00000000000E+00  0.00000000000E+00  0.73110739908E+01  0.73110739908E+01  0.00000000000E+00 0. -1.
          2   -1    0    0  501    0  0.00000000000E+00 -0.00000000000E+00 -0.25775464933E+04  0.25775464933E+04  0.00000000000E+00 0. -1.
         36    2    1    2    0    0 -0.35527136788E-14  0.71054273576E-14 -0.25702354193E+04  0.25848575672E+04  0.27455151157E+03 0.  0.
         25    2    3    3    0    0 -0.22645471842E+02  0.61254329752E+02 -0.11586135042E+04  0.11670026552E+04  0.12347078592E+03 0.  0.
         25    2    3    3    0    0  0.22645471842E+02 -0.61254329752E+02 -0.14116219151E+04  0.14178549120E+04  0.11563394841E+03 0.  0.
          5    1    4    4  502    0  0.14166989765E+02  0.37329580128E+02 -0.10452914841E+03  0.11199390170E+03  0.47000000000E+01 0.  1.
         -5    1    4    4    0  502 -0.36812461607E+02  0.23924749624E+02 -0.10540843557E+04  0.10550087535E+04  0.47000000000E+01 0.  1.
          5    1    5    5  503    0 -0.14925650074E+02 -0.86329590939E+01 -0.31541514089E+02  0.36252725744E+02  0.47000000000E+01 0.  1.
         -5    1    5    5    0  503  0.37571121917E+02 -0.52621370658E+02 -0.13800804010E+04  0.13816021863E+04  0.47000000000E+01 0.  1.
<mgrwt>
<rscale>  0 0.27455151E+03</rscale>
<asrwt>0</asrwt>
<pdfrwt beam="1">  1        2 0.39654583E+00 0.27455151E+03</pdfrwt>
<pdfrwt beam="2">  1       -2 0.11247800E-02 0.27455151E+03</pdfrwt>
<totfact> 0.65307244E+03</totfact>
</mgrwt>
</event>
<event>
 9    1  0.2024718E-002  0.2751069E+03  0.7818608E-02  0.1098392E+00
          2   -1    0    0  501    0  0.00000000000E+00  0.00000000000E+00  0.13534286022E+04  0.13534286022E+04  0.00000000000E+00 0.  1.
         -2   -1    0    0    0  501 -0.00000000000E+00 -0.00000000000E+00 -0.13980009519E+02  0.13980009519E+02  0.00000000000E+00 0.  1.
         36    2    1    2    0    0  0.00000000000E+00  0.00000000000E+00  0.13394485927E+04  0.13674086117E+04  0.27510685010E+03 0.  0.
         25    2    3    3    0    0  0.33325622912E+02 -0.26984265294E+02  0.99621278223E+03  0.10049400913E+04  0.12500372784E+03 0.  0.
         25    2    3    3    0    0 -0.33325622912E+02  0.26984265294E+02  0.34323581047E+03  0.36246852040E+03  0.10832293838E+03 0.  0.
          5    1    4    4  502    0  0.35696654449E+02 -0.11278471424E+02  0.78689576787E+02  0.87267373923E+02  0.47000000000E+01 0. -1.
         -5    1    4    4    0  502 -0.23710315376E+01 -0.15705793870E+02  0.91752320544E+03  0.91767271741E+03  0.47000000000E+01 0. -1.
          5    1    5    5  503    0 -0.38346836619E+02 -0.24349025454E+02  0.64908757541E+02  0.79363667536E+02  0.47000000000E+01 0. -1.
         -5    1    5    5    0  503  0.50212137069E+01  0.51333290748E+02  0.27832705292E+03  0.28310485286E+03  0.47000000000E+01 0. -1.
<mgrwt>
<rscale>  0 0.27510685E+03</rscale>
<asrwt>0</asrwt>
<pdfrwt beam="1">  1        2 0.20821968E+00 0.27510685E+03</pdfrwt>
<pdfrwt beam="2">  1       -2 0.21507718E-02 0.27510685E+03</pdfrwt>
<totfact> 0.11376199E+04</totfact>
</mgrwt>
</event>
<event>
 9    1  0.2024718E-002  0.2752511E+03  0.7818608E-02  0.1098311E+00
         -4   -1    0    0    0  501 -0.00000000000E+00  0.00000000000E+00  0.15701614775E+03  0.15701614775E+03  0.00000000000E+00 0.  1.
          4   -1    0    0  501    0  0.00000000000E+00 -0.00000000000E+00 -0.12062956642E+03  0.12062956642E+03  0.00000000000E+00 0.  1.
         36    2    1    2    0    0 -0.71054273576E-14  0.14210854715E-13  0.36386581327E+02  0.27764571416E+03  0.27525108409E+03 0.  0.
         25    2    3    3    0    0  0.40572855640E+02 -0.48387315763E+02  0.23198226534E+02  0.13961618611E+03  0.12233982494E+03 0.  0.
         25    2    3    3    0    0 -0.40572855640E+02  0.48387315763E+02  0.13188354794E+02  0.13802952806E+03  0.12202757464E+03 0.  0.
          5    1    4    4  502    0  0.34866876091E+02 -0.44831557577E+02  0.71041683010E+02  0.91074575640E+02  0.47000000000E+01 0. -1.
         -5    1    4    4    0  502  0.57059795492E+01 -0.35557581857E+01 -0.47843456477E+02  0.48541610465E+02  0.47000000000E+01 0. -1.
          5    1    5    5  503    0 -0.43020505267E+02 -0.32103641634E+02  0.19048034596E+02  0.57151774265E+02  0.47000000000E+01 0. -1.
         -5    1    5    5    0  503  0.24476496275E+01  0.80490957397E+02 -0.58596798021E+01  0.80877753794E+02  0.47000000000E+01 0. -1.
<mgrwt>
<rscale>  0 0.27525108E+03</rscale>
<asrwt>0</asrwt>
<pdfrwt beam="1">  1        4 0.18558395E-01 0.27525108E+03</pdfrwt>
<pdfrwt beam="2">  1       -4 0.24156330E-01 0.27525108E+03</pdfrwt>
<totfact> 0.77334679E+02</totfact>
</mgrwt>
</event>
<event>
 9    1  0.2024718E-002  0.2754617E+03  0.7818608E-02  0.1098194E+00
         -1   -1    0    0    0  501 -0.00000000000E+00  0.00000000000E+00  0.63006610824E+01  0.63006610824E+01  0.00000000000E+00 0. -1.
          1   -1    0    0  501    0  0.00000000000E+00 -0.00000000000E+00 -0.30107621220E+04  0.30107621220E+04  0.00000000000E+00 0. -1.
         36    2    1    2    0    0 -0.71054273576E-14  0.00000000000E+00 -0.30044614609E+04  0.30170627830E+04  0.27546173404E+03 0.  0.
         25    2    3    3    0    0  0.57846072292E+02 -0.16730888752E+02 -0.14130098699E+04  0.14195207350E+04  0.12172154342E+03 0.  0.
         25    2    3    3    0    0 -0.57846072292E+02  0.16730888752E+02 -0.15914515910E+04  0.15975420480E+04  0.12568348303E+03 0.  0.
          5    1    4    4  502    0 -0.15560242471E+02 -0.47167796417E+02 -0.35048580613E+03  0.35401880242E+03  0.47000000000E+01 0.  1.
         -5    1    4    4    0  502  0.73406314763E+02  0.30436907665E+02 -0.10625240637E+04  0.10655019326E+04  0.47000000000E+01 0.  1.
          5    1    5    5  503    0 -0.68508980172E+02  0.55383216124E+02 -0.13370388364E+04  0.13399461635E+04  0.47000000000E+01 0. -1.
         -5    1    5    5    0  503  0.10662907879E+02 -0.38652327372E+02 -0.25441275464E+03  0.25759588455E+03  0.47000000000E+01 0. -1.
<mgrwt>
<rscale>  0 0.27546173E+03</rscale>
<asrwt>0</asrwt>
<pdfrwt beam="1">  1        1 0.46319513E+00 0.27546173E+03</pdfrwt>
<pdfrwt beam="2">  1       -1 0.96933047E-03 0.27546173E+03</pdfrwt>
<totfact> 0.13996195E+03</totfact>
</mgrwt>
</event>
<event>
 9    1  0.2024718E-002  0.2764280E+03  0.7818608E-02  0.1097656E+00
         -2   -1    0    0    0  501 -0.00000000000E+00  0.00000000000E+00  0.28261470702E+02  0.28261470702E+02  0.00000000000E+00 0. -1.
          2   -1    0    0  501    0  0.00000000000E+00 -0.00000000000E+00 -0.67594197077E+03  0.67594197077E+03  0.00000000000E+00 0. -1.
         36    2    1    2    0    0  0.35527136788E-14  0.00000000000E+00 -0.64768050006E+03  0.70420344147E+03  0.27642803189E+03 0.  0.
         25    2    3    3    0    0 -0.13968858944E+02 -0.46979161324E+02 -0.27584515259E+03  0.30651242010E+03  0.12432676641E+03 0.  0.
         25    2    3    3    0    0  0.13968858944E+02  0.46979161324E+02 -0.37183534747E+03  0.39769102137E+03  0.13226659529E+03 0.  0.
          5    1    4    4  502    0  0.51233028487E+02 -0.38252243859E+02 -0.10085475813E+03  0.11950660904E+03  0.47000000000E+01 0.  1.
         -5    1    4    4    0  502 -0.65201887431E+02 -0.87269174651E+01 -0.17499039446E+03  0.18700581105E+03  0.47000000000E+01 0.  1.
          5    1    5    5  503    0 -0.27315840424E+02  0.26834241946E+02 -0.21184198474E+02  0.44012406704E+02  0.47000000000E+01 0.  1.
         -5    1    5    5    0  503  0.41284699368E+02  0.20144919378E+02 -0.35065114900E+03  0.35367861467E+03  0.47000000000E+01 0.  1.
<mgrwt>
<rscale>  0 0.27642803E+03</rscale>
<asrwt>0</asrwt>
<pdfrwt beam="1">  1        2 0.10399107E+00 0.27642803E+03</pdfrwt>
<pdfrwt beam="2">  1       -2 0.43479187E-02 0.27642803E+03</pdfrwt>
<totfact> 0.10560580E+04</totfact>
</mgrwt>
</event>
<event>
 9    1  0.2024718E-002  0.2761673E+03  0.7818608E-02  0.1097801E+00
         -2   -1    0    0    0  501 -0.00000000000E+00  0.00000000000E+00  0.18476978602E+02  0.18476978602E+02  0.00000000000E+00 0. -1.
          2   -1    0    0  501    0  0.00000000000E+00 -0.00000000000E+00 -0.10319375454E+04  0.10319375454E+04  0.00000000000E+00 0. -1.
         36    2    1    2    0    0  0.35527136788E-14 -0.14210854715E-13 -0.10134605668E+04  0.10504145240E+04  0.27616725328E+03 0.  0.
         25    2    3    3    0    0  0.29564670256E+01  0.23905609921E+02 -0.68961943754E+03  0.70154809446E+03  0.12654857298E+03 0.  0.
         25    2    3    3    0    0 -0.29564670256E+01 -0.23905609921E+02 -0.32384112929E+03  0.34886642957E+03  0.12749309700E+03 0.  0.
          5    1    4    4  502    0  0.50674046051E+02 -0.15858577349E+02 -0.47765365495E+03  0.48061882767E+03  0.47000000000E+01 0. -1.
         -5    1    4    4    0  502 -0.47717579026E+02  0.39764187270E+02 -0.21196578259E+03  0.22092926679E+03  0.47000000000E+01 0. -1.
          5    1    5    5  503    0  0.29259228049E+02  0.44770025395E+02 -0.12897684492E+03  0.13970531173E+03  0.47000000000E+01 0.  1.
         -5    1    5    5    0  503 -0.32215695075E+02 -0.68675635317E+02 -0.19486428436E+03  0.20916111784E+03  0.47000000000E+01 0.  1.
<mgrwt>
<rscale>  0 0.27616725E+03</rscale>
<asrwt>0</asrwt>
<pdfrwt beam="1">  1        2 0.15875963E+00 0.27616725E+03</pdfrwt>
<pdfrwt beam="2">  1       -2 0.28426119E-02 0.27616725E+03</pdfrwt>
<totfact> 0.11497107E+04</totfact>
</mgrwt>
</event>
<event>
 9    1  0.2024718E-002  0.2753869E+03  0.7818608E-02  0.1098236E+00
          1   -1    0    0  501    0  0.00000000000E+00  0.00000000000E+00  0.14391301107E+02  0.14391301107E+02  0.00000000000E+00 0. -1.
         -1   -1    0    0    0  501 -0.00000000000E+00 -0.00000000000E+00 -0.13174268899E+04  0.13174268899E+04  0.00000000000E+00 0. -1.
         36    2    1    2    0    0  0.00000000000E+00  0.00000000000E+00 -0.13030355888E+04  0.13318181910E+04  0.27538690644E+03 0.  0.
         25    2    3    3    0    0 -0.14624252116E+02  0.43480084112E+02 -0.63794031681E+03  0.65399081667E+03  0.13649818318E+03 0.  0.
         25    2    3    3    0    0  0.14624252116E+02 -0.43480084112E+02 -0.66509527197E+03  0.67782737432E+03  0.12244934513E+03 0.  0.
          5    1    4    4  502    0 -0.59792696418E+02  0.22021726697E+02 -0.14442933732E+03  0.15793051153E+03  0.47000000000E+01 0.  1.
         -5    1    4    4    0  502  0.45168444303E+02  0.21458357415E+02 -0.49351097949E+03  0.49606030514E+03  0.47000000000E+01 0.  1.
          5    1    5    5  503    0  0.15729926981E+02 -0.27196908038E+02 -0.34104381072E+02  0.46607952304E+02  0.47000000000E+01 0.  1.
         -5    1    5    5    0  503 -0.11056748658E+01 -0.16283176074E+02 -0.63099089090E+03  0.63121942202E+03  0.47000000000E+01 0.  1.
<mgrwt>
<rscale>  0 0.27538691E+03</rscale>
<asrwt>0</asrwt>
<pdfrwt beam="1">  1        1 0.22140458E-02 0.27538691E+03</pdfrwt>
<pdfrwt beam="2">  1       -1 0.20268111E+00 0.27538691E+03</pdfrwt>
<totfact> 0.83921222E+02</totfact>
</mgrwt>
</event>
<event>
 9    1  0.2024718E-002  0.2749938E+03  0.7818608E-02  0.1098455E+00
          2   -1    0    0  501    0  0.00000000000E+00  0.00000000000E+00  0.29142640659E+03  0.29142640659E+03  0.00000000000E+00 0.  1.
         -2   -1    0    0    0  501 -0.00000000000E+00 -0.00000000000E+00 -0.64871946805E+02  0.64871946805E+02  0.00000000000E+00 0.  1.
         36    2    1    2    0    0 -0.17763568394E-14  0.00000000000E+00  0.22655445978E+03  0.35629835339E+03  0.27499380608E+03 0.  0.
         25    2    3    3    0    0  0.11788627984E+02 -0.62039582253E+02  0.13155498305E+03  0.19374504016E+03  0.12744624556E+03 0.  0.
         25    2    3    3    0    0 -0.11788627984E+02  0.62039582253E+02  0.94999476734E+02  0.16255331323E+03  0.11580499794E+03 0.  0.
          5    1    4    4  502    0 -0.11375153291E+02 -0.77935368769E+02  0.14277904151E+03  0.16312958197E+03  0.47000000000E+01 0.  1.
         -5    1    4    4    0  502  0.23163781275E+02  0.15895786516E+02 -0.11224058466E+02  0.30615458193E+02  0.47000000000E+01 0.  1.
          5    1    5    5  503    0  0.43489141639E+01  0.91134992665E+02  0.90598424943E+02  0.12866493129E+03  0.47000000000E+01 0. -1.
         -5    1    5    5    0  503 -0.16137542147E+02 -0.29095410412E+02  0.44010517914E+01  0.33888381939E+02  0.47000000000E+01 0. -1.
<mgrwt>
<rscale>  0 0.27499381E+03</rscale>
<asrwt>0</asrwt>
<pdfrwt beam="1">  1        2 0.44834831E-01 0.27499381E+03</pdfrwt>
<pdfrwt beam="2">  1       -2 0.99802997E-02 0.27499381E+03</pdfrwt>
<totfact> 0.74552329E+03</totfact>
</mgrwt>
</event>
<event>
 9    1  0.2024718E-002  0.2752917E+03  0.7818608E-02  0.1098289E+00
         -1   -1    0    0    0  501 -0.00000000000E+00  0.00000000000E+00  0.23901236570E+03  0.23901236570E+03  0.00000000000E+00 0.  1.
          1   -1    0    0  501    0  0.00000000000E+00 -0.00000000000E+00 -0.79269466513E+02  0.79269466513E+02  0.00000000000E+00 0.  1.
         36    2    1    2    0    0  0.17763568394E-14  0.71054273576E-14  0.15974289918E+03  0.31828183221E+03  0.27529171959E+03 0.  0.
         25    2    3    3    0    0 -0.30145479443E+01 -0.14438067680E+02  0.17566128324E+02  0.12813211636E+03  0.12606238567E+03 0.  0.
         25    2    3    3    0    0  0.30145479443E+01  0.14438067680E+02  0.14217677086E+03  0.19014971585E+03  0.12539990020E+03 0.  0.
          5    1    4    4  502    0  0.53817211146E+02  0.22676998844E+02  0.12472643963E+02  0.59901547054E+02  0.47000000000E+01 0.  1.
         -5    1    4    4    0  502 -0.56831759090E+02 -0.37115066523E+02  0.50934843604E+01  0.68230569302E+02  0.47000000000E+01 0.  1.
          5    1    5    5  503    0  0.13726145784E+02 -0.52159377104E+02  0.38737813605E+02  0.66571134142E+02  0.47000000000E+01 0.  1.
         -5    1    5    5    0  503 -0.10711597840E+02  0.66597444784E+02  0.10343895725E+03  0.12357858171E+03  0.47000000000E+01 0.  1.
<mgrwt>
<rscale>  0 0.27529172E+03</rscale>
<asrwt>0</asrwt>
<pdfrwt beam="1">  1        1 0.12195303E-01 0.27529172E+03</pdfrwt>
<pdfrwt beam="2">  1       -1 0.36771133E-01 0.27529172E+03</pdfrwt>
<totfact> 0.35038184E+03</totfact>
</mgrwt>
</event>
<event>
 9    1  0.2024718E-002  0.2763744E+03  0.7818608E-02  0.1097686E+00
         -2   -1    0    0    0  501 -0.00000000000E+00  0.00000000000E+00  0.20961377079E+03  0.20961377079E+03  0.00000000000E+00 0.  1.
          2   -1    0    0  501    0  0.00000000000E+00 -0.00000000000E+00 -0.91099448836E+02  0.91099448836E+02  0.00000000000E+00 0.  1.
         36    2    1    2    0    0 -0.71054273576E-14  0.88817841970E-15  0.11851432196E+03  0.30071321963E+03  0.27637437644E+03 0.  0.
         25    2    3    3    0    0  0.53307586882E+02 -0.51565778028E+01  0.90343569751E+02  0.16166541241E+03  0.12290425486E+03 0.  0.
         25    2    3    3    0    0 -0.53307586882E+02  0.51565778028E+01  0.28170752208E+02  0.13904780722E+03  0.12518950554E+03 0.  0.
          5    1    4    4  502    0 -0.32094180485E+02 -0.10735247427E+02  0.63049269798E+02  0.71711800845E+02  0.47000000000E+01 0.  1.
         -5    1    4    4    0  502  0.85401767367E+02  0.55786696245E+01  0.27294299952E+02  0.89953611568E+02  0.47000000000E+01 0.  1.
          5    1    5    5  503    0 -0.92875634596E+02 -0.66526868598E+01  0.10266032688E+02  0.93795645801E+02  0.47000000000E+01 0.  1.
         -5    1    5    5    0  503  0.39568047714E+02  0.11809264663E+02  0.17904719521E+02  0.45252161417E+02  0.47000000000E+01 0.  1.
<mgrwt>
<rscale>  0 0.27637438E+03</rscale>
<asrwt>0</asrwt>
<pdfrwt beam="1">  1        2 0.14015300E-01 0.27637438E+03</pdfrwt>
<pdfrwt beam="2">  1       -2 0.32248272E-01 0.27637438E+03</pdfrwt>
<totfact> 0.37661659E+03</totfact>
</mgrwt>
</event>
<event>
 9    1  0.2024718E-002  0.2747945E+03  0.7818608E-02  0.1098567E+00
          1   -1    0    0  501    0  0.00000000000E+00  0.00000000000E+00  0.32756303905E+03  0.32756303905E+03  0.00000000000E+00 0.  1.
         -1   -1    0    0    0  501 -0.00000000000E+00 -0.00000000000E+00 -0.57631653128E+02  0.57631653128E+02  0.00000000000E+00 0.  1.
         36    2    1    2    0    0  0.88817841970E-15 -0.71054273576E-14  0.26993138592E+03  0.38519469218E+03  0.27479446460E+03 0.  0.
         25    2    3    3    0    0  0.71204714692E+01 -0.23897210223E+02  0.59929417913E+02  0.13906247435E+03  0.12298397811E+03 0.  0.
         25    2    3    3    0    0 -0.71204714692E+01  0.23897210223E+02  0.21000196801E+03  0.24613221782E+03  0.12593039471E+03 0.  0.
          5    1    4    4  502    0  0.42649742756E+01  0.45228080011E+02 -0.25235375979E+01  0.45740873069E+02  0.47000000000E+01 0. -1.
         -5    1    4    4    0  502  0.28554971936E+01 -0.69125290235E+02  0.62452955511E+02  0.93321601284E+02  0.47000000000E+01 0. -1.
          5    1    5    5  503    0 -0.59754951449E+02  0.27296557886E+02  0.16113873687E+03  0.17407911654E+03  0.47000000000E+01 0. -1.
         -5    1    5    5    0  503  0.52634479980E+02 -0.33993476630E+01  0.48863231135E+02  0.72053101281E+02  0.47000000000E+01 0. -1.
<mgrwt>
<rscale>  0 0.27479446E+03</rscale>
<asrwt>0</asrwt>
<pdfrwt beam="1">  1        1 0.50394312E-01 0.27479446E+03</pdfrwt>
<pdfrwt beam="2">  1       -1 0.88664084E-02 0.27479446E+03</pdfrwt>
<totfact> 0.57183073E+03</totfact>
</mgrwt>
</event>
<event>
 9    1  0.2024718E-002  0.2623882E+03  0.7818608E-02  0.1105717E+00
         -1   -1    0    0    0  501 -0.00000000000E+00  0.00000000000E+00  0.49597901072E+02  0.49597901072E+02  0.00000000000E+00 0. -1.
          1   -1    0    0  501    0  0.00000000000E+00 -0.00000000000E+00 -0.34702873755E+03  0.34702873755E+03  0.00000000000E+00 0. -1.
         36    2    1    2    0    0  0.00000000000E+00  0.00000000000E+00 -0.29743083648E+03  0.39662663862E+03  0.26238823902E+03 0.  0.
         25    2    3    3    0    0  0.27159842967E+02  0.10730020071E+02 -0.19320113482E+03  0.23046805713E+03  0.12221315995E+03 0.  0.
         25    2    3    3    0    0 -0.27159842967E+02 -0.10730020071E+02 -0.10422970166E+03  0.16615858149E+03  0.12606368665E+03 0.  0.
          5    1    4    4  502    0 -0.20561153751E+02 -0.34391568598E+02 -0.19706989505E+02  0.44899849326E+02  0.47000000000E+01 0. -1.
         -5    1    4    4    0  502  0.47720996718E+02  0.45121588669E+02 -0.17349414531E+03  0.18556820781E+03  0.47000000000E+01 0. -1.
          5    1    5    5  503    0 -0.57546195523E+02 -0.49417346722E+01 -0.64576866984E+00  0.57952501050E+02  0.47000000000E+01 0. -1.
         -5    1    5    5    0  503  0.30386352556E+02 -0.57882853990E+01 -0.10358393299E+03  0.10820608044E+03  0.47000000000E+01 0. -1.
<mgrwt>
<rscale>  0 0.26238824E+03</rscale>
<asrwt>0</asrwt>
<pdfrwt beam="1">  1        1 0.53389037E-01 0.26238824E+03</pdfrwt>
<pdfrwt beam="2">  1       -1 0.76304462E-02 0.26238824E+03</pdfrwt>
<totfact> 0.66766566E+03</totfact>
</mgrwt>
</event>
<event>
 9    1  0.2024718E-002  0.2743932E+03  0.7818608E-02  0.1098791E+00
          2   -1    0    0  501    0  0.00000000000E+00  0.00000000000E+00  0.98911558504E+03  0.98911558504E+03  0.00000000000E+00 0. -1.
         -2   -1    0    0    0  501 -0.00000000000E+00 -0.00000000000E+00 -0.19030037106E+02  0.19030037106E+02  0.00000000000E+00 0. -1.
         36    2    1    2    0    0 -0.71054273576E-14  0.71054273576E-14  0.97008554793E+03  0.10081456221E+04  0.27439319442E+03 0.  0.
         25    2    3    3    0    0 -0.26834005870E+02  0.18189452667E+02  0.31277359734E+03  0.33812836237E+03  0.12430827078E+03 0.  0.
         25    2    3    3    0    0  0.26834005870E+02 -0.18189452667E+02  0.65731195059E+03  0.67001725977E+03  0.12575057833E+03 0.  0.
          5    1    4    4  502    0 -0.56009260482E+02  0.38825530232E+01  0.56605447259E+02  0.79864749027E+02  0.47000000000E+01 0.  1.
         -5    1    4    4    0  502  0.29175254613E+02  0.14306899644E+02  0.25616815008E+03  0.25826361334E+03  0.47000000000E+01 0.  1.
          5    1    5    5  503    0 -0.24391614526E+02  0.29735099650E+02  0.43803024802E+03  0.43974050892E+03  0.47000000000E+01 0. -1.
         -5    1    5    5    0  503  0.51225620396E+02 -0.47924552317E+02  0.21928170257E+03  0.23027675085E+03  0.47000000000E+01 0. -1.
<mgrwt>
<rscale>  0 0.27439319E+03</rscale>
<asrwt>0</asrwt>
<pdfrwt beam="1">  1        2 0.15217159E+00 0.27439319E+03</pdfrwt>
<pdfrwt beam="2">  1       -2 0.29276988E-02 0.27439319E+03</pdfrwt>
<totfact> 0.11683426E+04</totfact>
</mgrwt>
</event>
<event>
 9    1  0.2024718E-002  0.2765242E+03  0.7818608E-02  0.1097603E+00
          2   -1    0    0  501    0  0.00000000000E+00  0.00000000000E+00  0.22514554257E+04  0.22514554257E+04  0.00000000000E+00 0.  1.
         -2   -1    0    0    0  501 -0.00000000000E+00 -0.00000000000E+00 -0.84906922749E+01  0.84906922749E+01  0.00000000000E+00 0.  1.
         36    2    1    2    0    0  0.14210854715E-13  0.21316282073E-13  0.22429647334E+04  0.22599461180E+04  0.27652424986E+03 0.  0.
         25    2    3    3    0    0 -0.37404567631E+02 -0.49536135797E+02  0.10011661973E+04  0.10108542229E+04  0.12505828599E+03 0.  0.
         25    2    3    3    0    0  0.37404567631E+02  0.49536135797E+02  0.12417985361E+04  0.12490918951E+04  0.11964124543E+03 0.  0.
          5    1    4    4  502    0 -0.71839443855E+02 -0.73567665859E+00  0.37653336556E+03  0.38335481254E+03  0.47000000000E+01 0.  1.
         -5    1    4    4    0  502  0.34434876223E+02 -0.48800459138E+02  0.62463283176E+03  0.62749941038E+03  0.47000000000E+01 0.  1.
          5    1    5    5  503    0  0.35224973496E+02 -0.29293241346E+02  0.25415615499E+03  0.25829505196E+03  0.47000000000E+01 0. -1.
         -5    1    5    5    0  503  0.21795941349E+01  0.78829377143E+02  0.98764238113E+03  0.99079684311E+03  0.47000000000E+01 0. -1.
<mgrwt>
<rscale>  0 0.27652425E+03</rscale>
<asrwt>0</asrwt>
<pdfrwt beam="1">  1        2 0.34637728E+00 0.27652425E+03</pdfrwt>
<pdfrwt beam="2">  1       -2 0.13062621E-02 0.27652425E+03</pdfrwt>
<totfact> 0.78954183E+03</totfact>
</mgrwt>
</event>
<event>
 9    1  0.2024718E-002  0.2759103E+03  0.7818608E-02  0.1097944E+00
          2   -1    0    0  501    0  0.00000000000E+00  0.00000000000E+00  0.69588080965E+03  0.69588080965E+03  0.00000000000E+00 0. -1.
         -2   -1    0    0    0  501 -0.00000000000E+00 -0.00000000000E+00 -0.27348967649E+02  0.27348967649E+02  0.00000000000E+00 0. -1.
         36    2    1    2    0    0  0.00000000000E+00  0.00000000000E+00  0.66853184200E+03  0.72322977730E+03  0.27591028796E+03 0.  0.
         25    2    3    3    0    0 -0.30454324944E+02 -0.12656665800E+02  0.46789120745E+03  0.48537912694E+03  0.12483211833E+03 0.  0.
         25    2    3    3    0    0  0.30454324944E+02  0.12656665800E+02  0.20064063456E+03  0.23785065036E+03  0.12340425659E+03 0.  0.
          5    1    4    4  502    0 -0.42876943908E+01 -0.43047430871E+02  0.53213991042E+02  0.68740704611E+02  0.47000000000E+01 0. -1.
         -5    1    4    4    0  502 -0.26166630554E+02  0.30390765071E+02  0.41467721640E+03  0.41663842233E+03  0.47000000000E+01 0. -1.
          5    1    5    5  503    0 -0.27014587594E+02  0.48640327686E+02  0.61943368345E+02  0.83395085599E+02  0.47000000000E+01 0.  1.
         -5    1    5    5    0  503  0.57468912538E+02 -0.35983661886E+02  0.13869726621E+03  0.15445556476E+03  0.47000000000E+01 0.  1.
<mgrwt>
<rscale>  0 0.27591029E+03</rscale>
<asrwt>0</asrwt>
<pdfrwt beam="1">  1        2 0.10705857E+00 0.27591029E+03</pdfrwt>
<pdfrwt beam="2">  1       -2 0.42075340E-02 0.27591029E+03</pdfrwt>
<totfact> 0.10713698E+04</totfact>
</mgrwt>
</event>
<event>
 9    1  0.2024718E-002  0.2749899E+03  0.7818608E-02  0.1098457E+00
         -2   -1    0    0    0  501 -0.00000000000E+00  0.00000000000E+00  0.38674757779E+02  0.38674757779E+02  0.00000000000E+00 0.  1.
          2   -1    0    0  501    0  0.00000000000E+00 -0.00000000000E+00 -0.48881653605E+03  0.48881653605E+03  0.00000000000E+00 0.  1.
         36    2    1    2    0    0  0.35527136788E-14  0.00000000000E+00 -0.45014177827E+03  0.52749129382E+03  0.27498989894E+03 0.  0.
         25    2    3    3    0    0 -0.16578027419E+02 -0.47335823154E+02 -0.16213689782E+03  0.20947034067E+03  0.12277597012E+03 0.  0.
         25    2    3    3    0    0  0.16578027419E+02  0.47335823154E+02 -0.28800488045E+03  0.31802095315E+03  0.12519985758E+03 0.  0.
          5    1    4    4  502    0 -0.26660264280E+02 -0.34147083146E+02  0.27692349636E+01  0.43664077239E+02  0.47000000000E+01 0.  1.
         -5    1    4    4    0  502  0.10082236861E+02 -0.13188740008E+02 -0.16490613278E+03  0.16580626343E+03  0.47000000000E+01 0.  1.
          5    1    5    5  503    0  0.69096551829E+02  0.93810845239E+01 -0.15166337394E+03  0.16699163816E+03  0.47000000000E+01 0.  1.
         -5    1    5    5    0  503 -0.52518524410E+02  0.37954738630E+02 -0.13634150651E+03  0.15102931499E+03  0.47000000000E+01 0.  1.
<mgrwt>
<rscale>  0 0.27498990E+03</rscale>
<asrwt>0</asrwt>
<pdfrwt beam="1">  1        2 0.75202545E-01 0.27498990E+03</pdfrwt>
<pdfrwt beam="2">  1       -2 0.59499627E-02 0.27498990E+03</pdfrwt>
<totfact> 0.95189121E+03</totfact>
</mgrwt>
</event>
<event>
 9    1  0.2024718E-002  0.2746549E+03  0.7818608E-02  0.1098645E+00
         -2   -1    0    0    0  501 -0.00000000000E+00  0.00000000000E+00  0.42761602163E+02  0.42761602163E+02  0.00000000000E+00 0. -1.
          2   -1    0    0  501    0  0.00000000000E+00 -0.00000000000E+00 -0.44102239667E+03  0.44102239667E+03  0.00000000000E+00 0. -1.
         36    2    1    2    0    0 -0.71054273576E-14  0.00000000000E+00 -0.39826079451E+03  0.48378399883E+03  0.27465486904E+03 0.  0.
         25    2    3    3    0    0  0.51805497035E+02 -0.37897298921E+02 -0.18717993765E+03  0.23231189686E+03  0.12170650588E+03 0.  0.
         25    2    3    3    0    0 -0.51805497035E+02  0.37897298921E+02 -0.21108085685E+03  0.25147210197E+03  0.12067756689E+03 0.  0.
          5    1    4    4  502    0  0.62458097578E+02 -0.35446534795E+01 -0.18569880281E+03  0.19600947397E+03  0.47000000000E+01 0.  1.
         -5    1    4    4    0  502 -0.10652600543E+02 -0.34352645441E+02 -0.14811348415E+01  0.36302422888E+02  0.47000000000E+01 0.  1.
          5    1    5    5  503    0 -0.87405385390E+02  0.46476746882E+02 -0.14232406625E+03  0.17343015664E+03  0.47000000000E+01 0.  1.
         -5    1    5    5    0  503  0.35599888355E+02 -0.85794479609E+01 -0.68756790598E+02  0.78041945334E+02  0.47000000000E+01 0.  1.
<mgrwt>
<rscale>  0 0.27465487E+03</rscale>
<asrwt>0</asrwt>
<pdfrwt beam="1">  1        2 0.67849603E-01 0.27465487E+03</pdfrwt>
<pdfrwt beam="2">  1       -2 0.65787077E-02 0.27465487E+03</pdfrwt>
<totfact> 0.91388451E+03</totfact>
</mgrwt>
</event>
<event>
 9    1  0.2024718E-002  0.2748486E+03  0.7818608E-02  0.1098536E+00
          1   -1    0    0  501    0  0.00000000000E+00  0.00000000000E+00  0.43429701766E+02  0.43429701766E+02  0.00000000000E+00 0.  1.
         -1   -1    0    0    0  501 -0.00000000000E+00 -0.00000000000E+00 -0.43485058920E+03  0.43485058920E+03  0.00000000000E+00 0.  1.
         36    2    1    2    0    0  0.00000000000E+00  0.00000000000E+00 -0.39142088744E+03  0.47828029097E+03  0.27484855031E+03 0.  0.
         25    2    3    3    0    0 -0.56545047804E+01 -0.17114698866E+02 -0.97436740136E+02  0.15838950640E+03  0.12356549304E+03 0.  0.
         25    2    3    3    0    0  0.56545047804E+01  0.17114698866E+02 -0.29398414730E+03  0.31989078457E+03  0.12481405707E+03 0.  0.
          5    1    4    4  502    0 -0.24529703731E+02  0.59669406055E+01 -0.11871379983E+03  0.12145932247E+03  0.47000000000E+01 0. -1.
         -5    1    4    4    0  502  0.18875198951E+02 -0.23081639471E+02  0.21277059693E+02  0.36930183933E+02  0.47000000000E+01 0. -1.
          5    1    5    5  503    0  0.21776973590E+02 -0.26537259008E+02 -0.25944627328E+03  0.26174973049E+03  0.47000000000E+01 0.  1.
         -5    1    5    5    0  503 -0.16122468809E+02  0.43651957874E+02 -0.34537874024E+02  0.58141054074E+02  0.47000000000E+01 0.  1.
<mgrwt>
<rscale>  0 0.27484855E+03</rscale>
<asrwt>0</asrwt>
<pdfrwt beam="1">  1        1 0.66814929E-02 0.27484855E+03</pdfrwt>
<pdfrwt beam="2">  1       -1 0.66900088E-01 0.27484855E+03</pdfrwt>
<totfact> 0.26072418E+03</totfact>
</mgrwt>
</event>
<event>
 9    1  0.2024718E-002  0.2746530E+03  0.7818608E-02  0.1098646E+00
          1   -1    0    0  501    0  0.00000000000E+00  0.00000000000E+00  0.47693985021E+02  0.47693985021E+02  0.00000000000E+00 0. -1.
         -1   -1    0    0    0  501 -0.00000000000E+00 -0.00000000000E+00 -0.39540765365E+03  0.39540765365E+03  0.00000000000E+00 0. -1.
         36    2    1    2    0    0  0.71054273576E-14  0.35527136788E-14 -0.34771366863E+03  0.44310163867E+03  0.27465299351E+03 0.  0.
         25    2    3    3    0    0  0.54056844307E+02  0.48915262612E+01 -0.13806178316E+03  0.19337770950E+03  0.12404762439E+03 0.  0.
         25    2    3    3    0    0 -0.54056844307E+02 -0.48915262612E+01 -0.20965188547E+03  0.24972392917E+03  0.12434652497E+03 0.  0.
          5    1    4    4  502    0  0.77976530742E+02  0.30627066584E+02 -0.13344195281E+03  0.15762995059E+03  0.47000000000E+01 0.  1.
         -5    1    4    4    0  502 -0.23919686435E+02 -0.25735540322E+02 -0.46198303536E+01  0.35747758914E+02  0.47000000000E+01 0.  1.
          5    1    5    5  503    0 -0.38317659012E+02 -0.32082386641E+01 -0.22431848239E+03  0.22763876500E+03  0.47000000000E+01 0. -1.
         -5    1    5    5    0  503 -0.15739185295E+02 -0.16832875970E+01  0.14666596926E+02  0.22085164167E+02  0.47000000000E+01 0. -1.
<mgrwt>
<rscale>  0 0.27465299E+03</rscale>
<asrwt>0</asrwt>
<pdfrwt beam="1">  1        1 0.73375360E-02 0.27465299E+03</pdfrwt>
<pdfrwt beam="2">  1       -1 0.60831948E-01 0.27465299E+03</pdfrwt>
<totfact> 0.27616381E+03</totfact>
</mgrwt>
</event>
<event>
 9    1  0.2024718E-002  0.2755995E+03  0.7818608E-02  0.1098117E+00
         -2   -1    0    0    0  501 -0.00000000000E+00  0.00000000000E+00  0.94723959737E+02  0.94723959737E+02  0.00000000000E+00 0. -1.
          2   -1    0    0  501    0  0.00000000000E+00 -0.00000000000E+00 -0.20046428185E+03  0.20046428185E+03  0.00000000000E+00 0. -1.
         36    2    1    2    0    0 -0.71054273576E-14  0.00000000000E+00 -0.10574032211E+03  0.29518824158E+03  0.27559949610E+03 0.  0.
         25    2    3    3    0    0  0.53931837258E+02 -0.41175399565E+01 -0.43510543114E+02  0.14370306430E+03  0.12582450525E+03 0.  0.
         25    2    3    3    0    0 -0.53931837258E+02  0.41175399565E+01 -0.62229778994E+02  0.15148517729E+03  0.12708114077E+03 0.  0.
          5    1    4    4  502    0 -0.15987523552E+02  0.20723374015E+02  0.29349430620E+02  0.39604775186E+02  0.47000000000E+01 0.  1.
         -5    1    4    4    0  502  0.69919360809E+02 -0.24840913971E+02 -0.72859973734E+02  0.10409828911E+03  0.47000000000E+01 0.  1.
          5    1    5    5  503    0 -0.91015619182E+02  0.26032769769E+02 -0.42684131622E+02  0.10394985873E+03  0.47000000000E+01 0. -1.
         -5    1    5    5    0  503  0.37083781924E+02 -0.21915229812E+02 -0.19545647372E+02  0.47535318561E+02  0.47000000000E+01 0. -1.
<mgrwt>
<rscale>  0 0.27559950E+03</rscale>
<asrwt>0</asrwt>
<pdfrwt beam="1">  1        2 0.30840658E-01 0.27559950E+03</pdfrwt>
<pdfrwt beam="2">  1       -2 0.14572917E-01 0.27559950E+03</pdfrwt>
<totfact> 0.60636286E+03</totfact>
</mgrwt>
</event>
<event>
 9    1  0.2024718E-002  0.2750891E+03  0.7818608E-02  0.1098402E+00
         -4   -1    0    0    0  501 -0.00000000000E+00  0.00000000000E+00  0.63628519568E+02  0.63628519568E+02  0.00000000000E+00 0.  1.
          4   -1    0    0  501    0  0.00000000000E+00 -0.00000000000E+00 -0.29732737647E+03  0.29732737647E+03  0.00000000000E+00 0.  1.
         36    2    1    2    0    0  0.00000000000E+00 -0.17763568394E-14 -0.23369885690E+03  0.36095589604E+03  0.27508908224E+03 0.  0.
         25    2    3    3    0    0  0.26208446753E+02 -0.14531105390E+02 -0.14493875458E+03  0.20318170757E+03  0.13920318965E+03 0.  0.
         25    2    3    3    0    0 -0.26208446753E+02  0.14531105390E+02 -0.88760102322E+02  0.15777418846E+03  0.12695000227E+03 0.  0.
          5    1    4    4  502    0 -0.35350602856E+02  0.44357056597E+02 -0.53342590582E+02  0.78004715000E+02  0.47000000000E+01 0. -1.
         -5    1    4    4    0  502  0.61559049609E+02 -0.58888161987E+02 -0.91596163998E+02  0.12517699257E+03  0.47000000000E+01 0. -1.
          5    1    5    5  503    0 -0.55691528269E+02  0.26295113778E+02  0.17014493670E+01  0.61789677613E+02  0.47000000000E+01 0. -1.
         -5    1    5    5    0  503  0.29483081516E+02 -0.11764008388E+02 -0.90461551689E+02  0.95984510850E+02  0.47000000000E+01 0. -1.
<mgrwt>
<rscale>  0 0.27508908E+03</rscale>
<asrwt>0</asrwt>
<pdfrwt beam="1">  1        4 0.45742672E-01 0.27508908E+03</pdfrwt>
<pdfrwt beam="2">  1       -4 0.97890032E-02 0.27508908E+03</pdfrwt>
<totfact> 0.68578974E+02</totfact>
</mgrwt>
</event>
<event>
 9    1  0.2024718E-002  0.2748743E+03  0.7818608E-02  0.1098522E+00
         -3   -1    0    0    0  501 -0.00000000000E+00  0.00000000000E+00  0.41771946500E+03  0.41771946500E+03  0.00000000000E+00 0. -1.
          3   -1    0    0  501    0  0.00000000000E+00 -0.00000000000E+00 -0.45219260634E+02  0.45219260634E+02  0.00000000000E+00 0. -1.
         36    2    1    2    0    0 -0.71054273576E-14  0.00000000000E+00  0.37250020437E+03  0.46293872564E+03  0.27487426478E+03 0.  0.
         25    2    3    3    0    0  0.56977295612E+02  0.13929613610E+02  0.17942460696E+03  0.22614342626E+03  0.12452796195E+03 0.  0.
         25    2    3    3    0    0 -0.56977295612E+02 -0.13929613610E+02  0.19307559741E+03  0.23679529938E+03  0.12390876135E+03 0.  0.
          5    1    4    4  502    0 -0.16954804658E+02 -0.10814951680E+02 -0.87301067740E+01  0.22421715927E+02  0.47000000000E+01 0. -1.
         -5    1    4    4    0  502  0.73932100270E+02  0.24744565290E+02  0.18815471373E+03  0.20372171034E+03  0.47000000000E+01 0. -1.
          5    1    5    5  503    0 -0.76712477767E+02 -0.40351408168E+02  0.18208398201E+03  0.20171689788E+03  0.47000000000E+01 0.  1.
         -5    1    5    5    0  503  0.19735182155E+02  0.26421794558E+02  0.10991615403E+02  0.35078401496E+02  0.47000000000E+01 0.  1.
<mgrwt>
<rscale>  0 0.27487426E+03</rscale>
<asrwt>0</asrwt>
<pdfrwt beam="1">  1        3 0.69568096E-02 0.27487426E+03</pdfrwt>
<pdfrwt beam="2">  1       -3 0.64264530E-01 0.27487426E+03</pdfrwt>
<totfact> 0.81196258E+02</totfact>
</mgrwt>
</event>
<event>
 9    1  0.2024718E-002  0.2751472E+03  0.7818608E-02  0.1098369E+00
         -2   -1    0    0    0  501 -0.00000000000E+00  0.00000000000E+00  0.11936924888E+02  0.11936924888E+02  0.00000000000E+00 0.  1.
          2   -1    0    0  501    0  0.00000000000E+00 -0.00000000000E+00 -0.15855417383E+04  0.15855417383E+04  0.00000000000E+00 0.  1.
         36    2    1    2    0    0 -0.71054273576E-14  0.17763568394E-14 -0.15736048134E+04  0.15974786632E+04  0.27514717979E+03 0.  0.
         25    2    3    3    0    0 -0.58514341773E+02  0.49149230800E+01 -0.73362113961E+03  0.74635779792E+03  0.12410439703E+03 0.  0.
         25    2    3    3    0    0  0.58514341773E+02 -0.49149230800E+01 -0.83998367378E+03  0.85112086526E+03  0.12404059975E+03 0.  0.
          5    1    4    4  502    0  0.32191595664E+02  0.18119547636E+02 -0.34695997044E+03  0.34895261559E+03  0.47000000000E+01 0.  1.
         -5    1    4    4    0  502 -0.90705937437E+02 -0.13204624556E+02 -0.38666116917E+03  0.39740518233E+03  0.47000000000E+01 0.  1.
          5    1    5    5  503    0  0.54816651083E+02 -0.27976717963E+02 -0.17246288122E+03  0.18317504575E+03  0.47000000000E+01 0. -1.
         -5    1    5    5    0  503  0.36976906897E+01  0.23061794883E+02 -0.66752079256E+03  0.66794581951E+03  0.47000000000E+01 0. -1.
<mgrwt>
<rscale>  0 0.27514718E+03</rscale>
<asrwt>0</asrwt>
<pdfrwt beam="1">  1        2 0.24392933E+00 0.27514718E+03</pdfrwt>
<pdfrwt beam="2">  1       -2 0.18364512E-02 0.27514718E+03</pdfrwt>
<totfact> 0.10766378E+04</totfact>
</mgrwt>
</event>
<event>
 9    1  0.2024718E-002  0.2746155E+03  0.7818608E-02  0.1098667E+00
          2   -1    0    0  501    0  0.00000000000E+00  0.00000000000E+00  0.55979427965E+03  0.55979427965E+03  0.00000000000E+00 0.  1.
         -2   -1    0    0    0  501 -0.00000000000E+00 -0.00000000000E+00 -0.33679198092E+02  0.33679198092E+02  0.00000000000E+00 0.  1.
         36    2    1    2    0    0 -0.71054273576E-14 -0.71054273576E-14  0.52611508155E+03  0.59347347774E+03  0.27461553077E+03 0.  0.
         25    2    3    3    0    0  0.27324190954E+02 -0.33267375178E+02  0.34739821050E+03  0.37141490302E+03  0.12413776163E+03 0.  0.
         25    2    3    3    0    0 -0.27324190954E+02  0.33267375178E+02  0.17871687105E+03  0.22205857472E+03  0.12456709415E+03 0.  0.
          5    1    4    4  502    0  0.17263924383E+02 -0.73090724168E+02  0.13075048827E+03  0.15085780466E+03  0.47000000000E+01 0.  1.
         -5    1    4    4    0  502  0.10060266572E+02  0.39823348990E+02  0.21664772223E+03  0.22055709836E+03  0.47000000000E+01 0.  1.
          5    1    5    5  503    0 -0.74109357241E+02  0.34713303999E+02  0.13442158937E+03  0.15744352636E+03  0.47000000000E+01 0.  1.
         -5    1    5    5    0  503  0.46785166286E+02 -0.14459288210E+01  0.44295281686E+02  0.64615048357E+02  0.47000000000E+01 0.  1.
<mgrwt>
<rscale>  0 0.27461553E+03</rscale>
<asrwt>0</asrwt>
<pdfrwt beam="1">  1        2 0.86122191E-01 0.27461553E+03</pdfrwt>
<pdfrwt beam="2">  1       -2 0.51814155E-02 0.27461553E+03</pdfrwt>
<totfact> 0.10090309E+04</totfact>
</mgrwt>
</event>
<event>
 9    1  0.2024718E-002  0.2774337E+03  0.7818608E-02  0.1097099E+00
          1   -1    0    0  501    0  0.00000000000E+00  0.00000000000E+00  0.91093735642E+03  0.91093735642E+03  0.00000000000E+00 0. -1.
         -1   -1    0    0    0  501 -0.00000000000E+00 -0.00000000000E+00 -0.21123696223E+02  0.21123696223E+02  0.00000000000E+00 0. -1.
         36    2    1    2    0    0  0.00000000000E+00  0.71054273576E-14  0.88981366020E+03  0.93206105264E+03  0.27743369655E+03 0.  0.
         25    2    3    3    0    0  0.48891861224E+02 -0.19601322481E+00  0.37469532454E+03  0.40037509723E+03  0.13233737088E+03 0.  0.
         25    2    3    3    0    0 -0.48891861224E+02  0.19601322481E+00  0.51511833565E+03  0.53168595542E+03  0.12228083637E+03 0.  0.
          5    1    4    4  502    0 -0.12401952390E+02  0.52445817294E+02  0.96301393272E+02  0.11045551376E+03  0.47000000000E+01 0. -1.
         -5    1    4    4    0  502  0.61293813614E+02 -0.52641830519E+02  0.27839393127E+03  0.28991958346E+03  0.47000000000E+01 0. -1.
          5    1    5    5  503    0  0.36425076155E+01  0.36994010910E+02  0.38213926594E+03  0.38397178709E+03  0.47000000000E+01 0. -1.
         -5    1    5    5    0  503 -0.52534368839E+02 -0.36797997685E+02  0.13297906971E+03  0.14771416833E+03  0.47000000000E+01 0. -1.
<mgrwt>
<rscale>  0 0.27743370E+03</rscale>
<asrwt>0</asrwt>
<pdfrwt beam="1">  1        1 0.14014418E+00 0.27743370E+03</pdfrwt>
<pdfrwt beam="2">  1       -1 0.32498001E-02 0.27743370E+03</pdfrwt>
<totfact> 0.62669760E+03</totfact>
</mgrwt>
</event>
<event>
 9    1  0.2024718E-002  0.2738650E+03  0.7818608E-02  0.1099088E+00
          1   -1    0    0  501    0  0.00000000000E+00  0.00000000000E+00  0.10182934280E+04  0.10182934280E+04  0.00000000000E+00 0.  1.
         -1   -1    0    0    0  501 -0.00000000000E+00 -0.00000000000E+00 -0.18413661857E+02  0.18413661857E+02  0.00000000000E+00 0.  1.
         36    2    1    2    0    0 -0.35527136788E-14  0.71054273576E-14  0.99987976615E+03  0.10367070899E+04  0.27386500948E+03 0.  0.
         25    2    3    3    0    0  0.10072564549E+02 -0.42518138910E+02  0.39637174726E+03  0.41799050827E+03  0.12528469291E+03 0.  0.
         25    2    3    3    0    0 -0.10072564549E+02  0.42518138910E+02  0.60350801889E+03  0.61871658160E+03  0.12914732204E+03 0.  0.
          5    1    4    4  502    0  0.43263819311E+02  0.29918761901E+02  0.15185156478E+03  0.16077275298E+03  0.47000000000E+01 0.  1.
         -5    1    4    4    0  502 -0.33191254762E+02 -0.72436900811E+02  0.24452018249E+03  0.25721775529E+03  0.47000000000E+01 0.  1.
          5    1    5    5  503    0  0.15137574492E+02  0.36078337386E+02  0.58527179843E+03  0.58659693199E+03  0.47000000000E+01 0. -1.
         -5    1    5    5    0  503 -0.25210139041E+02  0.64398015247E+01  0.18236220463E+02  0.32119649607E+02  0.47000000000E+01 0. -1.
<mgrwt>
<rscale>  0 0.27386501E+03</rscale>
<asrwt>0</asrwt>
<pdfrwt beam="1">  1        1 0.15666048E+00 0.27386501E+03</pdfrwt>
<pdfrwt beam="2">  1       -1 0.28328719E-02 0.27386501E+03</pdfrwt>
<totfact> 0.63569674E+03</totfact>
</mgrwt>
</event>
<event>
 9    1  0.2024718E-002  0.2735312E+03  0.7818608E-02  0.1099275E+00
          2   -1    0    0  501    0  0.00000000000E+00  0.00000000000E+00  0.93287347547E+03  0.93287347547E+03  0.00000000000E+00 0.  1.
         -2   -1    0    0    0  501 -0.00000000000E+00 -0.00000000000E+00 -0.20050764407E+02  0.20050764407E+02  0.00000000000E+00 0.  1.
         36    2    1    2    0    0  0.35527136788E-14  0.00000000000E+00  0.91282271106E+03  0.95292423987E+03  0.27353117759E+03 0.  0.
         25    2    3    3    0    0  0.31999254874E+02 -0.43761058667E+02  0.49812517411E+03  0.51581344601E+03  0.12245750054E+03 0.  0.
         25    2    3    3    0    0 -0.31999254874E+02  0.43761058667E+02  0.41469753695E+03  0.43711079386E+03  0.12709373072E+03 0.  0.
          5    1    4    4  502    0  0.35965309933E+02 -0.32079913248E+02  0.58284222174E+02  0.75774434390E+02  0.47000000000E+01 0. -1.
         -5    1    4    4    0  502 -0.39660550595E+01 -0.11681145419E+02  0.43984095193E+03  0.44003901162E+03  0.47000000000E+01 0. -1.
          5    1    5    5  503    0 -0.18118097749E+02  0.79493516928E+02  0.36577425700E+03  0.37478044477E+03  0.47000000000E+01 0.  1.
         -5    1    5    5    0  503 -0.13881157125E+02 -0.35732458261E+02  0.48923279954E+02  0.62330349092E+02  0.47000000000E+01 0.  1.
<mgrwt>
<rscale>  0 0.27353118E+03</rscale>
<asrwt>0</asrwt>
<pdfrwt beam="1">  1        2 0.14351896E+00 0.27353118E+03</pdfrwt>
<pdfrwt beam="2">  1       -2 0.30847337E-02 0.27353118E+03</pdfrwt>
<totfact> 0.11718659E+04</totfact>
</mgrwt>
</event>
<event>
 9    1  0.2024718E-002  0.2754294E+03  0.7818608E-02  0.1098212E+00
          1   -1    0    0  501    0  0.00000000000E+00  0.00000000000E+00  0.17613230504E+03  0.17613230504E+03  0.00000000000E+00 0. -1.
         -1   -1    0    0    0  501 -0.00000000000E+00 -0.00000000000E+00 -0.10767666509E+03  0.10767666509E+03  0.00000000000E+00 0. -1.
         36    2    1    2    0    0  0.00000000000E+00 -0.71054273576E-14  0.68455639950E+02  0.28380897014E+03  0.27542940455E+03 0.  0.
         25    2    3    3    0    0  0.28025720933E+02 -0.47729741172E+02  0.68686447128E+01  0.13614215948E+03  0.12419315634E+03 0.  0.
         25    2    3    3    0    0 -0.28025720933E+02  0.47729741172E+02  0.61586995237E+02  0.14766681066E+03  0.12226593868E+03 0.  0.
          5    1    4    4  502    0  0.26239013506E+02 -0.86343812230E+02  0.24154938540E+02  0.93537643738E+02  0.47000000000E+01 0.  1.
         -5    1    4    4    0  502  0.17867074275E+01  0.38614071059E+02 -0.17286293828E+02  0.42604515740E+02  0.47000000000E+01 0.  1.
          5    1    5    5  503    0  0.29834934428E+02  0.20921544688E+02 -0.21695506117E+02  0.42668716059E+02  0.47000000000E+01 0.  1.
         -5    1    5    5    0  503 -0.57860655362E+02  0.26808196484E+02  0.83282501354E+02  0.10499809460E+03  0.47000000000E+01 0.  1.
<mgrwt>
<rscale>  0 0.27542940E+03</rscale>
<asrwt>0</asrwt>
<pdfrwt beam="1">  1        1 0.27097278E-01 0.27542940E+03</pdfrwt>
<pdfrwt beam="2">  1       -1 0.16565641E-01 0.27542940E+03</pdfrwt>
<totfact> 0.46954673E+03</totfact>
</mgrwt>
</event>
<event>
 9    1  0.2024718E-002  0.2760502E+03  0.7818608E-02  0.1097866E+00
         -2   -1    0    0    0  501 -0.00000000000E+00  0.00000000000E+00  0.59470621008E+02  0.59470621008E+02  0.00000000000E+00 0. -1.
          2   -1    0    0  501    0  0.00000000000E+00 -0.00000000000E+00 -0.32034188341E+03  0.32034188341E+03  0.00000000000E+00 0. -1.
         36    2    1    2    0    0  0.00000000000E+00 -0.71054273576E-14 -0.26087126240E+03  0.37981250442E+03  0.27605021819E+03 0.  0.
         25    2    3    3    0    0 -0.72242826707E+01  0.47485934192E+02 -0.14991630466E+03  0.20198547366E+03  0.12655484566E+03 0.  0.
         25    2    3    3    0    0  0.72242826707E+01 -0.47485934192E+02 -0.11095495774E+03  0.17782703076E+03  0.13040071324E+03 0.  0.
          5    1    4    4  502    0  0.17228489762E+02  0.52684732442E+01 -0.15179806294E+03  0.15293567139E+03  0.47000000000E+01 0.  1.
         -5    1    4    4    0  502 -0.24452772433E+02  0.42217460948E+02  0.18817582837E+01  0.49049802270E+02  0.47000000000E+01 0.  1.
          5    1    5    5  503    0 -0.43768638951E+02  0.82304167380E+01 -0.88012621470E+02  0.98750924316E+02  0.47000000000E+01 0. -1.
         -5    1    5    5    0  503  0.50992921622E+02 -0.55716350930E+02 -0.22942336271E+02  0.79076106442E+02  0.47000000000E+01 0. -1.
<mgrwt>
<rscale>  0 0.27605022E+03</rscale>
<asrwt>0</asrwt>
<pdfrwt beam="1">  1        2 0.49283367E-01 0.27605022E+03</pdfrwt>
<pdfrwt beam="2">  1       -2 0.91493263E-02 0.27605022E+03</pdfrwt>
<totfact> 0.77290038E+03</totfact>
</mgrwt>
</event>
<event>
 9    1  0.2024718E-002  0.2751766E+03  0.7818608E-02  0.1098353E+00
         -1   -1    0    0    0  501 -0.00000000000E+00  0.00000000000E+00  0.38931643507E+02  0.38931643507E+02  0.00000000000E+00 0. -1.
          1   -1    0    0  501    0  0.00000000000E+00 -0.00000000000E+00 -0.48625074954E+03  0.48625074954E+03  0.00000000000E+00 0. -1.
         36    2    1    2    0    0  0.35527136788E-14  0.00000000000E+00 -0.44731910603E+03  0.52518239305E+03  0.27517660392E+03 0.  0.
         25    2    3    3    0    0  0.38979555246E+01 -0.38454788794E+01 -0.12507067449E+03  0.17589248456E+03  0.12355367555E+03 0.  0.
         25    2    3    3    0    0 -0.38979555246E+01  0.38454788794E+01 -0.32224843154E+03  0.34928990849E+03  0.13464548553E+03 0.  0.
          5    1    4    4  502    0 -0.36352719009E+02 -0.29906421978E+02 -0.63049026804E+01  0.47725842608E+02  0.47000000000E+01 0.  1.
         -5    1    4    4    0  502  0.40250674533E+02  0.26060943099E+02 -0.11876577181E+03  0.12816664195E+03  0.47000000000E+01 0.  1.
          5    1    5    5  503    0  0.29495115107E+02 -0.51877063655E+02 -0.22049592571E+03  0.22847698966E+03  0.47000000000E+01 0.  1.
         -5    1    5    5    0  503 -0.33393070631E+02  0.55722542534E+02 -0.10175250583E+03  0.12081291882E+03  0.47000000000E+01 0.  1.
<mgrwt>
<rscale>  0 0.27517660E+03</rscale>
<asrwt>0</asrwt>
<pdfrwt beam="1">  1        1 0.74807806E-01 0.27517660E+03</pdfrwt>
<pdfrwt beam="2">  1       -1 0.59894837E-02 0.27517660E+03</pdfrwt>
<totfact> 0.62490647E+03</totfact>
</mgrwt>
</event>
<event>
 9    1  0.2024718E-002  0.2747648E+03  0.7818608E-02  0.1098583E+00
          1   -1    0    0  501    0  0.00000000000E+00  0.00000000000E+00  0.29013832494E+02  0.29013832494E+02  0.00000000000E+00 0. -1.
         -1   -1    0    0    0  501 -0.00000000000E+00 -0.00000000000E+00 -0.65051455124E+03  0.65051455124E+03  0.00000000000E+00 0. -1.
         36    2    1    2    0    0  0.00000000000E+00  0.00000000000E+00 -0.62150071874E+03  0.67952838373E+03  0.27476477376E+03 0.  0.
         25    2    3    3    0    0 -0.21928862414E+02  0.24845722926E+02 -0.29767078865E+03  0.32420683873E+03  0.12411281524E+03 0.  0.
         25    2    3    3    0    0  0.21928862414E+02 -0.24845722926E+02 -0.32382993009E+03  0.35532154500E+03  0.14244083602E+03 0.  0.
          5    1    4    4  502    0 -0.16792237988E+02 -0.48447097453E+02 -0.87640796371E+02  0.10164693648E+03  0.47000000000E+01 0.  1.
         -5    1    4    4    0  502 -0.51366244261E+01  0.73292820378E+02 -0.21002999228E+03  0.22255990224E+03  0.47000000000E+01 0.  1.
          5    1    5    5  503    0  0.69102238342E+02 -0.56184366159E+02 -0.18793843035E+03  0.20802583000E+03  0.47000000000E+01 0.  1.
         -5    1    5    5    0  503 -0.47173375927E+02  0.31338643233E+02 -0.13589149974E+03  0.14729571500E+03  0.47000000000E+01 0.  1.
<mgrwt>
<rscale>  0 0.27476477E+03</rscale>
<asrwt>0</asrwt>
<pdfrwt beam="1">  1        1 0.44636664E-02 0.27476477E+03</pdfrwt>
<pdfrwt beam="2">  1       -1 0.10007917E+00 0.27476477E+03</pdfrwt>
<totfact> 0.19600907E+03</totfact>
</mgrwt>
</event>
<event>
 9    1  0.2024718E-002  0.2747619E+03  0.7818608E-02  0.1098585E+00
          2   -1    0    0  501    0  0.00000000000E+00  0.00000000000E+00  0.54097106538E+03  0.54097106538E+03  0.00000000000E+00 0. -1.
         -2   -1    0    0    0  501 -0.00000000000E+00 -0.00000000000E+00 -0.34888243965E+02  0.34888243965E+02  0.00000000000E+00 0. -1.
         36    2    1    2    0    0  0.00000000000E+00  0.00000000000E+00  0.50608282141E+03  0.57585930934E+03  0.27476193701E+03 0.  0.
         25    2    3    3    0    0  0.15375205181E+02 -0.38746236547E+02  0.22506132993E+03  0.26059952682E+03  0.12458669018E+03 0.  0.
         25    2    3    3    0    0 -0.15375205181E+02  0.38746236547E+02  0.28102149148E+03  0.31525978252E+03  0.13666742120E+03 0.  0.
          5    1    4    4  502    0 -0.31464797192E+02  0.37733371072E+01  0.17990122160E+03  0.18273152729E+03  0.47000000000E+01 0. -1.
         -5    1    4    4    0  502  0.46840002373E+02 -0.42519573654E+02  0.45160108337E+02  0.77867999532E+02  0.47000000000E+01 0. -1.
          5    1    5    5  503    0  0.16678869940E+01  0.87723738803E+02  0.20582046114E+03  0.22379094803E+03  0.47000000000E+01 0.  1.
         -5    1    5    5    0  503 -0.17043092175E+02 -0.48977502256E+02  0.75201030340E+02  0.91468834487E+02  0.47000000000E+01 0.  1.
<mgrwt>
<rscale>  0 0.27476194E+03</rscale>
<asrwt>0</asrwt>
<pdfrwt beam="1">  1        2 0.83226312E-01 0.27476194E+03</pdfrwt>
<pdfrwt beam="2">  1       -2 0.53674225E-02 0.27476194E+03</pdfrwt>
<totfact> 0.99423611E+03</totfact>
</mgrwt>
</event>
<event>
 9    1  0.2024718E-002  0.2747848E+03  0.7818608E-02  0.1098572E+00
          2   -1    0    0  501    0  0.00000000000E+00  0.00000000000E+00  0.37199175890E+03  0.37199175890E+03  0.00000000000E+00 0. -1.
         -2   -1    0    0    0  501 -0.00000000000E+00 -0.00000000000E+00 -0.50744875784E+02  0.50744875784E+02  0.00000000000E+00 0. -1.
         36    2    1    2    0    0  0.71054273576E-14  0.00000000000E+00  0.32124688312E+03  0.42273663469E+03  0.27478482926E+03 0.  0.
         25    2    3    3    0    0  0.31483238979E+01  0.51813739113E+02  0.13671665968E+03  0.19270419338E+03  0.12549456406E+03 0.  0.
         25    2    3    3    0    0 -0.31483238979E+01 -0.51813739113E+02  0.18453022345E+03  0.23003244131E+03  0.12715716726E+03 0.  0.
          5    1    4    4  502    0  0.50231065866E+02  0.65710703346E+02  0.63288252232E+02  0.10425233514E+03  0.47000000000E+01 0.  1.
         -5    1    4    4    0  502 -0.47082741968E+02 -0.13896964232E+02  0.73428407444E+02  0.88451858239E+02  0.47000000000E+01 0.  1.
          5    1    5    5  503    0 -0.47912233704E+02  0.13080333370E+02  0.11282015810E+03  0.12335783451E+03  0.47000000000E+01 0.  1.
         -5    1    5    5    0  503  0.44763909807E+02 -0.64894072483E+02  0.71710065342E+02  0.10667460680E+03  0.47000000000E+01 0.  1.
<mgrwt>
<rscale>  0 0.27478483E+03</rscale>
<asrwt>0</asrwt>
<pdfrwt beam="1">  1        2 0.57229500E-01 0.27478483E+03</pdfrwt>
<pdfrwt beam="2">  1       -2 0.78069042E-02 0.27478483E+03</pdfrwt>
<totfact> 0.84350217E+03</totfact>
</mgrwt>
</event>
<event>
 9    1  0.2024718E-002  0.2751677E+03  0.7818608E-02  0.1098358E+00
         -1   -1    0    0    0  501 -0.00000000000E+00  0.00000000000E+00  0.17359526381E+02  0.17359526381E+02  0.00000000000E+00 0. -1.
          1   -1    0    0  501    0  0.00000000000E+00 -0.00000000000E+00 -0.10904285101E+04  0.10904285101E+04  0.00000000000E+00 0. -1.
         36    2    1    2    0    0  0.00000000000E+00 -0.17763568394E-14 -0.10730689837E+04  0.11077880365E+04  0.27516774875E+03 0.  0.
         25    2    3    3    0    0 -0.10635830224E+02  0.18298244793E+01 -0.31874567544E+03  0.34269057014E+03  0.12538561363E+03 0.  0.
         25    2    3    3    0    0  0.10635830224E+02 -0.18298244793E+01 -0.75432330826E+03  0.76509746632E+03  0.12749121716E+03 0.  0.
          5    1    4    4  502    0  0.18629089576E+02 -0.54670056273E+02 -0.19552699272E+03  0.20393320699E+03  0.47000000000E+01 0.  1.
         -5    1    4    4    0  502 -0.29264919801E+02  0.56499880752E+02 -0.12321868272E+03  0.13875736314E+03  0.47000000000E+01 0.  1.
          5    1    5    5  503    0 -0.53930749029E+02  0.13644892291E+02 -0.45802699237E+03  0.46141686631E+03  0.47000000000E+01 0.  1.
         -5    1    5    5    0  503  0.64566579253E+02 -0.15474716771E+02 -0.29629631589E+03  0.30368060001E+03  0.47000000000E+01 0.  1.
<mgrwt>
<rscale>  0 0.27516775E+03</rscale>
<asrwt>0</asrwt>
<pdfrwt beam="1">  1        1 0.16775819E+00 0.27516775E+03</pdfrwt>
<pdfrwt beam="2">  1       -1 0.26706970E-02 0.27516775E+03</pdfrwt>
<totfact> 0.61394657E+03</totfact>
</mgrwt>
</event>
<event>
 9    1  0.2024718E-002  0.2749048E+03  0.7818608E-02  0.1098505E+00
          2   -1    0    0  501    0  0.00000000000E+00  0.00000000000E+00  0.10138314541E+03  0.10138314541E+03  0.00000000000E+00 0.  1.
         -2   -1    0    0    0  501 -0.00000000000E+00 -0.00000000000E+00 -0.18635410067E+03  0.18635410067E+03  0.00000000000E+00 0.  1.
         36    2    1    2    0    0  0.71054273576E-14 -0.35527136788E-14 -0.84970955260E+02  0.28773724609E+03  0.27490481907E+03 0.  0.
         25    2    3    3    0    0 -0.55586183228E+02  0.13963000483E+02 -0.46932460159E+02  0.14637961782E+03  0.12625192097E+03 0.  0.
         25    2    3    3    0    0  0.55586183228E+02 -0.13963000483E+02 -0.38038495102E+02  0.14135762827E+03  0.12349195444E+03 0.  0.
          5    1    4    4  502    0  0.83444499963E+01 -0.87444586377E+01  0.36503911000E+02  0.38739139393E+02  0.47000000000E+01 0.  1.
         -5    1    4    4    0  502 -0.63930633224E+02  0.22707459121E+02 -0.83436371158E+02  0.10764047843E+03  0.47000000000E+01 0.  1.
          5    1    5    5  503    0  0.75212887126E+01 -0.61693250280E+02 -0.38864758429E+02  0.73451932322E+02  0.47000000000E+01 0. -1.
         -5    1    5    5    0  503  0.48064894515E+02  0.47730249798E+02  0.82626332756E+00  0.67905695944E+02  0.47000000000E+01 0. -1.
<mgrwt>
<rscale>  0 0.27490482E+03</rscale>
<asrwt>0</asrwt>
<pdfrwt beam="1">  1        2 0.15597407E-01 0.27490482E+03</pdfrwt>
<pdfrwt beam="2">  1       -2 0.28669861E-01 0.27490482E+03</pdfrwt>
<totfact> 0.41081831E+03</totfact>
</mgrwt>
</event>
<event>
 9    1  0.2024718E-002  0.2749180E+03  0.7818608E-02  0.1098497E+00
         -2   -1    0    0    0  501 -0.00000000000E+00  0.00000000000E+00  0.45670006721E+02  0.45670006721E+02  0.00000000000E+00 0. -1.
          2   -1    0    0  501    0  0.00000000000E+00 -0.00000000000E+00 -0.41372830169E+03  0.41372830169E+03  0.00000000000E+00 0. -1.
         36    2    1    2    0    0  0.00000000000E+00  0.00000000000E+00 -0.36805829497E+03  0.45939830841E+03  0.27491798282E+03 0.  0.
         25    2    3    3    0    0 -0.29157868213E+02  0.29103752430E+02 -0.19542969641E+03  0.24126402673E+03  0.13534531639E+03 0.  0.
         25    2    3    3    0    0  0.29157868213E+02 -0.29103752430E+02 -0.17262859856E+03  0.21813428168E+03  0.12682555784E+03 0.  0.
          5    1    4    4  502    0  0.16641010807E+02  0.58462564815E+02 -0.17081476880E+03  0.18136860248E+03  0.47000000000E+01 0.  1.
         -5    1    4    4    0  502 -0.45798879020E+02 -0.29358812385E+02 -0.24614927613E+02  0.59895424246E+02  0.47000000000E+01 0.  1.
          5    1    5    5  503    0  0.32987407139E+02 -0.72333087421E+02 -0.67838099288E+02  0.10461521056E+03  0.47000000000E+01 0. -1.
         -5    1    5    5    0  503 -0.38295389258E+01  0.43229334991E+02 -0.10479049927E+03  0.11351907112E+03  0.47000000000E+01 0. -1.
<mgrwt>
<rscale>  0 0.27491798E+03</rscale>
<asrwt>0</asrwt>
<pdfrwt beam="1">  1        2 0.63650507E-01 0.27491798E+03</pdfrwt>
<pdfrwt beam="2">  1       -2 0.70261549E-02 0.27491798E+03</pdfrwt>
<totfact> 0.88530458E+03</totfact>
</mgrwt>
</event>
<event>
 9    1  0.2024718E-002  0.2751474E+03  0.7818608E-02  0.1098369E+00
          1   -1    0    0  501    0  0.00000000000E+00  0.00000000000E+00  0.34368949322E+03  0.34368949322E+03  0.00000000000E+00 0.  1.
         -1   -1    0    0    0  501 -0.00000000000E+00 -0.00000000000E+00 -0.55068679012E+02  0.55068679012E+02  0.00000000000E+00 0.  1.
         36    2    1    2    0    0  0.35527136788E-14 -0.17763568394E-14  0.28862081420E+03  0.39875817223E+03  0.27514742508E+03 0.  0.
         25    2    3    3    0    0  0.29536337117E+02  0.29698163695E+01  0.21605570699E+03  0.25113003456E+03  0.12451911787E+03 0.  0.
         25    2    3    3    0    0 -0.29536337117E+02 -0.29698163695E+01  0.72565107209E+02  0.14762813767E+03  0.12508859751E+03 0.  0.
          5    1    4    4  502    0  0.10535543791E+02 -0.36349311501E+01 -0.14934347493E+02  0.19218094143E+02  0.47000000000E+01 0. -1.
         -5    1    4    4    0  502  0.19000793326E+02  0.66047475196E+01  0.23099005449E+03  0.23191194042E+03  0.47000000000E+01 0. -1.
          5    1    5    5  503    0  0.16998735716E+02  0.28315131140E+02  0.83845902620E+02  0.90238179578E+02  0.47000000000E+01 0. -1.
         -5    1    5    5    0  503 -0.46535072833E+02 -0.31284947510E+02 -0.11280795411E+02  0.57389958088E+02  0.47000000000E+01 0. -1.
<mgrwt>
<rscale>  0 0.27514743E+03</rscale>
<asrwt>0</asrwt>
<pdfrwt beam="1">  1        1 0.52875305E-01 0.27514743E+03</pdfrwt>
<pdfrwt beam="2">  1       -1 0.84721047E-02 0.27514743E+03</pdfrwt>
<totfact> 0.57701677E+03</totfact>
</mgrwt>
</event>
<event>
 9    1  0.2024718E-002  0.2746584E+03  0.7818608E-02  0.1098643E+00
         -3   -1    0    0    0  501 -0.00000000000E+00  0.00000000000E+00  0.20244344606E+03  0.20244344606E+03  0.00000000000E+00 0.  1.
          3   -1    0    0  501    0  0.00000000000E+00 -0.00000000000E+00 -0.93158397660E+02  0.93158397660E+02  0.00000000000E+00 0.  1.
         36    2    1    2    0    0  0.00000000000E+00  0.35527136788E-14  0.10928504840E+03  0.29560184371E+03  0.27465838455E+03 0.  0.
         25    2    3    3    0    0 -0.61080382360E+02 -0.10166767809E+02  0.51335269489E+02  0.14631895860E+03  0.12222827609E+03 0.  0.
         25    2    3    3    0    0  0.61080382360E+02  0.10166767809E+02  0.57949778907E+02  0.14928288511E+03  0.12285367978E+03 0.  0.
          5    1    4    4  502    0 -0.90132822238E+02  0.74567973127E+01  0.62736741988E+02  0.11017040558E+03  0.47000000000E+01 0. -1.
         -5    1    4    4    0  502  0.29052439878E+02 -0.17623565122E+02 -0.11401472499E+02  0.36148553022E+02  0.47000000000E+01 0. -1.
          5    1    5    5  503    0  0.29026553530E+02 -0.48653413364E+02  0.59259164000E+02  0.82118414255E+02  0.47000000000E+01 0. -1.
         -5    1    5    5    0  503  0.32053828830E+02  0.58820181174E+02 -0.13093850933E+01  0.67164470856E+02  0.47000000000E+01 0. -1.
<mgrwt>
<rscale>  0 0.27465838E+03</rscale>
<asrwt>0</asrwt>
<pdfrwt beam="1">  1        3 0.14332061E-01 0.27465838E+03</pdfrwt>
<pdfrwt beam="2">  1       -3 0.31145145E-01 0.27465838E+03</pdfrwt>
<totfact> 0.10218146E+03</totfact>
</mgrwt>
</event>
<event>
 9    1  0.2024718E-002  0.2699581E+03  0.7818608E-02  0.1101304E+00
          3   -1    0    0  501    0  0.00000000000E+00  0.00000000000E+00  0.96390265779E+03  0.96390265779E+03  0.00000000000E+00 0.  1.
         -3   -1    0    0    0  501 -0.00000000000E+00 -0.00000000000E+00 -0.18901638452E+02  0.18901638452E+02  0.00000000000E+00 0.  1.
         36    2    1    2    0    0  0.00000000000E+00  0.71054273576E-14  0.94500101934E+03  0.98280429624E+03  0.26995806741E+03 0.  0.
         25    2    3    3    0    0 -0.19719520288E+02  0.14446025812E+02  0.29591729477E+03  0.32084809346E+03  0.12156852634E+03 0.  0.
         25    2    3    3    0    0  0.19719520288E+02 -0.14446025812E+02  0.64908372458E+03  0.66195620278E+03  0.12758834488E+03 0.  0.
          5    1    4    4  502    0  0.33805119641E+02  0.30846485962E+02  0.47375725143E+02  0.66036665142E+02  0.47000000000E+01 0.  1.
         -5    1    4    4    0  502 -0.53524639930E+02 -0.16400460151E+02  0.24854156962E+03  0.25481142832E+03  0.47000000000E+01 0.  1.
          5    1    5    5  503    0 -0.25870712559E+01 -0.69161030589E+02  0.30355722873E+03  0.31138243721E+03  0.47000000000E+01 0. -1.
         -5    1    5    5    0  503  0.22306591544E+02  0.54715004778E+02  0.34552649585E+03  0.35057376557E+03  0.47000000000E+01 0. -1.
<mgrwt>
<rscale>  0 0.26995807E+03</rscale>
<asrwt>0</asrwt>
<pdfrwt beam="1">  1        3 0.14829268E+00 0.26995807E+03</pdfrwt>
<pdfrwt beam="2">  1       -3 0.29079451E-02 0.26995807E+03</pdfrwt>
<totfact> 0.47836894E+02</totfact>
</mgrwt>
</event>
<event>
 9    1  0.2024718E-002  0.2746131E+03  0.7818608E-02  0.1098668E+00
          2   -1    0    0  501    0  0.00000000000E+00  0.00000000000E+00  0.81000368752E+03  0.81000368752E+03  0.00000000000E+00 0.  1.
         -2   -1    0    0    0  501 -0.00000000000E+00 -0.00000000000E+00 -0.23275308990E+02  0.23275308990E+02  0.00000000000E+00 0.  1.
         36    2    1    2    0    0  0.00000000000E+00 -0.71054273576E-14  0.78672837853E+03  0.83327899651E+03  0.27461308133E+03 0.  0.
         25    2    3    3    0    0  0.31710926500E+02 -0.26511182367E+02  0.36015444995E+03  0.38720841714E+03  0.13605405116E+03 0.  0.
         25    2    3    3    0    0 -0.31710926500E+02  0.26511182367E+02  0.42657392858E+03  0.44607057937E+03  0.12371426588E+03 0.  0.
          5    1    4    4  502    0 -0.14520007317E+02 -0.26500964714E+02  0.33087261426E+03  0.33228287438E+03  0.47000000000E+01 0.  1.
         -5    1    4    4    0  502  0.46230933817E+02 -0.10217652236E-01  0.29281835697E+02  0.54925542763E+02  0.47000000000E+01 0.  1.
          5    1    5    5  503    0  0.15074474215E+02  0.58804851317E+02  0.31422783399E+03  0.32007260420E+03  0.47000000000E+01 0. -1.
         -5    1    5    5    0  503 -0.46785400716E+02 -0.32293668950E+02  0.11234609459E+03  0.12599797516E+03  0.47000000000E+01 0. -1.
<mgrwt>
<rscale>  0 0.27461308E+03</rscale>
<asrwt>0</asrwt>
<pdfrwt beam="1">  1        2 0.12461593E+00 0.27461308E+03</pdfrwt>
<pdfrwt beam="2">  1       -2 0.35808174E-02 0.27461308E+03</pdfrwt>
<totfact> 0.11300194E+04</totfact>
</mgrwt>
</event>
<event>
 9    1  0.2024718E-002  0.2750794E+03  0.7818608E-02  0.1098407E+00
          1   -1    0    0  501    0  0.00000000000E+00  0.00000000000E+00  0.79908771897E+03  0.79908771897E+03  0.00000000000E+00 0.  1.
         -1   -1    0    0    0  501 -0.00000000000E+00 -0.00000000000E+00 -0.23673451198E+02  0.23673451198E+02  0.00000000000E+00 0.  1.
         36    2    1    2    0    0  0.00000000000E+00  0.00000000000E+00  0.77541426778E+03  0.82276117017E+03  0.27507936395E+03 0.  0.
         25    2    3    3    0    0 -0.53626235649E+01 -0.37891134460E+02  0.57363853442E+03  0.58525636132E+03  0.10954151949E+03 0.  0.
         25    2    3    3    0    0  0.53626235649E+01  0.37891134460E+02  0.20177573336E+03  0.23750480885E+03  0.11929204439E+03 0.  0.
          5    1    4    4  502    0 -0.50976387162E+02 -0.41869188310E+02  0.40869362615E+03  0.41400989243E+03  0.47000000000E+01 0.  1.
         -5    1    4    4    0  502  0.45613763597E+02  0.39780538501E+01  0.16494490827E+03  0.17124646889E+03  0.47000000000E+01 0.  1.
          5    1    5    5  503    0 -0.52405954471E+02  0.34675642038E+01  0.12297944373E+03  0.13380747978E+03  0.47000000000E+01 0.  1.
         -5    1    5    5    0  503  0.57768578036E+02  0.34423570256E+02  0.78796289632E+02  0.10369732907E+03  0.47000000000E+01 0.  1.
<mgrwt>
<rscale>  0 0.27507936E+03</rscale>
<asrwt>0</asrwt>
<pdfrwt beam="1">  1        1 0.12293655E+00 0.27507936E+03</pdfrwt>
<pdfrwt beam="2">  1       -1 0.36420700E-02 0.27507936E+03</pdfrwt>
<totfact> 0.65157656E+03</totfact>
</mgrwt>
</event>
<event>
 9    1  0.2024718E-002  0.2730379E+03  0.7818608E-02  0.1099553E+00
          1   -1    0    0  501    0  0.00000000000E+00  0.00000000000E+00  0.15193638703E+04  0.15193638703E+04  0.00000000000E+00 0.  1.
         -1   -1    0    0    0  501 -0.00000000000E+00 -0.00000000000E+00 -0.12266599216E+02  0.12266599216E+02  0.00000000000E+00 0.  1.
         36    2    1    2    0    0 -0.71054273576E-14  0.00000000000E+00  0.15070972710E+04  0.15316304695E+04  0.27303792894E+03 0.  0.
         25    2    3    3    0    0  0.58418951491E+02  0.10117689507E+02  0.89449104226E+03  0.90574482284E+03  0.12939983729E+03 0.  0.
         25    2    3    3    0    0 -0.58418951491E+02 -0.10117689507E+02  0.61260622879E+03  0.62588564664E+03  0.11371591613E+03 0.  0.
          5    1    4    4  502    0  0.82935089660E+01  0.36129219746E+02  0.74400612165E+03  0.74494382464E+03  0.47000000000E+01 0.  1.
         -5    1    4    4    0  502  0.50125442525E+02 -0.26011530240E+02  0.15048492061E+03  0.16080099821E+03  0.47000000000E+01 0.  1.
          5    1    5    5  503    0 -0.50786425497E+02 -0.58939828905E+02  0.40452579783E+03  0.41196647383E+03  0.47000000000E+01 0. -1.
         -5    1    5    5    0  503 -0.76325259947E+01  0.48822139399E+02  0.20808043096E+03  0.21391917281E+03  0.47000000000E+01 0. -1.
<mgrwt>
<rscale>  0 0.27303793E+03</rscale>
<asrwt>0</asrwt>
<pdfrwt beam="1">  1        1 0.23374814E+00 0.27303793E+03</pdfrwt>
<pdfrwt beam="2">  1       -1 0.18871703E-02 0.27303793E+03</pdfrwt>
<totfact> 0.51863267E+03</totfact>
</mgrwt>
</event>
<event>
 9    1  0.2024718E-002  0.2741372E+03  0.7818608E-02  0.1098935E+00
          2   -1    0    0  501    0  0.00000000000E+00  0.00000000000E+00  0.26114371564E+03  0.26114371564E+03  0.00000000000E+00 0. -1.
         -2   -1    0    0    0  501 -0.00000000000E+00 -0.00000000000E+00 -0.71944321135E+02  0.71944321135E+02  0.00000000000E+00 0. -1.
         36    2    1    2    0    0  0.00000000000E+00 -0.14210854715E-13  0.18919939450E+03  0.33308803677E+03  0.27413724548E+03 0.  0.
         25    2    3    3    0    0  0.11659398837E+02  0.45161796885E+02  0.15940895618E+03  0.20808858734E+03  0.12535595476E+03 0.  0.
         25    2    3    3    0    0 -0.11659398837E+02 -0.45161796885E+02  0.29790438329E+02  0.12499944943E+03  0.11207971566E+03 0.  0.
          5    1    4    4  502    0 -0.24020459058E+02  0.41972428403E+02  0.16457002200E+03  0.17159268441E+03  0.47000000000E+01 0. -1.
         -5    1    4    4    0  502  0.35679857894E+02  0.31893684819E+01 -0.51610658289E+01  0.36495902936E+02  0.47000000000E+01 0. -1.
          5    1    5    5  503    0 -0.51909586299E+01  0.36234612425E+02  0.21700063507E+02  0.42812100454E+02  0.47000000000E+01 0. -1.
         -5    1    5    5    0  503 -0.64684402066E+01 -0.81396409310E+02  0.80903748216E+01  0.82187348977E+02  0.47000000000E+01 0. -1.
<mgrwt>
<rscale>  0 0.27413725E+03</rscale>
<asrwt>0</asrwt>
<pdfrwt beam="1">  1        2 0.40175956E-01 0.27413725E+03</pdfrwt>
<pdfrwt beam="2">  1       -2 0.11068357E-01 0.27413725E+03</pdfrwt>
<totfact> 0.71115223E+03</totfact>
</mgrwt>
</event>
<event>
 9    1  0.2024718E-002  0.2747673E+03  0.7818608E-02  0.1098582E+00
          1   -1    0    0  501    0  0.00000000000E+00  0.00000000000E+00  0.47583615354E+02  0.47583615354E+02  0.00000000000E+00 0. -1.
         -1   -1    0    0    0  501 -0.00000000000E+00 -0.00000000000E+00 -0.39665467104E+03  0.39665467104E+03  0.00000000000E+00 0. -1.
         36    2    1    2    0    0  0.00000000000E+00 -0.35527136788E-14 -0.34907105569E+03  0.44423828639E+03  0.27476727094E+03 0.  0.
         25    2    3    3    0    0 -0.60717430894E+02 -0.30877620552E+02 -0.19206141760E+03  0.23597196328E+03  0.11897539854E+03 0.  0.
         25    2    3    3    0    0  0.60717430894E+02  0.30877620552E+02 -0.15700963808E+03  0.20826632311E+03  0.11867097803E+03 0.  0.
          5    1    4    4  502    0 -0.93678081213E+02 -0.15508466997E+02 -0.10579389941E+03  0.14223408382E+03  0.47000000000E+01 0. -1.
         -5    1    4    4    0  502  0.32960650320E+02 -0.15369153555E+02 -0.86267518191E+02  0.93737879458E+02  0.47000000000E+01 0. -1.
          5    1    5    5  503    0 -0.14508524931E+02 -0.23186630451E+02 -0.89057857977E+02  0.93281880313E+02  0.47000000000E+01 0.  1.
         -5    1    5    5    0  503  0.75225955824E+02  0.54064251003E+02 -0.67951780107E+02  0.11498444280E+03  0.47000000000E+01 0.  1.
<mgrwt>
<rscale>  0 0.27476727E+03</rscale>
<asrwt>0</asrwt>
<pdfrwt beam="1">  1        1 0.73205561E-02 0.27476727E+03</pdfrwt>
<pdfrwt beam="2">  1       -1 0.61023797E-01 0.27476727E+03</pdfrwt>
<totfact> 0.27536192E+03</totfact>
</mgrwt>
</event>
<event>
 9    1  0.2024718E-002  0.2744557E+03  0.7818608E-02  0.1098756E+00
          1   -1    0    0  501    0  0.00000000000E+00  0.00000000000E+00  0.28126881071E+03  0.28126881071E+03  0.00000000000E+00 0.  1.
         -1   -1    0    0    0  501 -0.00000000000E+00 -0.00000000000E+00 -0.66951904530E+02  0.66951904530E+02  0.00000000000E+00 0.  1.
         36    2    1    2    0    0  0.00000000000E+00  0.00000000000E+00  0.21431690618E+03  0.34822071524E+03  0.27445569815E+03 0.  0.
         25    2    3    3    0    0  0.55917339148E+02 -0.12921546633E+01  0.10627863349E+03  0.17518427587E+03  0.12753808879E+03 0.  0.
         25    2    3    3    0    0 -0.55917339148E+02  0.12921546633E+01  0.10803827269E+03  0.17303643937E+03  0.12304845592E+03 0.  0.
          5    1    4    4  502    0 -0.58075718822E+01 -0.14319163144E+02  0.11060410669E+03  0.11177712083E+03  0.47000000000E+01 0. -1.
         -5    1    4    4    0  502  0.61724911030E+02  0.13027008480E+02 -0.43254731993E+01  0.63407155038E+02  0.47000000000E+01 0. -1.
          5    1    5    5  503    0  0.92241730948E+01 -0.28372226086E+02  0.95570293159E+02  0.10022893553E+03  0.47000000000E+01 0.  1.
         -5    1    5    5    0  503 -0.65141512243E+02  0.29664380750E+02  0.12467979531E+02  0.72807503845E+02  0.47000000000E+01 0.  1.
<mgrwt>
<rscale>  0 0.27445570E+03</rscale>
<asrwt>0</asrwt>
<pdfrwt beam="1">  1        1 0.43272124E-01 0.27445570E+03</pdfrwt>
<pdfrwt beam="2">  1       -1 0.10300293E-01 0.27445570E+03</pdfrwt>
<totfact> 0.54974788E+03</totfact>
</mgrwt>
</event>
<event>
 9    1  0.2024718E-002  0.2756789E+03  0.7818608E-02  0.1098073E+00
          1   -1    0    0  501    0  0.00000000000E+00  0.00000000000E+00  0.82119593781E+03  0.82119593781E+03  0.00000000000E+00 0. -1.
         -1   -1    0    0    0  501 -0.00000000000E+00 -0.00000000000E+00 -0.23136643866E+02  0.23136643866E+02  0.00000000000E+00 0. -1.
         36    2    1    2    0    0  0.00000000000E+00  0.00000000000E+00  0.79805929395E+03  0.84433258168E+03  0.27567892888E+03 0.  0.
         25    2    3    3    0    0  0.31541663794E+00  0.18946848986E+02  0.24183252660E+03  0.27390850105E+03  0.12721561796E+03 0.  0.
         25    2    3    3    0    0 -0.31541663794E+00 -0.18946848986E+02  0.55622676735E+03  0.57042408063E+03  0.12504532167E+03 0.  0.
          5    1    4    4  502    0 -0.22206794370E+02 -0.14694758911E+02  0.22983864071E+03  0.23142378533E+03  0.47000000000E+01 0. -1.
         -5    1    4    4    0  502  0.22522211008E+02  0.33641607897E+02  0.11993885886E+02  0.42484715713E+02  0.47000000000E+01 0. -1.
          5    1    5    5  503    0  0.30552419991E+02 -0.20352455822E+02  0.52479181266E+03  0.52609524752E+03  0.47000000000E+01 0.  1.
         -5    1    5    5    0  503 -0.30867836629E+02  0.14056068364E+01  0.31434954692E+02  0.44328833113E+02  0.47000000000E+01 0.  1.
<mgrwt>
<rscale>  0 0.27567893E+03</rscale>
<asrwt>0</asrwt>
<pdfrwt beam="1">  1        1 0.12633781E+00 0.27567893E+03</pdfrwt>
<pdfrwt beam="2">  1       -1 0.35594843E-02 0.27567893E+03</pdfrwt>
<totfact> 0.64625432E+03</totfact>
</mgrwt>
</event>
<event>
 9    1  0.2024718E-002  0.2748768E+03  0.7818608E-02  0.1098520E+00
         -2   -1    0    0    0  501 -0.00000000000E+00  0.00000000000E+00  0.10486616153E+02  0.10486616153E+02  0.00000000000E+00 0. -1.
          2   -1    0    0  501    0  0.00000000000E+00 -0.00000000000E+00 -0.18012788694E+04  0.18012788694E+04  0.00000000000E+00 0. -1.
         36    2    1    2    0    0  0.00000000000E+00  0.00000000000E+00 -0.17907922532E+04  0.18117654856E+04  0.27487684578E+03 0.  0.
         25    2    3    3    0    0  0.37349154431E+02  0.52250487884E+02 -0.12010224162E+04  0.12054467094E+04  0.80757985626E+02 0.  0.
         25    2    3    3    0    0 -0.37349154431E+02 -0.52250487884E+02 -0.58976983708E+03  0.60631877615E+03  0.12517557576E+03 0.  0.
          5    1    4    4  502    0 -0.52628598645E+00  0.58555884908E+02 -0.90543712993E+03  0.90734092539E+03  0.47000000000E+01 0. -1.
         -5    1    4    4    0  502  0.37875440418E+02 -0.63053970239E+01 -0.29558528625E+03  0.29810578401E+03  0.47000000000E+01 0. -1.
          5    1    5    5  503    0 -0.38835687968E+01  0.41014777227E+02 -0.16851723502E+03  0.17354377706E+03  0.47000000000E+01 0. -1.
         -5    1    5    5    0  503 -0.33465585635E+02 -0.93265265111E+02 -0.42125260205E+03  0.43277499909E+03  0.47000000000E+01 0. -1.
<mgrwt>
<rscale>  0 0.27487685E+03</rscale>
<asrwt>0</asrwt>
<pdfrwt beam="1">  1        2 0.27711967E+00 0.27487685E+03</pdfrwt>
<pdfrwt beam="2">  1       -2 0.16133265E-02 0.27487685E+03</pdfrwt>
<totfact> 0.10019418E+04</totfact>
</mgrwt>
</event>
<event>
 9    1  0.2024718E-002  0.2754107E+03  0.7818608E-02  0.1098222E+00
         -1   -1    0    0    0  501 -0.00000000000E+00  0.00000000000E+00  0.19415809474E+02  0.19415809474E+02  0.00000000000E+00 0. -1.
          1   -1    0    0  501    0  0.00000000000E+00 -0.00000000000E+00 -0.97666595860E+03  0.97666595860E+03  0.00000000000E+00 0. -1.
         36    2    1    2    0    0  0.00000000000E+00  0.00000000000E+00 -0.95725014912E+03  0.99608176807E+03  0.27541067642E+03 0.  0.
         25    2    3    3    0    0 -0.23516436714E+02 -0.30838764154E+02 -0.28100815488E+03  0.30680090843E+03  0.11686386153E+03 0.  0.
         25    2    3    3    0    0  0.23516436714E+02  0.30838764154E+02 -0.67624199424E+03  0.68928085964E+03  0.12767465106E+03 0.  0.
          5    1    4    4  502    0 -0.34015133974E+02 -0.72001860963E+02 -0.19720959762E+03  0.21273225593E+03  0.47000000000E+01 0.  1.
         -5    1    4    4    0  502  0.10498697260E+02  0.41163096809E+02 -0.83798557262E+02  0.94068652495E+02  0.47000000000E+01 0.  1.
          5    1    5    5  503    0  0.29183499457E+02 -0.44772534456E+02 -0.20250653645E+03  0.20949282515E+03  0.47000000000E+01 0.  1.
         -5    1    5    5    0  503 -0.56670627432E+01  0.75611298610E+02 -0.47373545779E+03  0.47978803450E+03  0.47000000000E+01 0.  1.
<mgrwt>
<rscale>  0 0.27541068E+03</rscale>
<asrwt>0</asrwt>
<pdfrwt beam="1">  1        1 0.15025630E+00 0.27541068E+03</pdfrwt>
<pdfrwt beam="2">  1       -1 0.29870476E-02 0.27541068E+03</pdfrwt>
<totfact> 0.63178049E+03</totfact>
</mgrwt>
</event>
<event>
 9    1  0.2024718E-002  0.2744819E+03  0.7818608E-02  0.1098742E+00
         -1   -1    0    0    0  501 -0.00000000000E+00  0.00000000000E+00  0.75731286588E+03  0.75731286588E+03  0.00000000000E+00 0.  1.
          1   -1    0    0  501    0  0.00000000000E+00 -0.00000000000E+00 -0.24870925043E+02  0.24870925043E+02  0.00000000000E+00 0.  1.
         36    2    1    2    0    0  0.00000000000E+00  0.10658141036E-13  0.73244194084E+03  0.78218379092E+03  0.27448185019E+03 0.  0.
         25    2    3    3    0    0 -0.44136436203E+02  0.28738991333E+02  0.38207873074E+03  0.40619224294E+03  0.12741282166E+03 0.  0.
         25    2    3    3    0    0  0.44136436203E+02 -0.28738991333E+02  0.35036321010E+03  0.37599154798E+03  0.12586226812E+03 0.  0.
          5    1    4    4  502    0 -0.37704621060E+01  0.44410905095E+02  0.36281357286E+02  0.57662568121E+02  0.47000000000E+01 0.  1.
         -5    1    4    4    0  502 -0.40365974097E+02 -0.15671913763E+02  0.34579737345E+03  0.34852967482E+03  0.47000000000E+01 0.  1.
          5    1    5    5  503    0  0.25622885353E+02  0.40131903757E+02  0.23845676452E+03  0.24320941696E+03  0.47000000000E+01 0. -1.
         -5    1    5    5    0  503  0.18513550849E+02 -0.68870895090E+02  0.11190644558E+03  0.13278213102E+03  0.47000000000E+01 0. -1.
<mgrwt>
<rscale>  0 0.27448185E+03</rscale>
<asrwt>0</asrwt>
<pdfrwt beam="1">  1        1 0.38262967E-02 0.27448185E+03</pdfrwt>
<pdfrwt beam="2">  1       -1 0.11650965E+00 0.27448185E+03</pdfrwt>
<totfact> 0.17154536E+03</totfact>
</mgrwt>
</event>
<event>
 9    1  0.2024718E-002  0.2749154E+03  0.7818608E-02  0.1098499E+00
          2   -1    0    0  501    0  0.00000000000E+00  0.00000000000E+00  0.66902883481E+03  0.66902883481E+03  0.00000000000E+00 0.  1.
         -2   -1    0    0    0  501 -0.00000000000E+00 -0.00000000000E+00 -0.28241855686E+02  0.28241855686E+02  0.00000000000E+00 0.  1.
         36    2    1    2    0    0  0.35527136788E-14  0.00000000000E+00  0.64078697912E+03  0.69727069050E+03  0.27491537463E+03 0.  0.
         25    2    3    3    0    0  0.13209563402E+02  0.28704866705E+02  0.20254343308E+03  0.24073032417E+03  0.12620928949E+03 0.  0.
         25    2    3    3    0    0 -0.13209563402E+02 -0.28704866705E+02  0.43824354604E+03  0.45654036633E+03  0.12398886441E+03 0.  0.
          5    1    4    4  502    0 -0.15797597198E+02 -0.44277064138E+02  0.48211663497E+02  0.67501681335E+02  0.47000000000E+01 0.  1.
         -5    1    4    4    0  502  0.29007160600E+02  0.72981930843E+02  0.15433176958E+03  0.17322864283E+03  0.47000000000E+01 0.  1.
          5    1    5    5  503    0 -0.57449864478E+02  0.10389747737E+02  0.30721295316E+03  0.31274641865E+03  0.47000000000E+01 0.  1.
         -5    1    5    5    0  503  0.44240301077E+02 -0.39094614443E+02  0.13103059288E+03  0.14379394768E+03  0.47000000000E+01 0.  1.
<mgrwt>
<rscale>  0 0.27491537E+03</rscale>
<asrwt>0</asrwt>
<pdfrwt beam="1">  1        2 0.10292750E+00 0.27491537E+03</pdfrwt>
<pdfrwt beam="2">  1       -2 0.43449014E-02 0.27491537E+03</pdfrwt>
<totfact> 0.10700570E+04</totfact>
</mgrwt>
</event>
<event>
 9    1  0.2024718E-002  0.2743226E+03  0.7818608E-02  0.1098831E+00
          2   -1    0    0  501    0  0.00000000000E+00  0.00000000000E+00  0.20628443893E+04  0.20628443893E+04  0.00000000000E+00 0. -1.
         -2   -1    0    0    0  501 -0.00000000000E+00 -0.00000000000E+00 -0.91200417145E+01  0.91200417145E+01  0.00000000000E+00 0. -1.
         36    2    1    2    0    0  0.71054273576E-14  0.00000000000E+00  0.20537243476E+04  0.20719644310E+04  0.27432263400E+03 0.  0.
         25    2    3    3    0    0 -0.41826227388E+02 -0.72285131770E+02  0.11549610363E+04  0.11647303684E+04  0.12524880065E+03 0.  0.
         25    2    3    3    0    0  0.41826227388E+02  0.72285131770E+02  0.89876331130E+03  0.90723406266E+03  0.91233662277E+02 0.  0.
          5    1    4    4  502    0 -0.76127470041E+02 -0.71208567806E+01  0.61370868787E+03  0.61847113260E+03  0.47000000000E+01 0.  1.
         -5    1    4    4    0  502  0.34301242653E+02 -0.65164274990E+02  0.54125234843E+03  0.54625923577E+03  0.47000000000E+01 0.  1.
          5    1    5    5  503    0  0.40299285307E+02  0.16106165445E+02  0.14664115212E+03  0.15300051783E+03  0.47000000000E+01 0.  1.
         -5    1    5    5    0  503  0.15269420812E+01  0.56178966325E+02  0.75212215918E+03  0.75423354483E+03  0.47000000000E+01 0.  1.
<mgrwt>
<rscale>  0 0.27432263E+03</rscale>
<asrwt>0</asrwt>
<pdfrwt beam="1">  1        2 0.31736030E+00 0.27432263E+03</pdfrwt>
<pdfrwt beam="2">  1       -2 0.14030850E-02 0.27432263E+03</pdfrwt>
<totfact> 0.89553225E+03</totfact>
</mgrwt>
</event>
<event>
 9    1  0.2024718E-002  0.2745305E+03  0.7818608E-02  0.1098714E+00
          2   -1    0    0  501    0  0.00000000000E+00  0.00000000000E+00  0.13398145216E+04  0.13398145216E+04  0.00000000000E+00 0. -1.
         -2   -1    0    0    0  501 -0.00000000000E+00 -0.00000000000E+00 -0.14062950955E+02  0.14062950955E+02  0.00000000000E+00 0. -1.
         36    2    1    2    0    0 -0.71054273576E-14 -0.71054273576E-14  0.13257515706E+04  0.13538774725E+04  0.27453047850E+03 0.  0.
         25    2    3    3    0    0  0.29343486875E+02  0.27173337106E+02  0.47192428965E+03  0.48979259130E+03  0.12483916396E+03 0.  0.
         25    2    3    3    0    0 -0.29343486875E+02 -0.27173337106E+02  0.85382728098E+03  0.86408488124E+03  0.12657893100E+03 0.  0.
          5    1    4    4  502    0  0.45338394173E+02 -0.34064355218E+02  0.12824879761E+03  0.14030607389E+03  0.47000000000E+01 0.  1.
         -5    1    4    4    0  502 -0.15994907297E+02  0.61237692324E+02  0.34367549204E+03  0.34948651741E+03  0.47000000000E+01 0.  1.
          5    1    5    5  503    0 -0.82767135176E+01  0.33730982097E+02  0.77306531309E+02  0.84880344738E+02  0.47000000000E+01 0.  1.
         -5    1    5    5    0  503 -0.21066773357E+02 -0.60904319203E+02  0.77652074967E+03  0.77920453650E+03  0.47000000000E+01 0.  1.
<mgrwt>
<rscale>  0 0.27453048E+03</rscale>
<asrwt>0</asrwt>
<pdfrwt beam="1">  1        2 0.20612521E+00 0.27453048E+03</pdfrwt>
<pdfrwt beam="2">  1       -2 0.21635320E-02 0.27453048E+03</pdfrwt>
<totfact> 0.11472394E+04</totfact>
</mgrwt>
</event>
<event>
 9    1  0.2024718E-002  0.2752487E+03  0.7818608E-02  0.1098313E+00
          2   -1    0    0  501    0  0.00000000000E+00  0.00000000000E+00  0.89626042473E+03  0.89626042473E+03  0.00000000000E+00 0.  1.
         -2   -1    0    0    0  501 -0.00000000000E+00 -0.00000000000E+00 -0.21132769834E+02  0.21132769834E+02  0.00000000000E+00 0.  1.
         36    2    1    2    0    0  0.00000000000E+00  0.00000000000E+00  0.87512765490E+03  0.91739319456E+03  0.27524872583E+03 0.  0.
         25    2    3    3    0    0 -0.16336012632E+02 -0.36181046489E+02  0.37660833617E+03  0.40156040024E+03  0.13357014163E+03 0.  0.
         25    2    3    3    0    0  0.16336012632E+02  0.36181046489E+02  0.49851931872E+03  0.51583279432E+03  0.12643586170E+03 0.  0.
          5    1    4    4  502    0  0.21709743190E+02  0.11574103098E+02  0.57745007655E+01  0.25704234495E+02  0.47000000000E+01 0. -1.
         -5    1    4    4    0  502 -0.38045755822E+02 -0.47755149587E+02  0.37083383541E+03  0.37585616575E+03  0.47000000000E+01 0. -1.
          5    1    5    5  503    0 -0.48702758956E+02  0.16620414191E+02  0.11177189100E+03  0.12313911854E+03  0.47000000000E+01 0.  1.
         -5    1    5    5    0  503  0.65038771588E+02  0.19560632297E+02  0.38674742772E+03  0.39269367578E+03  0.47000000000E+01 0.  1.
<mgrwt>
<rscale>  0 0.27524873E+03</rscale>
<asrwt>0</asrwt>
<pdfrwt beam="1">  1        2 0.13788619E+00 0.27524873E+03</pdfrwt>
<pdfrwt beam="2">  1       -2 0.32511961E-02 0.27524873E+03</pdfrwt>
<totfact> 0.11438984E+04</totfact>
</mgrwt>
</event>
<event>
 9    1  0.2024718E-002  0.2754071E+03  0.7818608E-02  0.1098224E+00
          4   -1    0    0  501    0  0.00000000000E+00  0.00000000000E+00  0.98040880763E+02  0.98040880763E+02  0.00000000000E+00 0.  1.
         -4   -1    0    0    0  501 -0.00000000000E+00 -0.00000000000E+00 -0.19341189570E+03  0.19341189570E+03  0.00000000000E+00 0.  1.
         36    2    1    2    0    0  0.00000000000E+00 -0.35527136788E-14 -0.95371014936E+02  0.29145277646E+03  0.27540713574E+03 0.  0.
         25    2    3    3    0    0 -0.30547487496E+02 -0.10413140014E+02 -0.98781681237E+02  0.16344493437E+03  0.12615404689E+03 0.  0.
         25    2    3    3    0    0  0.30547487496E+02  0.10413140014E+02  0.34106663003E+01  0.12800784209E+03  0.12382565370E+03 0.  0.
          5    1    4    4  502    0  0.19415869847E+02  0.41267714297E+02 -0.63944768579E+01  0.46292327437E+02  0.47000000000E+01 0.  1.
         -5    1    4    4    0  502 -0.49963357343E+02 -0.51680854311E+02 -0.92387204379E+02  0.11715260694E+03  0.47000000000E+01 0.  1.
          5    1    5    5  503    0  0.45598749199E+02  0.41666368252E+02 -0.38858111046E+02  0.73125747626E+02  0.47000000000E+01 0.  1.
         -5    1    5    5    0  503 -0.15051261703E+02 -0.31253228237E+02  0.42268777346E+02  0.54882094461E+02  0.47000000000E+01 0.  1.
<mgrwt>
<rscale>  0 0.27540714E+03</rscale>
<asrwt>0</asrwt>
<pdfrwt beam="1">  1        4 0.15083212E-01 0.27540714E+03</pdfrwt>
<pdfrwt beam="2">  1       -4 0.29755676E-01 0.27540714E+03</pdfrwt>
<totfact> 0.75609905E+02</totfact>
</mgrwt>
</event>
<event>
 9    1  0.2024718E-002  0.2753447E+03  0.7818608E-02  0.1098259E+00
          1   -1    0    0  501    0  0.00000000000E+00  0.00000000000E+00  0.15184860356E+03  0.15184860356E+03  0.00000000000E+00 0. -1.
         -1   -1    0    0    0  501 -0.00000000000E+00 -0.00000000000E+00 -0.12481956336E+03  0.12481956336E+03  0.00000000000E+00 0. -1.
         36    2    1    2    0    0  0.00000000000E+00  0.00000000000E+00  0.27029040198E+02  0.27666816692E+03  0.27534470319E+03 0.  0.
         25    2    3    3    0    0  0.41058408681E+02  0.24951837335E+02 -0.19014633661E+02  0.13641333446E+03  0.12624838381E+03 0.  0.
         25    2    3    3    0    0 -0.41058408681E+02 -0.24951837335E+02  0.46043673858E+02  0.14025483246E+03  0.12346258954E+03 0.  0.
          5    1    4    4  502    0  0.47301688227E+02  0.55861893735E+02 -0.52481351194E+02  0.90190814964E+02  0.47000000000E+01 0.  1.
         -5    1    4    4    0  502 -0.62432795459E+01 -0.30910056400E+02  0.33466717533E+02  0.46222519496E+02  0.47000000000E+01 0.  1.
          5    1    5    5  503    0 -0.26131258053E+02 -0.65463466440E+01 -0.41355015618E+02  0.49578469305E+02  0.47000000000E+01 0. -1.
         -5    1    5    5    0  503 -0.14927150628E+02 -0.18405490691E+02  0.87398689476E+02  0.90676363158E+02  0.47000000000E+01 0. -1.
<mgrwt>
<rscale>  0 0.27534470E+03</rscale>
<asrwt>0</asrwt>
<pdfrwt beam="1">  1        1 0.23361324E-01 0.27534470E+03</pdfrwt>
<pdfrwt beam="2">  1       -1 0.19203010E-01 0.27534470E+03</pdfrwt>
<totfact> 0.44712231E+03</totfact>
</mgrwt>
</event>
<event>
 9    1  0.2024718E-002  0.2739155E+03  0.7818608E-02  0.1099059E+00
          1   -1    0    0  501    0  0.00000000000E+00  0.00000000000E+00  0.98064841871E+03  0.98064841871E+03  0.00000000000E+00 0. -1.
         -1   -1    0    0    0  501 -0.00000000000E+00 -0.00000000000E+00 -0.19127577745E+02  0.19127577745E+02  0.00000000000E+00 0. -1.
         36    2    1    2    0    0  0.35527136788E-14 -0.14210854715E-13  0.96152084097E+03  0.99977599646E+03  0.27391552617E+03 0.  0.
         25    2    3    3    0    0 -0.25742795114E+02  0.40719319236E+02  0.36730664891E+03  0.39047036775E+03  0.12341871535E+03 0.  0.
         25    2    3    3    0    0  0.25742795114E+02 -0.40719319236E+02  0.59421419205E+03  0.60930562870E+03  0.12586535930E+03 0.  0.
          5    1    4    4  502    0 -0.16652314489E+02  0.83730131537E+02  0.20190510063E+03  0.21926193050E+03  0.47000000000E+01 0.  1.
         -5    1    4    4    0  502 -0.90904806248E+01 -0.43010812302E+02  0.16540154828E+03  0.17120843725E+03  0.47000000000E+01 0.  1.
          5    1    5    5  503    0 -0.44557237554E+01  0.41690541833E+02  0.27476007008E+03  0.27798046849E+03  0.47000000000E+01 0.  1.
         -5    1    5    5    0  503  0.30198518869E+02 -0.82409861069E+02  0.31945412198E+03  0.33132516021E+03  0.47000000000E+01 0.  1.
<mgrwt>
<rscale>  0 0.27391553E+03</rscale>
<asrwt>0</asrwt>
<pdfrwt beam="1">  1        1 0.15086895E+00 0.27391553E+03</pdfrwt>
<pdfrwt beam="2">  1       -1 0.29427050E-02 0.27391553E+03</pdfrwt>
<totfact> 0.64133997E+03</totfact>
</mgrwt>
</event>
<event>
 9    1  0.2024718E-002  0.2750013E+03  0.7818608E-02  0.1098451E+00
          1   -1    0    0  501    0  0.00000000000E+00  0.00000000000E+00  0.37406199463E+03  0.37406199463E+03  0.00000000000E+00 0.  1.
         -1   -1    0    0    0  501 -0.00000000000E+00 -0.00000000000E+00 -0.50543566064E+02  0.50543566064E+02  0.00000000000E+00 0.  1.
         36    2    1    2    0    0  0.14210854715E-13  0.00000000000E+00  0.32351842857E+03  0.42460556070E+03  0.27500128827E+03 0.  0.
         25    2    3    3    0    0 -0.56791101717E+02 -0.89870926335E+01  0.13805002236E+03  0.19451243966E+03  0.12438361404E+03 0.  0.
         25    2    3    3    0    0  0.56791101717E+02  0.89870926335E+01  0.18546840621E+03  0.23009312104E+03  0.12344358054E+03 0.  0.
          5    1    4    4  502    0 -0.13278175984E+02 -0.63019267200E+02  0.46614930930E+02  0.79641570687E+02  0.47000000000E+01 0.  1.
         -5    1    4    4    0  502 -0.43512925734E+02  0.54032174567E+02  0.91435091425E+02  0.11487086897E+03  0.47000000000E+01 0.  1.
          5    1    5    5  503    0  0.74664143575E+02 -0.27893725107E+01  0.19292826897E+03  0.20694424830E+03  0.47000000000E+01 0. -1.
         -5    1    5    5    0  503 -0.17873041858E+02  0.11776465144E+02 -0.74598627617E+01  0.23148872737E+02  0.47000000000E+01 0. -1.
<mgrwt>
<rscale>  0 0.27500129E+03</rscale>
<asrwt>0</asrwt>
<pdfrwt beam="1">  1        1 0.57547997E-01 0.27500129E+03</pdfrwt>
<pdfrwt beam="2">  1       -1 0.77759335E-02 0.27500129E+03</pdfrwt>
<totfact> 0.59070845E+03</totfact>
</mgrwt>
</event>
<event>
 9    1  0.2024718E-002  0.2744168E+03  0.7818608E-02  0.1098778E+00
         -2   -1    0    0    0  501 -0.00000000000E+00  0.00000000000E+00  0.75788479448E+02  0.75788479448E+02  0.00000000000E+00 0.  1.
          2   -1    0    0  501    0  0.00000000000E+00 -0.00000000000E+00 -0.24840386939E+03  0.24840386939E+03  0.00000000000E+00 0.  1.
         36    2    1    2    0    0 -0.71054273576E-14 -0.35527136788E-14 -0.17261538994E+03  0.32419234884E+03  0.27441684752E+03 0.  0.
         25    2    3    3    0    0 -0.41199438482E+02 -0.23399798025E+02 -0.40523252083E+02  0.13683431083E+03  0.12180537912E+03 0.  0.
         25    2    3    3    0    0  0.41199438482E+02  0.23399798025E+02 -0.13209213786E+03  0.18735803801E+03  0.12413604329E+03 0.  0.
          5    1    4    4  502    0 -0.41755538271E+02 -0.64788350773E+02 -0.52631906953E+02  0.93451928828E+02  0.47000000000E+01 0. -1.
         -5    1    4    4    0  502  0.55609978873E+00  0.41388552748E+02  0.12108654870E+02  0.43382382004E+02  0.47000000000E+01 0. -1.
          5    1    5    5  503    0  0.13839343002E+02 -0.14528994578E+02  0.19666930897E+02  0.28486791134E+02  0.47000000000E+01 0. -1.
         -5    1    5    5    0  503  0.27360095480E+02  0.37928792603E+02 -0.15175906876E+03  0.15887124687E+03  0.47000000000E+01 0. -1.
<mgrwt>
<rscale>  0 0.27441685E+03</rscale>
<asrwt>0</asrwt>
<pdfrwt beam="1">  1        2 0.38215979E-01 0.27441685E+03</pdfrwt>
<pdfrwt beam="2">  1       -2 0.11659766E-01 0.27441685E+03</pdfrwt>
<totfact> 0.69040594E+03</totfact>
</mgrwt>
</event>
<event>
 9    1  0.2024718E-002  0.2758939E+03  0.7818608E-02  0.1097953E+00
          2   -1    0    0  501    0  0.00000000000E+00  0.00000000000E+00  0.23542223823E+03  0.23542223823E+03  0.00000000000E+00 0.  1.
         -2   -1    0    0    0  501 -0.00000000000E+00 -0.00000000000E+00 -0.80830796357E+02  0.80830796357E+02  0.00000000000E+00 0.  1.
         36    2    1    2    0    0  0.35527136788E-14 -0.35527136788E-14  0.15459144187E+03  0.31625303459E+03  0.27589394337E+03 0.  0.
         25    2    3    3    0    0  0.33831070516E+01 -0.25962921152E+00  0.87562191124E+02  0.15181397213E+03  0.12397109340E+03 0.  0.
         25    2    3    3    0    0 -0.33831070516E+01  0.25962921152E+00  0.67029250749E+02  0.16443906245E+03  0.15011919259E+03 0.  0.
          5    1    4    4  502    0  0.40302978449E+02  0.28641844180E+02  0.91931480526E+02  0.10449005896E+03  0.47000000000E+01 0.  1.
         -5    1    4    4    0  502 -0.36919871397E+02 -0.28901473392E+02 -0.43692894016E+01  0.47323913174E+02  0.47000000000E+01 0.  1.
          5    1    5    5  503    0  0.26358511632E+02  0.69542032924E+02  0.30336826088E+02  0.80456687079E+02  0.47000000000E+01 0.  1.
         -5    1    5    5    0  503 -0.29741618684E+02 -0.69282403712E+02  0.36692424661E+02  0.83982375375E+02  0.47000000000E+01 0.  1.
<mgrwt>
<rscale>  0 0.27589394E+03</rscale>
<asrwt>0</asrwt>
<pdfrwt beam="1">  1        2 0.36218806E-01 0.27589394E+03</pdfrwt>
<pdfrwt beam="2">  1       -2 0.12435507E-01 0.27589394E+03</pdfrwt>
<totfact> 0.65953782E+03</totfact>
</mgrwt>
</event>
<event>
 9    1  0.2024718E-002  0.2754066E+03  0.7818608E-02  0.1098225E+00
          1   -1    0    0  501    0  0.00000000000E+00  0.00000000000E+00  0.10131684790E+04  0.10131684790E+04  0.00000000000E+00 0. -1.
         -1   -1    0    0    0  501 -0.00000000000E+00 -0.00000000000E+00 -0.18715742138E+02  0.18715742138E+02  0.00000000000E+00 0. -1.
         36    2    1    2    0    0  0.00000000000E+00 -0.71054273576E-14  0.99445273682E+03  0.10318842211E+04  0.27540660845E+03 0.  0.
         25    2    3    3    0    0  0.47737715429E+02  0.17706825670E+02  0.61248617610E+03  0.62698438464E+03  0.12400678013E+03 0.  0.
         25    2    3    3    0    0 -0.47737715429E+02 -0.17706825670E+02  0.38196656072E+03  0.40489983646E+03  0.12431010781E+03 0.  0.
          5    1    4    4  502    0  0.34206299381E+02  0.66847245695E+02  0.46062112146E+03  0.46672532898E+03  0.47000000000E+01 0.  1.
         -5    1    4    4    0  502  0.13531416048E+02 -0.49140420025E+02  0.15186505464E+03  0.16025905566E+03  0.47000000000E+01 0.  1.
          5    1    5    5  503    0 -0.34923398688E+02 -0.70945797831E+02  0.21579070650E+03  0.22987098342E+03  0.47000000000E+01 0. -1.
         -5    1    5    5    0  503 -0.12814316740E+02  0.53238972161E+02  0.16617585422E+03  0.17502885304E+03  0.47000000000E+01 0. -1.
<mgrwt>
<rscale>  0 0.27540661E+03</rscale>
<asrwt>0</asrwt>
<pdfrwt beam="1">  1        1 0.15587203E+00 0.27540661E+03</pdfrwt>
<pdfrwt beam="2">  1       -1 0.28793457E-02 0.27540661E+03</pdfrwt>
<totfact> 0.62617926E+03</totfact>
</mgrwt>
</event>
<event>
 9    1  0.2024718E-002  0.2748967E+03  0.7818608E-02  0.1098509E+00
         -1   -1    0    0    0  501 -0.00000000000E+00  0.00000000000E+00  0.11530444630E+03  0.11530444630E+03  0.00000000000E+00 0. -1.
          1   -1    0    0  501    0  0.00000000000E+00 -0.00000000000E+00 -0.16384488099E+03  0.16384488099E+03  0.00000000000E+00 0. -1.
         36    2    1    2    0    0  0.00000000000E+00  0.00000000000E+00 -0.48540434682E+02  0.27914932729E+03  0.27489665900E+03 0.  0.
         25    2    3    3    0    0  0.22730762120E+02 -0.52937115617E+02 -0.21479920397E+02  0.13913991677E+03  0.12481788214E+03 0.  0.
         25    2    3    3    0    0 -0.22730762120E+02  0.52937115617E+02 -0.27060514285E+02  0.14000941052E+03  0.12470500329E+03 0.  0.
          5    1    4    4  502    0 -0.73655100158E+01 -0.65155686544E+02 -0.59672377191E+02  0.88782863360E+02  0.47000000000E+01 0. -1.
         -5    1    4    4    0  502  0.30096272136E+02  0.12218570927E+02  0.38192456793E+02  0.50357053407E+02  0.47000000000E+01 0. -1.
          5    1    5    5  503    0  0.17631773342E+01  0.46833890906E+02 -0.73294110718E+02  0.87124272150E+02  0.47000000000E+01 0. -1.
         -5    1    5    5    0  503 -0.24493939454E+02  0.61032247107E+01  0.46233596433E+02  0.52885138375E+02  0.47000000000E+01 0. -1.
<mgrwt>
<rscale>  0 0.27489666E+03</rscale>
<asrwt>0</asrwt>
<pdfrwt beam="1">  1        1 0.25206905E-01 0.27489666E+03</pdfrwt>
<pdfrwt beam="2">  1       -1 0.17739146E-01 0.27489666E+03</pdfrwt>
<totfact> 0.46118980E+03</totfact>
</mgrwt>
</event>
<event>
 9    1  0.2024718E-002  0.2749414E+03  0.7818608E-02  0.1098484E+00
          2   -1    0    0  501    0  0.00000000000E+00  0.00000000000E+00  0.22083351583E+04  0.22083351583E+04  0.00000000000E+00 0.  1.
         -2   -1    0    0    0  501 -0.00000000000E+00 -0.00000000000E+00 -0.85576658600E+01  0.85576658600E+01  0.00000000000E+00 0.  1.
         36    2    1    2    0    0 -0.71054273576E-14  0.00000000000E+00  0.21997774924E+04  0.22168928242E+04  0.27494140752E+03 0.  0.
         25    2    3    3    0    0 -0.14450183191E+02 -0.13317062627E+02  0.14176265793E+04  0.14231358989E+04  0.12354965158E+03 0.  0.
         25    2    3    3    0    0  0.14450183191E+02  0.13317062627E+02  0.78215091311E+03  0.79375692525E+03  0.13380528220E+03 0.  0.
          5    1    4    4  502    0 -0.36722297342E+02  0.23821757333E+02  0.12187489022E+04  0.12195437589E+04  0.47000000000E+01 0. -1.
         -5    1    4    4    0  502  0.22272114151E+02 -0.37138819960E+02  0.19887767707E+03  0.20359213996E+03  0.47000000000E+01 0. -1.
          5    1    5    5  503    0  0.49054779567E+02  0.48621819842E+02  0.62801379501E+03  0.63181790849E+03  0.47000000000E+01 0. -1.
         -5    1    5    5    0  503 -0.34604596376E+02 -0.35304757215E+02  0.15413711810E+03  0.16193901676E+03  0.47000000000E+01 0. -1.
<mgrwt>
<rscale>  0 0.27494141E+03</rscale>
<asrwt>0</asrwt>
<pdfrwt beam="1">  1        2 0.33974342E+00 0.27494141E+03</pdfrwt>
<pdfrwt beam="2">  1       -2 0.13165657E-02 0.27494141E+03</pdfrwt>
<totfact> 0.82296576E+03</totfact>
</mgrwt>
</event>
<event>
 9    1  0.2024718E-002  0.2741620E+03  0.7818608E-02  0.1098921E+00
          1   -1    0    0  501    0  0.00000000000E+00  0.00000000000E+00  0.94952390205E+03  0.94952390205E+03  0.00000000000E+00 0. -1.
         -1   -1    0    0    0  501 -0.00000000000E+00 -0.00000000000E+00 -0.19790129200E+02  0.19790129200E+02  0.00000000000E+00 0. -1.
         36    2    1    2    0    0  0.71054273576E-14  0.00000000000E+00  0.92973377285E+03  0.96931403125E+03  0.27416200101E+03 0.  0.
         25    2    3    3    0    0  0.24321853217E+02 -0.45010416017E+02  0.54116302705E+03  0.55805939461E+03  0.12631459129E+03 0.  0.
         25    2    3    3    0    0 -0.24321853217E+02  0.45010416017E+02  0.38857074580E+03  0.41125463664E+03  0.12460201271E+03 0.  0.
          5    1    4    4  502    0 -0.15764794568E+02 -0.80727285128E+02  0.32784554023E+03  0.33803877227E+03  0.47000000000E+01 0.  1.
         -5    1    4    4    0  502  0.40086647785E+02  0.35716869110E+02  0.21331748682E+03  0.22002062234E+03  0.47000000000E+01 0.  1.
          5    1    5    5  503    0  0.37022854317E+02  0.60518565682E+02  0.19571761763E+03  0.20823223666E+03  0.47000000000E+01 0. -1.
         -5    1    5    5    0  503 -0.61344707534E+02 -0.15508149665E+02  0.19285312817E+03  0.20302239998E+03  0.47000000000E+01 0. -1.
<mgrwt>
<rscale>  0 0.27416200E+03</rscale>
<asrwt>0</asrwt>
<pdfrwt beam="1">  1        1 0.14608057E+00 0.27416200E+03</pdfrwt>
<pdfrwt beam="2">  1       -1 0.30446360E-02 0.27416200E+03</pdfrwt>
<totfact> 0.64408120E+03</totfact>
</mgrwt>
</event>
<event>
 9    1  0.2024718E-002  0.2768896E+03  0.7818608E-02  0.1097400E+00
          1   -1    0    0  501    0  0.00000000000E+00  0.00000000000E+00  0.85952745330E+03  0.85952745330E+03  0.00000000000E+00 0.  1.
         -1   -1    0    0    0  501 -0.00000000000E+00 -0.00000000000E+00 -0.22299421973E+02  0.22299421973E+02  0.00000000000E+00 0.  1.
         36    2    1    2    0    0  0.35527136788E-14  0.00000000000E+00  0.83722803133E+03  0.88182687528E+03  0.27688961973E+03 0.  0.
         25    2    3    3    0    0 -0.82000498709E+01  0.51167602386E+02  0.59553650048E+03  0.60587274078E+03  0.98654398116E+02 0.  0.
         25    2    3    3    0    0  0.82000498709E+01 -0.51167602386E+02  0.24169153085E+03  0.27595413449E+03  0.12268057673E+03 0.  0.
          5    1    4    4  502    0  0.21585793283E+02 -0.72550964654E+00  0.30551594489E+02  0.37708921513E+02  0.47000000000E+01 0.  1.
         -5    1    4    4    0  502 -0.29785843154E+02  0.51893112032E+02  0.56498490599E+03  0.56816381927E+03  0.47000000000E+01 0.  1.
          5    1    5    5  503    0 -0.33175239813E+02 -0.17900275828E+02  0.11526223606E+02  0.39698365735E+02  0.47000000000E+01 0. -1.
         -5    1    5    5    0  503  0.41375289684E+02 -0.33267326558E+02  0.23016530724E+03  0.23625576876E+03  0.47000000000E+01 0. -1.
<mgrwt>
<rscale>  0 0.27688962E+03</rscale>
<asrwt>0</asrwt>
<pdfrwt beam="1">  1        1 0.13223497E+00 0.27688962E+03</pdfrwt>
<pdfrwt beam="2">  1       -1 0.34306810E-02 0.27688962E+03</pdfrwt>
<totfact> 0.63528160E+03</totfact>
</mgrwt>
</event>
<event>
 9    1  0.2024718E-002  0.2751860E+03  0.7818608E-02  0.1098348E+00
          2   -1    0    0  501    0  0.00000000000E+00  0.00000000000E+00  0.44980174933E+04  0.44980174933E+04  0.00000000000E+00 0.  1.
         -2   -1    0    0    0  501 -0.00000000000E+00 -0.00000000000E+00 -0.42089291855E+01  0.42089291855E+01  0.00000000000E+00 0.  1.
         36    2    1    2    0    0  0.00000000000E+00 -0.71054273576E-14  0.44938085641E+04  0.45022264225E+04  0.27518602511E+03 0.  0.
         25    2    3    3    0    0  0.93941108414E+01 -0.45208199167E+02  0.19713516434E+04  0.19762860616E+04  0.13170901542E+03 0.  0.
         25    2    3    3    0    0 -0.93941108414E+01  0.45208199167E+02  0.25224569207E+04  0.25259403609E+04  0.12431315018E+03 0.  0.
          5    1    4    4  502    0  0.59559108222E+02 -0.15578719664E+02  0.15078290172E+04  0.15090925813E+04  0.47000000000E+01 0. -1.
         -5    1    4    4    0  502 -0.50164997380E+02 -0.29629479503E+02  0.46352262624E+03  0.46719348032E+03  0.47000000000E+01 0. -1.
          5    1    5    5  503    0 -0.26653131261E+02 -0.28716907977E+02  0.36187681298E+03  0.36402193338E+03  0.47000000000E+01 0.  1.
         -5    1    5    5    0  503  0.17259020420E+02  0.73925107144E+02  0.21605801077E+04  0.21619184275E+04  0.47000000000E+01 0.  1.
<mgrwt>
<rscale>  0 0.27518603E+03</rscale>
<asrwt>0</asrwt>
<pdfrwt beam="1">  1        2 0.69199885E+00 0.27518603E+03</pdfrwt>
<pdfrwt beam="2">  1       -2 0.64753117E-03 0.27518603E+03</pdfrwt>
<totfact> 0.68236368E+02</totfact>
</mgrwt>
</event>
<event>
 9    1  0.2024718E-002  0.2783605E+03  0.7818608E-02  0.1096588E+00
         -2   -1    0    0    0  501 -0.00000000000E+00  0.00000000000E+00  0.61223976009E+02  0.61223976009E+02  0.00000000000E+00 0. -1.
          2   -1    0    0  501    0  0.00000000000E+00 -0.00000000000E+00 -0.31639792634E+03  0.31639792634E+03  0.00000000000E+00 0. -1.
         36    2    1    2    0    0  0.00000000000E+00  0.00000000000E+00 -0.25517395033E+03  0.37762190235E+03  0.27836047889E+03 0.  0.
         25    2    3    3    0    0  0.56711246596E+02  0.35436228415E+01 -0.15312745757E+03  0.20620252530E+03  0.12586794836E+03 0.  0.
         25    2    3    3    0    0 -0.56711246596E+02 -0.35436228415E+01 -0.10204649275E+03  0.17141937705E+03  0.12546869486E+03 0.  0.
          5    1    4    4  502    0  0.88214802833E+02  0.22081735718E+02 -0.14014388258E+03  0.16712825110E+03  0.47000000000E+01 0. -1.
         -5    1    4    4    0  502 -0.31503556237E+02 -0.18538112876E+02 -0.12983574996E+02  0.39074274200E+02  0.47000000000E+01 0. -1.
          5    1    5    5  503    0 -0.83765972621E+02 -0.30977977173E+02 -0.39413699748E+02  0.97733837368E+02  0.47000000000E+01 0. -1.
         -5    1    5    5    0  503  0.27054726026E+02  0.27434354332E+02 -0.62632793006E+02  0.73685539678E+02  0.47000000000E+01 0. -1.
<mgrwt>
<rscale>  0 0.27836048E+03</rscale>
<asrwt>0</asrwt>
<pdfrwt beam="1">  1        2 0.48676605E-01 0.27836048E+03</pdfrwt>
<pdfrwt beam="2">  1       -2 0.94190731E-02 0.27836048E+03</pdfrwt>
<totfact> 0.74835874E+03</totfact>
</mgrwt>
</event>
<event>
 9    1  0.2024718E-002  0.2744555E+03  0.7818608E-02  0.1098756E+00
         -3   -1    0    0    0  501 -0.00000000000E+00  0.00000000000E+00  0.53436311386E+02  0.53436311386E+02  0.00000000000E+00 0.  1.
          3   -1    0    0  501    0  0.00000000000E+00 -0.00000000000E+00 -0.35240941710E+03  0.35240941710E+03  0.00000000000E+00 0.  1.
         36    2    1    2    0    0  0.00000000000E+00  0.71054273576E-14 -0.29897310571E+03  0.40584572848E+03  0.27445552898E+03 0.  0.
         25    2    3    3    0    0  0.19809024411E+02 -0.56662440303E+01 -0.22260634405E+03  0.25590244575E+03  0.12453101445E+03 0.  0.
         25    2    3    3    0    0 -0.19809024411E+02  0.56662440303E+01 -0.76366761659E+02  0.14994328273E+03  0.12738368020E+03 0.  0.
          5    1    4    4  502    0  0.46318377641E+02 -0.43177590101E+02 -0.61828597804E+02  0.88625966289E+02  0.47000000000E+01 0. -1.
         -5    1    4    4    0  502 -0.26509353230E+02  0.37511346071E+02 -0.16077774625E+03  0.16727647946E+03  0.47000000000E+01 0. -1.
          5    1    5    5  503    0  0.23377622142E+02 -0.51558547409E+02 -0.39511917198E+02  0.69195943729E+02  0.47000000000E+01 0. -1.
         -5    1    5    5    0  503 -0.43186646553E+02  0.57224791439E+02 -0.36854844461E+02  0.80747339003E+02  0.47000000000E+01 0. -1.
<mgrwt>
<rscale>  0 0.27445553E+03</rscale>
<asrwt>0</asrwt>
<pdfrwt beam="1">  1        3 0.54216834E-01 0.27445553E+03</pdfrwt>
<pdfrwt beam="2">  1       -3 0.82209709E-02 0.27445553E+03</pdfrwt>
<totfact> 0.87962781E+02</totfact>
</mgrwt>
</event>
<event>
 9    1  0.2024718E-002  0.2745649E+03  0.7818608E-02  0.1098695E+00
          1   -1    0    0  501    0  0.00000000000E+00  0.00000000000E+00  0.34489227209E+03  0.34489227209E+03  0.00000000000E+00 0.  1.
         -1   -1    0    0    0  501 -0.00000000000E+00 -0.00000000000E+00 -0.54644518267E+02  0.54644518267E+02  0.00000000000E+00 0.  1.
         36    2    1    2    0    0  0.00000000000E+00  0.00000000000E+00  0.29024775382E+03  0.39953679036E+03  0.27456490717E+03 0.  0.
         25    2    3    3    0    0 -0.51797968510E+02  0.20161195594E+02  0.17244241834E+03  0.22063100702E+03  0.12590532264E+03 0.  0.
         25    2    3    3    0    0  0.51797968510E+02 -0.20161195594E+02  0.11780533548E+03  0.17890578333E+03  0.12263636855E+03 0.  0.
          5    1    4    4  502    0  0.35049596339E+02 -0.15983054990E+02  0.78685355954E+02  0.87734870444E+02  0.47000000000E+01 0.  1.
         -5    1    4    4    0  502 -0.86847564850E+02  0.36144250584E+02  0.93757062385E+02  0.13289613658E+03  0.47000000000E+01 0.  1.
          5    1    5    5  503    0 -0.37425521974E+02 -0.12778400229E+02  0.15139566011E+02  0.42605793813E+02  0.47000000000E+01 0. -1.
         -5    1    5    5    0  503  0.89223490484E+02 -0.73827953649E+01  0.10266576947E+03  0.13629998952E+03  0.47000000000E+01 0. -1.
<mgrwt>
<rscale>  0 0.27456491E+03</rscale>
<asrwt>0</asrwt>
<pdfrwt beam="1">  1        1 0.53060348E-01 0.27456491E+03</pdfrwt>
<pdfrwt beam="2">  1       -1 0.84068492E-02 0.27456491E+03</pdfrwt>
<totfact> 0.58127185E+03</totfact>
</mgrwt>
</event>
<event>
 9    1  0.2024718E-002  0.2724591E+03  0.7818608E-02  0.1099880E+00
          2   -1    0    0  501    0  0.00000000000E+00  0.00000000000E+00  0.84737115677E+03  0.84737115677E+03  0.00000000000E+00 0. -1.
         -2   -1    0    0    0  501 -0.00000000000E+00 -0.00000000000E+00 -0.21901251055E+02  0.21901251055E+02  0.00000000000E+00 0. -1.
         36    2    1    2    0    0  0.00000000000E+00  0.00000000000E+00  0.82546990571E+03  0.86927240782E+03  0.27245908640E+03 0.  0.
         25    2    3    3    0    0  0.17641206298E+02 -0.25128756636E+02  0.26996051428E+03  0.29798329901E+03  0.12236298723E+03 0.  0.
         25    2    3    3    0    0 -0.17641206298E+02  0.25128756636E+02  0.55550939143E+03  0.57128910882E+03  0.12976091598E+03 0.  0.
          5    1    4    4  502    0 -0.16129960568E+02  0.54298955676E+01 -0.56941551504E+01  0.18551894692E+02  0.47000000000E+01 0.  1.
         -5    1    4    4    0  502  0.33771166866E+02 -0.30558652204E+02  0.27565466943E+03  0.27943140431E+03  0.47000000000E+01 0.  1.
          5    1    5    5  503    0  0.31393575512E+02  0.60784324162E+02  0.22446687185E+03  0.23470781240E+03  0.47000000000E+01 0.  1.
         -5    1    5    5    0  503 -0.49034781810E+02 -0.35655567526E+02  0.33104251958E+03  0.33658129641E+03  0.47000000000E+01 0.  1.
<mgrwt>
<rscale>  0 0.27245909E+03</rscale>
<asrwt>0</asrwt>
<pdfrwt beam="1">  1        2 0.13036477E+00 0.27245909E+03</pdfrwt>
<pdfrwt beam="2">  1       -2 0.33694239E-02 0.27245909E+03</pdfrwt>
<totfact> 0.11673754E+04</totfact>
</mgrwt>
</event>
<event>
 9    1  0.2024718E-002  0.2738294E+03  0.7818608E-02  0.1099108E+00
         -1   -1    0    0    0  501 -0.00000000000E+00  0.00000000000E+00  0.13651456405E+03  0.13651456405E+03  0.00000000000E+00 0.  1.
          1   -1    0    0  501    0  0.00000000000E+00 -0.00000000000E+00 -0.13731595968E+03  0.13731595968E+03  0.00000000000E+00 0.  1.
         36    2    1    2    0    0 -0.22204460493E-15  0.00000000000E+00 -0.80139562185E+00  0.27383052373E+03  0.27382935104E+03 0.  0.
         25    2    3    3    0    0  0.72460586645E+00  0.40154361468E+02 -0.38755461807E+02  0.13684685142E+03  0.12494869797E+03 0.  0.
         25    2    3    3    0    0 -0.72460586645E+00 -0.40154361468E+02  0.37954066185E+02  0.13698367231E+03  0.12534399683E+03 0.  0.
          5    1    4    4  502    0 -0.20288930867E+01 -0.40932903916E+02  0.94981190832E+01  0.42331114989E+02  0.47000000000E+01 0.  1.
         -5    1    4    4    0  502  0.27534989531E+01  0.81087265384E+02 -0.48253580890E+02  0.94515736429E+02  0.47000000000E+01 0.  1.
          5    1    5    5  503    0 -0.70448917536E+00 -0.69156259380E+02 -0.19880863342E+02  0.72113960116E+02  0.47000000000E+01 0. -1.
         -5    1    5    5    0  503 -0.20116691082E-01  0.29001897912E+02  0.57834929527E+02  0.64869712197E+02  0.47000000000E+01 0. -1.
<mgrwt>
<rscale>  0 0.27382935E+03</rscale>
<asrwt>0</asrwt>
<pdfrwt beam="1">  1        1 0.21125532E-01 0.27382935E+03</pdfrwt>
<pdfrwt beam="2">  1       -1 0.21002241E-01 0.27382935E+03</pdfrwt>
<totfact> 0.43958866E+03</totfact>
</mgrwt>
</event>
<event>
 9    1  0.2024718E-002  0.2746324E+03  0.7818608E-02  0.1098657E+00
         -1   -1    0    0    0  501 -0.00000000000E+00  0.00000000000E+00  0.15683068712E+02  0.15683068712E+02  0.00000000000E+00 0. -1.
          1   -1    0    0  501    0  0.00000000000E+00 -0.00000000000E+00 -0.12022987090E+04  0.12022987090E+04  0.00000000000E+00 0. -1.
         36    2    1    2    0    0  0.71054273576E-14  0.00000000000E+00 -0.11866156403E+04  0.12179817778E+04  0.27463235983E+03 0.  0.
         25    2    3    3    0    0 -0.37443809479E+02 -0.24271090590E+02 -0.51646425646E+03  0.53336088954E+03  0.12548858749E+03 0.  0.
         25    2    3    3    0    0  0.37443809479E+02  0.24271090590E+02 -0.67015138387E+03  0.68462088821E+03  0.13270930096E+03 0.  0.
          5    1    4    4  502    0 -0.80055806641E+02 -0.19104079046E+01 -0.25027809577E+03  0.26281894349E+03  0.47000000000E+01 0. -1.
         -5    1    4    4    0  502  0.42611997162E+02 -0.22360682685E+02 -0.26618616069E+03  0.27054194606E+03  0.47000000000E+01 0. -1.
          5    1    5    5  503    0 -0.21427790312E+02  0.20663410870E+02 -0.54866106699E+03  0.54948811013E+03  0.47000000000E+01 0.  1.
         -5    1    5    5    0  503  0.58871599791E+02  0.36076797197E+01 -0.12149031688E+03  0.13513277808E+03  0.47000000000E+01 0.  1.
<mgrwt>
<rscale>  0 0.27463236E+03</rscale>
<asrwt>0</asrwt>
<pdfrwt beam="1">  1        1 0.18496903E+00 0.27463236E+03</pdfrwt>
<pdfrwt beam="2">  1       -1 0.24127799E-02 0.27463236E+03</pdfrwt>
<totfact> 0.59352563E+03</totfact>
</mgrwt>
</event>
<event>
 9    1  0.2024718E-002  0.2758345E+03  0.7818608E-02  0.1097986E+00
         -1   -1    0    0    0  501 -0.00000000000E+00  0.00000000000E+00  0.38068657089E+02  0.38068657089E+02  0.00000000000E+00 0. -1.
          1   -1    0    0  501    0  0.00000000000E+00 -0.00000000000E+00 -0.49965434125E+03  0.49965434125E+03  0.00000000000E+00 0. -1.
         36    2    1    2    0    0 -0.35527136788E-14  0.00000000000E+00 -0.46158568417E+03  0.53772299834E+03  0.27583451401E+03 0.  0.
         25    2    3    3    0    0 -0.14699927558E+02  0.53889663058E+02 -0.16310116407E+03  0.21283732552E+03  0.12481007074E+03 0.  0.
         25    2    3    3    0    0  0.14699927558E+02 -0.53889663058E+02 -0.29848452010E+03  0.32488567282E+03  0.11548812932E+03 0.  0.
          5    1    4    4  502    0 -0.25560444329E+02 -0.34497526627E+02 -0.29861887204E+02  0.52509408348E+02  0.47000000000E+01 0.  1.
         -5    1    4    4    0  502  0.10860516771E+02  0.88387189685E+02 -0.13323927687E+03  0.16032791717E+03  0.47000000000E+01 0.  1.
          5    1    5    5  503    0 -0.48591664685E+02 -0.19595945498E+02 -0.16462361485E+03  0.17282411731E+03  0.47000000000E+01 0.  1.
         -5    1    5    5    0  503  0.63291592243E+02 -0.34293717560E+02 -0.13386090525E+03  0.15206155552E+03  0.47000000000E+01 0.  1.
<mgrwt>
<rscale>  0 0.27583451E+03</rscale>
<asrwt>0</asrwt>
<pdfrwt beam="1">  1        1 0.76869892E-01 0.27583451E+03</pdfrwt>
<pdfrwt beam="2">  1       -1 0.58567170E-02 0.27583451E+03</pdfrwt>
<totfact> 0.62355670E+03</totfact>
</mgrwt>
</event>
<event>
 9    1  0.2024718E-002  0.2762396E+03  0.7818608E-02  0.1097761E+00
         -1   -1    0    0    0  501 -0.00000000000E+00  0.00000000000E+00  0.48820591485E+02  0.48820591485E+02  0.00000000000E+00 0.  1.
          1   -1    0    0  501    0  0.00000000000E+00 -0.00000000000E+00 -0.39075878855E+03  0.39075878855E+03  0.00000000000E+00 0.  1.
         36    2    1    2    0    0  0.00000000000E+00  0.14210854715E-13 -0.34193819707E+03  0.43957938004E+03  0.27623957128E+03 0.  0.
         25    2    3    3    0    0  0.19999781866E+02  0.48255443065E+02 -0.13743815207E+03  0.19309500596E+03  0.12517130911E+03 0.  0.
         25    2    3    3    0    0 -0.19999781866E+02 -0.48255443065E+02 -0.20450004500E+03  0.24648437407E+03  0.12730160721E+03 0.  0.
          5    1    4    4  502    0 -0.42208560652E+02  0.41668118381E+02 -0.25404512466E+02  0.64693693165E+02  0.47000000000E+01 0.  1.
         -5    1    4    4    0  502  0.62208342518E+02  0.65873246848E+01 -0.11203363960E+03  0.12840131280E+03  0.47000000000E+01 0.  1.
          5    1    5    5  503    0  0.20555699891E+02  0.36710534332E+02 -0.50203672680E+02  0.65671141909E+02  0.47000000000E+01 0. -1.
         -5    1    5    5    0  503 -0.40555481758E+02 -0.84965977398E+02 -0.15429637232E+03  0.18081323216E+03  0.47000000000E+01 0. -1.
<mgrwt>
<rscale>  0 0.27623957E+03</rscale>
<asrwt>0</asrwt>
<pdfrwt beam="1">  1        1 0.60116740E-01 0.27623957E+03</pdfrwt>
<pdfrwt beam="2">  1       -1 0.75108599E-02 0.27623957E+03</pdfrwt>
<totfact> 0.58908930E+03</totfact>
</mgrwt>
</event>
<event>
 9    1  0.2024718E-002  0.2749991E+03  0.7818608E-02  0.1098452E+00
          2   -1    0    0  501    0  0.00000000000E+00  0.00000000000E+00  0.47447026704E+03  0.47447026704E+03  0.00000000000E+00 0. -1.
         -2   -1    0    0    0  501 -0.00000000000E+00 -0.00000000000E+00 -0.39846802117E+02  0.39846802117E+02  0.00000000000E+00 0. -1.
         36    2    1    2    0    0  0.00000000000E+00  0.00000000000E+00  0.43462346492E+03  0.51431706916E+03  0.27499907521E+03 0.  0.
         25    2    3    3    0    0  0.37886003849E+02 -0.65382629348E+02  0.22843288808E+03  0.27157808581E+03  0.12594774642E+03 0.  0.
         25    2    3    3    0    0 -0.37886003849E+02  0.65382629348E+02  0.20619057684E+03  0.24273898334E+03  0.10342834500E+03 0.  0.
          5    1    4    4  502    0  0.23506542062E+01  0.19240875986E+02  0.14833412772E+03  0.14966910279E+03  0.47000000000E+01 0.  1.
         -5    1    4    4    0  502  0.35535349643E+02 -0.84623505334E+02  0.80098760360E+02  0.12190898302E+03  0.47000000000E+01 0.  1.
          5    1    5    5  503    0  0.17989799382E+02  0.45016525093E+02  0.31157728616E+02  0.57818807197E+02  0.47000000000E+01 0.  1.
         -5    1    5    5    0  503 -0.55875803230E+02  0.20366104255E+02  0.17503284822E+03  0.18492017615E+03  0.47000000000E+01 0.  1.
<mgrwt>
<rscale>  0 0.27499908E+03</rscale>
<asrwt>0</asrwt>
<pdfrwt beam="1">  1        2 0.72995422E-01 0.27499908E+03</pdfrwt>
<pdfrwt beam="2">  1       -2 0.61302776E-02 0.27499908E+03</pdfrwt>
<totfact> 0.93988545E+03</totfact>
</mgrwt>
</event>
<event>
 9    1  0.2024718E-002  0.2752962E+03  0.7818608E-02  0.1098286E+00
          2   -1    0    0  501    0  0.00000000000E+00  0.00000000000E+00  0.25517162353E+03  0.25517162353E+03  0.00000000000E+00 0. -1.
         -2   -1    0    0    0  501 -0.00000000000E+00 -0.00000000000E+00 -0.74251974550E+02  0.74251974550E+02  0.00000000000E+00 0. -1.
         36    2    1    2    0    0  0.00000000000E+00  0.00000000000E+00  0.18091964898E+03  0.32942359808E+03  0.27529618157E+03 0.  0.
         25    2    3    3    0    0  0.59707365451E+01  0.67292384019E+02  0.79628770903E+02  0.15545474849E+03  0.11515868631E+03 0.  0.
         25    2    3    3    0    0 -0.59707365451E+01 -0.67292384019E+02  0.10129087808E+03  0.17396884959E+03  0.12426344597E+03 0.  0.
          5    1    4    4  502    0  0.38048200000E+02 -0.72109587307E+01 -0.35576495041E+01  0.39171549868E+02  0.47000000000E+01 0. -1.
         -5    1    4    4    0  502 -0.32077463455E+02  0.74503342750E+02  0.83186420407E+02  0.11628319863E+03  0.47000000000E+01 0. -1.
          5    1    5    5  503    0  0.27316956129E+02 -0.91438019065E+02  0.89533900737E+02  0.13094096687E+03  0.47000000000E+01 0.  1.
         -5    1    5    5    0  503 -0.33287692675E+02  0.24145635046E+02  0.11756977343E+02  0.43027882723E+02  0.47000000000E+01 0.  1.
<mgrwt>
<rscale>  0 0.27529618E+03</rscale>
<asrwt>0</asrwt>
<pdfrwt beam="1">  1        2 0.39257172E-01 0.27529618E+03</pdfrwt>
<pdfrwt beam="2">  1       -2 0.11423381E-01 0.27529618E+03</pdfrwt>
<totfact> 0.69319314E+03</totfact>
</mgrwt>
</event>
<event>
 9    1  0.2024718E-002  0.2746498E+03  0.7818608E-02  0.1098648E+00
         -2   -1    0    0    0  501 -0.00000000000E+00  0.00000000000E+00  0.93606390970E+02  0.93606390970E+02  0.00000000000E+00 0. -1.
          2   -1    0    0  501    0  0.00000000000E+00 -0.00000000000E+00 -0.20146197288E+03  0.20146197288E+03  0.00000000000E+00 0. -1.
         36    2    1    2    0    0 -0.35527136788E-14 -0.71054273576E-14 -0.10785558191E+03  0.29506836385E+03  0.27464980028E+03 0.  0.
         25    2    3    3    0    0  0.29761632085E+02 -0.20827755028E+02 -0.28752694289E+02  0.14194213091E+03  0.13416892701E+03 0.  0.
         25    2    3    3    0    0 -0.29761632085E+02  0.20827755028E+02 -0.79102887620E+02  0.15312623294E+03  0.12597946761E+03 0.  0.
          5    1    4    4  502    0  0.33875207591E+02 -0.75901534785E+02 -0.12516857153E+02  0.84186307586E+02  0.47000000000E+01 0. -1.
         -5    1    4    4    0  502 -0.41135755059E+01  0.55073779757E+02 -0.16235837136E+02  0.57755823322E+02  0.47000000000E+01 0. -1.
          5    1    5    5  503    0  0.33882046561E+02 -0.31748242272E+02 -0.16819294380E+02  0.49607687206E+02  0.47000000000E+01 0. -1.
         -5    1    5    5    0  503 -0.63643678647E+02  0.52575997300E+02 -0.62283593240E+02  0.10351854573E+03  0.47000000000E+01 0. -1.
<mgrwt>
<rscale>  0 0.27464980E+03</rscale>
<asrwt>0</asrwt>
<pdfrwt beam="1">  1        2 0.30994149E-01 0.27464980E+03</pdfrwt>
<pdfrwt beam="2">  1       -2 0.14400983E-01 0.27464980E+03</pdfrwt>
<totfact> 0.61489518E+03</totfact>
</mgrwt>
</event>
<event>
 9    1  0.2024718E-002  0.2883726E+03  0.7818608E-02  0.1091202E+00
         -2   -1    0    0    0  501 -0.00000000000E+00  0.00000000000E+00  0.18586525236E+02  0.18586525236E+02  0.00000000000E+00 0. -1.
          2   -1    0    0  501    0  0.00000000000E+00 -0.00000000000E+00 -0.11185354651E+04  0.11185354651E+04  0.00000000000E+00 0. -1.
         36    2    1    2    0    0 -0.71054273576E-14 -0.35527136788E-14 -0.10999489398E+04  0.11371219903E+04  0.28837258988E+03 0.  0.
         25    2    3    3    0    0  0.22367987379E+02  0.31757581866E+02 -0.31376402352E+03  0.34135308443E+03  0.12870584654E+03 0.  0.
         25    2    3    3    0    0 -0.22367987379E+02 -0.31757581866E+02 -0.78618491633E+03  0.79576890588E+03  0.11684416135E+03 0.  0.
          5    1    4    4  502    0  0.47704974436E+02 -0.33837993524E+02 -0.19086944512E+03  0.19968477526E+03  0.47000000000E+01 0. -1.
         -5    1    4    4    0  502 -0.25336987058E+02  0.65595575390E+02 -0.12289457840E+03  0.14166830917E+03  0.47000000000E+01 0. -1.
          5    1    5    5  503    0  0.82950737266E+01 -0.56007083681E+02 -0.19068007891E+03  0.19896377601E+03  0.47000000000E+01 0. -1.
         -5    1    5    5    0  503 -0.30663061105E+02  0.24249501814E+02 -0.59550483742E+03  0.59680512987E+03  0.47000000000E+01 0. -1.
<mgrwt>
<rscale>  0 0.28837259E+03</rscale>
<asrwt>0</asrwt>
<pdfrwt beam="1">  1        2 0.17208236E+00 0.28837259E+03</pdfrwt>
<pdfrwt beam="2">  1       -2 0.28594657E-02 0.28837259E+03</pdfrwt>
<totfact> 0.10135963E+04</totfact>
</mgrwt>
</event>
<event>
 9    1  0.2024718E-002  0.2748832E+03  0.7818608E-02  0.1098517E+00
         -1   -1    0    0    0  501 -0.00000000000E+00  0.00000000000E+00  0.30937785739E+02  0.30937785739E+02  0.00000000000E+00 0.  1.
          1   -1    0    0  501    0  0.00000000000E+00 -0.00000000000E+00 -0.61058634130E+03  0.61058634130E+03  0.00000000000E+00 0.  1.
         36    2    1    2    0    0 -0.71054273576E-14  0.35527136788E-14 -0.57964855556E+03  0.64152412703E+03  0.27488317084E+03 0.  0.
         25    2    3    3    0    0  0.57193089404E+02 -0.17147075975E+02 -0.22905000719E+03  0.26461416579E+03  0.11828642886E+03 0.  0.
         25    2    3    3    0    0 -0.57193089404E+02  0.17147075975E+02 -0.35059854837E+03  0.37690996125E+03  0.12480667081E+03 0.  0.
          5    1    4    4  502    0 -0.19757597519E+02  0.20738885040E+02 -0.13136025961E+03  0.13452907424E+03  0.47000000000E+01 0.  1.
         -5    1    4    4    0  502  0.76950686923E+02 -0.37885961015E+02 -0.97689747576E+02  0.13008509154E+03  0.47000000000E+01 0.  1.
          5    1    5    5  503    0  0.18718328887E+02  0.27450025299E+02 -0.23596777431E+02  0.41021672691E+02  0.47000000000E+01 0.  1.
         -5    1    5    5    0  503 -0.75911418292E+02 -0.10302949325E+02 -0.32700177094E+03  0.33588828856E+03  0.47000000000E+01 0.  1.
<mgrwt>
<rscale>  0 0.27488317E+03</rscale>
<asrwt>0</asrwt>
<pdfrwt beam="1">  1        1 0.93936354E-01 0.27488317E+03</pdfrwt>
<pdfrwt beam="2">  1       -1 0.47596596E-02 0.27488317E+03</pdfrwt>
<totfact> 0.64808425E+03</totfact>
</mgrwt>
</event>
<event>
 9    1  0.2024718E-002  0.2755639E+03  0.7818608E-02  0.1098137E+00
          2   -1    0    0  501    0  0.00000000000E+00  0.00000000000E+00  0.12155591841E+03  0.12155591841E+03  0.00000000000E+00 0. -1.
         -2   -1    0    0    0  501 -0.00000000000E+00 -0.00000000000E+00 -0.15617388307E+03  0.15617388307E+03  0.00000000000E+00 0. -1.
         36    2    1    2    0    0  0.00000000000E+00  0.00000000000E+00 -0.34617964669E+02  0.27772980148E+03  0.27556385676E+03 0.  0.
         25    2    3    3    0    0 -0.12122400258E+02  0.61306060794E+02 -0.32241501184E+01  0.14017392857E+03  0.12543105449E+03 0.  0.
         25    2    3    3    0    0  0.12122400258E+02 -0.61306060794E+02 -0.31393814551E+02  0.13755587291E+03  0.11845109076E+03 0.  0.
          5    1    4    4  502    0  0.32411319993E+02  0.73092461010E+02  0.27406752857E+02  0.84653538746E+02  0.47000000000E+01 0. -1.
         -5    1    4    4    0  502 -0.44533720250E+02 -0.11786400216E+02 -0.30630902975E+02  0.55520389826E+02  0.47000000000E+01 0. -1.
          5    1    5    5  503    0 -0.26322697478E+02 -0.35433522904E+02  0.34947387167E+02  0.56496272600E+02  0.47000000000E+01 0. -1.
         -5    1    5    5    0  503  0.38445097735E+02 -0.25872537890E+02 -0.66341201717E+02  0.81059600308E+02  0.47000000000E+01 0. -1.
<mgrwt>
<rscale>  0 0.27556386E+03</rscale>
<asrwt>0</asrwt>
<pdfrwt beam="1">  1        2 0.18700910E-01 0.27556386E+03</pdfrwt>
<pdfrwt beam="2">  1       -2 0.24026751E-01 0.27556386E+03</pdfrwt>
<totfact> 0.45509785E+03</totfact>
</mgrwt>
</event>
<event>
 9    1  0.2024718E-002  0.2743392E+03  0.7818608E-02  0.1098822E+00
         -1   -1    0    0    0  501 -0.00000000000E+00  0.00000000000E+00  0.24404386531E+03  0.24404386531E+03  0.00000000000E+00 0.  1.
          1   -1    0    0  501    0  0.00000000000E+00 -0.00000000000E+00 -0.77098840186E+02  0.77098840186E+02  0.00000000000E+00 0.  1.
         36    2    1    2    0    0 -0.71054273576E-14  0.00000000000E+00  0.16694502513E+03  0.32114270550E+03  0.27433919858E+03 0.  0.
         25    2    3    3    0    0  0.38734483834E+02  0.19752760469E+02  0.68766074935E+02  0.15111096022E+03  0.12733898638E+03 0.  0.
         25    2    3    3    0    0 -0.38734483834E+02 -0.19752760469E+02  0.98178950190E+02  0.17003174528E+03  0.13183761360E+03 0.  0.
          5    1    4    4  502    0  0.73245194760E+02 -0.13478812330E+02  0.10227901955E+02  0.75320892956E+02  0.47000000000E+01 0.  1.
         -5    1    4    4    0  502 -0.34510710927E+02  0.33231572798E+02  0.58538172980E+02  0.75790067259E+02  0.47000000000E+01 0.  1.
          5    1    5    5  503    0 -0.76843057946E+02 -0.11428559481E+02  0.16739149741E+02  0.79610028642E+02  0.47000000000E+01 0. -1.
         -5    1    5    5    0  503  0.38108574112E+02 -0.83242009872E+01  0.81439800450E+02  0.90421716641E+02  0.47000000000E+01 0. -1.
<mgrwt>
<rscale>  0 0.27433920E+03</rscale>
<asrwt>0</asrwt>
<pdfrwt beam="1">  1        1 0.11861360E-01 0.27433920E+03</pdfrwt>
<pdfrwt beam="2">  1       -1 0.37545210E-01 0.27433920E+03</pdfrwt>
<totfact> 0.35048614E+03</totfact>
</mgrwt>
</event>
<event>
 9    1  0.2024718E-002  0.2759737E+03  0.7818608E-02  0.1097909E+00
         -2   -1    0    0    0  501 -0.00000000000E+00  0.00000000000E+00  0.68327599139E+01  0.68327599139E+01  0.00000000000E+00 0.  1.
          2   -1    0    0  501    0  0.00000000000E+00 -0.00000000000E+00 -0.27866288220E+04  0.27866288220E+04  0.00000000000E+00 0.  1.
         36    2    1    2    0    0  0.35527136788E-14  0.00000000000E+00 -0.27797960621E+04  0.27934615819E+04  0.27597366331E+03 0.  0.
         25    2    3    3    0    0 -0.48338114235E+01 -0.44878625877E+02 -0.99207705370E+03  0.10008042783E+04  0.12391475364E+03 0.  0.
         25    2    3    3    0    0  0.48338114235E+01  0.44878625877E+02 -0.17877190084E+04  0.17926573036E+04  0.12507397212E+03 0.  0.
          5    1    4    4  502    0  0.21711260757E+02 -0.46656828338E+02 -0.94585672976E+03  0.94726727047E+03  0.47000000000E+01 0. -1.
         -5    1    4    4    0  502 -0.26545072180E+02  0.17782024610E+01 -0.46220323948E+02  0.53537007826E+02  0.47000000000E+01 0. -1.
          5    1    5    5  503    0 -0.45602222179E+02 -0.12519864927E+02 -0.10262773919E+04  0.10273770899E+04  0.47000000000E+01 0. -1.
         -5    1    5    5    0  503  0.50436033603E+02  0.57398490805E+02 -0.76144161647E+03  0.76528021373E+03  0.47000000000E+01 0. -1.
<mgrwt>
<rscale>  0 0.27597366E+03</rscale>
<asrwt>0</asrwt>
<pdfrwt beam="1">  1        2 0.42871213E+00 0.27597366E+03</pdfrwt>
<pdfrwt beam="2">  1       -2 0.10511938E-02 0.27597366E+03</pdfrwt>
<totfact> 0.54977670E+03</totfact>
</mgrwt>
</event>
<event>
 9    1  0.2024718E-002  0.2745978E+03  0.7818608E-02  0.1098677E+00
         -2   -1    0    0    0  501 -0.00000000000E+00  0.00000000000E+00  0.17104014302E+02  0.17104014302E+02  0.00000000000E+00 0. -1.
          2   -1    0    0  501    0  0.00000000000E+00 -0.00000000000E+00 -0.11021386182E+04  0.11021386182E+04  0.00000000000E+00 0. -1.
         36    2    1    2    0    0 -0.14210854715E-13  0.00000000000E+00 -0.10850346039E+04  0.11192426325E+04  0.27459784915E+03 0.  0.
         25    2    3    3    0    0  0.61515068271E+02 -0.68480586819E+00 -0.44463224782E+03  0.46573459346E+03  0.12420266969E+03 0.  0.
         25    2    3    3    0    0 -0.61515068271E+02  0.68480586819E+00 -0.64040235612E+03  0.65350803908E+03  0.11477372018E+03 0.  0.
          5    1    4    4  502    0 -0.11380871544E+02  0.42305996766E+02 -0.24379121289E+03  0.24774092735E+03  0.47000000000E+01 0. -1.
         -5    1    4    4    0  502  0.72895939815E+02 -0.42990802635E+02 -0.20084103493E+03  0.21799366611E+03  0.47000000000E+01 0. -1.
          5    1    5    5  503    0 -0.63561014231E+02  0.41449366212E+01 -0.64345089748E+03  0.64661296808E+03  0.47000000000E+01 0.  1.
         -5    1    5    5    0  503  0.20459459599E+01 -0.34601307530E+01  0.30485413593E+01  0.68950710017E+01  0.47000000000E+01 0.  1.
<mgrwt>
<rscale>  0 0.27459785E+03</rscale>
<asrwt>0</asrwt>
<pdfrwt beam="1">  1        2 0.16955987E+00 0.27459785E+03</pdfrwt>
<pdfrwt beam="2">  1       -2 0.26313856E-02 0.27459785E+03</pdfrwt>
<totfact> 0.11708331E+04</totfact>
</mgrwt>
</event>
<event>
 9    1  0.2024718E-002  0.2728335E+03  0.7818608E-02  0.1099669E+00
          2   -1    0    0  501    0  0.00000000000E+00  0.00000000000E+00  0.10064140003E+04  0.10064140003E+04  0.00000000000E+00 0. -1.
         -2   -1    0    0    0  501 -0.00000000000E+00 -0.00000000000E+00 -0.18490923165E+02  0.18490923165E+02  0.00000000000E+00 0. -1.
         36    2    1    2    0    0  0.00000000000E+00 -0.53290705182E-14  0.98792307718E+03  0.10249049235E+04  0.27283345801E+03 0.  0.
         25    2    3    3    0    0  0.47553824706E+02  0.15081130959E+01  0.47534667190E+03  0.49525880541E+03  0.13062612756E+03 0.  0.
         25    2    3    3    0    0 -0.47553824706E+02 -0.15081130959E+01  0.51257640528E+03  0.52964611810E+03  0.12460657494E+03 0.  0.
          5    1    4    4  502    0  0.82146804256E+02  0.34775196408E+02  0.34151242927E+03  0.35300175790E+03  0.47000000000E+01 0. -1.
         -5    1    4    4    0  502 -0.34592979550E+02 -0.33267083312E+02  0.13383424263E+03  0.14225704751E+03  0.47000000000E+01 0. -1.
          5    1    5    5  503    0 -0.89168075877E+02 -0.10050770412E+02  0.31946572212E+03  0.33186202155E+03  0.47000000000E+01 0. -1.
         -5    1    5    5    0  503  0.41614251172E+02  0.85426573161E+01  0.19311068317E+03  0.19778409655E+03  0.47000000000E+01 0. -1.
<mgrwt>
<rscale>  0 0.27283346E+03</rscale>
<asrwt>0</asrwt>
<pdfrwt beam="1">  1        2 0.15483288E+00 0.27283346E+03</pdfrwt>
<pdfrwt beam="2">  1       -2 0.28447582E-02 0.27283346E+03</pdfrwt>
<totfact> 0.11896877E+04</totfact>
</mgrwt>
</event>
<event>
 9    1  0.2024718E-002  0.2749531E+03  0.7818608E-02  0.1098478E+00
         -3   -1    0    0    0  501 -0.00000000000E+00  0.00000000000E+00  0.40793371277E+02  0.40793371277E+02  0.00000000000E+00 0.  1.
          3   -1    0    0  501    0  0.00000000000E+00 -0.00000000000E+00 -0.46330581839E+03  0.46330581839E+03  0.00000000000E+00 0.  1.
         36    2    1    2    0    0 -0.71054273576E-14  0.00000000000E+00 -0.42251244712E+03  0.50409918967E+03  0.27495313247E+03 0.  0.
         25    2    3    3    0    0  0.31831098909E+02  0.51717270457E+02 -0.15843422450E+03  0.20465728104E+03  0.11443471620E+03 0.  0.
         25    2    3    3    0    0 -0.31831098909E+02 -0.51717270457E+02 -0.26407822262E+03  0.29944190863E+03  0.12743725538E+03 0.  0.
          5    1    4    4  502    0 -0.19434786306E+02 -0.14517873278E+02 -0.98514990520E+02  0.10156659353E+03  0.47000000000E+01 0. -1.
         -5    1    4    4    0  502  0.51265885216E+02  0.66235143735E+02 -0.59919233977E+02  0.10309068752E+03  0.47000000000E+01 0. -1.
          5    1    5    5  503    0 -0.39867227047E+02 -0.85533746381E+02 -0.12910769269E+03  0.15998844919E+03  0.47000000000E+01 0. -1.
         -5    1    5    5    0  503  0.80361281380E+01  0.33816475924E+02 -0.13497052993E+03  0.13945345944E+03  0.47000000000E+01 0. -1.
<mgrwt>
<rscale>  0 0.27495313E+03</rscale>
<asrwt>0</asrwt>
<pdfrwt beam="1">  1        3 0.71277819E-01 0.27495313E+03</pdfrwt>
<pdfrwt beam="2">  1       -3 0.62759032E-02 0.27495313E+03</pdfrwt>
<totfact> 0.77081830E+02</totfact>
</mgrwt>
</event>
<event>
 9    1  0.2024718E-002  0.2752155E+03  0.7818608E-02  0.1098331E+00
         -1   -1    0    0    0  501 -0.00000000000E+00  0.00000000000E+00  0.12598894836E+03  0.12598894836E+03  0.00000000000E+00 0. -1.
          1   -1    0    0  501    0  0.00000000000E+00 -0.00000000000E+00 -0.15029805283E+03  0.15029805283E+03  0.00000000000E+00 0. -1.
         36    2    1    2    0    0  0.71054273576E-14 -0.71054273576E-14 -0.24309104473E+02  0.27628700118E+03  0.27521550549E+03 0.  0.
         25    2    3    3    0    0 -0.59949623629E+02 -0.39340384210E+01 -0.77004549104E+00  0.13717900529E+03  0.12332093290E+03 0.  0.
         25    2    3    3    0    0  0.59949623629E+02  0.39340384210E+01 -0.23539058982E+02  0.13910799589E+03  0.12323762896E+03 0.  0.
          5    1    4    4  502    0 -0.55863645102E+02 -0.48067447596E+02 -0.34281245153E+02  0.81415724106E+02  0.47000000000E+01 0.  1.
         -5    1    4    4    0  502 -0.40859785269E+01  0.44133409175E+02  0.33511199662E+02  0.55763281187E+02  0.47000000000E+01 0.  1.
          5    1    5    5  503    0  0.45839671308E+02  0.60831765349E+02 -0.15735900109E+01  0.76330500631E+02  0.47000000000E+01 0.  1.
         -5    1    5    5    0  503  0.14109952321E+02 -0.56897726928E+02 -0.21965468971E+02  0.62777495261E+02  0.47000000000E+01 0.  1.
<mgrwt>
<rscale>  0 0.27521551E+03</rscale>
<asrwt>0</asrwt>
<pdfrwt beam="1">  1        1 0.23122777E-01 0.27521551E+03</pdfrwt>
<pdfrwt beam="2">  1       -1 0.19382915E-01 0.27521551E+03</pdfrwt>
<totfact> 0.44622373E+03</totfact>
</mgrwt>
</event>
<event>
 9    1  0.2024718E-002  0.2757946E+03  0.7818608E-02  0.1098008E+00
          1   -1    0    0  501    0  0.00000000000E+00  0.00000000000E+00  0.14666503012E+03  0.14666503012E+03  0.00000000000E+00 0. -1.
         -1   -1    0    0    0  501 -0.00000000000E+00 -0.00000000000E+00 -0.12965370226E+03  0.12965370226E+03  0.00000000000E+00 0. -1.
         36    2    1    2    0    0  0.14210854715E-13  0.00000000000E+00  0.17011327866E+02  0.27631873238E+03  0.27579459130E+03 0.  0.
         25    2    3    3    0    0 -0.33512031391E+02 -0.21082006699E+01  0.59472338625E+02  0.14070503105E+03  0.12301807161E+03 0.  0.
         25    2    3    3    0    0  0.33512031391E+02  0.21082006699E+01 -0.42461010759E+02  0.13561370134E+03  0.12434081308E+03 0.  0.
          5    1    4    4  502    0  0.10150835461E+02  0.52809995795E+02  0.10444181939E+02  0.54982779602E+02  0.47000000000E+01 0.  1.
         -5    1    4    4    0  502 -0.43662866852E+02 -0.54918196465E+02  0.49028156686E+02  0.85722251444E+02  0.47000000000E+01 0.  1.
          5    1    5    5  503    0  0.53478221423E+02 -0.36606605968E+02 -0.59979234036E+02  0.88428288927E+02  0.47000000000E+01 0. -1.
         -5    1    5    5    0  503 -0.19966190032E+02  0.38714806638E+02  0.17518223276E+02  0.47185412409E+02  0.47000000000E+01 0. -1.
<mgrwt>
<rscale>  0 0.27579459E+03</rscale>
<asrwt>0</asrwt>
<pdfrwt beam="1">  1        1 0.22563851E-01 0.27579459E+03</pdfrwt>
<pdfrwt beam="2">  1       -1 0.19946723E-01 0.27579459E+03</pdfrwt>
<totfact> 0.43949828E+03</totfact>
</mgrwt>
</event>
<event>
 9    1  0.2024718E-002  0.2760949E+03  0.7818608E-02  0.1097841E+00
          1   -1    0    0  501    0  0.00000000000E+00  0.00000000000E+00  0.12696895965E+02  0.12696895965E+02  0.00000000000E+00 0.  1.
         -1   -1    0    0    0  501 -0.00000000000E+00 -0.00000000000E+00 -0.15009258655E+04  0.15009258655E+04  0.00000000000E+00 0.  1.
         36    2    1    2    0    0  0.00000000000E+00  0.00000000000E+00 -0.14882289696E+04  0.15136227615E+04  0.27609490807E+03 0.  0.
         25    2    3    3    0    0  0.14400621481E+01  0.39166789341E+02 -0.98463298346E+03  0.99336538685E+03  0.12544548023E+03 0.  0.
         25    2    3    3    0    0 -0.14400621481E+01 -0.39166789341E+02 -0.50359598612E+03  0.52025737466E+03  0.12459015805E+03 0.  0.
          5    1    4    4  502    0  0.26914905211E+02 -0.21028292326E+02 -0.90672258884E+02  0.97005926272E+02  0.47000000000E+01 0. -1.
         -5    1    4    4    0  502 -0.25474843063E+02  0.60195081667E+02 -0.89396072458E+03  0.89635946058E+03  0.47000000000E+01 0. -1.
          5    1    5    5  503    0  0.96381994794E+01 -0.39216486689E+02 -0.50629462556E+03  0.50792436995E+03  0.47000000000E+01 0.  1.
         -5    1    5    5    0  503 -0.11078261627E+02  0.49697347967E-01  0.26986394337E+01  0.12333004715E+02  0.47000000000E+01 0.  1.
<mgrwt>
<rscale>  0 0.27609491E+03</rscale>
<asrwt>0</asrwt>
<pdfrwt beam="1">  1        1 0.19533695E-02 0.27609491E+03</pdfrwt>
<pdfrwt beam="2">  1       -1 0.23091157E+00 0.27609491E+03</pdfrwt>
<totfact> 0.65609762E+02</totfact>
</mgrwt>
</event>
<event>
 9    1  0.2024718E-002  0.2741542E+03  0.7818608E-02  0.1098925E+00
          2   -1    0    0  501    0  0.00000000000E+00  0.00000000000E+00  0.68176972774E+03  0.68176972774E+03  0.00000000000E+00 0.  1.
         -2   -1    0    0    0  501 -0.00000000000E+00 -0.00000000000E+00 -0.27560812183E+02  0.27560812183E+02  0.00000000000E+00 0.  1.
         36    2    1    2    0    0  0.00000000000E+00  0.35527136788E-14  0.65420891556E+03  0.70933053992E+03  0.27415417136E+03 0.  0.
         25    2    3    3    0    0 -0.50119500894E+02  0.23421721796E+02  0.28065851922E+03  0.31196268909E+03  0.12446273960E+03 0.  0.
         25    2    3    3    0    0  0.50119500894E+02 -0.23421721796E+02  0.37355039633E+03  0.39736785083E+03  0.12369627664E+03 0.  0.
          5    1    4    4  502    0 -0.87978612691E+02  0.19137122237E+02  0.14297907835E+03  0.16903127695E+03  0.47000000000E+01 0.  1.
         -5    1    4    4    0  502  0.37859111797E+02  0.42845995591E+01  0.13767944087E+03  0.14293141214E+03  0.47000000000E+01 0.  1.
          5    1    5    5  503    0  0.29518070404E+02  0.12769689592E+02  0.34530056069E+03  0.34682697223E+03  0.47000000000E+01 0.  1.
         -5    1    5    5    0  503  0.20601430490E+02 -0.36191411387E+02  0.28249835645E+02  0.50540878608E+02  0.47000000000E+01 0.  1.
<mgrwt>
<rscale>  0 0.27415417E+03</rscale>
<asrwt>0</asrwt>
<pdfrwt beam="1">  1        2 0.10488764E+00 0.27415417E+03</pdfrwt>
<pdfrwt beam="2">  1       -2 0.42401255E-02 0.27415417E+03</pdfrwt>
<totfact> 0.10852438E+04</totfact>
</mgrwt>
</event>
<event>
 9    1  0.2024718E-002  0.2844333E+03  0.7818608E-02  0.1093292E+00
          1   -1    0    0  501    0  0.00000000000E+00  0.00000000000E+00  0.14400278700E+03  0.14400278700E+03  0.00000000000E+00 0. -1.
         -1   -1    0    0    0  501 -0.00000000000E+00 -0.00000000000E+00 -0.14045268463E+03  0.14045268463E+03  0.00000000000E+00 0. -1.
         36    2    1    2    0    0  0.00000000000E+00 -0.35527136788E-14  0.35501023695E+01  0.28445547162E+03  0.28443331751E+03 0.  0.
         25    2    3    3    0    0  0.66392057316E+02 -0.29995621170E+02  0.97046139766E+01  0.14452545028E+03  0.12444188878E+03 0.  0.
         25    2    3    3    0    0 -0.66392057316E+02  0.29995621170E+02 -0.61545116071E+01  0.13993002134E+03  0.11931005949E+03 0.  0.
          5    1    4    4  502    0 -0.64168601567E+00  0.43748611383E+02  0.80962847149E+01  0.44743631782E+02  0.47000000000E+01 0.  1.
         -5    1    4    4    0  502  0.67033743332E+02 -0.73744232553E+02  0.16083292617E+01  0.99781818498E+02  0.47000000000E+01 0.  1.
          5    1    5    5  503    0  0.20506473151E+02 -0.27865779276E+02 -0.59819749608E+01  0.35424442412E+02  0.47000000000E+01 0.  1.
         -5    1    5    5    0  503 -0.86898530467E+02  0.57861400446E+02 -0.17253664633E+00  0.10450557893E+03  0.47000000000E+01 0.  1.
<mgrwt>
<rscale>  0 0.28443332E+03</rscale>
<asrwt>0</asrwt>
<pdfrwt beam="1">  1        1 0.22154275E-01 0.28443332E+03</pdfrwt>
<pdfrwt beam="2">  1       -1 0.21608105E-01 0.28443332E+03</pdfrwt>
<totfact> 0.39519821E+03</totfact>
</mgrwt>
</event>
<event>
 9    1  0.2024718E-002  0.2750144E+03  0.7818608E-02  0.1098444E+00
         -1   -1    0    0    0  501 -0.00000000000E+00  0.00000000000E+00  0.10719862782E+03  0.10719862782E+03  0.00000000000E+00 0.  1.
          1   -1    0    0  501    0  0.00000000000E+00 -0.00000000000E+00 -0.17638501080E+03  0.17638501080E+03  0.00000000000E+00 0.  1.
         36    2    1    2    0    0 -0.14210854715E-13  0.00000000000E+00 -0.69186382972E+02  0.28358363862E+03  0.27501440781E+03 0.  0.
         25    2    3    3    0    0  0.56073403535E+02  0.52160067119E+01 -0.22742360403E+02  0.13902581600E+03  0.12505810349E+03 0.  0.
         25    2    3    3    0    0 -0.56073403535E+02 -0.52160067119E+01 -0.46444022569E+02  0.14455782262E+03  0.12477372936E+03 0.  0.
          5    1    4    4  502    0  0.11891184499E+02  0.54594519297E+02  0.20570910871E+02  0.59726159931E+02  0.47000000000E+01 0. -1.
         -5    1    4    4    0  502  0.44182219036E+02 -0.49378512585E+02 -0.43313271274E+02  0.79299656068E+02  0.47000000000E+01 0. -1.
          5    1    5    5  503    0  0.15311266370E+02  0.40984377352E+02  0.62027458683E+01  0.44437800588E+02  0.47000000000E+01 0.  1.
         -5    1    5    5    0  503 -0.71384669905E+02 -0.46200384064E+02 -0.52646768437E+02  0.10012002203E+03  0.47000000000E+01 0.  1.
<mgrwt>
<rscale>  0 0.27501441E+03</rscale>
<asrwt>0</asrwt>
<pdfrwt beam="1">  1        1 0.27136155E-01 0.27501441E+03</pdfrwt>
<pdfrwt beam="2">  1       -1 0.16492097E-01 0.27501441E+03</pdfrwt>
<totfact> 0.47201722E+03</totfact>
</mgrwt>
</event>
<event>
 9    1  0.2024718E-002  0.2748666E+03  0.7818608E-02  0.1098526E+00
         -1   -1    0    0    0  501 -0.00000000000E+00  0.00000000000E+00  0.14908482477E+03  0.14908482477E+03  0.00000000000E+00 0.  1.
          1   -1    0    0  501    0  0.00000000000E+00 -0.00000000000E+00 -0.12669241178E+03  0.12669241178E+03  0.00000000000E+00 0.  1.
         36    2    1    2    0    0  0.00000000000E+00  0.35527136788E-14  0.22392412998E+02  0.27577723655E+03  0.27486662955E+03 0.  0.
         25    2    3    3    0    0  0.18045155024E+02  0.31753490805E+02  0.49602038648E+02  0.14716116276E+03  0.13364929400E+03 0.  0.
         25    2    3    3    0    0 -0.18045155024E+02 -0.31753490805E+02 -0.27209625650E+02  0.12861607379E+03  0.12028224687E+03 0.  0.
          5    1    4    4  502    0 -0.24028534301E+02  0.60155658044E+02  0.66982651558E+02  0.93299728109E+02  0.47000000000E+01 0. -1.
         -5    1    4    4    0  502  0.42073689325E+02 -0.28402167239E+02 -0.17380612910E+02  0.53861434649E+02  0.47000000000E+01 0. -1.
          5    1    5    5  503    0  0.17117075416E+02  0.37455444214E+02  0.96424150343E+01  0.42555501874E+02  0.47000000000E+01 0. -1.
         -5    1    5    5    0  503 -0.35162230440E+02 -0.69208935020E+02 -0.36852040685E+02  0.86060571917E+02  0.47000000000E+01 0. -1.
<mgrwt>
<rscale>  0 0.27486663E+03</rscale>
<asrwt>0</asrwt>
<pdfrwt beam="1">  1        1 0.19491140E-01 0.27486663E+03</pdfrwt>
<pdfrwt beam="2">  1       -1 0.22936127E-01 0.27486663E+03</pdfrwt>
<totfact> 0.42204860E+03</totfact>
</mgrwt>
</event>
<event>
 9    1  0.2024718E-002  0.2750896E+03  0.7818608E-02  0.1098402E+00
          1   -1    0    0  501    0  0.00000000000E+00  0.00000000000E+00  0.13672404699E+03  0.13672404699E+03  0.00000000000E+00 0.  1.
         -1   -1    0    0    0  501 -0.00000000000E+00 -0.00000000000E+00 -0.13837052228E+03  0.13837052228E+03  0.00000000000E+00 0.  1.
         36    2    1    2    0    0  0.00000000000E+00  0.00000000000E+00 -0.16464752956E+01  0.27509456927E+03  0.27508964205E+03 0.  0.
         25    2    3    3    0    0 -0.22287829930E+02  0.47600381622E+02 -0.20589299731E+02  0.13648585407E+03  0.12426554391E+03 0.  0.
         25    2    3    3    0    0  0.22287829930E+02 -0.47600381622E+02  0.18942824435E+02  0.13860871521E+03  0.12685031194E+03 0.  0.
          5    1    4    4  502    0 -0.83656003598E+01  0.58707781097E+02  0.40969666947E+02  0.72230121420E+02  0.47000000000E+01 0.  1.
         -5    1    4    4    0  502 -0.13922229571E+02 -0.11107399475E+02 -0.61558966678E+02  0.64255732645E+02  0.47000000000E+01 0.  1.
          5    1    5    5  503    0  0.70421036116E+02 -0.40616776024E+02 -0.96399446195E+01  0.81999166792E+02  0.47000000000E+01 0.  1.
         -5    1    5    5    0  503 -0.48133206186E+02 -0.69836055978E+01  0.28582769055E+02  0.56609548415E+02  0.47000000000E+01 0.  1.
<mgrwt>
<rscale>  0 0.27508964E+03</rscale>
<asrwt>0</asrwt>
<pdfrwt beam="1">  1        1 0.21034469E-01 0.27508964E+03</pdfrwt>
<pdfrwt beam="2">  1       -1 0.21287773E-01 0.27508964E+03</pdfrwt>
<totfact> 0.43244699E+03</totfact>
</mgrwt>
</event>
<event>
 9    1  0.2024718E-002  0.2726141E+03  0.7818608E-02  0.1099793E+00
         -2   -1    0    0    0  501 -0.00000000000E+00  0.00000000000E+00  0.12648012048E+02  0.12648012048E+02  0.00000000000E+00 0.  1.
          2   -1    0    0  501    0  0.00000000000E+00 -0.00000000000E+00 -0.14689745837E+04  0.14689745837E+04  0.00000000000E+00 0.  1.
         36    2    1    2    0    0 -0.71054273576E-14  0.00000000000E+00 -0.14563265717E+04  0.14816225958E+04  0.27261407325E+03 0.  0.
         25    2    3    3    0    0  0.41424026862E+02 -0.69193849685E+01 -0.49939460885E+03  0.51547941256E+03  0.12066574303E+03 0.  0.
         25    2    3    3    0    0 -0.41424026862E+02  0.69193849685E+01 -0.95693196284E+03  0.96614318322E+03  0.12629347208E+03 0.  0.
          5    1    4    4  502    0  0.55454399955E+02 -0.53960194385E+02 -0.27406041578E+03  0.28481238482E+03  0.47000000000E+01 0.  1.
         -5    1    4    4    0  502 -0.14030373093E+02  0.47040809417E+02 -0.22533419307E+03  0.23066702774E+03  0.47000000000E+01 0.  1.
          5    1    5    5  503    0 -0.79244032005E+02  0.89939052434E+01 -0.39972470380E+03  0.40763026846E+03  0.47000000000E+01 0. -1.
         -5    1    5    5    0  503  0.37820005142E+02 -0.20745202749E+01 -0.55720725904E+03  0.55851291476E+03  0.47000000000E+01 0. -1.
<mgrwt>
<rscale>  0 0.27261407E+03</rscale>
<asrwt>0</asrwt>
<pdfrwt beam="1">  1        2 0.22599593E+00 0.27261407E+03</pdfrwt>
<pdfrwt beam="2">  1       -2 0.19458494E-02 0.27261407E+03</pdfrwt>
<totfact> 0.11409686E+04</totfact>
</mgrwt>
</event>
<event>
 9    1  0.2024718E-002  0.2750083E+03  0.7818608E-02  0.1098447E+00
         -1   -1    0    0    0  501 -0.00000000000E+00  0.00000000000E+00  0.16633481665E+03  0.16633481665E+03  0.00000000000E+00 0. -1.
          1   -1    0    0  501    0  0.00000000000E+00 -0.00000000000E+00 -0.11367064932E+03  0.11367064932E+03  0.00000000000E+00 0. -1.
         36    2    1    2    0    0  0.71054273576E-14  0.35527136788E-14  0.52664167328E+02  0.28000546597E+03  0.27500826615E+03 0.  0.
         25    2    3    3    0    0 -0.55942202436E+02  0.13029529755E+02  0.20552361955E+02  0.13879963726E+03  0.12467413951E+03 0.  0.
         25    2    3    3    0    0  0.55942202436E+02 -0.13029529755E+02  0.32111805373E+02  0.14120582871E+03  0.12493446025E+03 0.  0.
          5    1    4    4  502    0 -0.95058790399E+02 -0.14963562409E+01  0.11908158047E+02  0.95928655480E+02  0.47000000000E+01 0.  1.
         -5    1    4    4    0  502  0.39116587963E+02  0.14525885995E+02  0.86442039077E+01  0.42870981782E+02  0.47000000000E+01 0.  1.
          5    1    5    5  503    0  0.85281313612E+02  0.23223683703E+02  0.32613812392E+02  0.94329172025E+02  0.47000000000E+01 0.  1.
         -5    1    5    5    0  503 -0.29339111176E+02 -0.36253213457E+02 -0.50200701949E+00  0.46876656682E+02  0.47000000000E+01 0.  1.
<mgrwt>
<rscale>  0 0.27500827E+03</rscale>
<asrwt>0</asrwt>
<pdfrwt beam="1">  1        1 0.17487792E-01 0.27500827E+03</pdfrwt>
<pdfrwt beam="2">  1       -1 0.25589972E-01 0.27500827E+03</pdfrwt>
<totfact> 0.40509266E+03</totfact>
</mgrwt>
</event>
<event>
 9    1  0.2024718E-002  0.2752915E+03  0.7818608E-02  0.1098289E+00
          2   -1    0    0  501    0  0.00000000000E+00  0.00000000000E+00  0.14636805573E+04  0.14636805573E+04  0.00000000000E+00 0. -1.
         -2   -1    0    0    0  501 -0.00000000000E+00 -0.00000000000E+00 -0.12944319783E+02  0.12944319783E+02  0.00000000000E+00 0. -1.
         36    2    1    2    0    0  0.71054273576E-14  0.21316282073E-13  0.14507362375E+04  0.14766248770E+04  0.27529147603E+03 0.  0.
         25    2    3    3    0    0  0.41473567544E+02  0.46372504528E+02  0.68388442547E+03  0.69784765383E+03  0.12418926920E+03 0.  0.
         25    2    3    3    0    0 -0.41473567544E+02 -0.46372504528E+02  0.76685181202E+03  0.77877722322E+03  0.12067226618E+03 0.  0.
          5    1    4    4  502    0  0.98581600424E+01  0.64725500411E+02  0.16385613588E+03  0.17651486337E+03  0.47000000000E+01 0. -1.
         -5    1    4    4    0  502  0.31615407501E+02 -0.18352995883E+02  0.52002828958E+03  0.52133279047E+03  0.47000000000E+01 0. -1.
          5    1    5    5  503    0 -0.22384888141E+01 -0.81835558138E+02  0.42692940476E+03  0.43473310900E+03  0.47000000000E+01 0. -1.
         -5    1    5    5    0  503 -0.39235078730E+02  0.35463053610E+02  0.33992240725E+03  0.34404411422E+03  0.47000000000E+01 0. -1.
<mgrwt>
<rscale>  0 0.27529148E+03</rscale>
<asrwt>0</asrwt>
<pdfrwt beam="1">  1        2 0.22518149E+00 0.27529148E+03</pdfrwt>
<pdfrwt beam="2">  1       -2 0.19914350E-02 0.27529148E+03</pdfrwt>
<totfact> 0.11102589E+04</totfact>
</mgrwt>
</event>
<event>
 9    1  0.2024718E-002  0.2747787E+03  0.7818608E-02  0.1098575E+00
          2   -1    0    0  501    0  0.00000000000E+00  0.00000000000E+00  0.10820090263E+04  0.10820090263E+04  0.00000000000E+00 0.  1.
         -2   -1    0    0    0  501 -0.00000000000E+00 -0.00000000000E+00 -0.17445176909E+02  0.17445176909E+02  0.00000000000E+00 0.  1.
         36    2    1    2    0    0  0.71054273576E-14  0.71054273576E-14  0.10645638494E+04  0.10994542032E+04  0.27477873921E+03 0.  0.
         25    2    3    3    0    0  0.31783281215E+02  0.35325805616E+02  0.47506594704E+03  0.49376688514E+03  0.12593646541E+03 0.  0.
         25    2    3    3    0    0 -0.31783281215E+02 -0.35325805616E+02  0.58949790232E+03  0.60568731804E+03  0.13073354918E+03 0.  0.
          5    1    4    4  502    0 -0.29929570251E+01  0.55309822393E+02  0.42866138906E+03  0.43225086549E+03  0.47000000000E+01 0. -1.
         -5    1    4    4    0  502  0.34776238240E+02 -0.19984016778E+02  0.46404557976E+02  0.61516019650E+02  0.47000000000E+01 0. -1.
          5    1    5    5  503    0 -0.29776771002E+02  0.32495253449E+02  0.78222790911E+02  0.89908245483E+02  0.47000000000E+01 0. -1.
         -5    1    5    5    0  503 -0.20065102131E+01 -0.67821059065E+02  0.51127511141E+03  0.51577907255E+03  0.47000000000E+01 0. -1.
<mgrwt>
<rscale>  0 0.27477874E+03</rscale>
<asrwt>0</asrwt>
<pdfrwt beam="1">  1        2 0.16646287E+00 0.27477874E+03</pdfrwt>
<pdfrwt beam="2">  1       -2 0.26838742E-02 0.27477874E+03</pdfrwt>
<totfact> 0.11685486E+04</totfact>
</mgrwt>
</event>
<event>
 9    1  0.2024718E-002  0.2718031E+03  0.7818608E-02  0.1100252E+00
          2   -1    0    0  501    0  0.00000000000E+00  0.00000000000E+00  0.95326204854E+03  0.95326204854E+03  0.00000000000E+00 0.  1.
         -2   -1    0    0    0  501 -0.00000000000E+00 -0.00000000000E+00 -0.19374767413E+02  0.19374767413E+02  0.00000000000E+00 0.  1.
         36    2    1    2    0    0  0.14210854715E-13  0.71054273576E-14  0.93388728113E+03  0.97263681596E+03  0.27180309398E+03 0.  0.
         25    2    3    3    0    0  0.43819028343E+02  0.36606509508E+02  0.53254492860E+03  0.54853722329E+03  0.11844340664E+03 0.  0.
         25    2    3    3    0    0 -0.43819028343E+02 -0.36606509508E+02  0.40134235254E+03  0.42409959267E+03  0.12459790038E+03 0.  0.
          5    1    4    4  502    0  0.76238316343E+01 -0.42512121188E+02  0.14802545772E+03  0.15426934041E+03  0.47000000000E+01 0.  1.
         -5    1    4    4    0  502  0.36195196709E+02  0.79118630697E+02  0.38451947088E+03  0.39426788288E+03  0.47000000000E+01 0.  1.
          5    1    5    5  503    0  0.35037585313E+02 -0.33718615769E+02  0.85086935639E+02  0.98114494598E+02  0.47000000000E+01 0. -1.
         -5    1    5    5    0  503 -0.78856613656E+02 -0.28878937389E+01  0.31625541690E+03  0.32598509807E+03  0.47000000000E+01 0. -1.
<mgrwt>
<rscale>  0 0.27180309E+03</rscale>
<asrwt>0</asrwt>
<pdfrwt beam="1">  1        2 0.14665566E+00 0.27180309E+03</pdfrwt>
<pdfrwt beam="2">  1       -2 0.29807342E-02 0.27180309E+03</pdfrwt>
<totfact> 0.11970393E+04</totfact>
</mgrwt>
</event>
<event>
 9    1  0.2024718E-002  0.2748490E+03  0.7818608E-02  0.1098536E+00
         -2   -1    0    0    0  501 -0.00000000000E+00  0.00000000000E+00  0.10509670707E+03  0.10509670707E+03  0.00000000000E+00 0. -1.
          2   -1    0    0  501    0  0.00000000000E+00 -0.00000000000E+00 -0.17969632036E+03  0.17969632036E+03  0.00000000000E+00 0. -1.
         36    2    1    2    0    0  0.00000000000E+00 -0.71054273576E-14 -0.74599613284E+02  0.28479302743E+03  0.27484898794E+03 0.  0.
         25    2    3    3    0    0 -0.16678428020E+02 -0.33766846651E+02 -0.75793433934E+02  0.15180844459E+03  0.12602693889E+03 0.  0.
         25    2    3    3    0    0  0.16678428020E+02  0.33766846651E+02  0.11938206496E+01  0.13298458284E+03  0.12753471752E+03 0.  0.
          5    1    4    4  502    0 -0.30481814783E+02  0.37949851917E+02 -0.59165363840E+02  0.76759120444E+02  0.47000000000E+01 0. -1.
         -5    1    4    4    0  502  0.13803386763E+02 -0.71716698568E+02 -0.16628070093E+02  0.75049324145E+02  0.47000000000E+01 0. -1.
          5    1    5    5  503    0  0.46388211978E+02  0.70196625104E+02 -0.86947394236E+01  0.84717889965E+02  0.47000000000E+01 0.  1.
         -5    1    5    5    0  503 -0.29709783958E+02 -0.36429778454E+02  0.98885600732E+01  0.48266692878E+02  0.47000000000E+01 0.  1.
<mgrwt>
<rscale>  0 0.27484899E+03</rscale>
<asrwt>0</asrwt>
<pdfrwt beam="1">  1        2 0.27645588E-01 0.27484899E+03</pdfrwt>
<pdfrwt beam="2">  1       -2 0.16168724E-01 0.27484899E+03</pdfrwt>
<totfact> 0.57569398E+03</totfact>
</mgrwt>
</event>
<event>
 9    1  0.2024718E-002  0.2760113E+03  0.7818608E-02  0.1097888E+00
         -2   -1    0    0    0  501 -0.00000000000E+00  0.00000000000E+00  0.15083067135E+02  0.15083067135E+02  0.00000000000E+00 0.  1.
          2   -1    0    0  501    0  0.00000000000E+00 -0.00000000000E+00 -0.12627114620E+04  0.12627114620E+04  0.00000000000E+00 0.  1.
         36    2    1    2    0    0  0.71054273576E-14 -0.35527136788E-14 -0.12476283949E+04  0.12777945292E+04  0.27601131682E+03 0.  0.
         25    2    3    3    0    0  0.29487041114E+02  0.28403988743E+02 -0.45036211631E+03  0.46988230516E+03  0.12762081619E+03 0.  0.
         25    2    3    3    0    0 -0.29487041114E+02 -0.28403988743E+02 -0.79726627858E+03  0.80791222400E+03  0.12414656884E+03 0.  0.
          5    1    4    4  502    0 -0.26667165213E+02  0.49241360347E+02 -0.10272013855E+03  0.11708700241E+03  0.47000000000E+01 0.  1.
         -5    1    4    4    0  502  0.56154206326E+02 -0.20837371603E+02 -0.34764197776E+03  0.35279530275E+03  0.47000000000E+01 0.  1.
          5    1    5    5  503    0 -0.51803993761E+02  0.49176004257E+01 -0.14041327436E+03  0.14981927172E+03  0.47000000000E+01 0.  1.
         -5    1    5    5    0  503  0.22316952648E+02 -0.33321589169E+02 -0.65685300422E+03  0.65809295228E+03  0.47000000000E+01 0.  1.
<mgrwt>
<rscale>  0 0.27601132E+03</rscale>
<asrwt>0</asrwt>
<pdfrwt beam="1">  1        2 0.19426331E+00 0.27601132E+03</pdfrwt>
<pdfrwt beam="2">  1       -2 0.23204718E-02 0.27601132E+03</pdfrwt>
<totfact> 0.11416518E+04</totfact>
</mgrwt>
</event>
<event>
 9    1  0.2024718E-002  0.2746015E+03  0.7818608E-02  0.1098675E+00
          2   -1    0    0  501    0  0.00000000000E+00  0.00000000000E+00  0.84979277067E+03  0.84979277067E+03  0.00000000000E+00 0. -1.
         -2   -1    0    0    0  501 -0.00000000000E+00 -0.00000000000E+00 -0.22183634496E+02  0.22183634496E+02  0.00000000000E+00 0. -1.
         36    2    1    2    0    0  0.00000000000E+00  0.71054273576E-14  0.82760913618E+03  0.87197640517E+03  0.27460147284E+03 0.  0.
         25    2    3    3    0    0  0.37834919493E+02  0.36849433678E+02  0.31477611961E+03  0.34154990262E+03  0.12158523187E+03 0.  0.
         25    2    3    3    0    0 -0.37834919493E+02 -0.36849433678E+02  0.51283301657E+03  0.53042650255E+03  0.12476061008E+03 0.  0.
          5    1    4    4  502    0  0.10402666346E+02 -0.18441478643E+02  0.25358008991E+03  0.25450590485E+03  0.47000000000E+01 0. -1.
         -5    1    4    4    0  502  0.27432253147E+02  0.55290912321E+02  0.61196029695E+02  0.87043997774E+02  0.47000000000E+01 0. -1.
          5    1    5    5  503    0 -0.18898884437E+02  0.41099407640E+02  0.29008077203E+03  0.29362437475E+03  0.47000000000E+01 0.  1.
         -5    1    5    5    0  503 -0.18936035056E+02 -0.77948841318E+02  0.22275224454E+03  0.23680212780E+03  0.47000000000E+01 0.  1.
<mgrwt>
<rscale>  0 0.27460147E+03</rscale>
<asrwt>0</asrwt>
<pdfrwt beam="1">  1        2 0.13073732E+00 0.27460147E+03</pdfrwt>
<pdfrwt beam="2">  1       -2 0.34128675E-02 0.27460147E+03</pdfrwt>
<totfact> 0.11412945E+04</totfact>
</mgrwt>
</event>
<event>
 9    1  0.2024718E-002  0.2748429E+03  0.7818608E-02  0.1098539E+00
          2   -1    0    0  501    0  0.00000000000E+00  0.00000000000E+00  0.52098914222E+03  0.52098914222E+03  0.00000000000E+00 0.  1.
         -2   -1    0    0    0  501 -0.00000000000E+00 -0.00000000000E+00 -0.36247691831E+02  0.36247691831E+02  0.00000000000E+00 0.  1.
         36    2    1    2    0    0  0.00000000000E+00  0.00000000000E+00  0.48474145038E+03  0.55723683405E+03  0.27484289239E+03 0.  0.
         25    2    3    3    0    0  0.30981361283E+02 -0.23692372143E+02  0.27371305957E+03  0.30361387583E+03  0.12546462999E+03 0.  0.
         25    2    3    3    0    0 -0.30981361283E+02  0.23692372143E+02  0.21102839082E+03  0.25362295821E+03  0.13516822835E+03 0.  0.
          5    1    4    4  502    0  0.44783307588E+01  0.25128906498E+02  0.23334433248E+03  0.23478327216E+03  0.47000000000E+01 0.  1.
         -5    1    4    4    0  502  0.26503030525E+02 -0.48821278641E+02  0.40368727090E+02  0.68830603673E+02  0.47000000000E+01 0.  1.
          5    1    5    5  503    0 -0.48250129574E+02  0.43771948694E+02  0.32270657673E+02  0.72852891796E+02  0.47000000000E+01 0. -1.
         -5    1    5    5    0  503  0.17268768291E+02 -0.20079576552E+02  0.17875773315E+03  0.18077006642E+03  0.47000000000E+01 0. -1.
<mgrwt>
<rscale>  0 0.27484289E+03</rscale>
<asrwt>0</asrwt>
<pdfrwt beam="1">  1        2 0.80152170E-01 0.27484289E+03</pdfrwt>
<pdfrwt beam="2">  1       -2 0.55765683E-02 0.27484289E+03</pdfrwt>
<totfact> 0.97867823E+03</totfact>
</mgrwt>
</event>
<event>
 9    1  0.2024718E-002  0.2740705E+03  0.7818608E-02  0.1098972E+00
          1   -1    0    0  501    0  0.00000000000E+00  0.00000000000E+00  0.34027293616E+03  0.34027293616E+03  0.00000000000E+00 0. -1.
         -1   -1    0    0    0  501 -0.00000000000E+00 -0.00000000000E+00 -0.55187038562E+02  0.55187038562E+02  0.00000000000E+00 0. -1.
         36    2    1    2    0    0  0.35527136788E-14  0.00000000000E+00  0.28508589760E+03  0.39545997473E+03  0.27407047013E+03 0.  0.
         25    2    3    3    0    0 -0.83066690829E+01  0.54267899797E+02  0.13411542869E+03  0.19514842258E+03  0.13069794537E+03 0.  0.
         25    2    3    3    0    0  0.83066690829E+01 -0.54267899797E+02  0.15097046891E+03  0.20031155214E+03  0.11966047693E+03 0.  0.
          5    1    4    4  502    0  0.11397697361E+02  0.86808586246E+02  0.45904738115E+02  0.98969556595E+02  0.47000000000E+01 0.  1.
         -5    1    4    4    0  502 -0.19704366444E+02 -0.32540686449E+02  0.88210690571E+02  0.96178865987E+02  0.47000000000E+01 0.  1.
          5    1    5    5  503    0 -0.47616381158E+02  0.72208328052E+01  0.56969451664E+02  0.74746696274E+02  0.47000000000E+01 0.  1.
         -5    1    5    5    0  503  0.55923050241E+02 -0.61488732602E+02  0.94001017251E+02  0.12556485587E+03  0.47000000000E+01 0.  1.
<mgrwt>
<rscale>  0 0.27407047E+03</rscale>
<asrwt>0</asrwt>
<pdfrwt beam="1">  1        1 0.52349681E-01 0.27407047E+03</pdfrwt>
<pdfrwt beam="2">  1       -1 0.84903138E-02 0.27407047E+03</pdfrwt>
<totfact> 0.58236852E+03</totfact>
</mgrwt>
</event>
<event>
 9    1  0.2024718E-002  0.2749004E+03  0.7818608E-02  0.1098507E+00
          1   -1    0    0  501    0  0.00000000000E+00  0.00000000000E+00  0.79797277718E+03  0.79797277718E+03  0.00000000000E+00 0.  1.
         -1   -1    0    0    0  501 -0.00000000000E+00 -0.00000000000E+00 -0.23675691569E+02  0.23675691569E+02  0.00000000000E+00 0.  1.
         36    2    1    2    0    0  0.35527136788E-14  0.00000000000E+00  0.77429708561E+03  0.82164846875E+03  0.27490039908E+03 0.  0.
         25    2    3    3    0    0 -0.11204049736E+02 -0.23564219226E+02  0.23441973567E+03  0.26696262051E+03  0.12504249325E+03 0.  0.
         25    2    3    3    0    0  0.11204049736E+02  0.23564219226E+02  0.53987734994E+03  0.55468584824E+03  0.12461153279E+03 0.  0.
          5    1    4    4  502    0  0.42459693101E+01 -0.53732157981E+02  0.34572040216E+02  0.64206611975E+02  0.47000000000E+01 0.  1.
         -5    1    4    4    0  502 -0.15450019046E+02  0.30167938755E+02  0.19984769546E+03  0.20275600853E+03  0.47000000000E+01 0.  1.
          5    1    5    5  503    0  0.45838239725E+02 -0.16739854101E+02  0.97784952593E+02  0.10938626006E+03  0.47000000000E+01 0. -1.
         -5    1    5    5    0  503 -0.34634189988E+02  0.40304073327E+02  0.44209239734E+03  0.44529958818E+03  0.47000000000E+01 0. -1.
<mgrwt>
<rscale>  0 0.27490040E+03</rscale>
<asrwt>0</asrwt>
<pdfrwt beam="1">  1        1 0.12276502E+00 0.27490040E+03</pdfrwt>
<pdfrwt beam="2">  1       -1 0.36424147E-02 0.27490040E+03</pdfrwt>
<totfact> 0.65287565E+03</totfact>
</mgrwt>
</event>
<event>
 9    1  0.2024718E-002  0.2756528E+03  0.7818608E-02  0.1098087E+00
          2   -1    0    0  501    0  0.00000000000E+00  0.00000000000E+00  0.12740237701E+04  0.12740237701E+04  0.00000000000E+00 0. -1.
         -2   -1    0    0    0  501 -0.00000000000E+00 -0.00000000000E+00 -0.14910327618E+02  0.14910327618E+02  0.00000000000E+00 0. -1.
         36    2    1    2    0    0  0.00000000000E+00 -0.71054273576E-14  0.12591134424E+04  0.12889340977E+04  0.27565276567E+03 0.  0.
         25    2    3    3    0    0 -0.23163714392E+02 -0.47674328134E+02  0.65963158146E+03  0.67432436856E+03  0.12957673995E+03 0.  0.
         25    2    3    3    0    0  0.23163714392E+02  0.47674328134E+02  0.59948186097E+03  0.61460972911E+03  0.12472857837E+03 0.  0.
          5    1    4    4  502    0 -0.40550471234E+02  0.15209785128E+02  0.49881100889E+03  0.50070968722E+03  0.47000000000E+01 0.  1.
         -5    1    4    4    0  502  0.17386756843E+02 -0.62884113262E+02  0.16082057257E+03  0.17361468134E+03  0.47000000000E+01 0.  1.
          5    1    5    5  503    0  0.57235869281E+02 -0.19003956226E+02  0.27038742663E+03  0.27707137269E+03  0.47000000000E+01 0.  1.
         -5    1    5    5    0  503 -0.34072154890E+02  0.66678284360E+02  0.32909443434E+03  0.33753835643E+03  0.47000000000E+01 0.  1.
<mgrwt>
<rscale>  0 0.27565277E+03</rscale>
<asrwt>0</asrwt>
<pdfrwt beam="1">  1        2 0.19600357E+00 0.27565277E+03</pdfrwt>
<pdfrwt beam="2">  1       -2 0.22938976E-02 0.27565277E+03</pdfrwt>
<totfact> 0.11444435E+04</totfact>
</mgrwt>
</event>
<event>
 9    1  0.2024718E-002  0.2749260E+03  0.7818608E-02  0.1098493E+00
         -2   -1    0    0    0  501 -0.00000000000E+00  0.00000000000E+00  0.35711504055E+02  0.35711504055E+02  0.00000000000E+00 0.  1.
          2   -1    0    0  501    0  0.00000000000E+00 -0.00000000000E+00 -0.52913131016E+03  0.52913131016E+03  0.00000000000E+00 0.  1.
         36    2    1    2    0    0  0.00000000000E+00 -0.35527136788E-14 -0.49341980611E+03  0.56484281422E+03  0.27492598952E+03 0.  0.
         25    2    3    3    0    0  0.33960410309E+02  0.19286335883E+02 -0.16754197155E+03  0.21327878257E+03  0.12606448606E+03 0.  0.
         25    2    3    3    0    0 -0.33960410309E+02 -0.19286335883E+02 -0.32587783456E+03  0.35156403164E+03  0.12599854391E+03 0.  0.
          5    1    4    4  502    0 -0.28807364292E+02 -0.37061841264E+02 -0.53039539949E+02  0.70983991951E+02  0.47000000000E+01 0. -1.
         -5    1    4    4    0  502  0.62767774601E+02  0.56348177147E+02 -0.11450243160E+03  0.14229479062E+03  0.47000000000E+01 0. -1.
          5    1    5    5  503    0  0.41141635110E+02  0.35816298280E+01 -0.19065802993E+03  0.19513594387E+03  0.47000000000E+01 0. -1.
         -5    1    5    5    0  503 -0.75102045419E+02 -0.22867965711E+02 -0.13521980463E+03  0.15642808778E+03  0.47000000000E+01 0. -1.
<mgrwt>
<rscale>  0 0.27492599E+03</rscale>
<asrwt>0</asrwt>
<pdfrwt beam="1">  1        2 0.81404820E-01 0.27492599E+03</pdfrwt>
<pdfrwt beam="2">  1       -2 0.54940774E-02 0.27492599E+03</pdfrwt>
<totfact> 0.98385127E+03</totfact>
</mgrwt>
</event>
<event>
 9    1  0.2024718E-002  0.2765075E+03  0.7818608E-02  0.1097612E+00
          2   -1    0    0  501    0  0.00000000000E+00  0.00000000000E+00  0.39675908919E+03  0.39675908919E+03  0.00000000000E+00 0.  1.
         -2   -1    0    0    0  501 -0.00000000000E+00 -0.00000000000E+00 -0.48175566616E+02  0.48175566616E+02  0.00000000000E+00 0.  1.
         36    2    1    2    0    0  0.00000000000E+00  0.00000000000E+00  0.34858352258E+03  0.44493465581E+03  0.27650746053E+03 0.  0.
         25    2    3    3    0    0 -0.39529266420E+02 -0.20432532826E+02  0.94546100469E+02  0.15861817539E+03  0.11933444242E+03 0.  0.
         25    2    3    3    0    0  0.39529266420E+02  0.20432532826E+02  0.25403742211E+03  0.28631648042E+03  0.12434654732E+03 0.  0.
          5    1    4    4  502    0 -0.70698990549E+02 -0.52604912734E+01  0.16282756289E+02  0.72891962421E+02  0.47000000000E+01 0.  1.
         -5    1    4    4    0  502  0.31169724130E+02 -0.15172041552E+02  0.78263344180E+02  0.85726212965E+02  0.47000000000E+01 0.  1.
          5    1    5    5  503    0 -0.25094861215E+02  0.24386528895E+02  0.19626762965E+03  0.19941797136E+03  0.47000000000E+01 0.  1.
         -5    1    5    5    0  503  0.64624127635E+02 -0.39539960697E+01  0.57769792457E+02  0.86898509067E+02  0.47000000000E+01 0.  1.
<mgrwt>
<rscale>  0 0.27650746E+03</rscale>
<asrwt>0</asrwt>
<pdfrwt beam="1">  1        2 0.61039858E-01 0.27650746E+03</pdfrwt>
<pdfrwt beam="2">  1       -2 0.74116259E-02 0.27650746E+03</pdfrwt>
<totfact> 0.85308480E+03</totfact>
</mgrwt>
</event>
<event>
 9    1  0.2024718E-002  0.2748934E+03  0.7818608E-02  0.1098511E+00
          1   -1    0    0  501    0  0.00000000000E+00  0.00000000000E+00  0.26671428229E+03  0.26671428229E+03  0.00000000000E+00 0. -1.
         -1   -1    0    0    0  501 -0.00000000000E+00 -0.00000000000E+00 -0.70830852123E+02  0.70830852123E+02  0.00000000000E+00 0. -1.
         36    2    1    2    0    0 -0.71054273576E-14 -0.71054273576E-14  0.19588343016E+03  0.33754513441E+03  0.27489343308E+03 0.  0.
         25    2    3    3    0    0 -0.51982781506E+02  0.42828946082E+02  0.11884373989E+03  0.17898396114E+03  0.11564988387E+03 0.  0.
         25    2    3    3    0    0  0.51982781506E+02 -0.42828946082E+02  0.77039690277E+02  0.15856117327E+03  0.12111979027E+03 0.  0.
          5    1    4    4  502    0 -0.61264134590E+02 -0.22313689515E+02  0.76361010830E+02  0.10052009203E+03  0.47000000000E+01 0. -1.
         -5    1    4    4    0  502  0.92813530836E+01  0.65142635597E+02  0.42482729057E+02  0.78463869111E+02  0.47000000000E+01 0. -1.
          5    1    5    5  503    0 -0.86397513430E+01 -0.69142861313E+02  0.24528471813E+02  0.74021054460E+02  0.47000000000E+01 0. -1.
         -5    1    5    5    0  503  0.60622532849E+02  0.26313915231E+02  0.52511218464E+02  0.84540118810E+02  0.47000000000E+01 0. -1.
<mgrwt>
<rscale>  0 0.27489343E+03</rscale>
<asrwt>0</asrwt>
<pdfrwt beam="1">  1        1 0.41032966E-01 0.27489343E+03</pdfrwt>
<pdfrwt beam="2">  1       -1 0.10897054E-01 0.27489343E+03</pdfrwt>
<totfact> 0.53854068E+03</totfact>
</mgrwt>
</event>
<event>
 9    1  0.2024718E-002  0.2753356E+03  0.7818608E-02  0.1098264E+00
         -2   -1    0    0    0  501 -0.00000000000E+00  0.00000000000E+00  0.22654917207E+02  0.22654917207E+02  0.00000000000E+00 0. -1.
          2   -1    0    0  501    0  0.00000000000E+00 -0.00000000000E+00 -0.83656984130E+03  0.83656984130E+03  0.00000000000E+00 0. -1.
         36    2    1    2    0    0  0.71054273576E-14  0.00000000000E+00 -0.81391492409E+03  0.85922475851E+03  0.27533558065E+03 0.  0.
         25    2    3    3    0    0 -0.16182840522E+02 -0.16977455745E+02 -0.57428655510E+03  0.58828800000E+03  0.12540974938E+03 0.  0.
         25    2    3    3    0    0  0.16182840522E+02  0.16977455745E+02 -0.23962836899E+03  0.27093675851E+03  0.12423708607E+03 0.  0.
          5    1    4    4  502    0 -0.65387886120E+02 -0.34872481584E+02 -0.30404898020E+03  0.31298488460E+03  0.47000000000E+01 0. -1.
         -5    1    4    4    0  502  0.49205045599E+02  0.17895025839E+02 -0.27023757490E+03  0.27530311540E+03  0.47000000000E+01 0. -1.
          5    1    5    5  503    0  0.36244970541E+02  0.43750266720E+02 -0.42945866629E+02  0.71373813042E+02  0.47000000000E+01 0. -1.
         -5    1    5    5    0  503 -0.20062130020E+02 -0.26772810975E+02 -0.19668250236E+03  0.19956294547E+03  0.47000000000E+01 0. -1.
<mgrwt>
<rscale>  0 0.27533558E+03</rscale>
<asrwt>0</asrwt>
<pdfrwt beam="1">  1        2 0.12870304E+00 0.27533558E+03</pdfrwt>
<pdfrwt beam="2">  1       -2 0.34853722E-02 0.27533558E+03</pdfrwt>
<totfact> 0.11288633E+04</totfact>
</mgrwt>
</event>
<event>
 9    1  0.2024718E-002  0.2743131E+03  0.7818608E-02  0.1098836E+00
         -1   -1    0    0    0  501 -0.00000000000E+00  0.00000000000E+00  0.10287167465E+03  0.10287167465E+03  0.00000000000E+00 0. -1.
          1   -1    0    0  501    0  0.00000000000E+00 -0.00000000000E+00 -0.18286786461E+03  0.18286786461E+03  0.00000000000E+00 0. -1.
         36    2    1    2    0    0  0.00000000000E+00 -0.71054273576E-14 -0.79996189959E+02  0.28573953926E+03  0.27431313109E+03 0.  0.
         25    2    3    3    0    0  0.23637127148E+02 -0.26540697897E+02 -0.68902487794E+01  0.12645715141E+03  0.12116440562E+03 0.  0.
         25    2    3    3    0    0 -0.23637127148E+02  0.26540697897E+02 -0.73105941179E+02  0.15928238785E+03  0.13697911527E+03 0.  0.
          5    1    4    4  502    0  0.22037329267E+02 -0.74597875206E+02 -0.29220560173E+01  0.77981505999E+02  0.47000000000E+01 0.  1.
         -5    1    4    4    0  502  0.15997978806E+01  0.48057177308E+02 -0.39681927622E+01  0.48475645410E+02  0.47000000000E+01 0.  1.
          5    1    5    5  503    0  0.29052731784E+02  0.11140323472E+02 -0.94939384952E+02  0.10001872248E+03  0.47000000000E+01 0. -1.
         -5    1    5    5    0  503 -0.52689858932E+02  0.15400374425E+02  0.21833443772E+02  0.59263665375E+02  0.47000000000E+01 0. -1.
<mgrwt>
<rscale>  0 0.27431313E+03</rscale>
<asrwt>0</asrwt>
<pdfrwt beam="1">  1        1 0.28133517E-01 0.27431313E+03</pdfrwt>
<pdfrwt beam="2">  1       -1 0.15826412E-01 0.27431313E+03</pdfrwt>
<totfact> 0.48153856E+03</totfact>
</mgrwt>
</event>
<event>
 9    1  0.2024718E-002  0.2754172E+03  0.7818608E-02  0.1098219E+00
          2   -1    0    0  501    0  0.00000000000E+00  0.00000000000E+00  0.10394076551E+04  0.10394076551E+04  0.00000000000E+00 0.  1.
         -2   -1    0    0    0  501 -0.00000000000E+00 -0.00000000000E+00 -0.18244674155E+02  0.18244674155E+02  0.00000000000E+00 0.  1.
         36    2    1    2    0    0 -0.35527136788E-14  0.00000000000E+00  0.10211629809E+04  0.10576523292E+04  0.27541716708E+03 0.  0.
         25    2    3    3    0    0  0.88984125681E+01 -0.27585615287E+02  0.32094265090E+03  0.34515077510E+03  0.12363140567E+03 0.  0.
         25    2    3    3    0    0 -0.88984125681E+01  0.27585615287E+02  0.70022033003E+03  0.71250155414E+03  0.12849049051E+03 0.  0.
          5    1    4    4  502    0 -0.11600951411E+02  0.94102938870E+01  0.29478039222E+03  0.29519604561E+03  0.47000000000E+01 0. -1.
         -5    1    4    4    0  502  0.20499363979E+02 -0.36995909174E+02  0.26162258678E+02  0.49954729489E+02  0.47000000000E+01 0. -1.
          5    1    5    5  503    0  0.31799731645E+02  0.62364146309E+02  0.27120279468E+03  0.28013131835E+03  0.47000000000E+01 0. -1.
         -5    1    5    5    0  503 -0.40698144213E+02 -0.34778531022E+02  0.42901753534E+03  0.43237023579E+03  0.47000000000E+01 0. -1.
<mgrwt>
<rscale>  0 0.27541717E+03</rscale>
<asrwt>0</asrwt>
<pdfrwt beam="1">  1        2 0.15990882E+00 0.27541717E+03</pdfrwt>
<pdfrwt beam="2">  1       -2 0.28068738E-02 0.27541717E+03</pdfrwt>
<totfact> 0.11593401E+04</totfact>
</mgrwt>
</event>
<event>
 9    1  0.2024718E-002  0.2659984E+03  0.7818608E-02  0.1103592E+00
          1   -1    0    0  501    0  0.00000000000E+00  0.00000000000E+00  0.16468308300E+02  0.16468308300E+02  0.00000000000E+00 0. -1.
         -1   -1    0    0    0  501 -0.00000000000E+00 -0.00000000000E+00 -0.10741104856E+04  0.10741104856E+04  0.00000000000E+00 0. -1.
         36    2    1    2    0    0  0.00000000000E+00  0.00000000000E+00 -0.10576421773E+04  0.10905787939E+04  0.26599836560E+03 0.  0.
         25    2    3    3    0    0  0.45708759674E+02 -0.42239601494E+00 -0.62825528879E+03  0.64151525615E+03  0.12143988992E+03 0.  0.
         25    2    3    3    0    0 -0.45708759674E+02  0.42239601494E+00 -0.42938688848E+03  0.44906353771E+03  0.12326999543E+03 0.  0.
          5    1    4    4  502    0 -0.29094298652E+02  0.34797737059E+02 -0.18086818165E+03  0.18652814761E+03  0.47000000000E+01 0. -1.
         -5    1    4    4    0  502  0.74803058326E+02 -0.35220133074E+02 -0.44738710714E+03  0.45498710854E+03  0.47000000000E+01 0. -1.
          5    1    5    5  503    0  0.32961113319E+02  0.21521549278E+02 -0.23388412554E+03  0.23722033272E+03  0.47000000000E+01 0.  1.
         -5    1    5    5    0  503 -0.78669872993E+02 -0.21099153263E+02 -0.19550276294E+03  0.21184320499E+03  0.47000000000E+01 0.  1.
<mgrwt>
<rscale>  0 0.26599837E+03</rscale>
<asrwt>0</asrwt>
<pdfrwt beam="1">  1        1 0.25335859E-02 0.26599837E+03</pdfrwt>
<pdfrwt beam="2">  1       -1 0.16524776E+00 0.26599837E+03</pdfrwt>
<totfact> 0.12589587E+03</totfact>
</mgrwt>
</event>
<event>
 9    1  0.2024718E-002  0.2752897E+03  0.7818608E-02  0.1098290E+00
         -1   -1    0    0    0  501 -0.00000000000E+00  0.00000000000E+00  0.64878194089E+01  0.64878194089E+01  0.00000000000E+00 0. -1.
          1   -1    0    0  501    0  0.00000000000E+00 -0.00000000000E+00 -0.29202572120E+04  0.29202572120E+04  0.00000000000E+00 0. -1.
         36    2    1    2    0    0 -0.71054273576E-14  0.71054273576E-14 -0.29137693926E+04  0.29267450314E+04  0.27528967593E+03 0.  0.
         25    2    3    3    0    0  0.40730107376E+02 -0.14683161762E+02 -0.11211659511E+04  0.11293740431E+04  0.12883362333E+03 0.  0.
         25    2    3    3    0    0 -0.40730107376E+02  0.14683161762E+02 -0.17926034415E+04  0.17973709883E+04  0.12345377346E+03 0.  0.
          5    1    4    4  502    0 -0.17950133148E+02  0.46986507360E+02 -0.39264782190E+03  0.39588425227E+03  0.47000000000E+01 0.  1.
         -5    1    4    4    0  502  0.58680240524E+02 -0.61669669121E+02 -0.72851812919E+03  0.73348979084E+03  0.47000000000E+01 0.  1.
          5    1    5    5  503    0 -0.48094023637E+02 -0.47371924898E+02 -0.85289510069E+03  0.85557540705E+03  0.47000000000E+01 0. -1.
         -5    1    5    5    0  503  0.73639162613E+01  0.62055086659E+02 -0.93970834078E+03  0.94179558121E+03  0.47000000000E+01 0. -1.
<mgrwt>
<rscale>  0 0.27528968E+03</rscale>
<asrwt>0</asrwt>
<pdfrwt beam="1">  1        1 0.44927039E+00 0.27528968E+03</pdfrwt>
<pdfrwt beam="2">  1       -1 0.99812595E-03 0.27528968E+03</pdfrwt>
<totfact> 0.15513926E+03</totfact>
</mgrwt>
</event>
<event>
 9    1  0.2024718E-002  0.2752385E+03  0.7818608E-02  0.1098318E+00
          2   -1    0    0  501    0  0.00000000000E+00  0.00000000000E+00  0.61852299750E+03  0.61852299750E+03  0.00000000000E+00 0. -1.
         -2   -1    0    0    0  501 -0.00000000000E+00 -0.00000000000E+00 -0.30619803050E+02  0.30619803050E+02  0.00000000000E+00 0. -1.
         36    2    1    2    0    0  0.71054273576E-14  0.71054273576E-14  0.58790319445E+03  0.64914280055E+03  0.27523845927E+03 0.  0.
         25    2    3    3    0    0  0.40403720626E+02  0.42897780267E+02  0.24788772758E+03  0.28159408612E+03  0.11989255047E+03 0.  0.
         25    2    3    3    0    0 -0.40403720626E+02 -0.42897780267E+02  0.34001546687E+03  0.36754871443E+03  0.12652612212E+03 0.  0.
          5    1    4    4  502    0  0.54802879967E+02  0.71243685743E+02  0.12163467752E+03  0.15131458352E+03  0.47000000000E+01 0.  1.
         -5    1    4    4    0  502 -0.14399159340E+02 -0.28345905476E+02  0.12625305006E+03  0.13027950260E+03  0.47000000000E+01 0.  1.
          5    1    5    5  503    0  0.15124722571E+02  0.34778970908E+02  0.55362146276E+02  0.67271028613E+02  0.47000000000E+01 0.  1.
         -5    1    5    5    0  503 -0.55528443197E+02 -0.77676751175E+02  0.28465332059E+03  0.30027768582E+03  0.47000000000E+01 0.  1.
<mgrwt>
<rscale>  0 0.27523846E+03</rscale>
<asrwt>0</asrwt>
<pdfrwt beam="1">  1        2 0.95157375E-01 0.27523846E+03</pdfrwt>
<pdfrwt beam="2">  1       -2 0.47107394E-02 0.27523846E+03</pdfrwt>
<totfact> 0.10391070E+04</totfact>
</mgrwt>
</event>
<event>
 9    1  0.2024718E-002  0.2750710E+03  0.7818608E-02  0.1098412E+00
          1   -1    0    0  501    0  0.00000000000E+00  0.00000000000E+00  0.19345939131E+04  0.19345939131E+04  0.00000000000E+00 0. -1.
         -1   -1    0    0    0  501 -0.00000000000E+00 -0.00000000000E+00 -0.97777675930E+01  0.97777675930E+01  0.00000000000E+00 0. -1.
         36    2    1    2    0    0  0.00000000000E+00 -0.14210854715E-13  0.19248161455E+04  0.19443716807E+04  0.27507097026E+03 0.  0.
         25    2    3    3    0    0  0.31012093470E+02 -0.43813991912E+02  0.87172995212E+03  0.88265830294E+03  0.12763680694E+03 0.  0.
         25    2    3    3    0    0 -0.31012093470E+02  0.43813991912E+02  0.10530861934E+04  0.10617133778E+04  0.12394898137E+03 0.  0.
          5    1    4    4  502    0  0.57964224304E+02 -0.76018963156E+02  0.63794786262E+03  0.64508782307E+03  0.47000000000E+01 0. -1.
         -5    1    4    4    0  502 -0.26952130834E+02  0.32204971244E+02  0.23378208951E+03  0.23757047986E+03  0.47000000000E+01 0. -1.
          5    1    5    5  503    0 -0.25616643087E+02 -0.25787281256E+02  0.10817443237E+03  0.11421468424E+03  0.47000000000E+01 0.  1.
         -5    1    5    5    0  503 -0.53954503828E+01  0.69601273168E+02  0.94491176105E+03  0.94749869355E+03  0.47000000000E+01 0.  1.
<mgrwt>
<rscale>  0 0.27507097E+03</rscale>
<asrwt>0</asrwt>
<pdfrwt beam="1">  1        1 0.29762953E+00 0.27507097E+03</pdfrwt>
<pdfrwt beam="2">  1       -1 0.15042735E-02 0.27507097E+03</pdfrwt>
<totfact> 0.38670514E+03</totfact>
</mgrwt>
</event>
<event>
 9    1  0.2024718E-002  0.2721284E+03  0.7818608E-02  0.1100068E+00
         -1   -1    0    0    0  501 -0.00000000000E+00  0.00000000000E+00  0.54655982137E+03  0.54655982137E+03  0.00000000000E+00 0. -1.
          1   -1    0    0  501    0  0.00000000000E+00 -0.00000000000E+00 -0.33872726576E+02  0.33872726576E+02  0.00000000000E+00 0. -1.
         36    2    1    2    0    0 -0.14210854715E-13 -0.35527136788E-14  0.51268709479E+03  0.58043254794E+03  0.27212843575E+03 0.  0.
         25    2    3    3    0    0  0.40559472206E+02 -0.30660121727E+02  0.27001068176E+03  0.30282102034E+03  0.12731727394E+03 0.  0.
         25    2    3    3    0    0 -0.40559472206E+02  0.30660121727E+02  0.24267641303E+03  0.27761152761E+03  0.12486474670E+03 0.  0.
          5    1    4    4  502    0  0.48142890020E+02  0.33135729001E+02  0.19659103734E+03  0.20514833745E+03  0.47000000000E+01 0. -1.
         -5    1    4    4    0  502 -0.75834178139E+01 -0.63795850729E+02  0.73419644423E+02  0.97672682891E+02  0.47000000000E+01 0. -1.
          5    1    5    5  503    0 -0.63732513405E+02  0.39342673942E+02  0.68449237379E+02  0.10157296567E+03  0.47000000000E+01 0.  1.
         -5    1    5    5    0  503  0.23173041199E+02 -0.86825522151E+01  0.17422717565E+03  0.17603856193E+03  0.47000000000E+01 0.  1.
<mgrwt>
<rscale>  0 0.27212844E+03</rscale>
<asrwt>0</asrwt>
<pdfrwt beam="1">  1        1 0.52111891E-02 0.27212844E+03</pdfrwt>
<pdfrwt beam="2">  1       -1 0.84086120E-01 0.27212844E+03</pdfrwt>
<totfact> 0.23039868E+03</totfact>
</mgrwt>
</event>
<event>
 9    1  0.2024718E-002  0.2736229E+03  0.7818608E-02  0.1099224E+00
          2   -1    0    0  501    0  0.00000000000E+00  0.00000000000E+00  0.56527573416E+03  0.56527573416E+03  0.00000000000E+00 0.  1.
         -2   -1    0    0    0  501 -0.00000000000E+00 -0.00000000000E+00 -0.33111933698E+02  0.33111933698E+02  0.00000000000E+00 0.  1.
         36    2    1    2    0    0  0.71054273576E-14  0.35527136788E-14  0.53216380046E+03  0.59838766786E+03  0.27362289839E+03 0.  0.
         25    2    3    3    0    0 -0.41518568099E+02 -0.28638180802E+02  0.22138822863E+03  0.25854212190E+03  0.12364199984E+03 0.  0.
         25    2    3    3    0    0  0.41518568099E+02  0.28638180802E+02  0.31077557183E+03  0.33984554595E+03  0.12794374609E+03 0.  0.
          5    1    4    4  502    0 -0.31598956273E+02  0.28123772311E+02  0.18588957623E+03  0.19069993486E+03  0.47000000000E+01 0. -1.
         -5    1    4    4    0  502 -0.99196118260E+01 -0.56761953112E+02  0.35498652407E+02  0.67842187042E+02  0.47000000000E+01 0. -1.
          5    1    5    5  503    0  0.87196334620E+02  0.24121632855E+02  0.22256438843E+03  0.24029575722E+03  0.47000000000E+01 0. -1.
         -5    1    5    5    0  503 -0.45677766521E+02  0.45165479463E+01  0.88211183399E+02  0.99549788731E+02  0.47000000000E+01 0. -1.
<mgrwt>
<rscale>  0 0.27362290E+03</rscale>
<asrwt>0</asrwt>
<pdfrwt beam="1">  1        2 0.86965491E-01 0.27362290E+03</pdfrwt>
<pdfrwt beam="2">  1       -2 0.50941440E-02 0.27362290E+03</pdfrwt>
<totfact> 0.10238299E+04</totfact>
</mgrwt>
</event>
<event>
 9    1  0.2024718E-002  0.2759523E+03  0.7818608E-02  0.1097920E+00
          2   -1    0    0  501    0  0.00000000000E+00  0.00000000000E+00  0.17809436094E+03  0.17809436094E+03  0.00000000000E+00 0.  1.
         -2   -1    0    0    0  501 -0.00000000000E+00 -0.00000000000E+00 -0.10689510245E+03  0.10689510245E+03  0.00000000000E+00 0.  1.
         36    2    1    2    0    0  0.00000000000E+00  0.00000000000E+00  0.71199258492E+02  0.28498946339E+03  0.27595227819E+03 0.  0.
         25    2    3    3    0    0 -0.60911775150E+02  0.99732982597E+01  0.47543103561E+02  0.14485827589E+03  0.12212232543E+03 0.  0.
         25    2    3    3    0    0  0.60911775150E+02 -0.99732982597E+01  0.23656154932E+02  0.14013118750E+03  0.12356142203E+03 0.  0.
          5    1    4    4  502    0 -0.88214117520E+02  0.39024052482E+02  0.36287420964E+02  0.10316721438E+03  0.47000000000E+01 0.  1.
         -5    1    4    4    0  502  0.27302342370E+02 -0.29050754222E+02  0.11255682596E+02  0.41691061518E+02  0.47000000000E+01 0.  1.
          5    1    5    5  503    0  0.27418885658E+02 -0.62340820368E+02  0.35082427312E+02  0.76753109911E+02  0.47000000000E+01 0.  1.
         -5    1    5    5    0  503  0.33492889492E+02  0.52367522108E+02 -0.11426272380E+02  0.63378077588E+02  0.47000000000E+01 0.  1.
<mgrwt>
<rscale>  0 0.27595228E+03</rscale>
<asrwt>0</asrwt>
<pdfrwt beam="1">  1        2 0.27399132E-01 0.27595228E+03</pdfrwt>
<pdfrwt beam="2">  1       -2 0.16445400E-01 0.27595228E+03</pdfrwt>
<totfact> 0.56528459E+03</totfact>
</mgrwt>
</event>
<event>
 9    1  0.2024718E-002  0.2748712E+03  0.7818608E-02  0.1098524E+00
          2   -1    0    0  501    0  0.00000000000E+00  0.00000000000E+00  0.90081333804E+03  0.90081333804E+03  0.00000000000E+00 0.  1.
         -2   -1    0    0    0  501 -0.00000000000E+00 -0.00000000000E+00 -0.20968328676E+02  0.20968328676E+02  0.00000000000E+00 0.  1.
         36    2    1    2    0    0  0.00000000000E+00  0.71054273576E-14  0.87984500937E+03  0.92178166672E+03  0.27487124366E+03 0.  0.
         25    2    3    3    0    0 -0.14808363452E+02  0.49735479714E+02  0.35375126314E+03  0.37886324599E+03  0.12531758621E+03 0.  0.
         25    2    3    3    0    0  0.14808363452E+02 -0.49735479714E+02  0.52609374622E+03  0.54291842073E+03  0.12366436910E+03 0.  0.
          5    1    4    4  502    0 -0.64499994807E+02  0.14417098159E+02  0.11819113412E+03  0.13549662813E+03  0.47000000000E+01 0.  1.
         -5    1    4    4    0  502  0.49691631354E+02  0.35318381555E+02  0.23556012902E+03  0.24336661786E+03  0.47000000000E+01 0.  1.
          5    1    5    5  503    0  0.47736805055E+02 -0.49012965537E+02  0.14526980100E+03  0.16064394925E+03  0.47000000000E+01 0. -1.
         -5    1    5    5    0  503 -0.32928441603E+02 -0.72251417676E+00  0.38082394522E+03  0.38227447148E+03  0.47000000000E+01 0. -1.
<mgrwt>
<rscale>  0 0.27487124E+03</rscale>
<asrwt>0</asrwt>
<pdfrwt beam="1">  1        2 0.13858664E+00 0.27487124E+03</pdfrwt>
<pdfrwt beam="2">  1       -2 0.32258974E-02 0.27487124E+03</pdfrwt>
<totfact> 0.11494397E+04</totfact>
</mgrwt>
</event>
<event>
 9    1  0.2024718E-002  0.2745172E+03  0.7818608E-02  0.1098722E+00
         -1   -1    0    0    0  501 -0.00000000000E+00  0.00000000000E+00  0.16713154249E+02  0.16713154249E+02  0.00000000000E+00 0. -1.
          1   -1    0    0  501    0  0.00000000000E+00 -0.00000000000E+00 -0.11272513395E+04  0.11272513395E+04  0.00000000000E+00 0. -1.
         36    2    1    2    0    0 -0.14210854715E-13  0.00000000000E+00 -0.11105381853E+04  0.11439644938E+04  0.27451721633E+03 0.  0.
         25    2    3    3    0    0 -0.35987785530E+02  0.11751622219E+02 -0.76779347604E+03  0.77805182420E+03  0.12010244777E+03 0.  0.
         25    2    3    3    0    0  0.35987785530E+02 -0.11751622219E+02 -0.34274470926E+03  0.36591266960E+03  0.12241292707E+03 0.  0.
          5    1    4    4  502    0  0.40161247958E+02  0.19590169421E+02 -0.19282070452E+03  0.19798640021E+03  0.47000000000E+01 0. -1.
         -5    1    4    4    0  502 -0.76149033487E+02 -0.78385472023E+01 -0.57497277151E+03  0.58006542399E+03  0.47000000000E+01 0. -1.
          5    1    5    5  503    0  0.49244911831E+02  0.46687945919E+02 -0.18329316101E+03  0.19550779654E+03  0.47000000000E+01 0.  1.
         -5    1    5    5    0  503 -0.13257126301E+02 -0.58439568137E+02 -0.15945154825E+03  0.17040487306E+03  0.47000000000E+01 0.  1.
<mgrwt>
<rscale>  0 0.27451722E+03</rscale>
<asrwt>0</asrwt>
<pdfrwt beam="1">  1        1 0.17342332E+00 0.27451722E+03</pdfrwt>
<pdfrwt beam="2">  1       -1 0.25712540E-02 0.27451722E+03</pdfrwt>
<totfact> 0.61077572E+03</totfact>
</mgrwt>
</event>
<event>
 9    1  0.2024718E-002  0.2765151E+03  0.7818608E-02  0.1097608E+00
         -3   -1    0    0    0  501 -0.00000000000E+00  0.00000000000E+00  0.11198052732E+03  0.11198052732E+03  0.00000000000E+00 0.  1.
          3   -1    0    0  501    0  0.00000000000E+00 -0.00000000000E+00 -0.17070069279E+03  0.17070069279E+03  0.00000000000E+00 0.  1.
         36    2    1    2    0    0  0.00000000000E+00  0.00000000000E+00 -0.58720165476E+02  0.28268122011E+03  0.27651512503E+03 0.  0.
         25    2    3    3    0    0  0.12001222715E+02  0.45712639934E+02 -0.63956401622E+02  0.15291493555E+03  0.13060965282E+03 0.  0.
         25    2    3    3    0    0 -0.12001222715E+02 -0.45712639934E+02  0.52362361457E+01  0.12976628456E+03  0.12074019895E+03 0.  0.
          5    1    4    4  502    0 -0.29942113714E+02 -0.30367501231E+02 -0.48142416251E+02  0.64486413663E+02  0.47000000000E+01 0. -1.
         -5    1    4    4    0  502  0.41943336429E+02  0.76080141165E+02 -0.15813985371E+02  0.88428521891E+02  0.47000000000E+01 0. -1.
          5    1    5    5  503    0 -0.47238524223E+02 -0.71309736173E+02  0.15063191612E+00  0.85666033723E+02  0.47000000000E+01 0. -1.
         -5    1    5    5    0  503  0.35237301508E+02  0.25597096239E+02  0.50856042296E+01  0.44100250836E+02  0.47000000000E+01 0. -1.
<mgrwt>
<rscale>  0 0.27651513E+03</rscale>
<asrwt>0</asrwt>
<pdfrwt beam="1">  1        3 0.26261645E-01 0.27651513E+03</pdfrwt>
<pdfrwt beam="2">  1       -3 0.17227773E-01 0.27651513E+03</pdfrwt>
<totfact> 0.10199403E+03</totfact>
</mgrwt>
</event>
<event>
 9    1  0.2024718E-002  0.2780427E+03  0.7818608E-02  0.1096763E+00
         -2   -1    0    0    0  501 -0.00000000000E+00  0.00000000000E+00  0.13364232227E+02  0.13364232227E+02  0.00000000000E+00 0. -1.
          2   -1    0    0  501    0  0.00000000000E+00 -0.00000000000E+00 -0.14461687550E+04  0.14461687550E+04  0.00000000000E+00 0. -1.
         36    2    1    2    0    0  0.00000000000E+00  0.00000000000E+00 -0.14328045228E+04  0.14595329872E+04  0.27804269515E+03 0.  0.
         25    2    3    3    0    0  0.52120306104E+02  0.14940730120E+02 -0.82562069273E+03  0.83715959475E+03  0.12746335590E+03 0.  0.
         25    2    3    3    0    0 -0.52120306104E+02 -0.14940730120E+02 -0.60718383003E+03  0.62237339246E+03  0.12544594242E+03 0.  0.
          5    1    4    4  502    0  0.30527294863E+02  0.63484356074E+02 -0.27336977902E+03  0.28233899001E+03  0.47000000000E+01 0.  1.
         -5    1    4    4    0  502  0.21593011241E+02 -0.48543625954E+02 -0.55225091371E+03  0.55482060474E+03  0.47000000000E+01 0.  1.
          5    1    5    5  503    0  0.23152527278E+02  0.37286445730E+02 -0.22965346516E+03  0.23385705594E+03  0.47000000000E+01 0.  1.
         -5    1    5    5    0  503 -0.75272833382E+02 -0.52227175850E+02 -0.37753036487E+03  0.38851633652E+03  0.47000000000E+01 0.  1.
<mgrwt>
<rscale>  0 0.27804270E+03</rscale>
<asrwt>0</asrwt>
<pdfrwt beam="1">  1        2 0.22248740E+00 0.27804270E+03</pdfrwt>
<pdfrwt beam="2">  1       -2 0.20560366E-02 0.27804270E+03</pdfrwt>
<totfact> 0.10827795E+04</totfact>
</mgrwt>
</event>
<event>
 9    1  0.2024718E-002  0.2749601E+03  0.7818608E-02  0.1098474E+00
         -2   -1    0    0    0  501 -0.00000000000E+00  0.00000000000E+00  0.12119415936E+02  0.12119415936E+02  0.00000000000E+00 0. -1.
          2   -1    0    0  501    0  0.00000000000E+00 -0.00000000000E+00 -0.15595443440E+04  0.15595443440E+04  0.00000000000E+00 0. -1.
         36    2    1    2    0    0 -0.71054273576E-14  0.00000000000E+00 -0.15474249280E+04  0.15716637599E+04  0.27496011765E+03 0.  0.
         25    2    3    3    0    0  0.53449706120E+02 -0.36893045219E+01 -0.75351909563E+03  0.76633450200E+03  0.12886838023E+03 0.  0.
         25    2    3    3    0    0 -0.53449706120E+02  0.36893045219E+01 -0.79390583242E+03  0.80532925792E+03  0.12408972908E+03 0.  0.
          5    1    4    4  502    0  0.19672995548E+02 -0.64943009022E+02 -0.42598645407E+03  0.43138285805E+03  0.47000000000E+01 0. -1.
         -5    1    4    4    0  502  0.33776710571E+02  0.61253704501E+02 -0.32753264156E+03  0.33495164394E+03  0.47000000000E+01 0. -1.
          5    1    5    5  503    0  0.21533307850E+02  0.24447149451E+02 -0.71291954800E+02  0.78523749798E+02  0.47000000000E+01 0. -1.
         -5    1    5    5    0  503 -0.74983013969E+02 -0.20757844929E+02 -0.72261387762E+03  0.72680550812E+03  0.47000000000E+01 0. -1.
<mgrwt>
<rscale>  0 0.27496012E+03</rscale>
<asrwt>0</asrwt>
<pdfrwt beam="1">  1        2 0.23992964E+00 0.27496012E+03</pdfrwt>
<pdfrwt beam="2">  1       -2 0.18645276E-02 0.27496012E+03</pdfrwt>
<totfact> 0.10869188E+04</totfact>
</mgrwt>
</event>
<event>
 9    1  0.2024718E-002  0.2750569E+03  0.7818608E-02  0.1098420E+00
          2   -1    0    0  501    0  0.00000000000E+00  0.00000000000E+00  0.14712104159E+04  0.14712104159E+04  0.00000000000E+00 0. -1.
         -2   -1    0    0    0  501 -0.00000000000E+00 -0.00000000000E+00 -0.12856134587E+02  0.12856134587E+02  0.00000000000E+00 0. -1.
         36    2    1    2    0    0  0.35527136788E-14  0.00000000000E+00  0.14583542813E+04  0.14840665505E+04  0.27505693311E+03 0.  0.
         25    2    3    3    0    0  0.10268648085E+02  0.45495032321E+02  0.58404944675E+03  0.59960318163E+03  0.12741654554E+03 0.  0.
         25    2    3    3    0    0 -0.10268648085E+02 -0.45495032321E+02  0.87430483459E+03  0.88446336888E+03  0.12526477560E+03 0.  0.
          5    1    4    4  502    0 -0.34284822064E+02 -0.78637889384E+01  0.51664059993E+02  0.62678172400E+02  0.47000000000E+01 0.  1.
         -5    1    4    4    0  502  0.44553470149E+02  0.53358821260E+02  0.53238538675E+03  0.53692500923E+03  0.47000000000E+01 0.  1.
          5    1    5    5  503    0  0.13283084301E+02 -0.50382717381E+02  0.84339570150E+03  0.84501672045E+03  0.47000000000E+01 0. -1.
         -5    1    5    5    0  503 -0.23551732386E+02  0.48876850596E+01  0.30909133086E+02  0.39446648422E+02  0.47000000000E+01 0. -1.
<mgrwt>
<rscale>  0 0.27505693E+03</rscale>
<asrwt>0</asrwt>
<pdfrwt beam="1">  1        2 0.22633993E+00 0.27505693E+03</pdfrwt>
<pdfrwt beam="2">  1       -2 0.19778680E-02 0.27505693E+03</pdfrwt>
<totfact> 0.11110547E+04</totfact>
</mgrwt>
</event>
<event>
 9    1  0.2024718E-002  0.2749143E+03  0.7818608E-02  0.1098500E+00
          2   -1    0    0  501    0  0.00000000000E+00  0.00000000000E+00  0.59644572500E+03  0.59644572500E+03  0.00000000000E+00 0. -1.
         -2   -1    0    0    0  501 -0.00000000000E+00 -0.00000000000E+00 -0.31678426110E+02  0.31678426110E+02  0.00000000000E+00 0. -1.
         36    2    1    2    0    0 -0.22204460493E-14  0.00000000000E+00  0.56476729889E+03  0.62812415111E+03  0.27491425447E+03 0.  0.
         25    2    3    3    0    0 -0.22862191887E+01 -0.29312756554E+02  0.18383036686E+03  0.22629500065E+03  0.12865208527E+03 0.  0.
         25    2    3    3    0    0  0.22862191887E+01  0.29312756554E+02  0.38093693203E+03  0.40182915046E+03  0.12445583747E+03 0.  0.
          5    1    4    4  502    0 -0.42260436396E+01 -0.61613731825E+02  0.18341841774E+03  0.19359369143E+03  0.47000000000E+01 0.  1.
         -5    1    4    4    0  502  0.19398244509E+01  0.32300975272E+02  0.41194911610E+00  0.32701309217E+02  0.47000000000E+01 0.  1.
          5    1    5    5  503    0 -0.32016664099E+02 -0.21110739154E+02  0.40626207003E+02  0.56065219015E+02  0.47000000000E+01 0.  1.
         -5    1    5    5    0  503  0.34302883288E+02  0.50423495708E+02  0.34031072503E+03  0.34576393145E+03  0.47000000000E+01 0.  1.
<mgrwt>
<rscale>  0 0.27491425E+03</rscale>
<asrwt>0</asrwt>
<pdfrwt beam="1">  1        2 0.91760872E-01 0.27491425E+03</pdfrwt>
<pdfrwt beam="2">  1       -2 0.48736045E-02 0.27491425E+03</pdfrwt>
<totfact> 0.10295483E+04</totfact>
</mgrwt>
</event>
<event>
 9    1  0.2024718E-002  0.2750023E+03  0.7818608E-02  0.1098450E+00
         -1   -1    0    0    0  501 -0.00000000000E+00  0.00000000000E+00  0.27279345262E+03  0.27279345262E+03  0.00000000000E+00 0.  1.
          1   -1    0    0  501    0  0.00000000000E+00 -0.00000000000E+00 -0.69307282243E+02  0.69307282243E+02  0.00000000000E+00 0.  1.
         36    2    1    2    0    0  0.71054273576E-14 -0.35527136788E-14  0.20348617037E+03  0.34210073486E+03  0.27500234773E+03 0.  0.
         25    2    3    3    0    0  0.27144243220E+02  0.50965411007E+01  0.14899786542E+03  0.19387017910E+03  0.12092352034E+03 0.  0.
         25    2    3    3    0    0 -0.27144243220E+02 -0.50965411007E+01  0.54488304952E+02  0.14823055576E+03  0.13505753446E+03 0.  0.
          5    1    4    4  502    0  0.50658227692E+02  0.15565373549E+02  0.15759165217E+03  0.16633026099E+03  0.47000000000E+01 0.  1.
         -5    1    4    4    0  502 -0.23513984471E+02 -0.10468832448E+02 -0.85937867524E+01  0.27539918106E+02  0.47000000000E+01 0.  1.
          5    1    5    5  503    0  0.49561132954E+02 -0.14879421917E+02 -0.25596759346E+01  0.52022543547E+02  0.47000000000E+01 0.  1.
         -5    1    5    5    0  503 -0.76705376174E+02  0.97828808162E+01  0.57047980887E+02  0.96208012215E+02  0.47000000000E+01 0.  1.
<mgrwt>
<rscale>  0 0.27500235E+03</rscale>
<asrwt>0</asrwt>
<pdfrwt beam="1">  1        1 0.10662659E-01 0.27500235E+03</pdfrwt>
<pdfrwt beam="2">  1       -1 0.41968223E-01 0.27500235E+03</pdfrwt>
<totfact> 0.33168432E+03</totfact>
</mgrwt>
</event>
<event>
 9    1  0.2024718E-002  0.2814354E+03  0.7818608E-02  0.1094908E+00
         -2   -1    0    0    0  501 -0.00000000000E+00  0.00000000000E+00  0.39808825567E+02  0.39808825567E+02  0.00000000000E+00 0. -1.
          2   -1    0    0  501    0  0.00000000000E+00 -0.00000000000E+00 -0.49741393321E+03  0.49741393321E+03  0.00000000000E+00 0. -1.
         36    2    1    2    0    0  0.00000000000E+00 -0.35527136788E-14 -0.45760510765E+03  0.53722275878E+03  0.28143535316E+03 0.  0.
         25    2    3    3    0    0  0.58767194032E+02 -0.82015486547E+00 -0.28101342636E+03  0.31225112763E+03  0.12279236606E+03 0.  0.
         25    2    3    3    0    0 -0.58767194032E+02  0.82015486547E+00 -0.17659168129E+03  0.22497163115E+03  0.12638574751E+03 0.  0.
          5    1    4    4  502    0  0.53004201389E+02  0.28599894561E+02 -0.27468926366E+03  0.28125376603E+03  0.47000000000E+01 0.  1.
         -5    1    4    4    0  502  0.57629926428E+01 -0.29420049427E+02 -0.63241626986E+01  0.30997361602E+02  0.47000000000E+01 0.  1.
          5    1    5    5  503    0 -0.32475677563E+02 -0.49039978649E+02 -0.15245259739E+03  0.16347315862E+03  0.47000000000E+01 0.  1.
         -5    1    5    5    0  503 -0.26291516469E+02  0.49860133514E+02 -0.24139083903E+02  0.61498472533E+02  0.47000000000E+01 0.  1.
<mgrwt>
<rscale>  0 0.28143535E+03</rscale>
<asrwt>0</asrwt>
<pdfrwt beam="1">  1        2 0.76525228E-01 0.28143535E+03</pdfrwt>
<pdfrwt beam="2">  1       -2 0.61244341E-02 0.28143535E+03</pdfrwt>
<totfact> 0.89380582E+03</totfact>
</mgrwt>
</event>
<event>
 9    1  0.2024718E-002  0.2759434E+03  0.7818608E-02  0.1097925E+00
         -1   -1    0    0    0  501 -0.00000000000E+00  0.00000000000E+00  0.18656273671E+02  0.18656273671E+02  0.00000000000E+00 0. -1.
          1   -1    0    0  501    0  0.00000000000E+00 -0.00000000000E+00 -0.10203637437E+04  0.10203637437E+04  0.00000000000E+00 0. -1.
         36    2    1    2    0    0  0.00000000000E+00  0.71054273576E-14 -0.10017074700E+04  0.10390200174E+04  0.27594336554E+03 0.  0.
         25    2    3    3    0    0 -0.46895109333E+02  0.21209637137E+02 -0.60754922251E+03  0.62214573185E+03  0.12369419507E+03 0.  0.
         25    2    3    3    0    0  0.46895109333E+02 -0.21209637137E+02 -0.39415824752E+03  0.41687428553E+03  0.12559636085E+03 0.  0.
          5    1    4    4  502    0 -0.81081308908E+02 -0.15513378160E+02 -0.34163122730E+03  0.35149513371E+03  0.47000000000E+01 0. -1.
         -5    1    4    4    0  502  0.34186199575E+02  0.36723015298E+02 -0.26591799522E+03  0.27065059814E+03  0.47000000000E+01 0. -1.
          5    1    5    5  503    0  0.33251422376E+02 -0.54875307058E+02 -0.90626376904E+02  0.11114039142E+03  0.47000000000E+01 0. -1.
         -5    1    5    5    0  503  0.13643686956E+02  0.33665669920E+02 -0.30353187062E+03  0.30573389411E+03  0.47000000000E+01 0. -1.
<mgrwt>
<rscale>  0 0.27594337E+03</rscale>
<asrwt>0</asrwt>
<pdfrwt beam="1">  1        1 0.15697904E+00 0.27594337E+03</pdfrwt>
<pdfrwt beam="2">  1       -1 0.28701958E-02 0.27594337E+03</pdfrwt>
<totfact> 0.62144576E+03</totfact>
</mgrwt>
</event>
<event>
 9    1  0.2024718E-002  0.2748111E+03  0.7818608E-02  0.1098557E+00
          3   -1    0    0  501    0  0.00000000000E+00  0.00000000000E+00  0.19415341978E+03  0.19415341978E+03  0.00000000000E+00 0. -1.
         -3   -1    0    0    0  501 -0.00000000000E+00 -0.00000000000E+00 -0.97244127217E+02  0.97244127217E+02  0.00000000000E+00 0. -1.
         36    2    1    2    0    0 -0.71054273576E-14  0.00000000000E+00  0.96909292565E+02  0.29139754700E+03  0.27481106130E+03 0.  0.
         25    2    3    3    0    0 -0.35416001100E+02  0.20339287654E+02  0.69230163644E+01  0.13285263791E+03  0.12622961415E+03 0.  0.
         25    2    3    3    0    0  0.35416001100E+02 -0.20339287654E+02  0.89986276200E+02  0.15854490909E+03  0.12397975051E+03 0.  0.
          5    1    4    4  502    0  0.28352041420E+02  0.35081897941E+02  0.38999805941E+02  0.59813482421E+02  0.47000000000E+01 0.  1.
         -5    1    4    4    0  502 -0.63768042520E+02 -0.14742610287E+02 -0.32076789577E+02  0.73039155489E+02  0.47000000000E+01 0.  1.
          5    1    5    5  503    0 -0.14708706725E+02 -0.62651758080E+02  0.39736260260E+02  0.75780269355E+02  0.47000000000E+01 0. -1.
         -5    1    5    5    0  503  0.50124707825E+02  0.42312470426E+02  0.50250015940E+02  0.82764639733E+02  0.47000000000E+01 0. -1.
<mgrwt>
<rscale>  0 0.27481106E+03</rscale>
<asrwt>0</asrwt>
<pdfrwt beam="1">  1        3 0.29869757E-01 0.27481106E+03</pdfrwt>
<pdfrwt beam="2">  1       -3 0.14960635E-01 0.27481106E+03</pdfrwt>
<totfact> 0.10264396E+03</totfact>
</mgrwt>
</event>
<event>
 9    1  0.2024718E-002  0.2756749E+03  0.7818608E-02  0.1098075E+00
         -2   -1    0    0    0  501 -0.00000000000E+00  0.00000000000E+00  0.31824766831E+02  0.31824766831E+02  0.00000000000E+00 0.  1.
          2   -1    0    0  501    0  0.00000000000E+00 -0.00000000000E+00 -0.59699316446E+03  0.59699316446E+03  0.00000000000E+00 0.  1.
         36    2    1    2    0    0 -0.35527136788E-14 -0.71054273576E-14 -0.56516839763E+03  0.62881793129E+03  0.27567494089E+03 0.  0.
         25    2    3    3    0    0  0.28813847263E+02 -0.57365060109E+02 -0.18585354166E+03  0.23308271689E+03  0.12516000181E+03 0.  0.
         25    2    3    3    0    0 -0.28813847263E+02  0.57365060109E+02 -0.37931485597E+03  0.39573521440E+03  0.92766438101E+02 0.  0.
          5    1    4    4  502    0 -0.24591672008E+01 -0.54671853075E+02 -0.19290265594E+03  0.20057064514E+03  0.47000000000E+01 0. -1.
         -5    1    4    4    0  502  0.31273014464E+02 -0.26932070342E+01  0.70491142816E+01  0.32512071757E+02  0.47000000000E+01 0. -1.
          5    1    5    5  503    0 -0.57568918670E+02  0.12955914923E+02 -0.21846182265E+03  0.22633977574E+03  0.47000000000E+01 0. -1.
         -5    1    5    5    0  503  0.28755071407E+02  0.44409145186E+02 -0.16085303333E+03  0.16939543866E+03  0.47000000000E+01 0. -1.
<mgrwt>
<rscale>  0 0.27567494E+03</rscale>
<asrwt>0</asrwt>
<pdfrwt beam="1">  1        2 0.91845095E-01 0.27567494E+03</pdfrwt>
<pdfrwt beam="2">  1       -2 0.48961183E-02 0.27567494E+03</pdfrwt>
<totfact> 0.10213896E+04</totfact>
</mgrwt>
</event>
<event>
 9    1  0.2024718E-002  0.2746635E+03  0.7818608E-02  0.1098640E+00
         -3   -1    0    0    0  501 -0.00000000000E+00  0.00000000000E+00  0.19225083352E+02  0.19225083352E+02  0.00000000000E+00 0. -1.
          3   -1    0    0  501    0  0.00000000000E+00 -0.00000000000E+00 -0.98101077735E+03  0.98101077735E+03  0.00000000000E+00 0. -1.
         36    2    1    2    0    0  0.00000000000E+00  0.00000000000E+00 -0.96178569400E+03  0.10002358607E+04  0.27466353208E+03 0.  0.
         25    2    3    3    0    0 -0.32983338547E+02  0.43783859033E+02 -0.41014793125E+03  0.43160119325E+03  0.12269204363E+03 0.  0.
         25    2    3    3    0    0  0.32983338547E+02 -0.43783859033E+02 -0.55163776275E+03  0.56863466745E+03  0.12663426395E+03 0.  0.
          5    1    4    4  502    0  0.21165897793E+02 -0.14451233234E+02 -0.18553798969E+02  0.31986979031E+02  0.47000000000E+01 0. -1.
         -5    1    4    4    0  502 -0.54149236340E+02  0.58235092266E+02 -0.39159413228E+03  0.39961421422E+03  0.47000000000E+01 0. -1.
          5    1    5    5  503    0  0.78503820238E+02 -0.11434878942E+02 -0.26896262386E+03  0.28045782086E+03  0.47000000000E+01 0. -1.
         -5    1    5    5    0  503 -0.45520481692E+02 -0.32348980091E+02 -0.28267513889E+03  0.28817684660E+03  0.47000000000E+01 0. -1.
<mgrwt>
<rscale>  0 0.27466353E+03</rscale>
<asrwt>0</asrwt>
<pdfrwt beam="1">  1        3 0.15092473E+00 0.27466353E+03</pdfrwt>
<pdfrwt beam="2">  1       -3 0.29577051E-02 0.27466353E+03</pdfrwt>
<totfact> 0.44636338E+02</totfact>
</mgrwt>
</event>
<event>
 9    1  0.2024718E-002  0.2748386E+03  0.7818608E-02  0.1098542E+00
         -2   -1    0    0    0  501 -0.00000000000E+00  0.00000000000E+00  0.10503604202E+02  0.10503604202E+02  0.00000000000E+00 0. -1.
          2   -1    0    0  501    0  0.00000000000E+00 -0.00000000000E+00 -0.17978650729E+04  0.17978650729E+04  0.00000000000E+00 0. -1.
         36    2    1    2    0    0 -0.14210854715E-13  0.00000000000E+00 -0.17873614687E+04  0.18083686771E+04  0.27483859361E+03 0.  0.
         25    2    3    3    0    0  0.31188979378E+02  0.55907271713E+02 -0.93429736011E+03  0.94415729128E+03  0.12009603699E+03 0.  0.
         25    2    3    3    0    0 -0.31188979378E+02 -0.55907271713E+02 -0.85306410860E+03  0.86421138584E+03  0.12265631073E+03 0.  0.
          5    1    4    4  502    0  0.12348523104E+02  0.84701300867E+01 -0.10374177271E+02  0.18813364414E+02  0.47000000000E+01 0.  1.
         -5    1    4    4    0  502  0.18840456275E+02  0.47437141626E+02 -0.92392318284E+03  0.92534392686E+03  0.47000000000E+01 0.  1.
          5    1    5    5  503    0  0.47139682473E+02 -0.19150614875E+02 -0.27828580530E+03  0.28293811187E+03  0.47000000000E+01 0. -1.
         -5    1    5    5    0  503 -0.78328661851E+02 -0.36756656837E+02 -0.57477830330E+03  0.58127327397E+03  0.47000000000E+01 0. -1.
<mgrwt>
<rscale>  0 0.27483859E+03</rscale>
<asrwt>0</asrwt>
<pdfrwt beam="1">  1        2 0.27659457E+00 0.27483859E+03</pdfrwt>
<pdfrwt beam="2">  1       -2 0.16159394E-02 0.27483859E+03</pdfrwt>
<totfact> 0.10037008E+04</totfact>
</mgrwt>
</event>
