<event>
 4    1  0.1759998E-004  0.3050855E+03  0.7818608E-02  0.1082726E+00
         -2   -1    0    0    0  501 -0.00000000000E+00  0.00000000000E+00  0.92600633206E+03  0.92600633206E+03  0.00000000000E+00 0.  1.
          2   -1    0    0  501    0  0.00000000000E+00 -0.00000000000E+00 -0.25128647987E+02  0.25128647987E+02  0.00000000000E+00 0.  1.
         25    1    1    2    0    0 -0.53498716789E+02  0.55666059004E+01  0.69144754249E+03  0.70384146214E+03  0.12000000000E+03 0.  0.
         25    1    1    2    0    0  0.53498716789E+02 -0.55666059004E+01  0.20943014158E+03  0.24729351791E+03  0.12000000000E+03 0.  0.
<mgrwt>
<rscale>  0 0.30508548E+03</rscale>
<asrwt>0</asrwt>
<pdfrwt beam="1">  1        2 0.38659465E-02 0.30508548E+03</pdfrwt>
<pdfrwt beam="2">  1       -2 0.14246249E+00 0.30508548E+03</pdfrwt>
<totfact> 0.80598115E+02</totfact>
</mgrwt>
</event>
<event>
 4    1  0.1759998E-004  0.2565676E+03  0.7818608E-02  0.1109223E+00
          1   -1    0    0  501    0  0.00000000000E+00  0.00000000000E+00  0.17139352299E+04  0.17139352299E+04  0.00000000000E+00 0.  1.
         -1   -1    0    0    0  501 -0.00000000000E+00 -0.00000000000E+00 -0.96017275528E+01  0.96017275528E+01  0.00000000000E+00 0.  1.
         25    1    1    2    0    0 -0.34159936793E+02 -0.23949201202E+02  0.73269913890E+03  0.74363196117E+03  0.12000000000E+03 0.  0.
         25    1    1    2    0    0  0.34159936793E+02  0.23949201202E+02  0.97163436343E+03  0.97990499628E+03  0.12000000000E+03 0.  0.
<mgrwt>
<rscale>  0 0.25656765E+03</rscale>
<asrwt>0</asrwt>
<pdfrwt beam="1">  1        1 0.26368210E+00 0.25656765E+03</pdfrwt>
<pdfrwt beam="2">  1       -1 0.14771902E-02 0.25656765E+03</pdfrwt>
<totfact> 0.55210253E+03</totfact>
</mgrwt>
</event>
<event>
 4    1  0.1759998E-004  0.3013125E+03  0.7818608E-02  0.1084586E+00
         -2   -1    0    0    0  501 -0.00000000000E+00  0.00000000000E+00  0.25612669164E+03  0.25612669164E+03  0.00000000000E+00 0. -1.
          2   -1    0    0  501    0  0.00000000000E+00 -0.00000000000E+00 -0.88617484546E+02  0.88617484546E+02  0.00000000000E+00 0. -1.
         25    1    1    2    0    0 -0.46328513930E+02  0.64709548449E+02  0.13445501020E+03  0.19700712330E+03  0.12000000000E+03 0.  0.
         25    1    1    2    0    0  0.46328513930E+02 -0.64709548449E+02  0.33054196898E+02  0.14773705289E+03  0.12000000000E+03 0.  0.
<mgrwt>
<rscale>  0 0.30131248E+03</rscale>
<asrwt>0</asrwt>
<pdfrwt beam="1">  1        2 0.13633459E-01 0.30131248E+03</pdfrwt>
<pdfrwt beam="2">  1       -2 0.39404106E-01 0.30131248E+03</pdfrwt>
<totfact> 0.26810121E+03</totfact>
</mgrwt>
</event>
<event>
 4    1  0.1759998E-004  0.2512813E+03  0.7818608E-02  0.1112498E+00
          2   -1    0    0  501    0  0.00000000000E+00  0.00000000000E+00  0.56929509305E+02  0.56929509305E+02  0.00000000000E+00 0.  1.
         -2   -1    0    0    0  501 -0.00000000000E+00 -0.00000000000E+00 -0.27728272081E+03  0.27728272081E+03  0.00000000000E+00 0.  1.
         25    1    1    2    0    0  0.33362919691E+02  0.43871310534E+01 -0.13134201038E+03  0.18106091522E+03  0.12000000000E+03 0.  0.
         25    1    1    2    0    0 -0.33362919691E+02 -0.43871310534E+01 -0.89011201130E+02  0.15315131490E+03  0.12000000000E+03 0.  0.
<mgrwt>
<rscale>  0 0.25128127E+03</rscale>
<asrwt>0</asrwt>
<pdfrwt beam="1">  1        2 0.87583862E-02 0.25128127E+03</pdfrwt>
<pdfrwt beam="2">  1       -2 0.42658880E-01 0.25128127E+03</pdfrwt>
<totfact> 0.39464337E+03</totfact>
</mgrwt>
</event>
<event>
 4    1  0.1759998E-004  0.2965096E+03  0.7818608E-02  0.1086999E+00
         -1   -1    0    0    0  501 -0.00000000000E+00  0.00000000000E+00  0.12202993875E+03  0.12202993875E+03  0.00000000000E+00 0.  1.
          1   -1    0    0  501    0  0.00000000000E+00 -0.00000000000E+00 -0.18011547461E+03  0.18011547461E+03  0.00000000000E+00 0.  1.
         25    1    1    2    0    0 -0.32825361940E+02 -0.49214412984E+02  0.36045541416E+02  0.13855989278E+03  0.12000000000E+03 0.  0.
         25    1    1    2    0    0  0.32825361940E+02  0.49214412984E+02 -0.94131077276E+02  0.16358552057E+03  0.12000000000E+03 0.  0.
<mgrwt>
<rscale>  0 0.29650956E+03</rscale>
<asrwt>0</asrwt>
<pdfrwt beam="1">  1        1 0.27710073E-01 0.29650956E+03</pdfrwt>
<pdfrwt beam="2">  1       -1 0.18773837E-01 0.29650956E+03</pdfrwt>
<totfact> 0.37393848E+03</totfact>
</mgrwt>
</event>
<event>
 4    1  0.1759998E-004  0.3295643E+03  0.7818608E-02  0.1071330E+00
          1   -1    0    0  501    0  0.00000000000E+00  0.00000000000E+00  0.27013425849E+03  0.27013425849E+03  0.00000000000E+00 0. -1.
         -1   -1    0    0    0  501 -0.00000000000E+00 -0.00000000000E+00 -0.10051727189E+03  0.10051727189E+03  0.00000000000E+00 0. -1.
         25    1    1    2    0    0 -0.70724745850E+02  0.24486564890E+02 -0.10301584663E+02  0.14180163674E+03  0.12000000000E+03 0.  0.
         25    1    1    2    0    0  0.70724745850E+02 -0.24486564890E+02  0.17991857126E+03  0.22884989364E+03  0.12000000000E+03 0.  0.
<mgrwt>
<rscale>  0 0.32956431E+03</rscale>
<asrwt>0</asrwt>
<pdfrwt beam="1">  1        1 0.41559116E-01 0.32956431E+03</pdfrwt>
<pdfrwt beam="2">  1       -1 0.15464196E-01 0.32956431E+03</pdfrwt>
<totfact> 0.30679240E+03</totfact>
</mgrwt>
</event>
<event>
 4    1  0.1759998E-004  0.3254497E+03  0.7818608E-02  0.1073168E+00
         -1   -1    0    0    0  501 -0.00000000000E+00  0.00000000000E+00  0.48649033799E+02  0.48649033799E+02  0.00000000000E+00 0. -1.
          1   -1    0    0  501    0  0.00000000000E+00 -0.00000000000E+00 -0.54429387912E+03  0.54429387912E+03  0.00000000000E+00 0. -1.
         25    1    1    2    0    0 -0.67054613773E+02 -0.78323800685E+02 -0.31716151598E+03  0.35443245647E+03  0.12000000000E+03 0.  0.
         25    1    1    2    0    0  0.67054613773E+02  0.78323800685E+02 -0.17848332934E+03  0.23851045645E+03  0.12000000000E+03 0.  0.
<mgrwt>
<rscale>  0 0.32544967E+03</rscale>
<asrwt>0</asrwt>
<pdfrwt beam="1">  1        1 0.83737515E-01 0.32544967E+03</pdfrwt>
<pdfrwt beam="2">  1       -1 0.74844672E-02 0.32544967E+03</pdfrwt>
<totfact> 0.38447145E+03</totfact>
</mgrwt>
</event>
<event>
 4    1  0.1759998E-004  0.2485325E+03  0.7818608E-02  0.1114236E+00
         -1   -1    0    0    0  501 -0.00000000000E+00  0.00000000000E+00  0.27265757475E+03  0.27265757475E+03  0.00000000000E+00 0. -1.
          1   -1    0    0  501    0  0.00000000000E+00 -0.00000000000E+00 -0.56635513601E+02  0.56635513601E+02  0.00000000000E+00 0. -1.
         25    1    1    2    0    0  0.11018819368E+02 -0.30055155918E+02  0.10248819780E+03  0.16102346868E+03  0.12000000000E+03 0.  0.
         25    1    1    2    0    0 -0.11018819368E+02  0.30055155918E+02  0.11353386335E+03  0.16826961967E+03  0.12000000000E+03 0.  0.
<mgrwt>
<rscale>  0 0.24853251E+03</rscale>
<asrwt>0</asrwt>
<pdfrwt beam="1">  1        1 0.87131561E-02 0.24853251E+03</pdfrwt>
<pdfrwt beam="2">  1       -1 0.41947318E-01 0.24853251E+03</pdfrwt>
<totfact> 0.43419568E+03</totfact>
</mgrwt>
</event>
<event>
 4    1  0.1759998E-004  0.2725346E+03  0.7818608E-02  0.1099838E+00
         -1   -1    0    0    0  501 -0.00000000000E+00  0.00000000000E+00  0.51533459046E+02  0.51533459046E+02  0.00000000000E+00 0.  1.
          1   -1    0    0  501    0  0.00000000000E+00 -0.00000000000E+00 -0.36032480667E+03  0.36032480667E+03  0.00000000000E+00 0.  1.
         25    1    1    2    0    0  0.45176451278E+02  0.43457618535E+02 -0.17777349563E+03  0.22345668955E+03  0.12000000000E+03 0.  0.
         25    1    1    2    0    0 -0.45176451278E+02 -0.43457618535E+02 -0.13101785200E+03  0.18840157616E+03  0.12000000000E+03 0.  0.
<mgrwt>
<rscale>  0 0.27253465E+03</rscale>
<asrwt>0</asrwt>
<pdfrwt beam="1">  1        1 0.55434584E-01 0.27253465E+03</pdfrwt>
<pdfrwt beam="2">  1       -1 0.79282247E-02 0.27253465E+03</pdfrwt>
<totfact> 0.60127511E+03</totfact>
</mgrwt>
</event>
<event>
 4    1  0.1759998E-004  0.2616166E+03  0.7818608E-02  0.1106176E+00
         -2   -1    0    0    0  501 -0.00000000000E+00  0.00000000000E+00  0.12079394328E+02  0.12079394328E+02  0.00000000000E+00 0. -1.
          2   -1    0    0  501    0  0.00000000000E+00 -0.00000000000E+00 -0.14165286540E+04  0.14165286540E+04  0.00000000000E+00 0. -1.
         25    1    1    2    0    0  0.10659473234E+02 -0.13291733280E+02 -0.97088375922E+03  0.97841993462E+03  0.12000000000E+03 0.  0.
         25    1    1    2    0    0 -0.10659473234E+02  0.13291733280E+02 -0.43356550046E+03  0.45018811371E+03  0.12000000000E+03 0.  0.
<mgrwt>
<rscale>  0 0.26161658E+03</rscale>
<asrwt>0</asrwt>
<pdfrwt beam="1">  1        2 0.21792743E+00 0.26161658E+03</pdfrwt>
<pdfrwt beam="2">  1       -2 0.18583688E-02 0.26161658E+03</pdfrwt>
<totfact> 0.13014396E+04</totfact>
</mgrwt>
</event>
<event>
 4    1  0.1759998E-004  0.3193058E+03  0.7818608E-02  0.1075969E+00
          1   -1    0    0  501    0  0.00000000000E+00  0.00000000000E+00  0.12305569314E+03  0.12305569314E+03  0.00000000000E+00 0. -1.
         -1   -1    0    0    0  501 -0.00000000000E+00 -0.00000000000E+00 -0.20713429659E+03  0.20713429659E+03  0.00000000000E+00 0. -1.
         25    1    1    2    0    0  0.46078336570E+02  0.41333123889E+02 -0.13013364046E+03  0.18752707701E+03  0.12000000000E+03 0.  0.
         25    1    1    2    0    0 -0.46078336570E+02 -0.41333123889E+02  0.46055037009E+02  0.14266291272E+03  0.12000000000E+03 0.  0.
<mgrwt>
<rscale>  0 0.31930584E+03</rscale>
<asrwt>0</asrwt>
<pdfrwt beam="1">  1        1 0.18931645E-01 0.31930584E+03</pdfrwt>
<pdfrwt beam="2">  1       -1 0.31866815E-01 0.31930584E+03</pdfrwt>
<totfact> 0.25286658E+03</totfact>
</mgrwt>
</event>
<event>
 4    1  0.1759998E-004  0.2770973E+03  0.7818608E-02  0.1097285E+00
          1   -1    0    0  501    0  0.00000000000E+00  0.00000000000E+00  0.75996897050E+03  0.75996897050E+03  0.00000000000E+00 0. -1.
         -1   -1    0    0    0  501 -0.00000000000E+00 -0.00000000000E+00 -0.25258573963E+02  0.25258573963E+02  0.00000000000E+00 0. -1.
         25    1    1    2    0    0  0.47695349206E+02 -0.49562877476E+02  0.39009730556E+03  0.41389277955E+03  0.12000000000E+03 0.  0.
         25    1    1    2    0    0 -0.47695349206E+02  0.49562877476E+02  0.34461309098E+03  0.37133476492E+03  0.12000000000E+03 0.  0.
<mgrwt>
<rscale>  0 0.27709733E+03</rscale>
<asrwt>0</asrwt>
<pdfrwt beam="1">  1        1 0.11691829E+00 0.27709733E+03</pdfrwt>
<pdfrwt beam="2">  1       -1 0.38859350E-02 0.27709733E+03</pdfrwt>
<totfact> 0.63893017E+03</totfact>
</mgrwt>
</event>
<event>
 4    1  0.1759998E-004  0.3086118E+03  0.7818608E-02  0.1081013E+00
          2   -1    0    0  501    0  0.00000000000E+00  0.00000000000E+00  0.33632242698E+04  0.33632242698E+04  0.00000000000E+00 0. -1.
         -2   -1    0    0    0  501 -0.00000000000E+00 -0.00000000000E+00 -0.70796061758E+01  0.70796061758E+01  0.00000000000E+00 0. -1.
         25    1    1    2    0    0  0.53578716434E+02  0.71487481171E+02  0.20909274844E+04  0.20962726168E+04  0.12000000000E+03 0.  0.
         25    1    1    2    0    0 -0.53578716434E+02 -0.71487481171E+02  0.12652171792E+04  0.12740312592E+04  0.12000000000E+03 0.  0.
<mgrwt>
<rscale>  0 0.30861175E+03</rscale>
<asrwt>0</asrwt>
<pdfrwt beam="1">  1        2 0.51741784E+00 0.30861175E+03</pdfrwt>
<pdfrwt beam="2">  1       -2 0.10891729E-02 0.30861175E+03</pdfrwt>
<totfact> 0.23341403E+03</totfact>
</mgrwt>
</event>
<event>
 4    1  0.1759998E-004  0.3234370E+03  0.7818608E-02  0.1074078E+00
          1   -1    0    0  501    0  0.00000000000E+00  0.00000000000E+00  0.59124572180E+03  0.59124572180E+03  0.00000000000E+00 0.  1.
         -1   -1    0    0    0  501 -0.00000000000E+00 -0.00000000000E+00 -0.44233513198E+02  0.44233513198E+02  0.00000000000E+00 0.  1.
         25    1    1    2    0    0  0.18467554958E+02 -0.25141239439E+02  0.69512830495E+02  0.14214487719E+03  0.12000000000E+03 0.  0.
         25    1    1    2    0    0 -0.18467554958E+02  0.25141239439E+02  0.47749937811E+03  0.49333435782E+03  0.12000000000E+03 0.  0.
<mgrwt>
<rscale>  0 0.32343701E+03</rscale>
<asrwt>0</asrwt>
<pdfrwt beam="1">  1        1 0.90960875E-01 0.32343701E+03</pdfrwt>
<pdfrwt beam="2">  1       -1 0.68051563E-02 0.32343701E+03</pdfrwt>
<totfact> 0.39666330E+03</totfact>
</mgrwt>
</event>
<event>
 4    1  0.1759998E-004  0.2665498E+03  0.7818608E-02  0.1103271E+00
         -2   -1    0    0    0  501 -0.00000000000E+00  0.00000000000E+00  0.12961118843E+02  0.12961118843E+02  0.00000000000E+00 0.  1.
          2   -1    0    0  501    0  0.00000000000E+00 -0.00000000000E+00 -0.13704213275E+04  0.13704213275E+04  0.00000000000E+00 0.  1.
         25    1    1    2    0    0 -0.25805869318E+02  0.28802787970E+02 -0.90296099152E+03  0.91172040435E+03  0.12000000000E+03 0.  0.
         25    1    1    2    0    0  0.25805869318E+02 -0.28802787970E+02 -0.45449921713E+03  0.47166204199E+03  0.12000000000E+03 0.  0.
<mgrwt>
<rscale>  0 0.26654976E+03</rscale>
<asrwt>0</asrwt>
<pdfrwt beam="1">  1        2 0.21083394E+00 0.26654976E+03</pdfrwt>
<pdfrwt beam="2">  1       -2 0.19940194E-02 0.26654976E+03</pdfrwt>
<totfact> 0.12437752E+04</totfact>
</mgrwt>
</event>
<event>
 4    1  0.1759998E-004  0.3237742E+03  0.7818608E-02  0.1073925E+00
         -2   -1    0    0    0  501 -0.00000000000E+00  0.00000000000E+00  0.50318618924E+02  0.50318618924E+02  0.00000000000E+00 0. -1.
          2   -1    0    0  501    0  0.00000000000E+00 -0.00000000000E+00 -0.52082972997E+03  0.52082972997E+03  0.00000000000E+00 0. -1.
         25    1    1    2    0    0  0.58266741616E+02 -0.72444913316E+02 -0.13602726697E+03  0.20383006649E+03  0.12000000000E+03 0.  0.
         25    1    1    2    0    0 -0.58266741616E+02  0.72444913316E+02 -0.33448384407E+03  0.36731828240E+03  0.12000000000E+03 0.  0.
<mgrwt>
<rscale>  0 0.32377420E+03</rscale>
<asrwt>0</asrwt>
<pdfrwt beam="1">  1        2 0.80127652E-01 0.32377420E+03</pdfrwt>
<pdfrwt beam="2">  1       -2 0.77413259E-02 0.32377420E+03</pdfrwt>
<totfact> 0.59261873E+03</totfact>
</mgrwt>
</event>
<event>
 4    1  0.1759998E-004  0.2881898E+03  0.7818608E-02  0.1091298E+00
          1   -1    0    0  501    0  0.00000000000E+00  0.00000000000E+00  0.51239658160E+03  0.51239658160E+03  0.00000000000E+00 0.  1.
         -1   -1    0    0    0  501 -0.00000000000E+00 -0.00000000000E+00 -0.40522003365E+02  0.40522003365E+02  0.00000000000E+00 0.  1.
         25    1    1    2    0    0 -0.75137225662E+02  0.36744383090E+01  0.28685166803E+03  0.31991089952E+03  0.12000000000E+03 0.  0.
         25    1    1    2    0    0  0.75137225662E+02 -0.36744383090E+01  0.18502291020E+03  0.23300768544E+03  0.12000000000E+03 0.  0.
<mgrwt>
<rscale>  0 0.28818977E+03</rscale>
<asrwt>0</asrwt>
<pdfrwt beam="1">  1        1 0.78830239E-01 0.28818977E+03</pdfrwt>
<pdfrwt beam="2">  1       -1 0.62341547E-02 0.28818977E+03</pdfrwt>
<totfact> 0.54938178E+03</totfact>
</mgrwt>
</event>
<event>
 4    1  0.1759998E-004  0.3310500E+03  0.7818608E-02  0.1070673E+00
          1   -1    0    0  501    0  0.00000000000E+00  0.00000000000E+00  0.24129054936E+03  0.24129054936E+03  0.00000000000E+00 0.  1.
         -1   -1    0    0    0  501 -0.00000000000E+00 -0.00000000000E+00 -0.11354996500E+03  0.11354996500E+03  0.00000000000E+00 0.  1.
         25    1    1    2    0    0 -0.76758709597E+02 -0.16159850914E+02 -0.24813022310E+02  0.14549476402E+03  0.12000000000E+03 0.  0.
         25    1    1    2    0    0  0.76758709597E+02  0.16159850914E+02  0.15255360667E+03  0.20934575035E+03  0.12000000000E+03 0.  0.
<mgrwt>
<rscale>  0 0.33105005E+03</rscale>
<asrwt>0</asrwt>
<pdfrwt beam="1">  1        1 0.37121623E-01 0.33105005E+03</pdfrwt>
<pdfrwt beam="2">  1       -1 0.17469225E-01 0.33105005E+03</pdfrwt>
<totfact> 0.29091843E+03</totfact>
</mgrwt>
</event>
<event>
 4    1  0.1759998E-004  0.2710318E+03  0.7818608E-02  0.1100691E+00
         -2   -1    0    0    0  501 -0.00000000000E+00  0.00000000000E+00  0.15739107984E+03  0.15739107984E+03  0.00000000000E+00 0.  1.
          2   -1    0    0  501    0  0.00000000000E+00 -0.00000000000E+00 -0.11668110822E+03  0.11668110822E+03  0.00000000000E+00 0.  1.
         25    1    1    2    0    0 -0.31061218924E+02 -0.46579225700E+02  0.49490376301E+02  0.14136378933E+03  0.12000000000E+03 0.  0.
         25    1    1    2    0    0  0.31061218924E+02  0.46579225700E+02 -0.87804046771E+01  0.13270839873E+03  0.12000000000E+03 0.  0.
<mgrwt>
<rscale>  0 0.27103185E+03</rscale>
<asrwt>0</asrwt>
<pdfrwt beam="1">  1        2 0.17950940E-01 0.27103185E+03</pdfrwt>
<pdfrwt beam="2">  1       -2 0.24214012E-01 0.27103185E+03</pdfrwt>
<totfact> 0.47045126E+03</totfact>
</mgrwt>
</event>
<event>
 4    1  0.1759998E-004  0.2597930E+03  0.7818608E-02  0.1107268E+00
         -2   -1    0    0    0  501 -0.00000000000E+00  0.00000000000E+00  0.35002755269E+02  0.35002755269E+02  0.00000000000E+00 0.  1.
          2   -1    0    0  501    0  0.00000000000E+00 -0.00000000000E+00 -0.48205054654E+03  0.48205054654E+03  0.00000000000E+00 0.  1.
         25    1    1    2    0    0  0.26650070744E+02 -0.10975548752E+02 -0.14286570249E+03  0.18878903011E+03  0.12000000000E+03 0.  0.
         25    1    1    2    0    0 -0.26650070744E+02  0.10975548752E+02 -0.30418208878E+03  0.32826427170E+03  0.12000000000E+03 0.  0.
<mgrwt>
<rscale>  0 0.25979297E+03</rscale>
<asrwt>0</asrwt>
<pdfrwt beam="1">  1        2 0.74161620E-01 0.25979297E+03</pdfrwt>
<pdfrwt beam="2">  1       -2 0.53850395E-02 0.25979297E+03</pdfrwt>
<totfact> 0.11233844E+04</totfact>
</mgrwt>
</event>
<event>
 4    1  0.1759998E-004  0.2895211E+03  0.7818608E-02  0.1090599E+00
          2   -1    0    0  501    0  0.00000000000E+00  0.00000000000E+00  0.42146920606E+03  0.42146920606E+03  0.00000000000E+00 0.  1.
         -2   -1    0    0    0  501 -0.00000000000E+00 -0.00000000000E+00 -0.49720405349E+02  0.49720405349E+02  0.00000000000E+00 0.  1.
         25    1    1    2    0    0 -0.39692526001E+02 -0.51303307824E+02  0.10701142235E+03  0.17337523043E+03  0.12000000000E+03 0.  0.
         25    1    1    2    0    0  0.39692526001E+02  0.51303307824E+02  0.26473737837E+03  0.29781438098E+03  0.12000000000E+03 0.  0.
<mgrwt>
<rscale>  0 0.28952112E+03</rscale>
<asrwt>0</asrwt>
<pdfrwt beam="1">  1        2 0.64841414E-01 0.28952112E+03</pdfrwt>
<pdfrwt beam="2">  1       -2 0.76492934E-02 0.28952112E+03</pdfrwt>
<totfact> 0.76162523E+03</totfact>
</mgrwt>
</event>
<event>
 4    1  0.1759998E-004  0.3266819E+03  0.7818608E-02  0.1072615E+00
          1   -1    0    0  501    0  0.00000000000E+00  0.00000000000E+00  0.19746203574E+03  0.19746203574E+03  0.00000000000E+00 0.  1.
         -1   -1    0    0    0  501 -0.00000000000E+00 -0.00000000000E+00 -0.13511596723E+03  0.13511596723E+03  0.00000000000E+00 0.  1.
         25    1    1    2    0    0 -0.99952164658E+02 -0.28903838428E+02 -0.76519545739E+01  0.15901075279E+03  0.12000000000E+03 0.  0.
         25    1    1    2    0    0  0.99952164658E+02  0.28903838428E+02  0.69998023088E+02  0.17356725017E+03  0.12000000000E+03 0.  0.
<mgrwt>
<rscale>  0 0.32668195E+03</rscale>
<asrwt>0</asrwt>
<pdfrwt beam="1">  1        1 0.30378775E-01 0.32668195E+03</pdfrwt>
<pdfrwt beam="2">  1       -1 0.20787072E-01 0.32668195E+03</pdfrwt>
<totfact> 0.28247646E+03</totfact>
</mgrwt>
</event>
<event>
 4    1  0.1759998E-004  0.5721305E+03  0.7818608E-02  0.9964975E-01
         -1   -1    0    0    0  501 -0.00000000000E+00  0.00000000000E+00  0.43142218020E+02  0.43142218020E+02  0.00000000000E+00 0. -1.
          1   -1    0    0  501    0  0.00000000000E+00 -0.00000000000E+00 -0.18968272797E+04  0.18968272797E+04  0.00000000000E+00 0. -1.
         25    1    1    2    0    0  0.86504462328E+02 -0.34134696545E+02 -0.17489593693E+04  0.17555361218E+04  0.12000000000E+03 0.  0.
         25    1    1    2    0    0 -0.86504462328E+02  0.34134696545E+02 -0.10472569241E+03  0.18443337594E+03  0.12000000000E+03 0.  0.
<mgrwt>
<rscale>  0 0.57213053E+03</rscale>
<asrwt>0</asrwt>
<pdfrwt beam="1">  1        1 0.29181964E+00 0.57213053E+03</pdfrwt>
<pdfrwt beam="2">  1       -1 0.66372629E-02 0.57213053E+03</pdfrwt>
<totfact> 0.43678691E+02</totfact>
</mgrwt>
</event>
<event>
 4    1  0.1759998E-004  0.3243384E+03  0.7818608E-02  0.1073670E+00
          2   -1    0    0  501    0  0.00000000000E+00  0.00000000000E+00  0.29768587513E+03  0.29768587513E+03  0.00000000000E+00 0.  1.
         -2   -1    0    0    0  501 -0.00000000000E+00 -0.00000000000E+00 -0.88344301830E+02  0.88344301830E+02  0.00000000000E+00 0.  1.
         25    1    1    2    0    0  0.10663898634E+03  0.12717106471E+01  0.13195123081E+03  0.20780909020E+03  0.12000000000E+03 0.  0.
         25    1    1    2    0    0 -0.10663898634E+03 -0.12717106471E+01  0.77390342488E+02  0.17822108676E+03  0.12000000000E+03 0.  0.
<mgrwt>
<rscale>  0 0.32433841E+03</rscale>
<asrwt>0</asrwt>
<pdfrwt beam="1">  1        2 0.45797827E-01 0.32433841E+03</pdfrwt>
<pdfrwt beam="2">  1       -2 0.13591431E-01 0.32433841E+03</pdfrwt>
<totfact> 0.44485107E+03</totfact>
</mgrwt>
</event>
<event>
 4    1  0.1759998E-004  0.3221327E+03  0.7818608E-02  0.1074672E+00
         -2   -1    0    0    0  501 -0.00000000000E+00  0.00000000000E+00  0.20169608069E+02  0.20169608069E+02  0.00000000000E+00 0.  1.
          2   -1    0    0  501    0  0.00000000000E+00 -0.00000000000E+00 -0.12862105911E+04  0.12862105911E+04  0.00000000000E+00 0.  1.
         25    1    1    2    0    0 -0.99671400483E+02 -0.71430830200E+01 -0.79303980697E+03  0.80826823960E+03  0.12000000000E+03 0.  0.
         25    1    1    2    0    0  0.99671400483E+02  0.71430830200E+01 -0.47300117606E+03  0.49811195956E+03  0.12000000000E+03 0.  0.
<mgrwt>
<rscale>  0 0.32213267E+03</rscale>
<asrwt>0</asrwt>
<pdfrwt beam="1">  1        2 0.19787856E+00 0.32213267E+03</pdfrwt>
<pdfrwt beam="2">  1       -2 0.31030165E-02 0.32213267E+03</pdfrwt>
<totfact> 0.72127264E+03</totfact>
</mgrwt>
</event>
<event>
 4    1  0.1759998E-004  0.3123298E+03  0.7818608E-02  0.1079235E+00
         -2   -1    0    0    0  501 -0.00000000000E+00  0.00000000000E+00  0.95927705638E+02  0.95927705638E+02  0.00000000000E+00 0.  1.
          2   -1    0    0  501    0  0.00000000000E+00 -0.00000000000E+00 -0.25422757962E+03  0.25422757962E+03  0.00000000000E+00 0.  1.
         25    1    1    2    0    0  0.41264729047E+02 -0.60193150045E+02 -0.26063127783E+01  0.14047343536E+03  0.12000000000E+03 0.  0.
         25    1    1    2    0    0 -0.41264729047E+02  0.60193150045E+02 -0.15569356120E+03  0.20968184990E+03  0.12000000000E+03 0.  0.
<mgrwt>
<rscale>  0 0.31232975E+03</rscale>
<asrwt>0</asrwt>
<pdfrwt beam="1">  1        2 0.39111935E-01 0.31232975E+03</pdfrwt>
<pdfrwt beam="2">  1       -2 0.14758109E-01 0.31232975E+03</pdfrwt>
<totfact> 0.46023051E+03</totfact>
</mgrwt>
</event>
<event>
 4    1  0.1759998E-004  0.2735098E+03  0.7818608E-02  0.1099287E+00
          2   -1    0    0  501    0  0.00000000000E+00  0.00000000000E+00  0.12773350873E+03  0.12773350873E+03  0.00000000000E+00 0. -1.
         -2   -1    0    0    0  501 -0.00000000000E+00 -0.00000000000E+00 -0.14641348691E+03  0.14641348691E+03  0.00000000000E+00 0. -1.
         25    1    1    2    0    0  0.11165397779E+00 -0.17129990931E+02  0.54119894970E+02  0.13274943347E+03  0.12000000000E+03 0.  0.
         25    1    1    2    0    0 -0.11165397779E+00  0.17129990931E+02 -0.72799873147E+02  0.14139756216E+03  0.12000000000E+03 0.  0.
<mgrwt>
<rscale>  0 0.27350984E+03</rscale>
<asrwt>0</asrwt>
<pdfrwt beam="1">  1        2 0.19651309E-01 0.27350984E+03</pdfrwt>
<pdfrwt beam="2">  1       -2 0.22525152E-01 0.27350984E+03</pdfrwt>
<totfact> 0.48101629E+03</totfact>
</mgrwt>
</event>
<event>
 4    1  0.1759998E-004  0.2629594E+03  0.7818608E-02  0.1105378E+00
         -1   -1    0    0    0  501 -0.00000000000E+00  0.00000000000E+00  0.35298990429E+02  0.35298990429E+02  0.00000000000E+00 0. -1.
          1   -1    0    0  501    0  0.00000000000E+00 -0.00000000000E+00 -0.48972804740E+03  0.48972804740E+03  0.00000000000E+00 0. -1.
         25    1    1    2    0    0  0.39038522989E+02  0.11524467624E+02 -0.15718829214E+03  0.20190338981E+03  0.12000000000E+03 0.  0.
         25    1    1    2    0    0 -0.39038522989E+02 -0.11524467624E+02 -0.29724076483E+03  0.32312364802E+03  0.12000000000E+03 0.  0.
<mgrwt>
<rscale>  0 0.26295936E+03</rscale>
<asrwt>0</asrwt>
<pdfrwt beam="1">  1        1 0.75342775E-01 0.26295936E+03</pdfrwt>
<pdfrwt beam="2">  1       -1 0.54306140E-02 0.26295936E+03</pdfrwt>
<totfact> 0.71629151E+03</totfact>
</mgrwt>
</event>
<event>
 4    1  0.1759998E-004  0.2997629E+03  0.7818608E-02  0.1085359E+00
          1   -1    0    0  501    0  0.00000000000E+00  0.00000000000E+00  0.95920690725E+02  0.95920690725E+02  0.00000000000E+00 0. -1.
         -1   -1    0    0    0  501 -0.00000000000E+00 -0.00000000000E+00 -0.23419808151E+03  0.23419808151E+03  0.00000000000E+00 0. -1.
         25    1    1    2    0    0 -0.21054409837E+02 -0.45297274085E+02 -0.15132380283E+03  0.19948439667E+03  0.12000000000E+03 0.  0.
         25    1    1    2    0    0  0.21054409837E+02  0.45297274085E+02  0.13046412037E+02  0.13063437557E+03  0.12000000000E+03 0.  0.
<mgrwt>
<rscale>  0 0.29976285E+03</rscale>
<asrwt>0</asrwt>
<pdfrwt beam="1">  1        1 0.14757030E-01 0.29976285E+03</pdfrwt>
<pdfrwt beam="2">  1       -1 0.36030474E-01 0.29976285E+03</pdfrwt>
<totfact> 0.28270625E+03</totfact>
</mgrwt>
</event>
<event>
 4    1  0.1759998E-004  0.2848610E+03  0.7818608E-02  0.1093063E+00
          2   -1    0    0  501    0  0.00000000000E+00  0.00000000000E+00  0.27155442313E+04  0.27155442313E+04  0.00000000000E+00 0. -1.
         -2   -1    0    0    0  501 -0.00000000000E+00 -0.00000000000E+00 -0.74704888167E+01  0.74704888167E+01  0.00000000000E+00 0. -1.
         25    1    1    2    0    0 -0.60069463536E+02  0.37873743995E+02  0.10763812930E+04  0.10853752571E+04  0.12000000000E+03 0.  0.
         25    1    1    2    0    0  0.60069463536E+02 -0.37873743995E+02  0.16316924495E+04  0.16376394630E+04  0.12000000000E+03 0.  0.
<mgrwt>
<rscale>  0 0.28486097E+03</rscale>
<asrwt>0</asrwt>
<pdfrwt beam="1">  1        2 0.41777525E+00 0.28486097E+03</pdfrwt>
<pdfrwt beam="2">  1       -2 0.11493081E-02 0.28486097E+03</pdfrwt>
<totfact> 0.52963661E+03</totfact>
</mgrwt>
</event>
<event>
 4    1  0.1759998E-004  0.3268794E+03  0.7818608E-02  0.1072526E+00
          2   -1    0    0  501    0  0.00000000000E+00  0.00000000000E+00  0.18745853902E+03  0.18745853902E+03  0.00000000000E+00 0.  1.
         -2   -1    0    0    0  501 -0.00000000000E+00 -0.00000000000E+00 -0.14249833784E+03  0.14249833784E+03  0.00000000000E+00 0.  1.
         25    1    1    2    0    0  0.12432142078E+02 -0.10652676037E+03 -0.62487281297E+01  0.16106382410E+03  0.12000000000E+03 0.  0.
         25    1    1    2    0    0 -0.12432142078E+02  0.10652676037E+03  0.51208929304E+02  0.16889305276E+03  0.12000000000E+03 0.  0.
<mgrwt>
<rscale>  0 0.32687937E+03</rscale>
<asrwt>0</asrwt>
<pdfrwt beam="1">  1        2 0.28839775E-01 0.32687937E+03</pdfrwt>
<pdfrwt beam="2">  1       -2 0.21922821E-01 0.32687937E+03</pdfrwt>
<totfact> 0.32893595E+03</totfact>
</mgrwt>
</event>
<event>
 4    1  0.1759998E-004  0.2514086E+03  0.7818608E-02  0.1112418E+00
          1   -1    0    0  501    0  0.00000000000E+00  0.00000000000E+00  0.11940737043E+03  0.11940737043E+03  0.00000000000E+00 0. -1.
         -1   -1    0    0    0  501 -0.00000000000E+00 -0.00000000000E+00 -0.13233327548E+03  0.13233327548E+03  0.00000000000E+00 0. -1.
         25    1    1    2    0    0  0.89467054338E+01  0.15484457704E+02  0.26470556007E+02  0.12417931512E+03  0.12000000000E+03 0.  0.
         25    1    1    2    0    0 -0.89467054338E+01 -0.15484457704E+02 -0.39396461065E+02  0.12756133079E+03  0.12000000000E+03 0.  0.
<mgrwt>
<rscale>  0 0.25140858E+03</rscale>
<asrwt>0</asrwt>
<pdfrwt beam="1">  1        1 0.18370365E-01 0.25140858E+03</pdfrwt>
<pdfrwt beam="2">  1       -1 0.20358966E-01 0.25140858E+03</pdfrwt>
<totfact> 0.55205540E+03</totfact>
</mgrwt>
</event>
<event>
 4    1  0.1759998E-004  0.2639286E+03  0.7818608E-02  0.1104806E+00
          2   -1    0    0  501    0  0.00000000000E+00  0.00000000000E+00  0.25086204147E+03  0.25086204147E+03  0.00000000000E+00 0. -1.
         -2   -1    0    0    0  501 -0.00000000000E+00 -0.00000000000E+00 -0.69418952411E+02  0.69418952411E+02  0.00000000000E+00 0. -1.
         25    1    1    2    0    0 -0.29736886964E+02 -0.24256493179E+02  0.43070149600E+02  0.13314540057E+03  0.12000000000E+03 0.  0.
         25    1    1    2    0    0  0.29736886964E+02  0.24256493179E+02  0.13837293946E+03  0.18713559331E+03  0.12000000000E+03 0.  0.
<mgrwt>
<rscale>  0 0.26392863E+03</rscale>
<asrwt>0</asrwt>
<pdfrwt beam="1">  1        2 0.38594160E-01 0.26392863E+03</pdfrwt>
<pdfrwt beam="2">  1       -2 0.10679839E-01 0.26392863E+03</pdfrwt>
<totfact> 0.78515512E+03</totfact>
</mgrwt>
</event>
<event>
 4    1  0.1759998E-004  0.2439687E+03  0.7818608E-02  0.1117177E+00
         -2   -1    0    0    0  501 -0.00000000000E+00  0.00000000000E+00  0.82004645328E+01  0.82004645328E+01  0.00000000000E+00 0.  1.
          2   -1    0    0  501    0  0.00000000000E+00 -0.00000000000E+00 -0.18145534138E+04  0.18145534138E+04  0.00000000000E+00 0.  1.
         25    1    1    2    0    0 -0.17057995819E+02 -0.13511832850E+02 -0.88393008685E+03  0.89230372816E+03  0.12000000000E+03 0.  0.
         25    1    1    2    0    0  0.17057995819E+02  0.13511832850E+02 -0.92242286244E+03  0.93045015020E+03  0.12000000000E+03 0.  0.
<mgrwt>
<rscale>  0 0.24396869E+03</rscale>
<asrwt>0</asrwt>
<pdfrwt beam="1">  1        2 0.27916243E+00 0.24396869E+03</pdfrwt>
<pdfrwt beam="2">  1       -2 0.12616083E-02 0.24396869E+03</pdfrwt>
<totfact> 0.14083114E+04</totfact>
</mgrwt>
</event>
<event>
 4    1  0.1759998E-004  0.2649327E+03  0.7818608E-02  0.1104215E+00
          1   -1    0    0  501    0  0.00000000000E+00  0.00000000000E+00  0.31811701394E+03  0.31811701394E+03  0.00000000000E+00 0. -1.
         -1   -1    0    0    0  501 -0.00000000000E+00 -0.00000000000E+00 -0.55159990569E+02  0.55159990569E+02  0.00000000000E+00 0. -1.
         25    1    1    2    0    0 -0.35044193836E+02 -0.32184103398E+02  0.89601162794E+02  0.15713777524E+03  0.12000000000E+03 0.  0.
         25    1    1    2    0    0  0.35044193836E+02  0.32184103398E+02  0.17335586058E+03  0.21613922927E+03  0.12000000000E+03 0.  0.
<mgrwt>
<rscale>  0 0.26493268E+03</rscale>
<asrwt>0</asrwt>
<pdfrwt beam="1">  1        1 0.48941078E-01 0.26493268E+03</pdfrwt>
<pdfrwt beam="2">  1       -1 0.84861526E-02 0.26493268E+03</pdfrwt>
<totfact> 0.63377407E+03</totfact>
</mgrwt>
</event>
<event>
 4    1  0.1759998E-004  0.2446298E+03  0.7818608E-02  0.1116746E+00
          2   -1    0    0  501    0  0.00000000000E+00  0.00000000000E+00  0.55486065691E+03  0.55486065691E+03  0.00000000000E+00 0.  1.
         -2   -1    0    0    0  501 -0.00000000000E+00 -0.00000000000E+00 -0.26963419371E+02  0.26963419371E+02  0.00000000000E+00 0.  1.
         25    1    1    2    0    0 -0.16863215988E+02 -0.16522304779E+02  0.26845248986E+03  0.29499846427E+03  0.12000000000E+03 0.  0.
         25    1    1    2    0    0  0.16863215988E+02  0.16522304779E+02  0.25944474768E+03  0.28682561201E+03  0.12000000000E+03 0.  0.
<mgrwt>
<rscale>  0 0.24462985E+03</rscale>
<asrwt>0</asrwt>
<pdfrwt beam="1">  1        2 0.85363169E-01 0.24462985E+03</pdfrwt>
<pdfrwt beam="2">  1       -2 0.41482188E-02 0.24462985E+03</pdfrwt>
<totfact> 0.14197271E+04</totfact>
</mgrwt>
</event>
<event>
 4    1  0.1759998E-004  0.3077930E+03  0.7818608E-02  0.1081409E+00
         -2   -1    0    0    0  501 -0.00000000000E+00  0.00000000000E+00  0.24002887233E+03  0.24002887233E+03  0.00000000000E+00 0.  1.
          2   -1    0    0  501    0  0.00000000000E+00 -0.00000000000E+00 -0.98672040311E+02  0.98672040311E+02  0.00000000000E+00 0.  1.
         25    1    1    2    0    0  0.80357154166E+02 -0.51358935713E+02  0.55545129094E+02  0.16303457875E+03  0.12000000000E+03 0.  0.
         25    1    1    2    0    0 -0.80357154166E+02  0.51358935713E+02  0.85811702930E+02  0.17566633389E+03  0.12000000000E+03 0.  0.
<mgrwt>
<rscale>  0 0.30779304E+03</rscale>
<asrwt>0</asrwt>
<pdfrwt beam="1">  1        2 0.15180314E-01 0.30779304E+03</pdfrwt>
<pdfrwt beam="2">  1       -2 0.36927519E-01 0.30779304E+03</pdfrwt>
<totfact> 0.26682694E+03</totfact>
</mgrwt>
</event>
<event>
 4    1  0.1759998E-004  0.2538390E+03  0.7818608E-02  0.1110902E+00
         -2   -1    0    0    0  501 -0.00000000000E+00  0.00000000000E+00  0.10678042756E+03  0.10678042756E+03  0.00000000000E+00 0. -1.
          2   -1    0    0  501    0  0.00000000000E+00 -0.00000000000E+00 -0.15085690105E+03  0.15085690105E+03  0.00000000000E+00 0. -1.
         25    1    1    2    0    0 -0.40889033905E+02 -0.21317940623E+01 -0.27789305672E+02  0.12980255448E+03  0.12000000000E+03 0.  0.
         25    1    1    2    0    0  0.40889033905E+02  0.21317940623E+01 -0.16287167820E+02  0.12783477412E+03  0.12000000000E+03 0.  0.
<mgrwt>
<rscale>  0 0.25383904E+03</rscale>
<asrwt>0</asrwt>
<pdfrwt beam="1">  1        2 0.23208754E-01 0.25383904E+03</pdfrwt>
<pdfrwt beam="2">  1       -2 0.16427758E-01 0.25383904E+03</pdfrwt>
<totfact> 0.67930141E+03</totfact>
</mgrwt>
</event>
<event>
 4    1  0.1759998E-004  0.2629913E+03  0.7818608E-02  0.1105359E+00
          1   -1    0    0  501    0  0.00000000000E+00  0.00000000000E+00  0.78998180359E+01  0.78998180359E+01  0.00000000000E+00 0. -1.
         -1   -1    0    0    0  501 -0.00000000000E+00 -0.00000000000E+00 -0.21887976228E+04  0.21887976228E+04  0.00000000000E+00 0. -1.
         25    1    1    2    0    0  0.33690522567E+02  0.33049028153E+02 -0.87524413087E+03  0.88469179842E+03  0.12000000000E+03 0.  0.
         25    1    1    2    0    0 -0.33690522567E+02 -0.33049028153E+02 -0.13056536739E+04  0.13120056424E+04  0.12000000000E+03 0.  0.
<mgrwt>
<rscale>  0 0.26299128E+03</rscale>
<asrwt>0</asrwt>
<pdfrwt beam="1">  1        1 0.12153559E-02 0.26299128E+03</pdfrwt>
<pdfrwt beam="2">  1       -1 0.33673828E+00 0.26299128E+03</pdfrwt>
<totfact> 0.27847804E+02</totfact>
</mgrwt>
</event>
<event>
 4    1  0.1759998E-004  0.3008414E+03  0.7818608E-02  0.1084821E+00
          1   -1    0    0  501    0  0.00000000000E+00  0.00000000000E+00  0.46361935637E+03  0.46361935637E+03  0.00000000000E+00 0. -1.
         -1   -1    0    0    0  501 -0.00000000000E+00 -0.00000000000E+00 -0.48803794246E+02  0.48803794246E+02  0.00000000000E+00 0. -1.
         25    1    1    2    0    0  0.30504928571E+02  0.59050843087E+02  0.10228737706E+03  0.17111475752E+03  0.12000000000E+03 0.  0.
         25    1    1    2    0    0 -0.30504928571E+02 -0.59050843087E+02  0.31252818506E+03  0.34130839309E+03  0.12000000000E+03 0.  0.
<mgrwt>
<rscale>  0 0.30084138E+03</rscale>
<asrwt>0</asrwt>
<pdfrwt beam="1">  1        1 0.71326052E-01 0.30084138E+03</pdfrwt>
<pdfrwt beam="2">  1       -1 0.75082763E-02 0.30084138E+03</pdfrwt>
<totfact> 0.47335766E+03</totfact>
</mgrwt>
</event>
<event>
 4    1  0.1759998E-004  0.3584953E+03  0.7818608E-02  0.1059181E+00
         -2   -1    0    0    0  501 -0.00000000000E+00  0.00000000000E+00  0.22992101333E+03  0.22992101333E+03  0.00000000000E+00 0.  1.
          2   -1    0    0  501    0  0.00000000000E+00 -0.00000000000E+00 -0.13974239365E+03  0.13974239365E+03  0.00000000000E+00 0.  1.
         25    1    1    2    0    0  0.36064041669E+01  0.12976816658E+03  0.75624835159E+02  0.19228078142E+03  0.12000000000E+03 0.  0.
         25    1    1    2    0    0 -0.36064041669E+01 -0.12976816658E+03  0.14553784514E+02  0.17738262557E+03  0.12000000000E+03 0.  0.
<mgrwt>
<rscale>  0 0.35849526E+03</rscale>
<asrwt>0</asrwt>
<pdfrwt beam="1">  1        2 0.21498830E-01 0.35849526E+03</pdfrwt>
<pdfrwt beam="2">  1       -2 0.35372464E-01 0.35849526E+03</pdfrwt>
<totfact> 0.19339090E+03</totfact>
</mgrwt>
</event>
<event>
 4    1  0.1759998E-004  0.3771396E+03  0.7818608E-02  0.1051996E+00
          1   -1    0    0  501    0  0.00000000000E+00  0.00000000000E+00  0.80424240929E+03  0.80424240929E+03  0.00000000000E+00 0. -1.
         -1   -1    0    0    0  501 -0.00000000000E+00 -0.00000000000E+00 -0.44213737174E+02  0.44213737174E+02  0.00000000000E+00 0. -1.
         25    1    1    2    0    0  0.86351941623E+02  0.85830989536E+01  0.11738265408E+03  0.18896829070E+03  0.12000000000E+03 0.  0.
         25    1    1    2    0    0 -0.86351941623E+02 -0.85830989536E+01  0.64264601803E+03  0.65948785577E+03  0.12000000000E+03 0.  0.
<mgrwt>
<rscale>  0 0.37713956E+03</rscale>
<asrwt>0</asrwt>
<pdfrwt beam="1">  1        1 0.12372959E+00 0.37713956E+03</pdfrwt>
<pdfrwt beam="2">  1       -1 0.68021140E-02 0.37713956E+03</pdfrwt>
<totfact> 0.25302230E+03</totfact>
</mgrwt>
</event>
<event>
 4    1  0.1759998E-004  0.3138480E+03  0.7818608E-02  0.1078516E+00
         -1   -1    0    0    0  501 -0.00000000000E+00  0.00000000000E+00  0.91268439860E+02  0.91268439860E+02  0.00000000000E+00 0.  1.
          1   -1    0    0  501    0  0.00000000000E+00 -0.00000000000E+00 -0.26981004540E+03  0.26981004540E+03  0.00000000000E+00 0.  1.
         25    1    1    2    0    0 -0.22575902784E+02  0.66053856345E+02 -0.51012836717E+01  0.13892014404E+03  0.12000000000E+03 0.  0.
         25    1    1    2    0    0  0.22575902784E+02 -0.66053856345E+02 -0.17344032187E+03  0.22215834123E+03  0.12000000000E+03 0.  0.
<mgrwt>
<rscale>  0 0.31384800E+03</rscale>
<asrwt>0</asrwt>
<pdfrwt beam="1">  1        1 0.41509236E-01 0.31384800E+03</pdfrwt>
<pdfrwt beam="2">  1       -1 0.14041299E-01 0.31384800E+03</pdfrwt>
<totfact> 0.35790646E+03</totfact>
</mgrwt>
</event>
<event>
 4    1  0.1759998E-004  0.2713144E+03  0.7818608E-02  0.1100530E+00
         -3   -1    0    0    0  501 -0.00000000000E+00  0.00000000000E+00  0.60565856687E+02  0.60565856687E+02  0.00000000000E+00 0. -1.
          3   -1    0    0  501    0  0.00000000000E+00 -0.00000000000E+00 -0.30384900075E+03  0.30384900075E+03  0.00000000000E+00 0. -1.
         25    1    1    2    0    0 -0.31493261334E+02  0.47453728967E+02 -0.84633251561E+02  0.15750069578E+03  0.12000000000E+03 0.  0.
         25    1    1    2    0    0  0.31493261334E+02 -0.47453728967E+02 -0.15864989250E+03  0.20691416166E+03  0.12000000000E+03 0.  0.
<mgrwt>
<rscale>  0 0.27131439E+03</rscale>
<asrwt>0</asrwt>
<pdfrwt beam="1">  1        3 0.46746000E-01 0.27131439E+03</pdfrwt>
<pdfrwt beam="2">  1       -3 0.93178241E-02 0.27131439E+03</pdfrwt>
<totfact> 0.96337698E+02</totfact>
</mgrwt>
</event>
<event>
 4    1  0.1759998E-004  0.3377185E+03  0.7818608E-02  0.1067772E+00
         -1   -1    0    0    0  501 -0.00000000000E+00  0.00000000000E+00  0.19425569431E+03  0.19425569431E+03  0.00000000000E+00 0. -1.
          1   -1    0    0  501    0  0.00000000000E+00 -0.00000000000E+00 -0.14678306380E+03  0.14678306380E+03  0.00000000000E+00 0. -1.
         25    1    1    2    0    0 -0.11904232588E+02 -0.10935066969E+03 -0.21584378278E+02  0.16421073382E+03  0.12000000000E+03 0.  0.
         25    1    1    2    0    0  0.11904232588E+02  0.10935066969E+03  0.69057008787E+02  0.17682802430E+03  0.12000000000E+03 0.  0.
<mgrwt>
<rscale>  0 0.33771850E+03</rscale>
<asrwt>0</asrwt>
<pdfrwt beam="1">  1        1 0.22582010E-01 0.33771850E+03</pdfrwt>
<pdfrwt beam="2">  1       -1 0.29885492E-01 0.33771850E+03</pdfrwt>
<totfact> 0.22496067E+03</totfact>
</mgrwt>
</event>
<event>
 4    1  0.1759998E-004  0.2662594E+03  0.7818608E-02  0.1103440E+00
         -1   -1    0    0    0  501 -0.00000000000E+00  0.00000000000E+00  0.15418954745E+04  0.15418954745E+04  0.00000000000E+00 0.  1.
          1   -1    0    0  501    0  0.00000000000E+00 -0.00000000000E+00 -0.11494629709E+02  0.11494629709E+02  0.00000000000E+00 0.  1.
         25    1    1    2    0    0 -0.14901689062E+02  0.51341465017E+02  0.63932509052E+03  0.65268260106E+03  0.12000000000E+03 0.  0.
         25    1    1    2    0    0  0.14901689062E+02 -0.51341465017E+02  0.89107575423E+03  0.90070750310E+03  0.12000000000E+03 0.  0.
<mgrwt>
<rscale>  0 0.26625940E+03</rscale>
<asrwt>0</asrwt>
<pdfrwt beam="1">  1        1 0.17684058E-02 0.26625940E+03</pdfrwt>
<pdfrwt beam="2">  1       -1 0.23721453E+00 0.26625940E+03</pdfrwt>
<totfact> 0.68848710E+02</totfact>
</mgrwt>
</event>
<event>
 4    1  0.1759998E-004  0.2490873E+03  0.7818608E-02  0.1113883E+00
         -4   -1    0    0    0  501 -0.00000000000E+00  0.00000000000E+00  0.48003419859E+02  0.48003419859E+02  0.00000000000E+00 0. -1.
          4   -1    0    0  501    0  0.00000000000E+00 -0.00000000000E+00 -0.32312531440E+03  0.32312531440E+03  0.00000000000E+00 0. -1.
         25    1    1    2    0    0 -0.50217895991E+01  0.32885906511E+02 -0.13442888131E+03  0.18324253150E+03  0.12000000000E+03 0.  0.
         25    1    1    2    0    0  0.50217895991E+01 -0.32885906511E+02 -0.14069301323E+03  0.18788620276E+03  0.12000000000E+03 0.  0.
<mgrwt>
<rscale>  0 0.24908730E+03</rscale>
<asrwt>0</asrwt>
<pdfrwt beam="1">  1        4 0.49711587E-01 0.24908730E+03</pdfrwt>
<pdfrwt beam="2">  1       -4 0.73851414E-02 0.24908730E+03</pdfrwt>
<totfact> 0.91545790E+02</totfact>
</mgrwt>
</event>
<event>
 4    1  0.1759998E-004  0.3022068E+03  0.7818608E-02  0.1084143E+00
          1   -1    0    0  501    0  0.00000000000E+00  0.00000000000E+00  0.20876677469E+03  0.20876677469E+03  0.00000000000E+00 0.  1.
         -1   -1    0    0    0  501 -0.00000000000E+00 -0.00000000000E+00 -0.10936720193E+03  0.10936720193E+03  0.00000000000E+00 0.  1.
         25    1    1    2    0    0 -0.61200548345E+02  0.56559954452E+02  0.90962505370E+01  0.14638059072E+03  0.12000000000E+03 0.  0.
         25    1    1    2    0    0  0.61200548345E+02 -0.56559954452E+02  0.90303322224E+02  0.17175338591E+03  0.12000000000E+03 0.  0.
<mgrwt>
<rscale>  0 0.30220680E+03</rscale>
<asrwt>0</asrwt>
<pdfrwt beam="1">  1        1 0.32117965E-01 0.30220680E+03</pdfrwt>
<pdfrwt beam="2">  1       -1 0.16825723E-01 0.30220680E+03</pdfrwt>
<totfact> 0.37030772E+03</totfact>
</mgrwt>
</event>
<event>
 4    1  0.1759998E-004  0.3753119E+03  0.7818608E-02  0.1052680E+00
         -2   -1    0    0    0  501 -0.00000000000E+00  0.00000000000E+00  0.63745125674E+02  0.63745125674E+02  0.00000000000E+00 0.  1.
          2   -1    0    0  501    0  0.00000000000E+00 -0.00000000000E+00 -0.55243066938E+03  0.55243066938E+03  0.00000000000E+00 0.  1.
         25    1    1    2    0    0 -0.30894334505E+02 -0.12020682015E+03 -0.36510632745E+03  0.40386479156E+03  0.12000000000E+03 0.  0.
         25    1    1    2    0    0  0.30894334505E+02  0.12020682015E+03 -0.12357921625E+03  0.21231100349E+03  0.12000000000E+03 0.  0.
<mgrwt>
<rscale>  0 0.37531194E+03</rscale>
<asrwt>0</asrwt>
<pdfrwt beam="1">  1        2 0.84989335E-01 0.37531194E+03</pdfrwt>
<pdfrwt beam="2">  1       -2 0.98069423E-02 0.37531194E+03</pdfrwt>
<totfact> 0.38223651E+03</totfact>
</mgrwt>
</event>
<event>
 4    1  0.1759998E-004  0.2665624E+03  0.7818608E-02  0.1103263E+00
         -2   -1    0    0    0  501 -0.00000000000E+00  0.00000000000E+00  0.18874190845E+02  0.18874190845E+02  0.00000000000E+00 0. -1.
          2   -1    0    0  501    0  0.00000000000E+00 -0.00000000000E+00 -0.94117308521E+03  0.94117308521E+03  0.00000000000E+00 0. -1.
         25    1    1    2    0    0 -0.30006298237E+02  0.17335197537E+02 -0.62865195081E+03  0.64094006137E+03  0.12000000000E+03 0.  0.
         25    1    1    2    0    0  0.30006298237E+02 -0.17335197537E+02 -0.29364694356E+03  0.31910721469E+03  0.12000000000E+03 0.  0.
<mgrwt>
<rscale>  0 0.26656242E+03</rscale>
<asrwt>0</asrwt>
<pdfrwt beam="1">  1        2 0.14479587E+00 0.26656242E+03</pdfrwt>
<pdfrwt beam="2">  1       -2 0.29037214E-02 0.26656242E+03</pdfrwt>
<totfact> 0.12656594E+04</totfact>
</mgrwt>
</event>
<event>
 4    1  0.1759998E-004  0.2558145E+03  0.7818608E-02  0.1109684E+00
          2   -1    0    0  501    0  0.00000000000E+00  0.00000000000E+00  0.15060067728E+04  0.15060067728E+04  0.00000000000E+00 0. -1.
         -2   -1    0    0    0  501 -0.00000000000E+00 -0.00000000000E+00 -0.10863341335E+02  0.10863341335E+02  0.00000000000E+00 0. -1.
         25    1    1    2    0    0 -0.24538100469E+01  0.25971796446E+02  0.95969045876E+03  0.96751554614E+03  0.12000000000E+03 0.  0.
         25    1    1    2    0    0  0.24538100469E+01 -0.25971796446E+02  0.53545297274E+03  0.54935456802E+03  0.12000000000E+03 0.  0.
<mgrwt>
<rscale>  0 0.25581451E+03</rscale>
<asrwt>0</asrwt>
<pdfrwt beam="1">  1        2 0.23169318E+00 0.25581451E+03</pdfrwt>
<pdfrwt beam="2">  1       -2 0.16712845E-02 0.25581451E+03</pdfrwt>
<totfact> 0.13602767E+04</totfact>
</mgrwt>
</event>
<event>
 4    1  0.1759998E-004  0.3250851E+03  0.7818608E-02  0.1073333E+00
         -2   -1    0    0    0  501 -0.00000000000E+00  0.00000000000E+00  0.19879616041E+03  0.19879616041E+03  0.00000000000E+00 0. -1.
          2   -1    0    0  501    0  0.00000000000E+00 -0.00000000000E+00 -0.13290035521E+03  0.13290035521E+03  0.00000000000E+00 0. -1.
         25    1    1    2    0    0 -0.51524978923E+01 -0.10939602659E+03  0.38154770467E+02  0.16688266949E+03  0.12000000000E+03 0.  0.
         25    1    1    2    0    0  0.51524978923E+01  0.10939602659E+03  0.27741034728E+02  0.16481384613E+03  0.12000000000E+03 0.  0.
<mgrwt>
<rscale>  0 0.32508510E+03</rscale>
<asrwt>0</asrwt>
<pdfrwt beam="1">  1        2 0.20446208E-01 0.32508510E+03</pdfrwt>
<pdfrwt beam="2">  1       -2 0.30584025E-01 0.32508510E+03</pdfrwt>
<totfact> 0.26776632E+03</totfact>
</mgrwt>
</event>
<event>
 4    1  0.1759998E-004  0.3721209E+03  0.7818608E-02  0.1053885E+00
          2   -1    0    0  501    0  0.00000000000E+00  0.00000000000E+00  0.95215980562E+03  0.95215980562E+03  0.00000000000E+00 0. -1.
         -2   -1    0    0    0  501 -0.00000000000E+00 -0.00000000000E+00 -0.36357858244E+02  0.36357858244E+02  0.00000000000E+00 0. -1.
         25    1    1    2    0    0  0.35725948678E+02  0.13700461681E+03  0.49272801525E+03  0.52652398373E+03  0.12000000000E+03 0.  0.
         25    1    1    2    0    0 -0.35725948678E+02 -0.13700461681E+03  0.42307393214E+03  0.46199368014E+03  0.12000000000E+03 0.  0.
<mgrwt>
<rscale>  0 0.37212090E+03</rscale>
<asrwt>0</asrwt>
<pdfrwt beam="1">  1        2 0.14648611E+00 0.37212090E+03</pdfrwt>
<pdfrwt beam="2">  1       -2 0.55935174E-02 0.37212090E+03</pdfrwt>
<totfact> 0.46587394E+03</totfact>
</mgrwt>
</event>
<event>
 4    1  0.1759998E-004  0.2619602E+03  0.7818608E-02  0.1105971E+00
         -1   -1    0    0    0  501 -0.00000000000E+00  0.00000000000E+00  0.28954227200E+02  0.28954227200E+02  0.00000000000E+00 0. -1.
          1   -1    0    0  501    0  0.00000000000E+00 -0.00000000000E+00 -0.59251418414E+03  0.59251418414E+03  0.00000000000E+00 0. -1.
         25    1    1    2    0    0 -0.49178765987E+01  0.48730878537E+02 -0.23696112013E+03  0.27009157056E+03  0.12000000000E+03 0.  0.
         25    1    1    2    0    0  0.49178765987E+01 -0.48730878537E+02 -0.32659883681E+03  0.35137684079E+03  0.12000000000E+03 0.  0.
<mgrwt>
<rscale>  0 0.26196023E+03</rscale>
<asrwt>0</asrwt>
<pdfrwt beam="1">  1        1 0.91156026E-01 0.26196023E+03</pdfrwt>
<pdfrwt beam="2">  1       -1 0.44544966E-02 0.26196023E+03</pdfrwt>
<totfact> 0.74485951E+03</totfact>
</mgrwt>
</event>
<event>
 4    1  0.1759998E-004  0.3072724E+03  0.7818608E-02  0.1081661E+00
          2   -1    0    0  501    0  0.00000000000E+00  0.00000000000E+00  0.77107761981E+02  0.77107761981E+02  0.00000000000E+00 0.  1.
         -2   -1    0    0    0  501 -0.00000000000E+00 -0.00000000000E+00 -0.30611808489E+03  0.30611808489E+03  0.00000000000E+00 0.  1.
         25    1    1    2    0    0 -0.84391502508E+02 -0.27045131136E+01 -0.17131500534E+03  0.22556167924E+03  0.12000000000E+03 0.  0.
         25    1    1    2    0    0  0.84391502508E+02  0.27045131136E+01 -0.57695317574E+02  0.15766416764E+03  0.12000000000E+03 0.  0.
<mgrwt>
<rscale>  0 0.30727239E+03</rscale>
<asrwt>0</asrwt>
<pdfrwt beam="1">  1        2 0.11862732E-01 0.30727239E+03</pdfrwt>
<pdfrwt beam="2">  1       -2 0.47095091E-01 0.30727239E+03</pdfrwt>
<totfact> 0.22460317E+03</totfact>
</mgrwt>
</event>
<event>
 4    1  0.1759998E-004  0.2544404E+03  0.7818608E-02  0.1110530E+00
         -2   -1    0    0    0  501 -0.00000000000E+00  0.00000000000E+00  0.21797832358E+03  0.21797832358E+03  0.00000000000E+00 0.  1.
          2   -1    0    0  501    0  0.00000000000E+00 -0.00000000000E+00 -0.74250419622E+02  0.74250419622E+02  0.00000000000E+00 0.  1.
         25    1    1    2    0    0  0.13993442255E+02  0.38779950725E+02  0.82470228357E+02  0.15133089430E+03  0.12000000000E+03 0.  0.
         25    1    1    2    0    0 -0.13993442255E+02 -0.38779950725E+02  0.61257675596E+02  0.14089784890E+03  0.12000000000E+03 0.  0.
<mgrwt>
<rscale>  0 0.25444042E+03</rscale>
<asrwt>0</asrwt>
<pdfrwt beam="1">  1        2 0.11423142E-01 0.25444042E+03</pdfrwt>
<pdfrwt beam="2">  1       -2 0.33535126E-01 0.25444042E+03</pdfrwt>
<totfact> 0.44740617E+03</totfact>
</mgrwt>
</event>
<event>
 4    1  0.1759998E-004  0.3253682E+03  0.7818608E-02  0.1073205E+00
         -2   -1    0    0    0  501 -0.00000000000E+00  0.00000000000E+00  0.19675854638E+02  0.19675854638E+02  0.00000000000E+00 0.  1.
          2   -1    0    0  501    0  0.00000000000E+00 -0.00000000000E+00 -0.13451061126E+04  0.13451061126E+04  0.00000000000E+00 0.  1.
         25    1    1    2    0    0 -0.10785201386E+03 -0.38024068515E+01 -0.74863714737E+03  0.76583555259E+03  0.12000000000E+03 0.  0.
         25    1    1    2    0    0  0.10785201386E+03  0.38024068515E+01 -0.57679311059E+03  0.59894641465E+03  0.12000000000E+03 0.  0.
<mgrwt>
<rscale>  0 0.32536818E+03</rscale>
<asrwt>0</asrwt>
<pdfrwt beam="1">  1        2 0.20693941E+00 0.32536818E+03</pdfrwt>
<pdfrwt beam="2">  1       -2 0.30270544E-02 0.32536818E+03</pdfrwt>
<totfact> 0.69427246E+03</totfact>
</mgrwt>
</event>
<event>
 4    1  0.1759998E-004  0.2500692E+03  0.7818608E-02  0.1113261E+00
          2   -1    0    0  501    0  0.00000000000E+00  0.00000000000E+00  0.78089130027E+03  0.78089130027E+03  0.00000000000E+00 0. -1.
         -2   -1    0    0    0  501 -0.00000000000E+00 -0.00000000000E+00 -0.20020257665E+02  0.20020257665E+02  0.00000000000E+00 0. -1.
         25    1    1    2    0    0  0.32934512742E+01  0.24465049877E+02  0.46045708621E+03  0.47647677144E+03  0.12000000000E+03 0.  0.
         25    1    1    2    0    0 -0.32934512742E+01 -0.24465049877E+02  0.30041395639E+03  0.32443478649E+03  0.12000000000E+03 0.  0.
<mgrwt>
<rscale>  0 0.25006915E+03</rscale>
<asrwt>0</asrwt>
<pdfrwt beam="1">  1        2 0.12013710E+00 0.25006915E+03</pdfrwt>
<pdfrwt beam="2">  1       -2 0.30800402E-02 0.25006915E+03</pdfrwt>
<totfact> 0.14766035E+04</totfact>
</mgrwt>
</event>
<event>
 4    1  0.1759998E-004  0.3179507E+03  0.7818608E-02  0.1076596E+00
         -4   -1    0    0    0  501 -0.00000000000E+00  0.00000000000E+00  0.55271708539E+02  0.55271708539E+02  0.00000000000E+00 0.  1.
          4   -1    0    0  501    0  0.00000000000E+00 -0.00000000000E+00 -0.45725307228E+03  0.45725307228E+03  0.00000000000E+00 0.  1.
         25    1    1    2    0    0  0.93323316192E+02  0.45882855975E+02 -0.21333885857E+03  0.26594726243E+03  0.12000000000E+03 0.  0.
         25    1    1    2    0    0 -0.93323316192E+02 -0.45882855975E+02 -0.18864250516E+03  0.24657751838E+03  0.12000000000E+03 0.  0.
<mgrwt>
<rscale>  0 0.31795068E+03</rscale>
<asrwt>0</asrwt>
<pdfrwt beam="1">  1        4 0.70346627E-01 0.31795068E+03</pdfrwt>
<pdfrwt beam="2">  1       -4 0.85033398E-02 0.31795068E+03</pdfrwt>
<totfact> 0.35796681E+02</totfact>
</mgrwt>
</event>
<event>
 4    1  0.1759998E-004  0.2566906E+03  0.7818608E-02  0.1109148E+00
          1   -1    0    0  501    0  0.00000000000E+00  0.00000000000E+00  0.99832328505E+03  0.99832328505E+03  0.00000000000E+00 0.  1.
         -1   -1    0    0    0  501 -0.00000000000E+00 -0.00000000000E+00 -0.16500175925E+02  0.16500175925E+02  0.00000000000E+00 0.  1.
         25    1    1    2    0    0 -0.11881293839E+02 -0.32399328650E+02  0.60829945910E+03  0.62098237784E+03  0.12000000000E+03 0.  0.
         25    1    1    2    0    0  0.11881293839E+02  0.32399328650E+02  0.37352365002E+03  0.39384108314E+03  0.12000000000E+03 0.  0.
<mgrwt>
<rscale>  0 0.25669055E+03</rscale>
<asrwt>0</asrwt>
<pdfrwt beam="1">  1        1 0.15358815E+00 0.25669055E+03</pdfrwt>
<pdfrwt beam="2">  1       -1 0.25384894E-02 0.25669055E+03</pdfrwt>
<totfact> 0.77181871E+03</totfact>
</mgrwt>
</event>
<event>
 4    1  0.1759998E-004  0.2594693E+03  0.7818608E-02  0.1107462E+00
          1   -1    0    0  501    0  0.00000000000E+00  0.00000000000E+00  0.89024747493E+02  0.89024747493E+02  0.00000000000E+00 0.  1.
         -1   -1    0    0    0  501 -0.00000000000E+00 -0.00000000000E+00 -0.18906075070E+03  0.18906075070E+03  0.00000000000E+00 0.  1.
         25    1    1    2    0    0 -0.27316773049E+02 -0.32746993094E+02 -0.23493314345E+02  0.12950099407E+03  0.12000000000E+03 0.  0.
         25    1    1    2    0    0  0.27316773049E+02  0.32746993094E+02 -0.76542688857E+02  0.14858450412E+03  0.12000000000E+03 0.  0.
<mgrwt>
<rscale>  0 0.25946935E+03</rscale>
<asrwt>0</asrwt>
<pdfrwt beam="1">  1        1 0.13696115E-01 0.25946935E+03</pdfrwt>
<pdfrwt beam="2">  1       -1 0.29086269E-01 0.25946935E+03</pdfrwt>
<totfact> 0.44897821E+03</totfact>
</mgrwt>
</event>
<event>
 4    1  0.1759998E-004  0.2425438E+03  0.7818608E-02  0.1118110E+00
          2   -1    0    0  501    0  0.00000000000E+00  0.00000000000E+00  0.99371051200E+03  0.99371051200E+03  0.00000000000E+00 0.  1.
         -2   -1    0    0    0  501 -0.00000000000E+00 -0.00000000000E+00 -0.14799960433E+02  0.14799960433E+02  0.00000000000E+00 0.  1.
         25    1    1    2    0    0 -0.14551173441E+02  0.53917718763E+01  0.52325297335E+03  0.53706096672E+03  0.12000000000E+03 0.  0.
         25    1    1    2    0    0  0.14551173441E+02 -0.53917718763E+01  0.45565757822E+03  0.47144950572E+03  0.12000000000E+03 0.  0.
<mgrwt>
<rscale>  0 0.24254382E+03</rscale>
<asrwt>0</asrwt>
<pdfrwt beam="1">  1        2 0.15287849E+00 0.24254382E+03</pdfrwt>
<pdfrwt beam="2">  1       -2 0.22769178E-02 0.24254382E+03</pdfrwt>
<totfact> 0.16758993E+04</totfact>
</mgrwt>
</event>
<event>
 4    1  0.1759998E-004  0.5236303E+03  0.7818608E-02  0.1007789E+00
         -2   -1    0    0    0  501 -0.00000000000E+00  0.00000000000E+00  0.42961066732E+02  0.42961066732E+02  0.00000000000E+00 0. -1.
          2   -1    0    0  501    0  0.00000000000E+00 -0.00000000000E+00 -0.15955648525E+04  0.15955648525E+04  0.00000000000E+00 0. -1.
         25    1    1    2    0    0  0.19591483959E+03 -0.11419356172E+03 -0.93963038047E+03  0.97402671720E+03  0.12000000000E+03 0.  0.
         25    1    1    2    0    0 -0.19591483959E+03  0.11419356172E+03 -0.61297340534E+03  0.66449920208E+03  0.12000000000E+03 0.  0.
<mgrwt>
<rscale>  0 0.52363028E+03</rscale>
<asrwt>0</asrwt>
<pdfrwt beam="1">  1        2 0.24547152E+00 0.52363028E+03</pdfrwt>
<pdfrwt beam="2">  1       -2 0.66093948E-02 0.52363028E+03</pdfrwt>
<totfact> 0.15288422E+03</totfact>
</mgrwt>
</event>
<event>
 4    1  0.1759998E-004  0.2670720E+03  0.7818608E-02  0.1102967E+00
          2   -1    0    0  501    0  0.00000000000E+00  0.00000000000E+00  0.34614748505E+02  0.34614748505E+02  0.00000000000E+00 0.  1.
         -2   -1    0    0    0  501 -0.00000000000E+00 -0.00000000000E+00 -0.51515225669E+03  0.51515225669E+03  0.00000000000E+00 0.  1.
         25    1    1    2    0    0 -0.43050701947E+02  0.27219348995E+02 -0.18069277538E+03  0.22280963842E+03  0.12000000000E+03 0.  0.
         25    1    1    2    0    0  0.43050701947E+02 -0.27219348995E+02 -0.29984473280E+03  0.32695736677E+03  0.12000000000E+03 0.  0.
<mgrwt>
<rscale>  0 0.26707202E+03</rscale>
<asrwt>0</asrwt>
<pdfrwt beam="1">  1        2 0.53253464E-02 0.26707202E+03</pdfrwt>
<pdfrwt beam="2">  1       -2 0.79254186E-01 0.26707202E+03</pdfrwt>
<totfact> 0.20959264E+03</totfact>
</mgrwt>
</event>
<event>
 4    1  0.1759998E-004  0.4943318E+03  0.7818608E-02  0.1015269E+00
         -2   -1    0    0    0  501 -0.00000000000E+00  0.00000000000E+00  0.36135411672E+02  0.36135411672E+02  0.00000000000E+00 0. -1.
          2   -1    0    0  501    0  0.00000000000E+00 -0.00000000000E+00 -0.16906125783E+04  0.16906125783E+04  0.00000000000E+00 0. -1.
         25    1    1    2    0    0 -0.20208313446E+03  0.76502501160E+02 -0.83027492486E+03  0.86628325435E+03  0.12000000000E+03 0.  0.
         25    1    1    2    0    0  0.20208313446E+03 -0.76502501160E+02 -0.82420224181E+03  0.86046473566E+03  0.12000000000E+03 0.  0.
<mgrwt>
<rscale>  0 0.49433180E+03</rscale>
<asrwt>0</asrwt>
<pdfrwt beam="1">  1        2 0.26009420E+00 0.49433180E+03</pdfrwt>
<pdfrwt beam="2">  1       -2 0.55592950E-02 0.49433180E+03</pdfrwt>
<totfact> 0.17812660E+03</totfact>
</mgrwt>
</event>
<event>
 4    1  0.1759998E-004  0.3454178E+03  0.7818608E-02  0.1064512E+00
         -2   -1    0    0    0  501 -0.00000000000E+00  0.00000000000E+00  0.58004574901E+02  0.58004574901E+02  0.00000000000E+00 0.  1.
          2   -1    0    0  501    0  0.00000000000E+00 -0.00000000000E+00 -0.51424159095E+03  0.51424159095E+03  0.00000000000E+00 0.  1.
         25    1    1    2    0    0 -0.92362046873E+02 -0.73224565652E+02 -0.16319489223E+03  0.23436116907E+03  0.12000000000E+03 0.  0.
         25    1    1    2    0    0  0.92362046873E+02  0.73224565652E+02 -0.29304212382E+03  0.33788499678E+03  0.12000000000E+03 0.  0.
<mgrwt>
<rscale>  0 0.34541780E+03</rscale>
<asrwt>0</asrwt>
<pdfrwt beam="1">  1        2 0.79114091E-01 0.34541780E+03</pdfrwt>
<pdfrwt beam="2">  1       -2 0.89237807E-02 0.34541780E+03</pdfrwt>
<totfact> 0.48140675E+03</totfact>
</mgrwt>
</event>
<event>
 4    1  0.1759998E-004  0.2534701E+03  0.7818608E-02  0.1111131E+00
         -2   -1    0    0    0  501 -0.00000000000E+00  0.00000000000E+00  0.87118002408E+02  0.87118002408E+02  0.00000000000E+00 0.  1.
          2   -1    0    0  501    0  0.00000000000E+00 -0.00000000000E+00 -0.18436801343E+03  0.18436801343E+03  0.00000000000E+00 0.  1.
         25    1    1    2    0    0 -0.38675856932E+02 -0.12131587531E+02 -0.53266084271E+02  0.13740550593E+03  0.12000000000E+03 0.  0.
         25    1    1    2    0    0  0.38675856932E+02  0.12131587531E+02 -0.43983926751E+02  0.13408050991E+03  0.12000000000E+03 0.  0.
<mgrwt>
<rscale>  0 0.25347010E+03</rscale>
<asrwt>0</asrwt>
<pdfrwt beam="1">  1        2 0.28364309E-01 0.25347010E+03</pdfrwt>
<pdfrwt beam="2">  1       -2 0.13402770E-01 0.25347010E+03</pdfrwt>
<totfact> 0.75992808E+03</totfact>
</mgrwt>
</event>
<event>
 4    1  0.1759998E-004  0.3581506E+03  0.7818608E-02  0.1059319E+00
         -2   -1    0    0    0  501 -0.00000000000E+00  0.00000000000E+00  0.97738142367E+01  0.97738142367E+01  0.00000000000E+00 0.  1.
          2   -1    0    0  501    0  0.00000000000E+00 -0.00000000000E+00 -0.32810087241E+04  0.32810087241E+04  0.00000000000E+00 0.  1.
         25    1    1    2    0    0 -0.29853346789E+02 -0.88869593142E+02 -0.76982442201E+03  0.78474114689E+03  0.12000000000E+03 0.  0.
         25    1    1    2    0    0  0.29853346789E+02  0.88869593142E+02 -0.25014104879E+04  0.25060413915E+04  0.12000000000E+03 0.  0.
<mgrwt>
<rscale>  0 0.35815064E+03</rscale>
<asrwt>0</asrwt>
<pdfrwt beam="1">  1        2 0.50477062E+00 0.35815064E+03</pdfrwt>
<pdfrwt beam="2">  1       -2 0.15036636E-02 0.35815064E+03</pdfrwt>
<totfact> 0.16308081E+03</totfact>
</mgrwt>
</event>
<event>
 4    1  0.1759998E-004  0.3816244E+03  0.7818608E-02  0.1050335E+00
         -2   -1    0    0    0  501 -0.00000000000E+00  0.00000000000E+00  0.59256530958E+02  0.59256530958E+02  0.00000000000E+00 0. -1.
          2   -1    0    0  501    0  0.00000000000E+00 -0.00000000000E+00 -0.61443506496E+03  0.61443506496E+03  0.00000000000E+00 0. -1.
         25    1    1    2    0    0  0.14797728098E+03  0.39120043202E+01 -0.29494979498E+03  0.35115233307E+03  0.12000000000E+03 0.  0.
         25    1    1    2    0    0 -0.14797728098E+03 -0.39120043202E+01 -0.26022873902E+03  0.32253926285E+03  0.12000000000E+03 0.  0.
<mgrwt>
<rscale>  0 0.38162437E+03</rscale>
<asrwt>0</asrwt>
<pdfrwt beam="1">  1        2 0.94528473E-01 0.38162437E+03</pdfrwt>
<pdfrwt beam="2">  1       -2 0.91163892E-02 0.38162437E+03</pdfrwt>
<totfact> 0.37936490E+03</totfact>
</mgrwt>
</event>
<event>
 4    1  0.1759998E-004  0.4558496E+03  0.7818608E-02  0.1025992E+00
          1   -1    0    0  501    0  0.00000000000E+00  0.00000000000E+00  0.70183417737E+02  0.70183417737E+02  0.00000000000E+00 0. -1.
         -1   -1    0    0    0  501 -0.00000000000E+00 -0.00000000000E+00 -0.74019936926E+03  0.74019936926E+03  0.00000000000E+00 0. -1.
         25    1    1    2    0    0 -0.15612884975E+03 -0.10159049653E+03 -0.24005469847E+03  0.32668502410E+03  0.12000000000E+03 0.  0.
         25    1    1    2    0    0  0.15612884975E+03  0.10159049653E+03 -0.42996125304E+03  0.48369776289E+03  0.12000000000E+03 0.  0.
<mgrwt>
<rscale>  0 0.45584963E+03</rscale>
<asrwt>0</asrwt>
<pdfrwt beam="1">  1        1 0.10797449E-01 0.45584963E+03</pdfrwt>
<pdfrwt beam="2">  1       -1 0.11387683E+00 0.45584963E+03</pdfrwt>
<totfact> 0.43192193E+02</totfact>
</mgrwt>
</event>
<event>
 4    1  0.1759998E-004  0.2438672E+03  0.7818608E-02  0.1117243E+00
         -2   -1    0    0    0  501 -0.00000000000E+00  0.00000000000E+00  0.11727820045E+03  0.11727820045E+03  0.00000000000E+00 0.  1.
          2   -1    0    0  501    0  0.00000000000E+00 -0.00000000000E+00 -0.12677381485E+03  0.12677381485E+03  0.00000000000E+00 0.  1.
         25    1    1    2    0    0  0.15908826097E+02 -0.91449538576E+01 -0.16205672736E+02  0.12247181209E+03  0.12000000000E+03 0.  0.
         25    1    1    2    0    0 -0.15908826097E+02  0.91449538576E+01  0.67100583387E+01  0.12158020321E+03  0.12000000000E+03 0.  0.
<mgrwt>
<rscale>  0 0.24386722E+03</rscale>
<asrwt>0</asrwt>
<pdfrwt beam="1">  1        2 0.19503664E-01 0.24386722E+03</pdfrwt>
<pdfrwt beam="2">  1       -2 0.18042800E-01 0.24386722E+03</pdfrwt>
<totfact> 0.70599491E+03</totfact>
</mgrwt>
</event>
<event>
 4    1  0.1759998E-004  0.2904821E+03  0.7818608E-02  0.1090098E+00
         -2   -1    0    0    0  501 -0.00000000000E+00  0.00000000000E+00  0.24644796573E+03  0.24644796573E+03  0.00000000000E+00 0. -1.
          2   -1    0    0  501    0  0.00000000000E+00 -0.00000000000E+00 -0.85596007862E+02  0.85596007862E+02  0.00000000000E+00 0. -1.
         25    1    1    2    0    0  0.26367909446E+02 -0.59949346475E+02  0.24359485403E+02  0.13886171294E+03  0.12000000000E+03 0.  0.
         25    1    1    2    0    0 -0.26367909446E+02  0.59949346475E+02  0.13649247247E+03  0.19318226066E+03  0.12000000000E+03 0.  0.
<mgrwt>
<rscale>  0 0.29048210E+03</rscale>
<asrwt>0</asrwt>
<pdfrwt beam="1">  1        2 0.13168617E-01 0.29048210E+03</pdfrwt>
<pdfrwt beam="2">  1       -2 0.37915072E-01 0.29048210E+03</pdfrwt>
<totfact> 0.30050312E+03</totfact>
</mgrwt>
</event>
<event>
 4    1  0.1759998E-004  0.2876265E+03  0.7818608E-02  0.1091595E+00
          4   -1    0    0  501    0  0.00000000000E+00  0.00000000000E+00  0.33425008111E+02  0.33425008111E+02  0.00000000000E+00 0. -1.
         -4   -1    0    0    0  501 -0.00000000000E+00 -0.00000000000E+00 -0.61876576819E+03  0.61876576819E+03  0.00000000000E+00 0. -1.
         25    1    1    2    0    0  0.30598143309E+02 -0.64147627191E+02 -0.21311125131E+03  0.25469112643E+03  0.12000000000E+03 0.  0.
         25    1    1    2    0    0 -0.30598143309E+02  0.64147627191E+02 -0.37222950878E+03  0.39749964988E+03  0.12000000000E+03 0.  0.
<mgrwt>
<rscale>  0 0.28762650E+03</rscale>
<asrwt>0</asrwt>
<pdfrwt beam="1">  1        4 0.51423090E-02 0.28762650E+03</pdfrwt>
<pdfrwt beam="2">  1       -4 0.95194732E-01 0.28762650E+03</pdfrwt>
<totfact> 0.41130345E+02</totfact>
</mgrwt>
</event>
<event>
 4    1  0.1759998E-004  0.3344427E+03  0.7818608E-02  0.1069188E+00
          1   -1    0    0  501    0  0.00000000000E+00  0.00000000000E+00  0.11891541481E+04  0.11891541481E+04  0.00000000000E+00 0.  1.
         -1   -1    0    0    0  501 -0.00000000000E+00 -0.00000000000E+00 -0.23515011085E+02  0.23515011085E+02  0.00000000000E+00 0.  1.
         25    1    1    2    0    0 -0.46739370377E+02 -0.97413488546E+02  0.74041315486E+03  0.75781633420E+03  0.12000000000E+03 0.  0.
         25    1    1    2    0    0  0.46739370377E+02  0.97413488546E+02  0.42522598213E+03  0.45485282496E+03  0.12000000000E+03 0.  0.
<mgrwt>
<rscale>  0 0.33444266E+03</rscale>
<asrwt>0</asrwt>
<pdfrwt beam="1">  1        1 0.18294675E+00 0.33444266E+03</pdfrwt>
<pdfrwt beam="2">  1       -1 0.36176949E-02 0.33444266E+03</pdfrwt>
<totfact> 0.33362032E+03</totfact>
</mgrwt>
</event>
<event>
 4    1  0.1759998E-004  0.2598724E+03  0.7818608E-02  0.1107220E+00
         -2   -1    0    0    0  501 -0.00000000000E+00  0.00000000000E+00  0.21800342020E+02  0.21800342020E+02  0.00000000000E+00 0. -1.
          2   -1    0    0  501    0  0.00000000000E+00 -0.00000000000E+00 -0.77445660100E+03  0.77445660100E+03  0.00000000000E+00 0. -1.
         25    1    1    2    0    0  0.25122545843E+02 -0.33356423675E+02 -0.45965766667E+03  0.47689512876E+03  0.12000000000E+03 0.  0.
         25    1    1    2    0    0 -0.25122545843E+02  0.33356423675E+02 -0.29299859231E+03  0.31936181426E+03  0.12000000000E+03 0.  0.
<mgrwt>
<rscale>  0 0.25987242E+03</rscale>
<asrwt>0</asrwt>
<pdfrwt beam="1">  1        2 0.11914717E+00 0.25987242E+03</pdfrwt>
<pdfrwt beam="2">  1       -2 0.33538989E-02 0.25987242E+03</pdfrwt>
<totfact> 0.13163676E+04</totfact>
</mgrwt>
</event>
<event>
 4    1  0.1759998E-004  0.2785326E+03  0.7818608E-02  0.1096493E+00
         -1   -1    0    0    0  501 -0.00000000000E+00  0.00000000000E+00  0.15760922534E+02  0.15760922534E+02  0.00000000000E+00 0.  1.
          1   -1    0    0  501    0  0.00000000000E+00 -0.00000000000E+00 -0.12305817685E+04  0.12305817685E+04  0.00000000000E+00 0.  1.
         25    1    1    2    0    0 -0.46677567035E+02  0.21103685593E+02 -0.82529274105E+03  0.83554309837E+03  0.12000000000E+03 0.  0.
         25    1    1    2    0    0  0.46677567035E+02 -0.21103685593E+02 -0.38952810488E+03  0.41079959263E+03  0.12000000000E+03 0.  0.
<mgrwt>
<rscale>  0 0.27853261E+03</rscale>
<asrwt>0</asrwt>
<pdfrwt beam="1">  1        1 0.18932022E+00 0.27853261E+03</pdfrwt>
<pdfrwt beam="2">  1       -1 0.24247580E-02 0.27853261E+03</pdfrwt>
<totfact> 0.56320019E+03</totfact>
</mgrwt>
</event>
<event>
 4    1  0.1759998E-004  0.3255055E+03  0.7818608E-02  0.1073143E+00
          2   -1    0    0  501    0  0.00000000000E+00  0.00000000000E+00  0.30766865924E+02  0.30766865924E+02  0.00000000000E+00 0. -1.
         -2   -1    0    0    0  501 -0.00000000000E+00 -0.00000000000E+00 -0.86094098768E+03  0.86094098768E+03  0.00000000000E+00 0. -1.
         25    1    1    2    0    0 -0.47389015109E+02  0.55975582414E+02 -0.19069451497E+03  0.23694594873E+03  0.12000000000E+03 0.  0.
         25    1    1    2    0    0  0.47389015109E+02 -0.55975582414E+02 -0.63947960679E+03  0.65476190488E+03  0.12000000000E+03 0.  0.
<mgrwt>
<rscale>  0 0.32550549E+03</rscale>
<asrwt>0</asrwt>
<pdfrwt beam="1">  1        2 0.47333645E-02 0.32550549E+03</pdfrwt>
<pdfrwt beam="2">  1       -2 0.13245245E+00 0.32550549E+03</pdfrwt>
<totfact> 0.73905231E+02</totfact>
</mgrwt>
</event>
<event>
 4    1  0.1759998E-004  0.2957894E+03  0.7818608E-02  0.1087365E+00
         -2   -1    0    0    0  501 -0.00000000000E+00  0.00000000000E+00  0.68339877528E+01  0.68339877528E+01  0.00000000000E+00 0. -1.
          2   -1    0    0  501    0  0.00000000000E+00 -0.00000000000E+00 -0.32005968214E+04  0.32005968214E+04  0.00000000000E+00 0. -1.
         25    1    1    2    0    0  0.76570799936E+02  0.13491645363E+02 -0.11871517668E+04  0.11957317547E+04  0.12000000000E+03 0.  0.
         25    1    1    2    0    0 -0.76570799936E+02 -0.13491645363E+02 -0.20066110669E+04  0.20116990544E+04  0.12000000000E+03 0.  0.
<mgrwt>
<rscale>  0 0.29578938E+03</rscale>
<asrwt>0</asrwt>
<pdfrwt beam="1">  1        2 0.49240049E+00 0.29578938E+03</pdfrwt>
<pdfrwt beam="2">  1       -2 0.10513806E-02 0.29578938E+03</pdfrwt>
<totfact> 0.31166582E+03</totfact>
</mgrwt>
</event>
<event>
 4    1  0.1759998E-004  0.2990068E+03  0.7818608E-02  0.1085738E+00
         -1   -1    0    0    0  501 -0.00000000000E+00  0.00000000000E+00  0.66006454685E+02  0.66006454685E+02  0.00000000000E+00 0. -1.
          1   -1    0    0  501    0  0.00000000000E+00 -0.00000000000E+00 -0.33862239179E+03  0.33862239179E+03  0.00000000000E+00 0. -1.
         25    1    1    2    0    0  0.49402737844E+02  0.71534961441E+02 -0.16314801342E+03  0.22039772117E+03  0.12000000000E+03 0.  0.
         25    1    1    2    0    0 -0.49402737844E+02 -0.71534961441E+02 -0.10946792369E+03  0.18423112531E+03  0.12000000000E+03 0.  0.
<mgrwt>
<rscale>  0 0.29900678E+03</rscale>
<asrwt>0</asrwt>
<pdfrwt beam="1">  1        1 0.52095753E-01 0.29900678E+03</pdfrwt>
<pdfrwt beam="2">  1       -1 0.10154839E-01 0.29900678E+03</pdfrwt>
<totfact> 0.44579761E+03</totfact>
</mgrwt>
</event>
<event>
 4    1  0.1759998E-004  0.2949187E+03  0.7818608E-02  0.1087809E+00
         -2   -1    0    0    0  501 -0.00000000000E+00  0.00000000000E+00  0.11844831700E+03  0.11844831700E+03  0.00000000000E+00 0. -1.
          2   -1    0    0  501    0  0.00000000000E+00 -0.00000000000E+00 -0.18357594500E+03  0.18357594500E+03  0.00000000000E+00 0. -1.
         25    1    1    2    0    0 -0.12069681611E+02  0.44650966033E+02  0.41319213937E+02  0.13508021107E+03  0.12000000000E+03 0.  0.
         25    1    1    2    0    0  0.12069681611E+02 -0.44650966033E+02 -0.10644684194E+03  0.16694405093E+03  0.12000000000E+03 0.  0.
<mgrwt>
<rscale>  0 0.29491871E+03</rscale>
<asrwt>0</asrwt>
<pdfrwt beam="1">  1        2 0.28242453E-01 0.29491871E+03</pdfrwt>
<pdfrwt beam="2">  1       -2 0.18222818E-01 0.29491871E+03</pdfrwt>
<totfact> 0.46101098E+03</totfact>
</mgrwt>
</event>
<event>
 4    1  0.1759998E-004  0.2905555E+03  0.7818608E-02  0.1090059E+00
          2   -1    0    0  501    0  0.00000000000E+00  0.00000000000E+00  0.58867390285E+03  0.58867390285E+03  0.00000000000E+00 0.  1.
         -2   -1    0    0    0  501 -0.00000000000E+00 -0.00000000000E+00 -0.35852830945E+02  0.35852830945E+02  0.00000000000E+00 0.  1.
         25    1    1    2    0    0  0.11523245988E+02  0.70356400987E+02  0.18982272317E+03  0.23561722048E+03  0.12000000000E+03 0.  0.
         25    1    1    2    0    0 -0.11523245988E+02 -0.70356400987E+02  0.36299834874E+03  0.38890951332E+03  0.12000000000E+03 0.  0.
<mgrwt>
<rscale>  0 0.29055551E+03</rscale>
<asrwt>0</asrwt>
<pdfrwt beam="1">  1        2 0.90565209E-01 0.29055551E+03</pdfrwt>
<pdfrwt beam="2">  1       -2 0.55158206E-02 0.29055551E+03</pdfrwt>
<totfact> 0.86732392E+03</totfact>
</mgrwt>
</event>
<event>
 4    1  0.1759998E-004  0.3443336E+03  0.7818608E-02  0.1064965E+00
          1   -1    0    0  501    0  0.00000000000E+00  0.00000000000E+00  0.63013786684E+02  0.63013786684E+02  0.00000000000E+00 0.  1.
         -1   -1    0    0    0  501 -0.00000000000E+00 -0.00000000000E+00 -0.47039565356E+03  0.47039565356E+03  0.00000000000E+00 0.  1.
         25    1    1    2    0    0  0.20455549231E+02  0.11891979934E+03 -0.16326361179E+03  0.23582908028E+03  0.12000000000E+03 0.  0.
         25    1    1    2    0    0 -0.20455549231E+02 -0.11891979934E+03 -0.24411825509E+03  0.29758035996E+03  0.12000000000E+03 0.  0.
<mgrwt>
<rscale>  0 0.34433363E+03</rscale>
<asrwt>0</asrwt>
<pdfrwt beam="1">  1        1 0.96944282E-02 0.34433363E+03</pdfrwt>
<pdfrwt beam="2">  1       -1 0.72368566E-01 0.34433363E+03</pdfrwt>
<totfact> 0.13456972E+03</totfact>
</mgrwt>
</event>
<event>
 4    1  0.1759998E-004  0.3171820E+03  0.7818608E-02  0.1076954E+00
          2   -1    0    0  501    0  0.00000000000E+00  0.00000000000E+00  0.10771093757E+04  0.10771093757E+04  0.00000000000E+00 0. -1.
         -2   -1    0    0    0  501 -0.00000000000E+00 -0.00000000000E+00 -0.23350553126E+02  0.23350553126E+02  0.00000000000E+00 0. -1.
         25    1    1    2    0    0 -0.54314089594E+02 -0.29115202390E+01  0.22060761361E+03  0.25695567022E+03  0.12000000000E+03 0.  0.
         25    1    1    2    0    0  0.54314089594E+02  0.29115202390E+01  0.83315120895E+03  0.84350425859E+03  0.12000000000E+03 0.  0.
<mgrwt>
<rscale>  0 0.31718196E+03</rscale>
<asrwt>0</asrwt>
<pdfrwt beam="1">  1        2 0.16570910E+00 0.31718196E+03</pdfrwt>
<pdfrwt beam="2">  1       -2 0.35923936E-02 0.31718196E+03</pdfrwt>
<totfact> 0.76383827E+03</totfact>
</mgrwt>
</event>
<event>
 4    1  0.1759998E-004  0.2896982E+03  0.7818608E-02  0.1090507E+00
          2   -1    0    0  501    0  0.00000000000E+00  0.00000000000E+00  0.71757930146E+02  0.71757930146E+02  0.00000000000E+00 0.  1.
         -2   -1    0    0    0  501 -0.00000000000E+00 -0.00000000000E+00 -0.29238943153E+03  0.29238943153E+03  0.00000000000E+00 0.  1.
         25    1    1    2    0    0  0.73702214424E+01  0.62120091527E+02 -0.17524301479E+03  0.22141215000E+03  0.12000000000E+03 0.  0.
         25    1    1    2    0    0 -0.73702214424E+01 -0.62120091527E+02 -0.45388486588E+02  0.14273521167E+03  0.12000000000E+03 0.  0.
<mgrwt>
<rscale>  0 0.28969819E+03</rscale>
<asrwt>0</asrwt>
<pdfrwt beam="1">  1        2 0.11039682E-01 0.28969819E+03</pdfrwt>
<pdfrwt beam="2">  1       -2 0.44982989E-01 0.28969819E+03</pdfrwt>
<totfact> 0.26810628E+03</totfact>
</mgrwt>
</event>
<event>
 4    1  0.1759998E-004  0.2916968E+03  0.7818608E-02  0.1089467E+00
         -2   -1    0    0    0  501 -0.00000000000E+00  0.00000000000E+00  0.12964800901E+02  0.12964800901E+02  0.00000000000E+00 0. -1.
          2   -1    0    0  501    0  0.00000000000E+00 -0.00000000000E+00 -0.16407317322E+04  0.16407317322E+04  0.00000000000E+00 0. -1.
         25    1    1    2    0    0  0.58547305388E+02 -0.57350662548E+02 -0.74333063354E+03  0.75740168749E+03  0.12000000000E+03 0.  0.
         25    1    1    2    0    0 -0.58547305388E+02  0.57350662548E+02 -0.88443629776E+03  0.89629484561E+03  0.12000000000E+03 0.  0.
<mgrwt>
<rscale>  0 0.29169683E+03</rscale>
<asrwt>0</asrwt>
<pdfrwt beam="1">  1        2 0.25242011E+00 0.29169683E+03</pdfrwt>
<pdfrwt beam="2">  1       -2 0.19945860E-02 0.29169683E+03</pdfrwt>
<totfact> 0.89218004E+03</totfact>
</mgrwt>
</event>
<event>
 4    1  0.1759998E-004  0.2714860E+03  0.7818608E-02  0.1100432E+00
          3   -1    0    0  501    0  0.00000000000E+00  0.00000000000E+00  0.93599064132E+02  0.93599064132E+02  0.00000000000E+00 0.  1.
         -3   -1    0    0    0  501 -0.00000000000E+00 -0.00000000000E+00 -0.19686260853E+03  0.19686260853E+03  0.00000000000E+00 0.  1.
         25    1    1    2    0    0 -0.25771168895E+02 -0.56847737115E+02 -0.39417256269E+02  0.14088839006E+03  0.12000000000E+03 0.  0.
         25    1    1    2    0    0  0.25771168895E+02  0.56847737115E+02 -0.63846288130E+02  0.14957328261E+03  0.12000000000E+03 0.  0.
<mgrwt>
<rscale>  0 0.27148595E+03</rscale>
<asrwt>0</asrwt>
<pdfrwt beam="1">  1        3 0.14399856E-01 0.27148595E+03</pdfrwt>
<pdfrwt beam="2">  1       -3 0.30286555E-01 0.27148595E+03</pdfrwt>
<totfact> 0.10667266E+03</totfact>
</mgrwt>
</event>
<event>
 4    1  0.1759998E-004  0.3440807E+03  0.7818608E-02  0.1065071E+00
         -2   -1    0    0    0  501 -0.00000000000E+00  0.00000000000E+00  0.17634896900E+02  0.17634896900E+02  0.00000000000E+00 0.  1.
          2   -1    0    0  501    0  0.00000000000E+00 -0.00000000000E+00 -0.16783703941E+04  0.16783703941E+04  0.00000000000E+00 0.  1.
         25    1    1    2    0    0 -0.72328588590E+02  0.58461785696E+02 -0.12292492064E+04  0.12385890426E+04  0.12000000000E+03 0.  0.
         25    1    1    2    0    0  0.72328588590E+02 -0.58461785696E+02 -0.43148629077E+03  0.45741624833E+03  0.12000000000E+03 0.  0.
<mgrwt>
<rscale>  0 0.34408074E+03</rscale>
<asrwt>0</asrwt>
<pdfrwt beam="1">  1        2 0.25821087E+00 0.34408074E+03</pdfrwt>
<pdfrwt beam="2">  1       -2 0.27130606E-02 0.34408074E+03</pdfrwt>
<totfact> 0.54049448E+03</totfact>
</mgrwt>
</event>
<event>
 4    1  0.1759998E-004  0.2729807E+03  0.7818608E-02  0.1099586E+00
          2   -1    0    0  501    0  0.00000000000E+00  0.00000000000E+00  0.30847226601E+03  0.30847226601E+03  0.00000000000E+00 0.  1.
         -2   -1    0    0    0  501 -0.00000000000E+00 -0.00000000000E+00 -0.60393151984E+02  0.60393151984E+02  0.00000000000E+00 0.  1.
         25    1    1    2    0    0 -0.54021455505E+02 -0.15438647248E+01  0.17292630394E+03  0.21731131533E+03  0.12000000000E+03 0.  0.
         25    1    1    2    0    0  0.54021455505E+02  0.15438647248E+01  0.75152810088E+02  0.15155410267E+03  0.12000000000E+03 0.  0.
<mgrwt>
<rscale>  0 0.27298068E+03</rscale>
<asrwt>0</asrwt>
<pdfrwt beam="1">  1        2 0.47457271E-01 0.27298068E+03</pdfrwt>
<pdfrwt beam="2">  1       -2 0.92912543E-02 0.27298068E+03</pdfrwt>
<totfact> 0.78527281E+03</totfact>
</mgrwt>
</event>
<event>
 4    1  0.1759998E-004  0.2446874E+03  0.7818608E-02  0.1116709E+00
          2   -1    0    0  501    0  0.00000000000E+00  0.00000000000E+00  0.18578923192E+04  0.18578923192E+04  0.00000000000E+00 0.  1.
         -2   -1    0    0    0  501 -0.00000000000E+00 -0.00000000000E+00 -0.80564303157E+01  0.80564303157E+01  0.00000000000E+00 0.  1.
         25    1    1    2    0    0  0.11485506628E+02  0.46525591464E+01  0.10801590807E+04  0.10868749711E+04  0.12000000000E+03 0.  0.
         25    1    1    2    0    0 -0.11485506628E+02 -0.46525591464E+01  0.76967680816E+03  0.77907377840E+03  0.12000000000E+03 0.  0.
<mgrwt>
<rscale>  0 0.24468739E+03</rscale>
<asrwt>0</asrwt>
<pdfrwt beam="1">  1        2 0.28582925E+00 0.24468739E+03</pdfrwt>
<pdfrwt beam="2">  1       -2 0.12394523E-02 0.24468739E+03</pdfrwt>
<totfact> 0.13717359E+04</totfact>
</mgrwt>
</event>
<event>
 4    1  0.1759998E-004  0.3235391E+03  0.7818608E-02  0.1074032E+00
         -1   -1    0    0    0  501 -0.00000000000E+00  0.00000000000E+00  0.42120970858E+02  0.42120970858E+02  0.00000000000E+00 0. -1.
          1   -1    0    0  501    0  0.00000000000E+00 -0.00000000000E+00 -0.62129132844E+03  0.62129132844E+03  0.00000000000E+00 0. -1.
         25    1    1    2    0    0  0.34193851240E+01  0.10650947209E+03 -0.33127786126E+03  0.36810457916E+03  0.12000000000E+03 0.  0.
         25    1    1    2    0    0 -0.34193851240E+01 -0.10650947209E+03 -0.24789249632E+03  0.29530772013E+03  0.12000000000E+03 0.  0.
<mgrwt>
<rscale>  0 0.32353914E+03</rscale>
<asrwt>0</asrwt>
<pdfrwt beam="1">  1        1 0.95583280E-01 0.32353914E+03</pdfrwt>
<pdfrwt beam="2">  1       -1 0.64801494E-02 0.32353914E+03</pdfrwt>
<totfact> 0.39865362E+03</totfact>
</mgrwt>
</event>
<event>
 4    1  0.1759998E-004  0.3073202E+03  0.7818608E-02  0.1081638E+00
          3   -1    0    0  501    0  0.00000000000E+00  0.00000000000E+00  0.19429787220E+03  0.19429787220E+03  0.00000000000E+00 0. -1.
         -3   -1    0    0    0  501 -0.00000000000E+00 -0.00000000000E+00 -0.12152179833E+03  0.12152179833E+03  0.00000000000E+00 0. -1.
         25    1    1    2    0    0 -0.79926041172E+02 -0.11165882229E+02  0.89772581331E+02  0.17021153117E+03  0.12000000000E+03 0.  0.
         25    1    1    2    0    0  0.79926041172E+02  0.11165882229E+02 -0.16996507457E+02  0.14560813936E+03  0.12000000000E+03 0.  0.
<mgrwt>
<rscale>  0 0.30732020E+03</rscale>
<asrwt>0</asrwt>
<pdfrwt beam="1">  1        3 0.29891980E-01 0.30732020E+03</pdfrwt>
<pdfrwt beam="2">  1       -3 0.18695661E-01 0.30732020E+03</pdfrwt>
<totfact> 0.70199124E+02</totfact>
</mgrwt>
</event>
<event>
 4    1  0.1759998E-004  0.3088943E+03  0.7818608E-02  0.1080877E+00
         -1   -1    0    0    0  501 -0.00000000000E+00  0.00000000000E+00  0.52298530919E+02  0.52298530919E+02  0.00000000000E+00 0. -1.
          1   -1    0    0  501    0  0.00000000000E+00 -0.00000000000E+00 -0.45611068623E+03  0.45611068623E+03  0.00000000000E+00 0. -1.
         25    1    1    2    0    0 -0.26630336477E+02  0.35850878691E+02 -0.34405946157E+03  0.36711220822E+03  0.12000000000E+03 0.  0.
         25    1    1    2    0    0  0.26630336477E+02 -0.35850878691E+02 -0.59752693737E+02  0.14129700893E+03  0.12000000000E+03 0.  0.
<mgrwt>
<rscale>  0 0.30889428E+03</rscale>
<asrwt>0</asrwt>
<pdfrwt beam="1">  1        1 0.70170875E-01 0.30889428E+03</pdfrwt>
<pdfrwt beam="2">  1       -1 0.80459278E-02 0.30889428E+03</pdfrwt>
<totfact> 0.43532956E+03</totfact>
</mgrwt>
</event>
<event>
 4    1  0.1759998E-004  0.2668372E+03  0.7818608E-02  0.1103103E+00
          2   -1    0    0  501    0  0.00000000000E+00  0.00000000000E+00  0.80280063860E+01  0.80280063860E+01  0.00000000000E+00 0.  1.
         -2   -1    0    0    0  501 -0.00000000000E+00 -0.00000000000E+00 -0.22173038162E+04  0.22173038162E+04  0.00000000000E+00 0.  1.
         25    1    1    2    0    0 -0.50934629282E+02  0.59457504959E+01 -0.87309543108E+03  0.88279404177E+03  0.12000000000E+03 0.  0.
         25    1    1    2    0    0  0.50934629282E+02 -0.59457504959E+01 -0.13361803788E+04  0.13425377808E+04  0.12000000000E+03 0.  0.
<mgrwt>
<rscale>  0 0.26683725E+03</rscale>
<asrwt>0</asrwt>
<pdfrwt beam="1">  1        2 0.12350785E-02 0.26683725E+03</pdfrwt>
<pdfrwt beam="2">  1       -2 0.34112351E+00 0.26683725E+03</pdfrwt>
<totfact> 0.22415237E+02</totfact>
</mgrwt>
</event>
<event>
 4    1  0.1759998E-004  0.2655479E+03  0.7818608E-02  0.1103855E+00
         -1   -1    0    0    0  501 -0.00000000000E+00  0.00000000000E+00  0.22886831006E+02  0.22886831006E+02  0.00000000000E+00 0. -1.
          1   -1    0    0  501    0  0.00000000000E+00 -0.00000000000E+00 -0.77026502436E+03  0.77026502436E+03  0.00000000000E+00 0. -1.
         25    1    1    2    0    0  0.39921955591E+02 -0.30791937073E+02 -0.45197759544E+03  0.47034631146E+03  0.12000000000E+03 0.  0.
         25    1    1    2    0    0 -0.39921955591E+02  0.30791937073E+02 -0.29540059792E+03  0.32280554391E+03  0.12000000000E+03 0.  0.
<mgrwt>
<rscale>  0 0.26554793E+03</rscale>
<asrwt>0</asrwt>
<pdfrwt beam="1">  1        1 0.11850232E+00 0.26554793E+03</pdfrwt>
<pdfrwt beam="2">  1       -1 0.35210506E-02 0.26554793E+03</pdfrwt>
<totfact> 0.72385524E+03</totfact>
</mgrwt>
</event>
<event>
 4    1  0.1759998E-004  0.4202164E+03  0.7818608E-02  0.1036996E+00
         -1   -1    0    0    0  501 -0.00000000000E+00  0.00000000000E+00  0.42475040242E+02  0.42475040242E+02  0.00000000000E+00 0. -1.
          1   -1    0    0  501    0  0.00000000000E+00 -0.00000000000E+00 -0.10393268447E+04  0.10393268447E+04  0.00000000000E+00 0. -1.
         25    1    1    2    0    0  0.21469833904E+02  0.99824779474E+02 -0.85625265782E+03  0.87062882699E+03  0.12000000000E+03 0.  0.
         25    1    1    2    0    0 -0.21469833904E+02 -0.99824779474E+02 -0.14059914661E+03  0.21117305792E+03  0.12000000000E+03 0.  0.
<mgrwt>
<rscale>  0 0.42021637E+03</rscale>
<asrwt>0</asrwt>
<pdfrwt beam="1">  1        1 0.15989645E+00 0.42021637E+03</pdfrwt>
<pdfrwt beam="2">  1       -1 0.65346212E-02 0.42021637E+03</pdfrwt>
<totfact> 0.17536555E+03</totfact>
</mgrwt>
</event>
<event>
 4    1  0.1759998E-004  0.3630923E+03  0.7818608E-02  0.1057366E+00
          3   -1    0    0  501    0  0.00000000000E+00  0.00000000000E+00  0.22828111185E+02  0.22828111185E+02  0.00000000000E+00 0.  1.
         -3   -1    0    0    0  501 -0.00000000000E+00 -0.00000000000E+00 -0.14437899917E+04  0.14437899917E+04  0.00000000000E+00 0.  1.
         25    1    1    2    0    0 -0.55095228119E+02  0.53290145263E+02 -0.11653879096E+04  0.11740546425E+04  0.12000000000E+03 0.  0.
         25    1    1    2    0    0  0.55095228119E+02 -0.53290145263E+02 -0.25557397096E+03  0.29256346042E+03  0.12000000000E+03 0.  0.
<mgrwt>
<rscale>  0 0.36309227E+03</rscale>
<asrwt>0</asrwt>
<pdfrwt beam="1">  1        3 0.35120184E-02 0.36309227E+03</pdfrwt>
<pdfrwt beam="2">  1       -3 0.22212145E+00 0.36309227E+03</pdfrwt>
<totfact> 0.12009544E+02</totfact>
</mgrwt>
</event>
<event>
 4    1  0.1759998E-004  0.2737096E+03  0.7818608E-02  0.1099175E+00
          1   -1    0    0  501    0  0.00000000000E+00  0.00000000000E+00  0.53474356279E+03  0.53474356279E+03  0.00000000000E+00 0. -1.
         -1   -1    0    0    0  501 -0.00000000000E+00 -0.00000000000E+00 -0.35024711874E+02  0.35024711874E+02  0.00000000000E+00 0. -1.
         25    1    1    2    0    0 -0.42145935092E-01  0.45518802048E+02  0.34876039316E+03  0.37162585345E+03  0.12000000000E+03 0.  0.
         25    1    1    2    0    0  0.42145935092E-01 -0.45518802048E+02  0.15095845776E+03  0.19814242122E+03  0.12000000000E+03 0.  0.
<mgrwt>
<rscale>  0 0.27370962E+03</rscale>
<asrwt>0</asrwt>
<pdfrwt beam="1">  1        1 0.82268234E-01 0.27370962E+03</pdfrwt>
<pdfrwt beam="2">  1       -1 0.53884176E-02 0.27370962E+03</pdfrwt>
<totfact> 0.64533483E+03</totfact>
</mgrwt>
</event>
<event>
 4    1  0.1759998E-004  0.2556173E+03  0.7818608E-02  0.1109805E+00
          2   -1    0    0  501    0  0.00000000000E+00  0.00000000000E+00  0.11545371897E+04  0.11545371897E+04  0.00000000000E+00 0. -1.
         -2   -1    0    0    0  501 -0.00000000000E+00 -0.00000000000E+00 -0.14148569321E+02  0.14148569321E+02  0.00000000000E+00 0. -1.
         25    1    1    2    0    0 -0.50356336918E+01 -0.26666068963E+02  0.41190668888E+03  0.42988784256E+03  0.12000000000E+03 0.  0.
         25    1    1    2    0    0  0.50356336918E+01  0.26666068963E+02  0.72848193148E+03  0.73879791643E+03  0.12000000000E+03 0.  0.
<mgrwt>
<rscale>  0 0.25561729E+03</rscale>
<asrwt>0</asrwt>
<pdfrwt beam="1">  1        2 0.17762103E+00 0.25561729E+03</pdfrwt>
<pdfrwt beam="2">  1       -2 0.21767039E-02 0.25561729E+03</pdfrwt>
<totfact> 0.14412420E+04</totfact>
</mgrwt>
</event>
<event>
 4    1  0.1759998E-004  0.3220684E+03  0.7818608E-02  0.1074701E+00
          2   -1    0    0  501    0  0.00000000000E+00  0.00000000000E+00  0.81459175865E+02  0.81459175865E+02  0.00000000000E+00 0.  1.
         -2   -1    0    0    0  501 -0.00000000000E+00 -0.00000000000E+00 -0.31834362535E+03  0.31834362535E+03  0.00000000000E+00 0.  1.
         25    1    1    2    0    0 -0.95076532507E+02 -0.49350686357E+02 -0.10907245733E+03  0.19434978319E+03  0.12000000000E+03 0.  0.
         25    1    1    2    0    0  0.95076532507E+02  0.49350686357E+02 -0.12781199215E+03  0.20545301803E+03  0.12000000000E+03 0.  0.
<mgrwt>
<rscale>  0 0.32206837E+03</rscale>
<asrwt>0</asrwt>
<pdfrwt beam="1">  1        2 0.12532181E-01 0.32206837E+03</pdfrwt>
<pdfrwt beam="2">  1       -2 0.48975942E-01 0.32206837E+03</pdfrwt>
<totfact> 0.19453508E+03</totfact>
</mgrwt>
</event>
<event>
 4    1  0.1759998E-004  0.3300748E+03  0.7818608E-02  0.1071104E+00
          2   -1    0    0  501    0  0.00000000000E+00  0.00000000000E+00  0.83674353973E+03  0.83674353973E+03  0.00000000000E+00 0. -1.
         -2   -1    0    0    0  501 -0.00000000000E+00 -0.00000000000E+00 -0.32551609138E+02  0.32551609138E+02  0.00000000000E+00 0. -1.
         25    1    1    2    0    0  0.91938792744E+01 -0.77821651883E+02  0.61761339808E+03  0.63402448407E+03  0.12000000000E+03 0.  0.
         25    1    1    2    0    0 -0.91938792744E+01  0.77821651883E+02  0.18657853251E+03  0.23527066479E+03  0.12000000000E+03 0.  0.
<mgrwt>
<rscale>  0 0.33007483E+03</rscale>
<asrwt>0</asrwt>
<pdfrwt beam="1">  1        2 0.12872976E+00 0.33007483E+03</pdfrwt>
<pdfrwt beam="2">  1       -2 0.50079405E-02 0.33007483E+03</pdfrwt>
<totfact> 0.65581798E+03</totfact>
</mgrwt>
</event>
<event>
 4    1  0.1759998E-004  0.2705715E+03  0.7818608E-02  0.1100953E+00
          1   -1    0    0  501    0  0.00000000000E+00  0.00000000000E+00  0.25342528579E+04  0.25342528579E+04  0.00000000000E+00 0.  1.
         -1   -1    0    0    0  501 -0.00000000000E+00 -0.00000000000E+00 -0.72219463362E+01  0.72219463362E+01  0.00000000000E+00 0.  1.
         25    1    1    2    0    0  0.21392381671E+02  0.47338570609E+02  0.15893944192E+04  0.15947643067E+04  0.12000000000E+03 0.  0.
         25    1    1    2    0    0 -0.21392381671E+02 -0.47338570609E+02  0.93763649235E+03  0.94671049749E+03  0.12000000000E+03 0.  0.
<mgrwt>
<rscale>  0 0.27057153E+03</rscale>
<asrwt>0</asrwt>
<pdfrwt beam="1">  1        1 0.38988434E+00 0.27057153E+03</pdfrwt>
<pdfrwt beam="2">  1       -1 0.11110707E-02 0.27057153E+03</pdfrwt>
<totfact> 0.24300170E+03</totfact>
</mgrwt>
</event>
<event>
 4    1  0.1759998E-004  0.4704822E+03  0.7818608E-02  0.1021784E+00
          2   -1    0    0  501    0  0.00000000000E+00  0.00000000000E+00  0.10280826990E+03  0.10280826990E+03  0.00000000000E+00 0.  1.
         -2   -1    0    0    0  501 -0.00000000000E+00 -0.00000000000E+00 -0.53826773604E+03  0.53826773604E+03  0.00000000000E+00 0.  1.
         25    1    1    2    0    0  0.19022734262E+03  0.54074861845E+02 -0.15947440299E+03  0.28096728950E+03  0.12000000000E+03 0.  0.
         25    1    1    2    0    0 -0.19022734262E+03 -0.54074861845E+02 -0.27598506316E+03  0.36010871643E+03  0.12000000000E+03 0.  0.
<mgrwt>
<rscale>  0 0.47048220E+03</rscale>
<asrwt>0</asrwt>
<pdfrwt beam="1">  1        2 0.15816657E-01 0.47048220E+03</pdfrwt>
<pdfrwt beam="2">  1       -2 0.82810420E-01 0.47048220E+03</pdfrwt>
<totfact> 0.48494705E+02</totfact>
</mgrwt>
</event>
<event>
 4    1  0.1759998E-004  0.3512032E+03  0.7818608E-02  0.1062122E+00
         -2   -1    0    0    0  501 -0.00000000000E+00  0.00000000000E+00  0.52176358588E+02  0.52176358588E+02  0.00000000000E+00 0. -1.
          2   -1    0    0  501    0  0.00000000000E+00 -0.00000000000E+00 -0.59099423392E+03  0.59099423392E+03  0.00000000000E+00 0. -1.
         25    1    1    2    0    0 -0.34170171360E+02 -0.10595502471E+03 -0.38583716059E+03  0.41912334982E+03  0.12000000000E+03 0.  0.
         25    1    1    2    0    0  0.34170171360E+02  0.10595502471E+03 -0.15298071474E+03  0.22404724268E+03  0.12000000000E+03 0.  0.
<mgrwt>
<rscale>  0 0.35120323E+03</rscale>
<asrwt>0</asrwt>
<pdfrwt beam="1">  1        2 0.90922193E-01 0.35120323E+03</pdfrwt>
<pdfrwt beam="2">  1       -2 0.80271318E-02 0.35120323E+03</pdfrwt>
<totfact> 0.48498786E+03</totfact>
</mgrwt>
</event>
<event>
 4    1  0.1759998E-004  0.3175659E+03  0.7818608E-02  0.1076775E+00
          2   -1    0    0  501    0  0.00000000000E+00  0.00000000000E+00  0.11743820204E+03  0.11743820204E+03  0.00000000000E+00 0.  1.
         -2   -1    0    0    0  501 -0.00000000000E+00 -0.00000000000E+00 -0.21468332038E+03  0.21468332038E+03  0.00000000000E+00 0.  1.
         25    1    1    2    0    0  0.93514812483E+01  0.46560849149E+02  0.48119498534E+02  0.13773470519E+03  0.12000000000E+03 0.  0.
         25    1    1    2    0    0 -0.93514812483E+01 -0.46560849149E+02 -0.14536461687E+03  0.19438681723E+03  0.12000000000E+03 0.  0.
<mgrwt>
<rscale>  0 0.31756589E+03</rscale>
<asrwt>0</asrwt>
<pdfrwt beam="1">  1        2 0.18067416E-01 0.31756589E+03</pdfrwt>
<pdfrwt beam="2">  1       -2 0.33028203E-01 0.31756589E+03</pdfrwt>
<totfact> 0.26803172E+03</totfact>
</mgrwt>
</event>
<event>
 4    1  0.1759998E-004  0.3247007E+03  0.7818608E-02  0.1073506E+00
          2   -1    0    0  501    0  0.00000000000E+00  0.00000000000E+00  0.12082132815E+03  0.12082132815E+03  0.00000000000E+00 0. -1.
         -2   -1    0    0    0  501 -0.00000000000E+00 -0.00000000000E+00 -0.21815378846E+03  0.21815378846E+03  0.00000000000E+00 0. -1.
         25    1    1    2    0    0  0.62808448749E+02 -0.88471916461E+02 -0.34449583985E+02  0.16540542637E+03  0.12000000000E+03 0.  0.
         25    1    1    2    0    0 -0.62808448749E+02  0.88471916461E+02 -0.62882876323E+02  0.17356969024E+03  0.12000000000E+03 0.  0.
<mgrwt>
<rscale>  0 0.32470067E+03</rscale>
<asrwt>0</asrwt>
<pdfrwt beam="1">  1        2 0.18587897E-01 0.32470067E+03</pdfrwt>
<pdfrwt beam="2">  1       -2 0.33562121E-01 0.32470067E+03</pdfrwt>
<totfact> 0.25184665E+03</totfact>
</mgrwt>
</event>
<event>
 4    1  0.1759998E-004  0.2804719E+03  0.7818608E-02  0.1095431E+00
         -1   -1    0    0    0  501 -0.00000000000E+00  0.00000000000E+00  0.38800415937E+02  0.38800415937E+02  0.00000000000E+00 0.  1.
          1   -1    0    0  501    0  0.00000000000E+00 -0.00000000000E+00 -0.50685345341E+03  0.50685345341E+03  0.00000000000E+00 0.  1.
         25    1    1    2    0    0 -0.22101734191E+02  0.68860158528E+02 -0.24568591903E+03  0.28282817911E+03  0.12000000000E+03 0.  0.
         25    1    1    2    0    0  0.22101734191E+02 -0.68860158528E+02 -0.22236711844E+03  0.26282569024E+03  0.12000000000E+03 0.  0.
<mgrwt>
<rscale>  0 0.28047192E+03</rscale>
<asrwt>0</asrwt>
<pdfrwt beam="1">  1        1 0.77977449E-01 0.28047192E+03</pdfrwt>
<pdfrwt beam="2">  1       -1 0.59692951E-02 0.28047192E+03</pdfrwt>
<totfact> 0.59477866E+03</totfact>
</mgrwt>
</event>
<event>
 4    1  0.1759998E-004  0.3369462E+03  0.7818608E-02  0.1068104E+00
          2   -1    0    0  501    0  0.00000000000E+00  0.00000000000E+00  0.27249150570E+03  0.27249150570E+03  0.00000000000E+00 0.  1.
         -2   -1    0    0    0  501 -0.00000000000E+00 -0.00000000000E+00 -0.10416170391E+03  0.10416170391E+03  0.00000000000E+00 0.  1.
         25    1    1    2    0    0 -0.98850986763E+02  0.53980845496E+02  0.12443413524E+03  0.20632329795E+03  0.12000000000E+03 0.  0.
         25    1    1    2    0    0  0.98850986763E+02 -0.53980845496E+02  0.43895666552E+02  0.17032991166E+03  0.12000000000E+03 0.  0.
<mgrwt>
<rscale>  0 0.33694617E+03</rscale>
<asrwt>0</asrwt>
<pdfrwt beam="1">  1        2 0.41921770E-01 0.33694617E+03</pdfrwt>
<pdfrwt beam="2">  1       -2 0.16024878E-01 0.33694617E+03</pdfrwt>
<totfact> 0.37297606E+03</totfact>
</mgrwt>
</event>
<event>
 4    1  0.1759998E-004  0.2439021E+03  0.7818608E-02  0.1117220E+00
          2   -1    0    0  501    0  0.00000000000E+00  0.00000000000E+00  0.17051936031E+04  0.17051936031E+04  0.00000000000E+00 0. -1.
         -2   -1    0    0    0  501 -0.00000000000E+00 -0.00000000000E+00 -0.87216227633E+01  0.87216227633E+01  0.00000000000E+00 0. -1.
         25    1    1    2    0    0 -0.37726080215E+01  0.90262046169E+01  0.71191270673E+03  0.72202174963E+03  0.12000000000E+03 0.  0.
         25    1    1    2    0    0  0.37726080215E+01 -0.90262046169E+01  0.98455927361E+03  0.99189347623E+03  0.12000000000E+03 0.  0.
<mgrwt>
<rscale>  0 0.24390207E+03</rscale>
<asrwt>0</asrwt>
<pdfrwt beam="1">  1        2 0.26233721E+00 0.24390207E+03</pdfrwt>
<pdfrwt beam="2">  1       -2 0.13417895E-02 0.24390207E+03</pdfrwt>
<totfact> 0.14689177E+04</totfact>
</mgrwt>
</event>
<event>
 4    1  0.1759998E-004  0.2533585E+03  0.7818608E-02  0.1111201E+00
          1   -1    0    0  501    0  0.00000000000E+00  0.00000000000E+00  0.89029787808E+02  0.89029787808E+02  0.00000000000E+00 0.  1.
         -1   -1    0    0    0  501 -0.00000000000E+00 -0.00000000000E+00 -0.18025017375E+03  0.18025017375E+03  0.00000000000E+00 0.  1.
         25    1    1    2    0    0 -0.24999915469E+02  0.23793590669E+01 -0.11716084184E+02  0.12315812499E+03  0.12000000000E+03 0.  0.
         25    1    1    2    0    0  0.24999915469E+02 -0.23793590669E+01 -0.79504301753E+02  0.14612183656E+03  0.12000000000E+03 0.  0.
<mgrwt>
<rscale>  0 0.25335852E+03</rscale>
<asrwt>0</asrwt>
<pdfrwt beam="1">  1        1 0.13696891E-01 0.25335852E+03</pdfrwt>
<pdfrwt beam="2">  1       -1 0.27730796E-01 0.25335852E+03</pdfrwt>
<totfact> 0.48617796E+03</totfact>
</mgrwt>
</event>
<event>
 4    1  0.1759998E-004  0.3935753E+03  0.7818608E-02  0.1046027E+00
          2   -1    0    0  501    0  0.00000000000E+00  0.00000000000E+00  0.16339229104E+04  0.16339229104E+04  0.00000000000E+00 0. -1.
         -2   -1    0    0    0  501 -0.00000000000E+00 -0.00000000000E+00 -0.23700860092E+02  0.23700860092E+02  0.00000000000E+00 0. -1.
         25    1    1    2    0    0  0.11475088935E+03  0.91213628342E+02  0.58075368565E+03  0.61087031030E+03  0.12000000000E+03 0.  0.
         25    1    1    2    0    0 -0.11475088935E+03 -0.91213628342E+02  0.10294683646E+04  0.10467534602E+04  0.12000000000E+03 0.  0.
<mgrwt>
<rscale>  0 0.39357530E+03</rscale>
<asrwt>0</asrwt>
<pdfrwt beam="1">  1        2 0.25137267E+00 0.39357530E+03</pdfrwt>
<pdfrwt beam="2">  1       -2 0.36462875E-02 0.39357530E+03</pdfrwt>
<totfact> 0.36587885E+03</totfact>
</mgrwt>
</event>
<event>
 4    1  0.1759998E-004  0.5295528E+03  0.7818608E-02  0.1006341E+00
          1   -1    0    0  501    0  0.00000000000E+00  0.00000000000E+00  0.22621594043E+03  0.22621594043E+03  0.00000000000E+00 0.  1.
         -1   -1    0    0    0  501 -0.00000000000E+00 -0.00000000000E+00 -0.30990979576E+03  0.30990979576E+03  0.00000000000E+00 0.  1.
         25    1    1    2    0    0 -0.69686286154E+02  0.18369948888E+03  0.90561950753E+02  0.24739269920E+03  0.12000000000E+03 0.  0.
         25    1    1    2    0    0  0.69686286154E+02 -0.18369948888E+03 -0.17425580608E+03  0.28873303699E+03  0.12000000000E+03 0.  0.
<mgrwt>
<rscale>  0 0.52955278E+03</rscale>
<asrwt>0</asrwt>
<pdfrwt beam="1">  1        1 0.34802452E-01 0.52955278E+03</pdfrwt>
<pdfrwt beam="2">  1       -1 0.47678430E-01 0.52955278E+03</pdfrwt>
<totfact> 0.56211683E+02</totfact>
</mgrwt>
</event>
<event>
 4    1  0.1759998E-004  0.3533340E+03  0.7818608E-02  0.1061255E+00
         -2   -1    0    0    0  501 -0.00000000000E+00  0.00000000000E+00  0.26467489832E+02  0.26467489832E+02  0.00000000000E+00 0. -1.
          2   -1    0    0  501    0  0.00000000000E+00 -0.00000000000E+00 -0.11792291386E+04  0.11792291386E+04  0.00000000000E+00 0. -1.
         25    1    1    2    0    0  0.76640154647E+02 -0.93812033215E+02 -0.41864258653E+03  0.45203542576E+03  0.12000000000E+03 0.  0.
         25    1    1    2    0    0 -0.76640154647E+02  0.93812033215E+02 -0.73411906224E+03  0.75366120268E+03  0.12000000000E+03 0.  0.
<mgrwt>
<rscale>  0 0.35333404E+03</rscale>
<asrwt>0</asrwt>
<pdfrwt beam="1">  1        2 0.18141985E+00 0.35333404E+03</pdfrwt>
<pdfrwt beam="2">  1       -2 0.40719218E-02 0.35333404E+03</pdfrwt>
<totfact> 0.55160865E+03</totfact>
</mgrwt>
</event>
<event>
 4    1  0.1759998E-004  0.4103542E+03  0.7818608E-02  0.1040252E+00
          2   -1    0    0  501    0  0.00000000000E+00  0.00000000000E+00  0.68066070644E+02  0.68066070644E+02  0.00000000000E+00 0.  1.
         -2   -1    0    0    0  501 -0.00000000000E+00 -0.00000000000E+00 -0.61848208934E+03  0.61848208934E+03  0.00000000000E+00 0.  1.
         25    1    1    2    0    0  0.59600187551E+02  0.73028951597E+02 -0.45734630172E+02  0.15930180955E+03  0.12000000000E+03 0.  0.
         25    1    1    2    0    0 -0.59600187551E+02 -0.73028951597E+02 -0.50468138852E+03  0.52724635043E+03  0.12000000000E+03 0.  0.
<mgrwt>
<rscale>  0 0.41035422E+03</rscale>
<asrwt>0</asrwt>
<pdfrwt beam="1">  1        2 0.10471703E-01 0.41035422E+03</pdfrwt>
<pdfrwt beam="2">  1       -2 0.95151091E-01 0.41035422E+03</pdfrwt>
<totfact> 0.58567592E+02</totfact>
</mgrwt>
</event>
<event>
 4    1  0.1759998E-004  0.3589007E+03  0.7818608E-02  0.1059020E+00
          2   -1    0    0  501    0  0.00000000000E+00  0.00000000000E+00  0.42263224679E+03  0.42263224679E+03  0.00000000000E+00 0. -1.
         -2   -1    0    0    0  501 -0.00000000000E+00 -0.00000000000E+00 -0.76194919588E+02  0.76194919588E+02  0.00000000000E+00 0. -1.
         25    1    1    2    0    0  0.13878197060E+02  0.13219553922E+03  0.15711978656E+03  0.23823285305E+03  0.12000000000E+03 0.  0.
         25    1    1    2    0    0 -0.13878197060E+02 -0.13219553922E+03  0.18931754064E+03  0.26059431333E+03  0.12000000000E+03 0.  0.
<mgrwt>
<rscale>  0 0.35890071E+03</rscale>
<asrwt>0</asrwt>
<pdfrwt beam="1">  1        2 0.65020344E-01 0.35890071E+03</pdfrwt>
<pdfrwt beam="2">  1       -2 0.11722296E-01 0.35890071E+03</pdfrwt>
<totfact> 0.38744063E+03</totfact>
</mgrwt>
</event>
<event>
 4    1  0.1759998E-004  0.3255539E+03  0.7818608E-02  0.1073121E+00
         -2   -1    0    0    0  501 -0.00000000000E+00  0.00000000000E+00  0.43289851352E+02  0.43289851352E+02  0.00000000000E+00 0.  1.
          2   -1    0    0  501    0  0.00000000000E+00 -0.00000000000E+00 -0.61206790398E+03  0.61206790398E+03  0.00000000000E+00 0.  1.
         25    1    1    2    0    0  0.45514044935E+02  0.10595719566E+02 -0.83965879440E+02  0.15373375189E+03  0.12000000000E+03 0.  0.
         25    1    1    2    0    0 -0.45514044935E+02 -0.10595719566E+02 -0.48481217319E+03  0.50162400344E+03  0.12000000000E+03 0.  0.
<mgrwt>
<rscale>  0 0.32555386E+03</rscale>
<asrwt>0</asrwt>
<pdfrwt beam="1">  1        2 0.94164281E-01 0.32555386E+03</pdfrwt>
<pdfrwt beam="2">  1       -2 0.66599780E-02 0.32555386E+03</pdfrwt>
<totfact> 0.62199675E+03</totfact>
</mgrwt>
</event>
<event>
 4    1  0.1759998E-004  0.2627867E+03  0.7818608E-02  0.1105480E+00
          2   -1    0    0  501    0  0.00000000000E+00  0.00000000000E+00  0.70587069718E+03  0.70587069718E+03  0.00000000000E+00 0. -1.
         -2   -1    0    0    0  501 -0.00000000000E+00 -0.00000000000E+00 -0.24458041473E+02  0.24458041473E+02  0.00000000000E+00 0. -1.
         25    1    1    2    0    0 -0.25246615626E+00 -0.46650424367E+02  0.41359736796E+03  0.43317330090E+03  0.12000000000E+03 0.  0.
         25    1    1    2    0    0  0.25246615626E+00  0.46650424367E+02  0.26781528775E+03  0.29715543775E+03  0.12000000000E+03 0.  0.
<mgrwt>
<rscale>  0 0.26278672E+03</rscale>
<asrwt>0</asrwt>
<pdfrwt beam="1">  1        2 0.10859548E+00 0.26278672E+03</pdfrwt>
<pdfrwt beam="2">  1       -2 0.37627761E-02 0.26278672E+03</pdfrwt>
<totfact> 0.12432368E+04</totfact>
</mgrwt>
</event>
<event>
 4    1  0.1759998E-004  0.2894960E+03  0.7818608E-02  0.1090613E+00
         -1   -1    0    0    0  501 -0.00000000000E+00  0.00000000000E+00  0.45422691019E+02  0.45422691019E+02  0.00000000000E+00 0. -1.
          1   -1    0    0  501    0  0.00000000000E+00 -0.00000000000E+00 -0.46126673841E+03  0.46126673841E+03  0.00000000000E+00 0. -1.
         25    1    1    2    0    0  0.49878495267E+02 -0.40117606248E+02 -0.29463771048E+03  0.32451296901E+03  0.12000000000E+03 0.  0.
         25    1    1    2    0    0 -0.49878495267E+02  0.40117606248E+02 -0.12120633691E+03  0.18217646041E+03  0.12000000000E+03 0.  0.
<mgrwt>
<rscale>  0 0.28949595E+03</rscale>
<asrwt>0</asrwt>
<pdfrwt beam="1">  1        1 0.70964114E-01 0.28949595E+03</pdfrwt>
<pdfrwt beam="2">  1       -1 0.69881062E-02 0.28949595E+03</pdfrwt>
<totfact> 0.53110544E+03</totfact>
</mgrwt>
</event>
<event>
 4    1  0.1759998E-004  0.2622092E+03  0.7818608E-02  0.1105823E+00
         -2   -1    0    0    0  501 -0.00000000000E+00  0.00000000000E+00  0.45316810452E+01  0.45316810452E+01  0.00000000000E+00 0. -1.
          2   -1    0    0  501    0  0.00000000000E+00 -0.00000000000E+00 -0.37929442767E+04  0.37929442767E+04  0.00000000000E+00 0. -1.
         25    1    1    2    0    0 -0.91126994192E+01 -0.57298421916E+01 -0.11455036805E+04  0.11518222756E+04  0.12000000000E+03 0.  0.
         25    1    1    2    0    0  0.91126994192E+01  0.57298421916E+01 -0.26429089151E+04  0.26456536822E+04  0.12000000000E+03 0.  0.
<mgrwt>
<rscale>  0 0.26220918E+03</rscale>
<asrwt>0</asrwt>
<pdfrwt beam="1">  1        2 0.58353080E+00 0.26220918E+03</pdfrwt>
<pdfrwt beam="2">  1       -2 0.69718061E-03 0.26220918E+03</pdfrwt>
<totfact> 0.22960963E+03</totfact>
</mgrwt>
</event>
<event>
 4    1  0.1759998E-004  0.3053727E+03  0.7818608E-02  0.1082585E+00
         -1   -1    0    0    0  501 -0.00000000000E+00  0.00000000000E+00  0.45210053573E+02  0.45210053573E+02  0.00000000000E+00 0. -1.
          1   -1    0    0  501    0  0.00000000000E+00 -0.00000000000E+00 -0.51566246422E+03  0.51566246422E+03  0.00000000000E+00 0. -1.
         25    1    1    2    0    0  0.94290774012E+02  0.58765526654E+00 -0.24384731414E+03  0.28766753035E+03  0.12000000000E+03 0.  0.
         25    1    1    2    0    0 -0.94290774012E+02 -0.58765526654E+00 -0.22660509650E+03  0.27320498744E+03  0.12000000000E+03 0.  0.
<mgrwt>
<rscale>  0 0.30537274E+03</rscale>
<asrwt>0</asrwt>
<pdfrwt beam="1">  1        1 0.79332688E-01 0.30537274E+03</pdfrwt>
<pdfrwt beam="2">  1       -1 0.69553927E-02 0.30537274E+03</pdfrwt>
<totfact> 0.46198473E+03</totfact>
</mgrwt>
</event>
<event>
 4    1  0.1759998E-004  0.2785856E+03  0.7818608E-02  0.1096464E+00
          1   -1    0    0  501    0  0.00000000000E+00  0.00000000000E+00  0.17648816547E+02  0.17648816547E+02  0.00000000000E+00 0.  1.
         -1   -1    0    0    0  501 -0.00000000000E+00 -0.00000000000E+00 -0.10993647241E+04  0.10993647241E+04  0.00000000000E+00 0.  1.
         25    1    1    2    0    0 -0.55941866353E+02 -0.23273911977E+02 -0.68715676761E+03  0.70018254096E+03  0.12000000000E+03 0.  0.
         25    1    1    2    0    0  0.55941866353E+02  0.23273911977E+02 -0.39455913996E+03  0.41683099970E+03  0.12000000000E+03 0.  0.
<mgrwt>
<rscale>  0 0.27858562E+03</rscale>
<asrwt>0</asrwt>
<pdfrwt beam="1">  1        1 0.27152013E-02 0.27858562E+03</pdfrwt>
<pdfrwt beam="2">  1       -1 0.16913311E+00 0.27858562E+03</pdfrwt>
<totfact> 0.10713662E+03</totfact>
</mgrwt>
</event>
<event>
 4    1  0.1759998E-004  0.2471427E+03  0.7818608E-02  0.1115124E+00
          2   -1    0    0  501    0  0.00000000000E+00  0.00000000000E+00  0.21797133530E+03  0.21797133530E+03  0.00000000000E+00 0.  1.
         -2   -1    0    0    0  501 -0.00000000000E+00 -0.00000000000E+00 -0.70054513819E+02  0.70054513819E+02  0.00000000000E+00 0.  1.
         25    1    1    2    0    0  0.15374237754E+02  0.87621185834E+01  0.10145682137E+03  0.15813484281E+03  0.12000000000E+03 0.  0.
         25    1    1    2    0    0 -0.15374237754E+02 -0.87621185834E+01  0.46460000104E+02  0.12989100630E+03  0.12000000000E+03 0.  0.
<mgrwt>
<rscale>  0 0.24714268E+03</rscale>
<asrwt>0</asrwt>
<pdfrwt beam="1">  1        2 0.33534051E-01 0.24714268E+03</pdfrwt>
<pdfrwt beam="2">  1       -2 0.10777618E-01 0.24714268E+03</pdfrwt>
<totfact> 0.89841111E+03</totfact>
</mgrwt>
</event>
<event>
 4    1  0.1759998E-004  0.3255892E+03  0.7818608E-02  0.1073105E+00
          1   -1    0    0  501    0  0.00000000000E+00  0.00000000000E+00  0.34535607674E+03  0.34535607674E+03  0.00000000000E+00 0.  1.
         -1   -1    0    0    0  501 -0.00000000000E+00 -0.00000000000E+00 -0.76738411209E+02  0.76738411209E+02  0.00000000000E+00 0.  1.
         25    1    1    2    0    0  0.47189007517E+02  0.65079123111E+02  0.23166838972E+03  0.27300611255E+03  0.12000000000E+03 0.  0.
         25    1    1    2    0    0 -0.47189007517E+02 -0.65079123111E+02  0.36949275809E+02  0.14908837540E+03  0.12000000000E+03 0.  0.
<mgrwt>
<rscale>  0 0.32558917E+03</rscale>
<asrwt>0</asrwt>
<pdfrwt beam="1">  1        1 0.53131703E-01 0.32558917E+03</pdfrwt>
<pdfrwt beam="2">  1       -1 0.11805910E-01 0.32558917E+03</pdfrwt>
<totfact> 0.34443657E+03</totfact>
</mgrwt>
</event>
<event>
 4    1  0.1759998E-004  0.2506552E+03  0.7818608E-02  0.1112891E+00
         -2   -1    0    0    0  501 -0.00000000000E+00  0.00000000000E+00  0.25964816173E+03  0.25964816173E+03  0.00000000000E+00 0. -1.
          2   -1    0    0  501    0  0.00000000000E+00 -0.00000000000E+00 -0.60493420177E+02  0.60493420177E+02  0.00000000000E+00 0. -1.
         25    1    1    2    0    0 -0.12238669082E+02 -0.30730718186E+02  0.11821091083E+03  0.17166240561E+03  0.12000000000E+03 0.  0.
         25    1    1    2    0    0  0.12238669082E+02  0.30730718186E+02  0.80943830721E+02  0.14847917629E+03  0.12000000000E+03 0.  0.
<mgrwt>
<rscale>  0 0.25065518E+03</rscale>
<asrwt>0</asrwt>
<pdfrwt beam="1">  1        2 0.93066802E-02 0.25065518E+03</pdfrwt>
<pdfrwt beam="2">  1       -2 0.39945870E-01 0.25065518E+03</pdfrwt>
<totfact> 0.41482539E+03</totfact>
</mgrwt>
</event>
<event>
 4    1  0.1759998E-004  0.3509949E+03  0.7818608E-02  0.1062207E+00
          2   -1    0    0  501    0  0.00000000000E+00  0.00000000000E+00  0.16088578774E+03  0.16088578774E+03  0.00000000000E+00 0.  1.
         -2   -1    0    0    0  501 -0.00000000000E+00 -0.00000000000E+00 -0.19143611296E+03  0.19143611296E+03  0.00000000000E+00 0.  1.
         25    1    1    2    0    0 -0.75494270410E+02  0.64911729451E+02  0.65567724832E+02  0.16915095041E+03  0.12000000000E+03 0.  0.
         25    1    1    2    0    0  0.75494270410E+02 -0.64911729451E+02 -0.96118050050E+02  0.18317095029E+03  0.12000000000E+03 0.  0.
<mgrwt>
<rscale>  0 0.35099487E+03</rscale>
<asrwt>0</asrwt>
<pdfrwt beam="1">  1        2 0.24751660E-01 0.35099487E+03</pdfrwt>
<pdfrwt beam="2">  1       -2 0.29451710E-01 0.35099487E+03</pdfrwt>
<totfact> 0.23115616E+03</totfact>
</mgrwt>
</event>
<event>
 4    1  0.1759998E-004  0.2742880E+03  0.7818608E-02  0.1098850E+00
          2   -1    0    0  501    0  0.00000000000E+00  0.00000000000E+00  0.10376829855E+04  0.10376829855E+04  0.00000000000E+00 0. -1.
         -2   -1    0    0    0  501 -0.00000000000E+00 -0.00000000000E+00 -0.18125452049E+02  0.18125452049E+02  0.00000000000E+00 0. -1.
         25    1    1    2    0    0 -0.54467835057E+02  0.27249803481E+02  0.61156094149E+03  0.62619172943E+03  0.12000000000E+03 0.  0.
         25    1    1    2    0    0  0.54467835057E+02 -0.27249803481E+02  0.40799659193E+03  0.42961670809E+03  0.12000000000E+03 0.  0.
<mgrwt>
<rscale>  0 0.27428797E+03</rscale>
<asrwt>0</asrwt>
<pdfrwt beam="1">  1        2 0.15964349E+00 0.27428797E+03</pdfrwt>
<pdfrwt beam="2">  1       -2 0.27885319E-02 0.27428797E+03</pdfrwt>
<totfact> 0.11733336E+04</totfact>
</mgrwt>
</event>
<event>
 4    1  0.1759998E-004  0.2503216E+03  0.7818608E-02  0.1113102E+00
         -2   -1    0    0    0  501 -0.00000000000E+00  0.00000000000E+00  0.14191433363E+02  0.14191433363E+02  0.00000000000E+00 0.  1.
          2   -1    0    0  501    0  0.00000000000E+00 -0.00000000000E+00 -0.11038505561E+04  0.11038505561E+04  0.00000000000E+00 0.  1.
         25    1    1    2    0    0 -0.82046981697E+01  0.22392049820E+02 -0.42695485932E+03  0.44413868652E+03  0.12000000000E+03 0.  0.
         25    1    1    2    0    0  0.82046981697E+01 -0.22392049820E+02 -0.66270426343E+03  0.67390330296E+03  0.12000000000E+03 0.  0.
<mgrwt>
<rscale>  0 0.25032157E+03</rscale>
<asrwt>0</asrwt>
<pdfrwt beam="1">  1        2 0.16982317E+00 0.25032157E+03</pdfrwt>
<pdfrwt beam="2">  1       -2 0.21832974E-02 0.25032157E+03</pdfrwt>
<totfact> 0.15340658E+04</totfact>
</mgrwt>
</event>
<event>
 4    1  0.1759998E-004  0.2676073E+03  0.7818608E-02  0.1102657E+00
         -3   -1    0    0    0  501 -0.00000000000E+00  0.00000000000E+00  0.60352457520E+02  0.60352457520E+02  0.00000000000E+00 0. -1.
          3   -1    0    0  501    0  0.00000000000E+00 -0.00000000000E+00 -0.29664777791E+03  0.29664777791E+03  0.00000000000E+00 0. -1.
         25    1    1    2    0    0  0.34032371068E+02 -0.16866262921E+02 -0.17870726871E+03  0.21858399071E+03  0.12000000000E+03 0.  0.
         25    1    1    2    0    0 -0.34032371068E+02  0.16866262921E+02 -0.57588051678E+02  0.13841624472E+03  0.12000000000E+03 0.  0.
<mgrwt>
<rscale>  0 0.26760734E+03</rscale>
<asrwt>0</asrwt>
<pdfrwt beam="1">  1        3 0.45638121E-01 0.26760734E+03</pdfrwt>
<pdfrwt beam="2">  1       -3 0.92849933E-02 0.26760734E+03</pdfrwt>
<totfact> 0.10148851E+03</totfact>
</mgrwt>
</event>
<event>
 4    1  0.1759998E-004  0.2452202E+03  0.7818608E-02  0.1116363E+00
         -2   -1    0    0    0  501 -0.00000000000E+00  0.00000000000E+00  0.72664317250E+01  0.72664317250E+01  0.00000000000E+00 0. -1.
          2   -1    0    0  501    0  0.00000000000E+00 -0.00000000000E+00 -0.20688606205E+04  0.20688606205E+04  0.00000000000E+00 0. -1.
         25    1    1    2    0    0 -0.17859229852E+02  0.24512958025E+01 -0.88214678522E+03  0.89045376725E+03  0.12000000000E+03 0.  0.
         25    1    1    2    0    0  0.17859229852E+02 -0.24512958025E+01 -0.11794474035E+04  0.11856732849E+04  0.12000000000E+03 0.  0.
<mgrwt>
<rscale>  0 0.24522018E+03</rscale>
<asrwt>0</asrwt>
<pdfrwt beam="1">  1        2 0.31828635E+00 0.24522018E+03</pdfrwt>
<pdfrwt beam="2">  1       -2 0.11179122E-02 0.24522018E+03</pdfrwt>
<totfact> 0.12357667E+04</totfact>
</mgrwt>
</event>
<event>
 4    1  0.1759998E-004  0.4031899E+03  0.7818608E-02  0.1042681E+00
          1   -1    0    0  501    0  0.00000000000E+00  0.00000000000E+00  0.17779309490E+04  0.17779309490E+04  0.00000000000E+00 0.  1.
         -1   -1    0    0    0  501 -0.00000000000E+00 -0.00000000000E+00 -0.22858329545E+02  0.22858329545E+02  0.00000000000E+00 0.  1.
         25    1    1    2    0    0 -0.37775752212E+02  0.51293121414E+02  0.21232619309E+03  0.25207221987E+03  0.12000000000E+03 0.  0.
         25    1    1    2    0    0  0.37775752212E+02 -0.51293121414E+02  0.15427464264E+04  0.15487170587E+04  0.12000000000E+03 0.  0.
<mgrwt>
<rscale>  0 0.40318994E+03</rscale>
<asrwt>0</asrwt>
<pdfrwt beam="1">  1        1 0.27352773E+00 0.40318994E+03</pdfrwt>
<pdfrwt beam="2">  1       -1 0.35166675E-02 0.40318994E+03</pdfrwt>
<totfact> 0.13915198E+03</totfact>
</mgrwt>
</event>
<event>
 4    1  0.1759998E-004  0.2989841E+03  0.7818608E-02  0.1085750E+00
          2   -1    0    0  501    0  0.00000000000E+00  0.00000000000E+00  0.51431656323E+03  0.51431656323E+03  0.00000000000E+00 0.  1.
         -2   -1    0    0    0  501 -0.00000000000E+00 -0.00000000000E+00 -0.43451591373E+02  0.43451591373E+02  0.00000000000E+00 0.  1.
         25    1    1    2    0    0  0.30992229930E+02 -0.62295273425E+02  0.33941302040E+03  0.36666390308E+03  0.12000000000E+03 0.  0.
         25    1    1    2    0    0 -0.30992229930E+02  0.62295273425E+02  0.13145195146E+03  0.19110425152E+03  0.12000000000E+03 0.  0.
<mgrwt>
<rscale>  0 0.29898410E+03</rscale>
<asrwt>0</asrwt>
<pdfrwt beam="1">  1        2 0.79125621E-01 0.29898410E+03</pdfrwt>
<pdfrwt beam="2">  1       -2 0.66848605E-02 0.29898410E+03</pdfrwt>
<totfact> 0.75361303E+03</totfact>
</mgrwt>
</event>
<event>
 4    1  0.1759998E-004  0.2853200E+03  0.7818608E-02  0.1092818E+00
         -2   -1    0    0    0  501 -0.00000000000E+00  0.00000000000E+00  0.40783105125E+03  0.40783105125E+03  0.00000000000E+00 0.  1.
          2   -1    0    0  501    0  0.00000000000E+00 -0.00000000000E+00 -0.49902709055E+02  0.49902709055E+02  0.00000000000E+00 0.  1.
         25    1    1    2    0    0  0.21250358360E+02  0.68245394148E+02  0.22553984762E+03  0.26528707925E+03  0.12000000000E+03 0.  0.
         25    1    1    2    0    0 -0.21250358360E+02 -0.68245394148E+02  0.13238849457E+03  0.19244668105E+03  0.12000000000E+03 0.  0.
<mgrwt>
<rscale>  0 0.28531999E+03</rscale>
<asrwt>0</asrwt>
<pdfrwt beam="1">  1        2 0.76773401E-02 0.28531999E+03</pdfrwt>
<pdfrwt beam="2">  1       -2 0.62743236E-01 0.28531999E+03</pdfrwt>
<totfact> 0.21567428E+03</totfact>
</mgrwt>
</event>
<event>
 4    1  0.1759998E-004  0.2444647E+03  0.7818608E-02  0.1116854E+00
          3   -1    0    0  501    0  0.00000000000E+00  0.00000000000E+00  0.60692588417E+02  0.60692588417E+02  0.00000000000E+00 0.  1.
         -3   -1    0    0    0  501 -0.00000000000E+00 -0.00000000000E+00 -0.24617081136E+03  0.24617081136E+03  0.00000000000E+00 0.  1.
         25    1    1    2    0    0  0.20439158218E+02 -0.54066896508E+01 -0.10489312860E+03  0.16077798329E+03  0.12000000000E+03 0.  0.
         25    1    1    2    0    0 -0.20439158218E+02  0.54066896508E+01 -0.80585094344E+02  0.14608541649E+03  0.12000000000E+03 0.  0.
<mgrwt>
<rscale>  0 0.24446467E+03</rscale>
<asrwt>0</asrwt>
<pdfrwt beam="1">  1        3 0.93373212E-02 0.24446467E+03</pdfrwt>
<pdfrwt beam="2">  1       -3 0.37872433E-01 0.24446467E+03</pdfrwt>
<totfact> 0.14328074E+03</totfact>
</mgrwt>
</event>
<event>
 4    1  0.1759998E-004  0.2499430E+03  0.7818608E-02  0.1113341E+00
          2   -1    0    0  501    0  0.00000000000E+00  0.00000000000E+00  0.96760760605E+03  0.96760760605E+03  0.00000000000E+00 0.  1.
         -2   -1    0    0    0  501 -0.00000000000E+00 -0.00000000000E+00 -0.16140706562E+02  0.16140706562E+02  0.00000000000E+00 0.  1.
         25    1    1    2    0    0  0.65790663948E+01  0.34264308006E+02  0.47863513435E+03  0.49468062298E+03  0.12000000000E+03 0.  0.
         25    1    1    2    0    0 -0.65790663948E+01 -0.34264308006E+02  0.47283176514E+03  0.48906768964E+03  0.12000000000E+03 0.  0.
<mgrwt>
<rscale>  0 0.24994296E+03</rscale>
<asrwt>0</asrwt>
<pdfrwt beam="1">  1        2 0.14886266E+00 0.24994296E+03</pdfrwt>
<pdfrwt beam="2">  1       -2 0.24831864E-02 0.24994296E+03</pdfrwt>
<totfact> 0.15323155E+04</totfact>
</mgrwt>
</event>
<event>
 4    1  0.1759998E-004  0.2681345E+03  0.7818608E-02  0.1102352E+00
          2   -1    0    0  501    0  0.00000000000E+00  0.00000000000E+00  0.18783426966E+03  0.18783426966E+03  0.00000000000E+00 0. -1.
         -2   -1    0    0    0  501 -0.00000000000E+00 -0.00000000000E+00 -0.95690889469E+02  0.95690889469E+02  0.00000000000E+00 0. -1.
         25    1    1    2    0    0 -0.47016648062E+02 -0.17300424275E+02  0.11577810146E+02  0.13055234798E+03  0.12000000000E+03 0.  0.
         25    1    1    2    0    0  0.47016648062E+02  0.17300424275E+02  0.80565570049E+02  0.15297281115E+03  0.12000000000E+03 0.  0.
<mgrwt>
<rscale>  0 0.26813451E+03</rscale>
<asrwt>0</asrwt>
<pdfrwt beam="1">  1        2 0.28897580E-01 0.26813451E+03</pdfrwt>
<pdfrwt beam="2">  1       -2 0.14721675E-01 0.26813451E+03</pdfrwt>
<totfact> 0.63979957E+03</totfact>
</mgrwt>
</event>
<event>
 4    1  0.1759998E-004  0.2875448E+03  0.7818608E-02  0.1091638E+00
          1   -1    0    0  501    0  0.00000000000E+00  0.00000000000E+00  0.87861096555E+02  0.87861096555E+02  0.00000000000E+00 0. -1.
         -1   -1    0    0    0  501 -0.00000000000E+00 -0.00000000000E+00 -0.23526343891E+03  0.23526343891E+03  0.00000000000E+00 0. -1.
         25    1    1    2    0    0  0.18584482671E+02 -0.15887864327E+02  0.10935618972E+02  0.12295281612E+03  0.12000000000E+03 0.  0.
         25    1    1    2    0    0 -0.18584482671E+02  0.15887864327E+02 -0.15833796132E+03  0.20017171934E+03  0.12000000000E+03 0.  0.
<mgrwt>
<rscale>  0 0.28754481E+03</rscale>
<asrwt>0</asrwt>
<pdfrwt beam="1">  1        1 0.13517092E-01 0.28754481E+03</pdfrwt>
<pdfrwt beam="2">  1       -1 0.36194375E-01 0.28754481E+03</pdfrwt>
<totfact> 0.31462366E+03</totfact>
</mgrwt>
</event>
<event>
 4    1  0.1759998E-004  0.2651151E+03  0.7818608E-02  0.1104108E+00
          1   -1    0    0  501    0  0.00000000000E+00  0.00000000000E+00  0.10135613931E+04  0.10135613931E+04  0.00000000000E+00 0.  1.
         -1   -1    0    0    0  501 -0.00000000000E+00 -0.00000000000E+00 -0.17336395212E+02  0.17336395212E+02  0.00000000000E+00 0.  1.
         25    1    1    2    0    0  0.28599760159E+02 -0.58844030258E+01  0.31086119405E+03  0.33449552231E+03  0.12000000000E+03 0.  0.
         25    1    1    2    0    0 -0.28599760159E+02  0.58844030258E+01  0.68536380382E+03  0.69640226599E+03  0.12000000000E+03 0.  0.
<mgrwt>
<rscale>  0 0.26511508E+03</rscale>
<asrwt>0</asrwt>
<pdfrwt beam="1">  1        1 0.15593248E+00 0.26511508E+03</pdfrwt>
<pdfrwt beam="2">  1       -1 0.26671385E-02 0.26511508E+03</pdfrwt>
<totfact> 0.69980958E+03</totfact>
</mgrwt>
</event>
<event>
 4    1  0.1759998E-004  0.2533055E+03  0.7818608E-02  0.1111233E+00
         -2   -1    0    0    0  501 -0.00000000000E+00  0.00000000000E+00  0.45767998430E+03  0.45767998430E+03  0.00000000000E+00 0. -1.
          2   -1    0    0  501    0  0.00000000000E+00 -0.00000000000E+00 -0.35048330856E+02  0.35048330856E+02  0.00000000000E+00 0. -1.
         25    1    1    2    0    0 -0.33979024451E+02  0.18114720340E+02  0.18684946912E+03  0.22537844020E+03  0.12000000000E+03 0.  0.
         25    1    1    2    0    0  0.33979024451E+02 -0.18114720340E+02  0.23578218432E+03  0.26734987495E+03  0.12000000000E+03 0.  0.
<mgrwt>
<rscale>  0 0.25330550E+03</rscale>
<asrwt>0</asrwt>
<pdfrwt beam="1">  1        2 0.53920512E-02 0.25330550E+03</pdfrwt>
<pdfrwt beam="2">  1       -2 0.70412301E-01 0.25330550E+03</pdfrwt>
<totfact> 0.26610681E+03</totfact>
</mgrwt>
</event>
<event>
 4    1  0.1759998E-004  0.3512193E+03  0.7818608E-02  0.1062116E+00
         -2   -1    0    0    0  501 -0.00000000000E+00  0.00000000000E+00  0.58530551893E+02  0.58530551893E+02  0.00000000000E+00 0.  1.
          2   -1    0    0  501    0  0.00000000000E+00 -0.00000000000E+00 -0.52688283943E+03  0.52688283943E+03  0.00000000000E+00 0.  1.
         25    1    1    2    0    0  0.87468276783E+02 -0.12119113933E+02 -0.79233621846E+02  0.16874696796E+03  0.12000000000E+03 0.  0.
         25    1    1    2    0    0 -0.87468276783E+02  0.12119113933E+02 -0.38911866569E+03  0.41666642336E+03  0.12000000000E+03 0.  0.
<mgrwt>
<rscale>  0 0.35121927E+03</rscale>
<asrwt>0</asrwt>
<pdfrwt beam="1">  1        2 0.81058901E-01 0.35121927E+03</pdfrwt>
<pdfrwt beam="2">  1       -2 0.90047000E-02 0.35121927E+03</pdfrwt>
<totfact> 0.46179243E+03</totfact>
</mgrwt>
</event>
<event>
 4    1  0.1759998E-004  0.2835258E+03  0.7818608E-02  0.1093779E+00
          1   -1    0    0  501    0  0.00000000000E+00  0.00000000000E+00  0.13852822042E+03  0.13852822042E+03  0.00000000000E+00 0. -1.
         -1   -1    0    0    0  501 -0.00000000000E+00 -0.00000000000E+00 -0.14507308655E+03  0.14507308655E+03  0.00000000000E+00 0. -1.
         25    1    1    2    0    0 -0.11467878632E+02 -0.74005031670E+02  0.61353666141E+01  0.14158354310E+03  0.12000000000E+03 0.  0.
         25    1    1    2    0    0  0.11467878632E+02  0.74005031670E+02 -0.12680232748E+02  0.14201776387E+03  0.12000000000E+03 0.  0.
<mgrwt>
<rscale>  0 0.28352578E+03</rscale>
<asrwt>0</asrwt>
<pdfrwt beam="1">  1        1 0.21312034E-01 0.28352578E+03</pdfrwt>
<pdfrwt beam="2">  1       -1 0.22318936E-01 0.28352578E+03</pdfrwt>
<totfact> 0.39382622E+03</totfact>
</mgrwt>
</event>
<event>
 4    1  0.1759998E-004  0.3266558E+03  0.7818608E-02  0.1072626E+00
          1   -1    0    0  501    0  0.00000000000E+00  0.00000000000E+00  0.29541732946E+04  0.29541732946E+04  0.00000000000E+00 0.  1.
         -1   -1    0    0    0  501 -0.00000000000E+00 -0.00000000000E+00 -0.90299399340E+01  0.90299399340E+01  0.00000000000E+00 0.  1.
         25    1    1    2    0    0  0.57196866954E+02 -0.74190841495E+02  0.93588570800E+03  0.94818659608E+03  0.12000000000E+03 0.  0.
         25    1    1    2    0    0 -0.57196866954E+02  0.74190841495E+02  0.20092576466E+04  0.20150166384E+04  0.12000000000E+03 0.  0.
<mgrwt>
<rscale>  0 0.32665583E+03</rscale>
<asrwt>0</asrwt>
<pdfrwt beam="1">  1        1 0.45448743E+00 0.32665583E+03</pdfrwt>
<pdfrwt beam="2">  1       -1 0.13892239E-02 0.32665583E+03</pdfrwt>
<totfact> 0.90330854E+02</totfact>
</mgrwt>
</event>
<event>
 4    1  0.1759998E-004  0.2761476E+03  0.7818608E-02  0.1097812E+00
         -1   -1    0    0    0  501 -0.00000000000E+00  0.00000000000E+00  0.36010142201E+02  0.36010142201E+02  0.00000000000E+00 0.  1.
          1   -1    0    0  501    0  0.00000000000E+00 -0.00000000000E+00 -0.52941661225E+03  0.52941661225E+03  0.00000000000E+00 0.  1.
         25    1    1    2    0    0  0.32122346134E+02 -0.46301169276E+02 -0.32570599552E+03  0.35165329362E+03  0.12000000000E+03 0.  0.
         25    1    1    2    0    0 -0.32122346134E+02  0.46301169276E+02 -0.16770047453E+03  0.21377346083E+03  0.12000000000E+03 0.  0.
<mgrwt>
<rscale>  0 0.27614755E+03</rscale>
<asrwt>0</asrwt>
<pdfrwt beam="1">  1        1 0.81448704E-01 0.27614755E+03</pdfrwt>
<pdfrwt beam="2">  1       -1 0.55400223E-02 0.27614755E+03</pdfrwt>
<totfact> 0.62754641E+03</totfact>
</mgrwt>
</event>
<event>
 4    1  0.1759998E-004  0.3073322E+03  0.7818608E-02  0.1081632E+00
         -2   -1    0    0    0  501 -0.00000000000E+00  0.00000000000E+00  0.20198242298E+02  0.20198242298E+02  0.00000000000E+00 0.  1.
          2   -1    0    0  501    0  0.00000000000E+00 -0.00000000000E+00 -0.11690752003E+04  0.11690752003E+04  0.00000000000E+00 0.  1.
         25    1    1    2    0    0 -0.37957655709E+02 -0.88109096803E+02 -0.56265815634E+03  0.58325654515E+03  0.12000000000E+03 0.  0.
         25    1    1    2    0    0  0.37957655709E+02  0.88109096803E+02 -0.58621880163E+03  0.60601689741E+03  0.12000000000E+03 0.  0.
<mgrwt>
<rscale>  0 0.30733216E+03</rscale>
<asrwt>0</asrwt>
<pdfrwt beam="1">  1        2 0.17985778E+00 0.30733216E+03</pdfrwt>
<pdfrwt beam="2">  1       -2 0.31074210E-02 0.30733216E+03</pdfrwt>
<totfact> 0.83808364E+03</totfact>
</mgrwt>
</event>
<event>
 4    1  0.1759998E-004  0.2660158E+03  0.7818608E-02  0.1103582E+00
         -1   -1    0    0    0  501 -0.00000000000E+00  0.00000000000E+00  0.77203096481E+02  0.77203096481E+02  0.00000000000E+00 0. -1.
          1   -1    0    0  501    0  0.00000000000E+00 -0.00000000000E+00 -0.22915018980E+03  0.22915018980E+03  0.00000000000E+00 0. -1.
         25    1    1    2    0    0  0.40952409179E+02  0.25872163919E+02 -0.11136897849E+03  0.17073229938E+03  0.12000000000E+03 0.  0.
         25    1    1    2    0    0 -0.40952409179E+02 -0.25872163919E+02 -0.40578114831E+02  0.13562098690E+03  0.12000000000E+03 0.  0.
<mgrwt>
<rscale>  0 0.26601582E+03</rscale>
<asrwt>0</asrwt>
<pdfrwt beam="1">  1        1 0.35253875E-01 0.26601582E+03</pdfrwt>
<pdfrwt beam="2">  1       -1 0.11877400E-01 0.26601582E+03</pdfrwt>
<totfact> 0.56916427E+03</totfact>
</mgrwt>
</event>
<event>
 4    1  0.1759998E-004  0.3044789E+03  0.7818608E-02  0.1083023E+00
         -1   -1    0    0    0  501 -0.00000000000E+00  0.00000000000E+00  0.31260324903E+02  0.31260324903E+02  0.00000000000E+00 0.  1.
          1   -1    0    0  501    0  0.00000000000E+00 -0.00000000000E+00 -0.74141429183E+03  0.74141429183E+03  0.00000000000E+00 0.  1.
         25    1    1    2    0    0 -0.83228389720E+02  0.12827052549E+02 -0.45925712310E+03  0.48208775472E+03  0.12000000000E+03 0.  0.
         25    1    1    2    0    0  0.83228389720E+02 -0.12827052549E+02 -0.25089684383E+03  0.29058686202E+03  0.12000000000E+03 0.  0.
<mgrwt>
<rscale>  0 0.30447891E+03</rscale>
<asrwt>0</asrwt>
<pdfrwt beam="1">  1        1 0.11406373E+00 0.30447891E+03</pdfrwt>
<pdfrwt beam="2">  1       -1 0.48092811E-02 0.30447891E+03</pdfrwt>
<totfact> 0.48327632E+03</totfact>
</mgrwt>
</event>
<event>
 4    1  0.1759998E-004  0.4270218E+03  0.7818608E-02  0.1034805E+00
         -2   -1    0    0    0  501 -0.00000000000E+00  0.00000000000E+00  0.57881365053E+03  0.57881365053E+03  0.00000000000E+00 0. -1.
          2   -1    0    0  501    0  0.00000000000E+00 -0.00000000000E+00 -0.78759225280E+02  0.78759225280E+02  0.00000000000E+00 0. -1.
         25    1    1    2    0    0  0.14462667386E+02  0.12121789133E+03  0.53522067853E+02  0.17935316466E+03  0.12000000000E+03 0.  0.
         25    1    1    2    0    0 -0.14462667386E+02 -0.12121789133E+03  0.44653235740E+03  0.47821971115E+03  0.12000000000E+03 0.  0.
<mgrwt>
<rscale>  0 0.42702185E+03</rscale>
<asrwt>0</asrwt>
<pdfrwt beam="1">  1        2 0.12116804E-01 0.42702185E+03</pdfrwt>
<pdfrwt beam="2">  1       -2 0.89048251E-01 0.42702185E+03</pdfrwt>
<totfact> 0.56889042E+02</totfact>
</mgrwt>
</event>
<event>
 4    1  0.1759998E-004  0.3915078E+03  0.7818608E-02  0.1046761E+00
          2   -1    0    0  501    0  0.00000000000E+00  0.00000000000E+00  0.12106227981E+04  0.12106227981E+04  0.00000000000E+00 0. -1.
         -2   -1    0    0    0  501 -0.00000000000E+00 -0.00000000000E+00 -0.31652789855E+02  0.31652789855E+02  0.00000000000E+00 0. -1.
         25    1    1    2    0    0  0.42016778309E+02  0.10675302018E+03  0.91859626297E+03  0.93347775084E+03  0.12000000000E+03 0.  0.
         25    1    1    2    0    0 -0.42016778309E+02 -0.10675302018E+03  0.26037374530E+03  0.30879783713E+03  0.12000000000E+03 0.  0.
<mgrwt>
<rscale>  0 0.39150780E+03</rscale>
<asrwt>0</asrwt>
<pdfrwt beam="1">  1        2 0.18624963E+00 0.39150780E+03</pdfrwt>
<pdfrwt beam="2">  1       -2 0.48696609E-02 0.39150780E+03</pdfrwt>
<totfact> 0.40308139E+03</totfact>
</mgrwt>
</event>
<event>
 4    1  0.1759998E-004  0.2715245E+03  0.7818608E-02  0.1100410E+00
          2   -1    0    0  501    0  0.00000000000E+00  0.00000000000E+00  0.25660227568E+03  0.25660227568E+03  0.00000000000E+00 0.  1.
         -2   -1    0    0    0  501 -0.00000000000E+00 -0.00000000000E+00 -0.71828647356E+02  0.71828647356E+02  0.00000000000E+00 0.  1.
         25    1    1    2    0    0  0.20673441692E+02 -0.50269924439E+02  0.52692319719E+02  0.14188353341E+03  0.12000000000E+03 0.  0.
         25    1    1    2    0    0 -0.20673441692E+02  0.50269924439E+02  0.13208130860E+03  0.18654738963E+03  0.12000000000E+03 0.  0.
<mgrwt>
<rscale>  0 0.27152454E+03</rscale>
<asrwt>0</asrwt>
<pdfrwt beam="1">  1        2 0.39477273E-01 0.27152454E+03</pdfrwt>
<pdfrwt beam="2">  1       -2 0.11050561E-01 0.27152454E+03</pdfrwt>
<totfact> 0.72632831E+03</totfact>
</mgrwt>
</event>
<event>
 4    1  0.1759998E-004  0.2750492E+03  0.7818608E-02  0.1098424E+00
         -2   -1    0    0    0  501 -0.00000000000E+00  0.00000000000E+00  0.66186850826E+02  0.66186850826E+02  0.00000000000E+00 0.  1.
          2   -1    0    0  501    0  0.00000000000E+00 -0.00000000000E+00 -0.28575177644E+03  0.28575177644E+03  0.00000000000E+00 0.  1.
         25    1    1    2    0    0  0.65093615032E+02  0.16494091525E+02 -0.10729591285E+03  0.17441802283E+03  0.12000000000E+03 0.  0.
         25    1    1    2    0    0 -0.65093615032E+02 -0.16494091525E+02 -0.11226901276E+03  0.17752060444E+03  0.12000000000E+03 0.  0.
<mgrwt>
<rscale>  0 0.27504916E+03</rscale>
<asrwt>0</asrwt>
<pdfrwt beam="1">  1        2 0.43961810E-01 0.27504916E+03</pdfrwt>
<pdfrwt beam="2">  1       -2 0.10182593E-01 0.27504916E+03</pdfrwt>
<totfact> 0.73754439E+03</totfact>
</mgrwt>
</event>
<event>
 4    1  0.1759998E-004  0.3394839E+03  0.7818608E-02  0.1067016E+00
          1   -1    0    0  501    0  0.00000000000E+00  0.00000000000E+00  0.20517375606E+04  0.20517375606E+04  0.00000000000E+00 0.  1.
         -1   -1    0    0    0  501 -0.00000000000E+00 -0.00000000000E+00 -0.14042896150E+02  0.14042896150E+02  0.00000000000E+00 0.  1.
         25    1    1    2    0    0  0.10985064840E+03  0.48025369308E+02  0.98097476299E+03  0.99553256435E+03  0.12000000000E+03 0.  0.
         25    1    1    2    0    0 -0.10985064840E+03 -0.48025369308E+02  0.10567199015E+04  0.10702478924E+04  0.12000000000E+03 0.  0.
<mgrwt>
<rscale>  0 0.33948395E+03</rscale>
<asrwt>0</asrwt>
<pdfrwt beam="1">  1        1 0.31565169E+00 0.33948395E+03</pdfrwt>
<pdfrwt beam="2">  1       -1 0.21604472E-02 0.33948395E+03</pdfrwt>
<totfact> 0.19048725E+03</totfact>
</mgrwt>
</event>
<event>
 4    1  0.1759998E-004  0.2468561E+03  0.7818608E-02  0.1115308E+00
          2   -1    0    0  501    0  0.00000000000E+00  0.00000000000E+00  0.28557060870E+04  0.28557060870E+04  0.00000000000E+00 0. -1.
         -2   -1    0    0    0  501 -0.00000000000E+00 -0.00000000000E+00 -0.53347505607E+01  0.53347505607E+01  0.00000000000E+00 0. -1.
         25    1    1    2    0    0  0.16683757044E+02  0.10631930917E+02  0.11812203139E+04  0.11874648692E+04  0.12000000000E+03 0.  0.
         25    1    1    2    0    0 -0.16683757044E+02 -0.10631930917E+02  0.16691510226E+04  0.16735759684E+04  0.12000000000E+03 0.  0.
<mgrwt>
<rscale>  0 0.24685607E+03</rscale>
<asrwt>0</asrwt>
<pdfrwt beam="1">  1        2 0.43933818E+00 0.24685607E+03</pdfrwt>
<pdfrwt beam="2">  1       -2 0.82073314E-03 0.24685607E+03</pdfrwt>
<totfact> 0.71919304E+03</totfact>
</mgrwt>
</event>
<event>
 4    1  0.1759998E-004  0.2836623E+03  0.7818608E-02  0.1093705E+00
          1   -1    0    0  501    0  0.00000000000E+00  0.00000000000E+00  0.17560431002E+04  0.17560431002E+04  0.00000000000E+00 0.  1.
         -1   -1    0    0    0  501 -0.00000000000E+00 -0.00000000000E+00 -0.11455343781E+02  0.11455343781E+02  0.00000000000E+00 0.  1.
         25    1    1    2    0    0 -0.41737703692E+02 -0.47240110458E+02  0.61219827892E+03  0.62702503670E+03  0.12000000000E+03 0.  0.
         25    1    1    2    0    0  0.41737703692E+02  0.47240110458E+02  0.11323894775E+04  0.11404734073E+04  0.12000000000E+03 0.  0.
<mgrwt>
<rscale>  0 0.28366232E+03</rscale>
<asrwt>0</asrwt>
<pdfrwt beam="1">  1        1 0.27016026E+00 0.28366232E+03</pdfrwt>
<pdfrwt beam="2">  1       -1 0.17623620E-02 0.28366232E+03</pdfrwt>
<totfact> 0.40101013E+03</totfact>
</mgrwt>
</event>
<event>
 4    1  0.1759998E-004  0.2483623E+03  0.7818608E-02  0.1114344E+00
          2   -1    0    0  501    0  0.00000000000E+00  0.00000000000E+00  0.15342653768E+04  0.15342653768E+04  0.00000000000E+00 0. -1.
         -2   -1    0    0    0  501 -0.00000000000E+00 -0.00000000000E+00 -0.10051034783E+02  0.10051034783E+02  0.00000000000E+00 0. -1.
         25    1    1    2    0    0 -0.92953248937E+01  0.28600077710E+02  0.69496799276E+03  0.70589296531E+03  0.12000000000E+03 0.  0.
         25    1    1    2    0    0  0.92953248937E+01 -0.28600077710E+02  0.82924634929E+03  0.83842344631E+03  0.12000000000E+03 0.  0.
<mgrwt>
<rscale>  0 0.24836227E+03</rscale>
<asrwt>0</asrwt>
<pdfrwt beam="1">  1        2 0.23604064E+00 0.24836227E+03</pdfrwt>
<pdfrwt beam="2">  1       -2 0.15463143E-02 0.24836227E+03</pdfrwt>
<totfact> 0.14707524E+04</totfact>
</mgrwt>
</event>
<event>
 4    1  0.1759998E-004  0.3857002E+03  0.7818608E-02  0.1048847E+00
         -1   -1    0    0    0  501 -0.00000000000E+00  0.00000000000E+00  0.40385621761E+03  0.40385621761E+03  0.00000000000E+00 0. -1.
          1   -1    0    0  501    0  0.00000000000E+00 -0.00000000000E+00 -0.92090087812E+02  0.92090087812E+02  0.00000000000E+00 0. -1.
         25    1    1    2    0    0 -0.96885137479E+02 -0.94182688417E+02  0.24246509980E+03  0.30240111323E+03  0.12000000000E+03 0.  0.
         25    1    1    2    0    0  0.96885137479E+02  0.94182688417E+02  0.69301029997E+02  0.19354519219E+03  0.12000000000E+03 0.  0.
<mgrwt>
<rscale>  0 0.38570017E+03</rscale>
<asrwt>0</asrwt>
<pdfrwt beam="1">  1        1 0.14167706E-01 0.38570017E+03</pdfrwt>
<pdfrwt beam="2">  1       -1 0.62131725E-01 0.38570017E+03</pdfrwt>
<totfact> 0.10957343E+03</totfact>
</mgrwt>
</event>
<event>
 4    1  0.1759998E-004  0.4840629E+03  0.7818608E-02  0.1018025E+00
          2   -1    0    0  501    0  0.00000000000E+00  0.00000000000E+00  0.95361662554E+03  0.95361662554E+03  0.00000000000E+00 0.  1.
         -2   -1    0    0    0  501 -0.00000000000E+00 -0.00000000000E+00 -0.61428474301E+02  0.61428474301E+02  0.00000000000E+00 0.  1.
         25    1    1    2    0    0  0.17333230302E+03  0.11886177464E+03  0.45164425813E+03  0.51240096082E+03  0.12000000000E+03 0.  0.
         25    1    1    2    0    0 -0.17333230302E+03 -0.11886177464E+03  0.44054389311E+03  0.50264413903E+03  0.12000000000E+03 0.  0.
<mgrwt>
<rscale>  0 0.48406287E+03</rscale>
<asrwt>0</asrwt>
<pdfrwt beam="1">  1        2 0.14671024E+00 0.48406287E+03</pdfrwt>
<pdfrwt beam="2">  1       -2 0.94505352E-02 0.48406287E+03</pdfrwt>
<totfact> 0.20407557E+03</totfact>
</mgrwt>
</event>
<event>
 4    1  0.1759998E-004  0.4789189E+03  0.7818608E-02  0.1019433E+00
         -1   -1    0    0    0  501 -0.00000000000E+00  0.00000000000E+00  0.52367326682E+02  0.52367326682E+02  0.00000000000E+00 0.  1.
          1   -1    0    0  501    0  0.00000000000E+00 -0.00000000000E+00 -0.10949734778E+04  0.10949734778E+04  0.00000000000E+00 0.  1.
         25    1    1    2    0    0 -0.68637426811E+02 -0.18726794229E+03 -0.38662240674E+03  0.45128401696E+03  0.12000000000E+03 0.  0.
         25    1    1    2    0    0  0.68637426811E+02  0.18726794229E+03 -0.65598374434E+03  0.69605678749E+03  0.12000000000E+03 0.  0.
<mgrwt>
<rscale>  0 0.47891892E+03</rscale>
<asrwt>0</asrwt>
<pdfrwt beam="1">  1        1 0.16845746E+00 0.47891892E+03</pdfrwt>
<pdfrwt beam="2">  1       -1 0.80565118E-02 0.47891892E+03</pdfrwt>
<totfact> 0.11528785E+03</totfact>
</mgrwt>
</event>
<event>
 4    1  0.1759998E-004  0.2445635E+03  0.7818608E-02  0.1116790E+00
         -2   -1    0    0    0  501 -0.00000000000E+00  0.00000000000E+00  0.54420108848E+02  0.54420108848E+02  0.00000000000E+00 0.  1.
          2   -1    0    0  501    0  0.00000000000E+00 -0.00000000000E+00 -0.27476648014E+03  0.27476648014E+03  0.00000000000E+00 0.  1.
         25    1    1    2    0    0 -0.14089645755E+02 -0.14382737737E+02 -0.93829163220E+02  0.15365315855E+03  0.12000000000E+03 0.  0.
         25    1    1    2    0    0  0.14089645755E+02  0.14382737737E+02 -0.12651720807E+03  0.17553343043E+03  0.12000000000E+03 0.  0.
<mgrwt>
<rscale>  0 0.24456346E+03</rscale>
<asrwt>0</asrwt>
<pdfrwt beam="1">  1        2 0.42271767E-01 0.24456346E+03</pdfrwt>
<pdfrwt beam="2">  1       -2 0.83723243E-02 0.24456346E+03</pdfrwt>
<totfact> 0.10423291E+04</totfact>
</mgrwt>
</event>
<event>
 4    1  0.1759998E-004  0.3450444E+03  0.7818608E-02  0.1064668E+00
         -1   -1    0    0    0  501 -0.00000000000E+00  0.00000000000E+00  0.73323239044E+02  0.73323239044E+02  0.00000000000E+00 0.  1.
          1   -1    0    0  501    0  0.00000000000E+00 -0.00000000000E+00 -0.40592732517E+03  0.40592732517E+03  0.00000000000E+00 0.  1.
         25    1    1    2    0    0 -0.38098467528E+02  0.34930571450E+02 -0.98225991861E+01  0.13102717850E+03  0.12000000000E+03 0.  0.
         25    1    1    2    0    0  0.38098467528E+02 -0.34930571450E+02 -0.32278148695E+03  0.34822338572E+03  0.12000000000E+03 0.  0.
<mgrwt>
<rscale>  0 0.34504438E+03</rscale>
<asrwt>0</asrwt>
<pdfrwt beam="1">  1        1 0.62450358E-01 0.34504438E+03</pdfrwt>
<pdfrwt beam="2">  1       -1 0.11280498E-01 0.34504438E+03</pdfrwt>
<totfact> 0.30090196E+03</totfact>
</mgrwt>
</event>
<event>
 4    1  0.1759998E-004  0.2690258E+03  0.7818608E-02  0.1101838E+00
          4   -1    0    0  501    0  0.00000000000E+00  0.00000000000E+00  0.59672579896E+02  0.59672579896E+02  0.00000000000E+00 0.  1.
         -4   -1    0    0    0  501 -0.00000000000E+00 -0.00000000000E+00 -0.30321675534E+03  0.30321675534E+03  0.00000000000E+00 0.  1.
         25    1    1    2    0    0 -0.96311205969E+01 -0.58871080507E+02 -0.13745439090E+03  0.19196945638E+03  0.12000000000E+03 0.  0.
         25    1    1    2    0    0  0.96311205969E+01  0.58871080507E+02 -0.10608978454E+03  0.17091987885E+03  0.12000000000E+03 0.  0.
<mgrwt>
<rscale>  0 0.26902584E+03</rscale>
<asrwt>0</asrwt>
<pdfrwt beam="1">  1        4 0.91803967E-02 0.26902584E+03</pdfrwt>
<pdfrwt beam="2">  1       -4 0.46648732E-01 0.26902584E+03</pdfrwt>
<totfact> 0.73236172E+02</totfact>
</mgrwt>
</event>
<event>
 4    1  0.1759998E-004  0.3700221E+03  0.7818608E-02  0.1054685E+00
          2   -1    0    0  501    0  0.00000000000E+00  0.00000000000E+00  0.22734581291E+04  0.22734581291E+04  0.00000000000E+00 0.  1.
         -2   -1    0    0    0  501 -0.00000000000E+00 -0.00000000000E+00 -0.15055953487E+02  0.15055953487E+02  0.00000000000E+00 0.  1.
         25    1    1    2    0    0  0.37194418656E+02 -0.10329479886E+03  0.58382056003E+03  0.60605254440E+03  0.12000000000E+03 0.  0.
         25    1    1    2    0    0 -0.37194418656E+02  0.10329479886E+03  0.16745816155E+04  0.16824615381E+04  0.12000000000E+03 0.  0.
<mgrwt>
<rscale>  0 0.37002205E+03</rscale>
<asrwt>0</asrwt>
<pdfrwt beam="1">  1        2 0.34976252E+00 0.37002205E+03</pdfrwt>
<pdfrwt beam="2">  1       -2 0.23163023E-02 0.37002205E+03</pdfrwt>
<totfact> 0.32948622E+03</totfact>
</mgrwt>
</event>
<event>
 4    1  0.1759998E-004  0.2666740E+03  0.7818608E-02  0.1103198E+00
         -1   -1    0    0    0  501 -0.00000000000E+00  0.00000000000E+00  0.39882675712E+03  0.39882675712E+03  0.00000000000E+00 0. -1.
          1   -1    0    0  501    0  0.00000000000E+00 -0.00000000000E+00 -0.44577637650E+02  0.44577637650E+02  0.00000000000E+00 0. -1.
         25    1    1    2    0    0 -0.35934447964E+00 -0.57535051494E+02  0.16337883720E+03  0.21072032585E+03  0.12000000000E+03 0.  0.
         25    1    1    2    0    0  0.35934447964E+00  0.57535051494E+02  0.19087028227E+03  0.23268406893E+03  0.12000000000E+03 0.  0.
<mgrwt>
<rscale>  0 0.26667399E+03</rscale>
<asrwt>0</asrwt>
<pdfrwt beam="1">  1        1 0.68580983E-02 0.26667399E+03</pdfrwt>
<pdfrwt beam="2">  1       -1 0.61357960E-01 0.26667399E+03</pdfrwt>
<totfact> 0.29765653E+03</totfact>
</mgrwt>
</event>
<event>
 4    1  0.1759998E-004  0.5603814E+03  0.7818608E-02  0.9991192E-01
         -2   -1    0    0    0  501 -0.00000000000E+00  0.00000000000E+00  0.57376705765E+03  0.57376705765E+03  0.00000000000E+00 0. -1.
          2   -1    0    0  501    0  0.00000000000E+00 -0.00000000000E+00 -0.13682701036E+03  0.13682701036E+03  0.00000000000E+00 0. -1.
         25    1    1    2    0    0 -0.24850940051E+03  0.47982768552E+02  0.20972477578E+03  0.34991963334E+03  0.12000000000E+03 0.  0.
         25    1    1    2    0    0  0.24850940051E+03 -0.47982768552E+02  0.22721527151E+03  0.36067443468E+03  0.12000000000E+03 0.  0.
<mgrwt>
<rscale>  0 0.56038141E+03</rscale>
<asrwt>0</asrwt>
<pdfrwt beam="1">  1        2 0.21050310E-01 0.56038141E+03</pdfrwt>
<pdfrwt beam="2">  1       -2 0.88271853E-01 0.56038141E+03</pdfrwt>
<totfact> 0.29906681E+02</totfact>
</mgrwt>
</event>
<event>
 4    1  0.1759998E-004  0.2532454E+03  0.7818608E-02  0.1111271E+00
         -1   -1    0    0    0  501 -0.00000000000E+00  0.00000000000E+00  0.78745519647E+02  0.78745519647E+02  0.00000000000E+00 0. -1.
          1   -1    0    0  501    0  0.00000000000E+00 -0.00000000000E+00 -0.20360917578E+03  0.20360917578E+03  0.00000000000E+00 0. -1.
         25    1    1    2    0    0  0.64904887223E+01 -0.39622622649E+02 -0.67569254562E+02  0.14344923434E+03  0.12000000000E+03 0.  0.
         25    1    1    2    0    0 -0.64904887223E+01  0.39622622649E+02 -0.57294401569E+02  0.13890546109E+03  0.12000000000E+03 0.  0.
<mgrwt>
<rscale>  0 0.25324542E+03</rscale>
<asrwt>0</asrwt>
<pdfrwt beam="1">  1        1 0.31324488E-01 0.25324542E+03</pdfrwt>
<pdfrwt beam="2">  1       -1 0.12114695E-01 0.25324542E+03</pdfrwt>
<totfact> 0.63903368E+03</totfact>
</mgrwt>
</event>
<event>
 4    1  0.1759998E-004  0.2475025E+03  0.7818608E-02  0.1114893E+00
         -1   -1    0    0    0  501 -0.00000000000E+00  0.00000000000E+00  0.58402303983E+01  0.58402303983E+01  0.00000000000E+00 0.  1.
          1   -1    0    0  501    0  0.00000000000E+00 -0.00000000000E+00 -0.26222201566E+04  0.26222201566E+04  0.00000000000E+00 0.  1.
         25    1    1    2    0    0  0.30112568242E+02  0.24470370627E+01 -0.13216844765E+04  0.13274647303E+04  0.12000000000E+03 0.  0.
         25    1    1    2    0    0 -0.30112568242E+02 -0.24470370627E+01 -0.12946954497E+04  0.13005956567E+04  0.12000000000E+03 0.  0.
<mgrwt>
<rscale>  0 0.24750248E+03</rscale>
<asrwt>0</asrwt>
<pdfrwt beam="1">  1        1 0.40341841E+00 0.24750248E+03</pdfrwt>
<pdfrwt beam="2">  1       -1 0.89849715E-03 0.24750248E+03</pdfrwt>
<totfact> 0.28881565E+03</totfact>
</mgrwt>
</event>
<event>
 4    1  0.1759998E-004  0.4267047E+03  0.7818608E-02  0.1034906E+00
         -1   -1    0    0    0  501 -0.00000000000E+00  0.00000000000E+00  0.47060673737E+02  0.47060673737E+02  0.00000000000E+00 0. -1.
          1   -1    0    0  501    0  0.00000000000E+00 -0.00000000000E+00 -0.96724528992E+03  0.96724528992E+03  0.00000000000E+00 0. -1.
         25    1    1    2    0    0 -0.11583836695E+03 -0.10529721495E+03 -0.65339901110E+03  0.68252201316E+03  0.12000000000E+03 0.  0.
         25    1    1    2    0    0  0.11583836695E+03  0.10529721495E+03 -0.26678560508E+03  0.33178395050E+03  0.12000000000E+03 0.  0.
<mgrwt>
<rscale>  0 0.42670465E+03</rscale>
<asrwt>0</asrwt>
<pdfrwt beam="1">  1        1 0.14880697E+00 0.42670465E+03</pdfrwt>
<pdfrwt beam="2">  1       -1 0.72401037E-02 0.42670465E+03</pdfrwt>
<totfact> 0.16994188E+03</totfact>
</mgrwt>
</event>
<event>
 4    1  0.1759998E-004  0.3366280E+03  0.7818608E-02  0.1068241E+00
          2   -1    0    0  501    0  0.00000000000E+00  0.00000000000E+00  0.26065561779E+04  0.26065561779E+04  0.00000000000E+00 0. -1.
         -2   -1    0    0    0  501 -0.00000000000E+00 -0.00000000000E+00 -0.10868597731E+02  0.10868597731E+02  0.00000000000E+00 0. -1.
         25    1    1    2    0    0 -0.58784463860E+02 -0.31861314469E+02  0.54163247329E+03  0.55878125655E+03  0.12000000000E+03 0.  0.
         25    1    1    2    0    0  0.58784463860E+02  0.31861314469E+02  0.20540551069E+04  0.20586435191E+04  0.12000000000E+03 0.  0.
<mgrwt>
<rscale>  0 0.33662805E+03</rscale>
<asrwt>0</asrwt>
<pdfrwt beam="1">  1        2 0.40100815E+00 0.33662805E+03</pdfrwt>
<pdfrwt beam="2">  1       -2 0.16720940E-02 0.33662805E+03</pdfrwt>
<totfact> 0.35103721E+03</totfact>
</mgrwt>
</event>
<event>
 4    1  0.1759998E-004  0.3397562E+03  0.7818608E-02  0.1066900E+00
         -1   -1    0    0    0  501 -0.00000000000E+00  0.00000000000E+00  0.55883460166E+02  0.55883460166E+02  0.00000000000E+00 0. -1.
          1   -1    0    0  501    0  0.00000000000E+00 -0.00000000000E+00 -0.51640622178E+03  0.51640622178E+03  0.00000000000E+00 0. -1.
         25    1    1    2    0    0  0.71590954587E+01 -0.77741716999E+02 -0.38430495763E+03  0.41010404493E+03  0.12000000000E+03 0.  0.
         25    1    1    2    0    0 -0.71590954587E+01  0.77741716999E+02 -0.76217803985E+02  0.16218563702E+03  0.12000000000E+03 0.  0.
<mgrwt>
<rscale>  0 0.33975619E+03</rscale>
<asrwt>0</asrwt>
<pdfrwt beam="1">  1        1 0.79447113E-01 0.33975619E+03</pdfrwt>
<pdfrwt beam="2">  1       -1 0.85974552E-02 0.33975619E+03</pdfrwt>
<totfact> 0.33394377E+03</totfact>
</mgrwt>
</event>
<event>
 4    1  0.1759998E-004  0.3745926E+03  0.7818608E-02  0.1052951E+00
          2   -1    0    0  501    0  0.00000000000E+00  0.00000000000E+00  0.11473015272E+04  0.11473015272E+04  0.00000000000E+00 0.  1.
         -2   -1    0    0    0  501 -0.00000000000E+00 -0.00000000000E+00 -0.30576003765E+02  0.30576003765E+02  0.00000000000E+00 0.  1.
         25    1    1    2    0    0  0.42789544968E+02 -0.13488257311E+03  0.63887732096E+03  0.66527324080E+03  0.12000000000E+03 0.  0.
         25    1    1    2    0    0 -0.42789544968E+02  0.13488257311E+03  0.47784820251E+03  0.51260429020E+03  0.12000000000E+03 0.  0.
<mgrwt>
<rscale>  0 0.37459256E+03</rscale>
<asrwt>0</asrwt>
<pdfrwt beam="1">  1        2 0.17650789E+00 0.37459256E+03</pdfrwt>
<pdfrwt beam="2">  1       -2 0.47040015E-02 0.37459256E+03</pdfrwt>
<totfact> 0.46241241E+03</totfact>
</mgrwt>
</event>
<event>
 4    1  0.1759998E-004  0.2895304E+03  0.7818608E-02  0.1090595E+00
         -1   -1    0    0    0  501 -0.00000000000E+00  0.00000000000E+00  0.23491497190E+02  0.23491497190E+02  0.00000000000E+00 0.  1.
          1   -1    0    0  501    0  0.00000000000E+00 -0.00000000000E+00 -0.89210821651E+03  0.89210821651E+03  0.00000000000E+00 0.  1.
         25    1    1    2    0    0  0.46616491013E+02 -0.65502101842E+02 -0.46485996175E+03  0.48678373701E+03  0.12000000000E+03 0.  0.
         25    1    1    2    0    0 -0.46616491013E+02  0.65502101842E+02 -0.40375675757E+03  0.42881597669E+03  0.12000000000E+03 0.  0.
<mgrwt>
<rscale>  0 0.28953036E+03</rscale>
<asrwt>0</asrwt>
<pdfrwt beam="1">  1        1 0.13724742E+00 0.28953036E+03</pdfrwt>
<pdfrwt beam="2">  1       -1 0.36140765E-02 0.28953036E+03</pdfrwt>
<totfact> 0.55444120E+03</totfact>
</mgrwt>
</event>
<event>
 4    1  0.1759998E-004  0.2677572E+03  0.7818608E-02  0.1102570E+00
          2   -1    0    0  501    0  0.00000000000E+00  0.00000000000E+00  0.59810138694E+02  0.59810138694E+02  0.00000000000E+00 0. -1.
         -2   -1    0    0    0  501 -0.00000000000E+00 -0.00000000000E+00 -0.29967283253E+03  0.29967283253E+03  0.00000000000E+00 0. -1.
         25    1    1    2    0    0  0.29073010722E+01 -0.55584011369E+02 -0.92239248688E+02  0.16126411169E+03  0.12000000000E+03 0.  0.
         25    1    1    2    0    0 -0.29073010722E+01  0.55584011369E+02 -0.14762344515E+03  0.19821885954E+03  0.12000000000E+03 0.  0.
<mgrwt>
<rscale>  0 0.26775716E+03</rscale>
<asrwt>0</asrwt>
<pdfrwt beam="1">  1        2 0.92015597E-02 0.26775716E+03</pdfrwt>
<pdfrwt beam="2">  1       -2 0.46103513E-01 0.26775716E+03</pdfrwt>
<totfact> 0.31960759E+03</totfact>
</mgrwt>
</event>
<event>
 4    1  0.1759998E-004  0.2777616E+03  0.7818608E-02  0.1096918E+00
         -1   -1    0    0    0  501 -0.00000000000E+00  0.00000000000E+00  0.12546870752E+02  0.12546870752E+02  0.00000000000E+00 0.  1.
          1   -1    0    0  501    0  0.00000000000E+00 -0.00000000000E+00 -0.15372659931E+04  0.15372659931E+04  0.00000000000E+00 0.  1.
         25    1    1    2    0    0 -0.57264582440E+02 -0.30262945826E+02 -0.61549709872E+03  0.63042188796E+03  0.12000000000E+03 0.  0.
         25    1    1    2    0    0  0.57264582440E+02  0.30262945826E+02 -0.90922202362E+03  0.91939097588E+03  0.12000000000E+03 0.  0.
<mgrwt>
<rscale>  0 0.27776161E+03</rscale>
<asrwt>0</asrwt>
<pdfrwt beam="1">  1        1 0.23650244E+00 0.27776161E+03</pdfrwt>
<pdfrwt beam="2">  1       -1 0.19302879E-02 0.27776161E+03</pdfrwt>
<totfact> 0.48836916E+03</totfact>
</mgrwt>
</event>
<event>
 4    1  0.1759998E-004  0.3099329E+03  0.7818608E-02  0.1080378E+00
         -2   -1    0    0    0  501 -0.00000000000E+00  0.00000000000E+00  0.60707978362E+02  0.60707978362E+02  0.00000000000E+00 0.  1.
          2   -1    0    0  501    0  0.00000000000E+00 -0.00000000000E+00 -0.39557578443E+03  0.39557578443E+03  0.00000000000E+00 0.  1.
         25    1    1    2    0    0  0.21018030833E+02 -0.84884231038E+02 -0.23273589146E+03  0.27606717565E+03  0.12000000000E+03 0.  0.
         25    1    1    2    0    0 -0.21018030833E+02  0.84884231038E+02 -0.10213191461E+03  0.18021658714E+03  0.12000000000E+03 0.  0.
<mgrwt>
<rscale>  0 0.30993294E+03</rscale>
<asrwt>0</asrwt>
<pdfrwt beam="1">  1        2 0.60857816E-01 0.30993294E+03</pdfrwt>
<pdfrwt beam="2">  1       -2 0.93396886E-02 0.30993294E+03</pdfrwt>
<totfact> 0.59761528E+03</totfact>
</mgrwt>
</event>
<event>
 4    1  0.1759998E-004  0.2710648E+03  0.7818608E-02  0.1100672E+00
          2   -1    0    0  501    0  0.00000000000E+00  0.00000000000E+00  0.19778759854E+04  0.19778759854E+04  0.00000000000E+00 0. -1.
         -2   -1    0    0    0  501 -0.00000000000E+00 -0.00000000000E+00 -0.92872542031E+01  0.92872542031E+01  0.00000000000E+00 0. -1.
         25    1    1    2    0    0  0.97254171575E+01  0.52770323126E+02  0.12262986522E+04  0.12333238322E+04  0.12000000000E+03 0.  0.
         25    1    1    2    0    0 -0.97254171575E+01 -0.52770323126E+02  0.74229007900E+03  0.75383940738E+03  0.12000000000E+03 0.  0.
<mgrwt>
<rscale>  0 0.27106484E+03</rscale>
<asrwt>0</asrwt>
<pdfrwt beam="1">  1        2 0.30428828E+00 0.27106484E+03</pdfrwt>
<pdfrwt beam="2">  1       -2 0.14288099E-02 0.27106484E+03</pdfrwt>
<totfact> 0.96656386E+03</totfact>
</mgrwt>
</event>
<event>
 4    1  0.1759998E-004  0.3217068E+03  0.7818608E-02  0.1074866E+00
          1   -1    0    0  501    0  0.00000000000E+00  0.00000000000E+00  0.41962080487E+03  0.41962080487E+03  0.00000000000E+00 0. -1.
         -1   -1    0    0    0  501 -0.00000000000E+00 -0.00000000000E+00 -0.61660010547E+02  0.61660010547E+02  0.00000000000E+00 0. -1.
         25    1    1    2    0    0  0.78827846373E+02 -0.53930695543E+01  0.28718028754E+03  0.32111591694E+03  0.12000000000E+03 0.  0.
         25    1    1    2    0    0 -0.78827846373E+02  0.53930695543E+01  0.70780506786E+02  0.16016489848E+03  0.12000000000E+03 0.  0.
<mgrwt>
<rscale>  0 0.32170684E+03</rscale>
<asrwt>0</asrwt>
<pdfrwt beam="1">  1        1 0.64557045E-01 0.32170684E+03</pdfrwt>
<pdfrwt beam="2">  1       -1 0.94861558E-02 0.32170684E+03</pdfrwt>
<totfact> 0.37697039E+03</totfact>
</mgrwt>
</event>
<event>
 4    1  0.1759998E-004  0.2433447E+03  0.7818608E-02  0.1117585E+00
         -1   -1    0    0    0  501 -0.00000000000E+00  0.00000000000E+00  0.84217834357E+01  0.84217834357E+01  0.00000000000E+00 0. -1.
          1   -1    0    0  501    0  0.00000000000E+00 -0.00000000000E+00 -0.17578412386E+04  0.17578412386E+04  0.00000000000E+00 0. -1.
         25    1    1    2    0    0 -0.25313875720E+01  0.18304295062E+01 -0.10188554908E+04  0.10259026609E+04  0.12000000000E+03 0.  0.
         25    1    1    2    0    0  0.25313875720E+01 -0.18304295062E+01 -0.73056396436E+03  0.74036036119E+03  0.12000000000E+03 0.  0.
<mgrwt>
<rscale>  0 0.24334468E+03</rscale>
<asrwt>0</asrwt>
<pdfrwt beam="1">  1        1 0.27043715E+00 0.24334468E+03</pdfrwt>
<pdfrwt beam="2">  1       -1 0.12956588E-02 0.24334468E+03</pdfrwt>
<totfact> 0.62490108E+03</totfact>
</mgrwt>
</event>
<event>
 4    1  0.1759998E-004  0.3215830E+03  0.7818608E-02  0.1074923E+00
         -2   -1    0    0    0  501 -0.00000000000E+00  0.00000000000E+00  0.17639682359E+03  0.17639682359E+03  0.00000000000E+00 0. -1.
          2   -1    0    0  501    0  0.00000000000E+00 -0.00000000000E+00 -0.14656673016E+03  0.14656673016E+03  0.00000000000E+00 0. -1.
         25    1    1    2    0    0 -0.10784800551E+02  0.91558105683E+02  0.69505619453E+02  0.16652396156E+03  0.12000000000E+03 0.  0.
         25    1    1    2    0    0  0.10784800551E+02 -0.91558105683E+02 -0.39675526024E+02  0.15643959219E+03  0.12000000000E+03 0.  0.
<mgrwt>
<rscale>  0 0.32158299E+03</rscale>
<asrwt>0</asrwt>
<pdfrwt beam="1">  1        2 0.22548728E-01 0.32158299E+03</pdfrwt>
<pdfrwt beam="2">  1       -2 0.27137973E-01 0.32158299E+03</pdfrwt>
<totfact> 0.29727243E+03</totfact>
</mgrwt>
</event>
<event>
 4    1  0.1759998E-004  0.2715871E+03  0.7818608E-02  0.1100375E+00
         -2   -1    0    0    0  501 -0.00000000000E+00  0.00000000000E+00  0.71336783205E+01  0.71336783205E+01  0.00000000000E+00 0. -1.
          2   -1    0    0  501    0  0.00000000000E+00 -0.00000000000E+00 -0.25849052505E+04  0.25849052505E+04  0.00000000000E+00 0. -1.
         25    1    1    2    0    0  0.48284223334E+02 -0.40171830008E+02 -0.13817824351E+04  0.13884047825E+04  0.12000000000E+03 0.  0.
         25    1    1    2    0    0 -0.48284223334E+02  0.40171830008E+02 -0.11959891371E+04  0.12036341463E+04  0.12000000000E+03 0.  0.
<mgrwt>
<rscale>  0 0.27158706E+03</rscale>
<asrwt>0</asrwt>
<pdfrwt beam="1">  1        2 0.39767819E+00 0.27158706E+03</pdfrwt>
<pdfrwt beam="2">  1       -2 0.10974877E-02 0.27158706E+03</pdfrwt>
<totfact> 0.67056366E+03</totfact>
</mgrwt>
</event>
<event>
 4    1  0.1759998E-004  0.2502323E+03  0.7818608E-02  0.1113158E+00
          2   -1    0    0  501    0  0.00000000000E+00  0.00000000000E+00  0.73087624398E+03  0.73087624398E+03  0.00000000000E+00 0. -1.
         -2   -1    0    0    0  501 -0.00000000000E+00 -0.00000000000E+00 -0.21418203545E+02  0.21418203545E+02  0.00000000000E+00 0. -1.
         25    1    1    2    0    0 -0.19308640090E+02 -0.47948678997E+01  0.44280333099E+03  0.45920649416E+03  0.12000000000E+03 0.  0.
         25    1    1    2    0    0  0.19308640090E+02  0.47948678997E+01  0.26665470944E+03  0.29308795337E+03  0.12000000000E+03 0.  0.
<mgrwt>
<rscale>  0 0.25023234E+03</rscale>
<asrwt>0</asrwt>
<pdfrwt beam="1">  1        2 0.11244248E+00 0.25023234E+03</pdfrwt>
<pdfrwt beam="2">  1       -2 0.32951088E-02 0.25023234E+03</pdfrwt>
<totfact> 0.14499083E+04</totfact>
</mgrwt>
</event>
<event>
 4    1  0.1759998E-004  0.3053603E+03  0.7818608E-02  0.1082591E+00
          2   -1    0    0  501    0  0.00000000000E+00  0.00000000000E+00  0.99253614582E+03  0.99253614582E+03  0.00000000000E+00 0.  1.
         -2   -1    0    0    0  501 -0.00000000000E+00 -0.00000000000E+00 -0.23486532027E+02  0.23486532027E+02  0.00000000000E+00 0.  1.
         25    1    1    2    0    0  0.41286998966E+02  0.48645492096E+02  0.25303926408E+03  0.28722790489E+03  0.12000000000E+03 0.  0.
         25    1    1    2    0    0 -0.41286998966E+02 -0.48645492096E+02  0.71601034971E+03  0.72879477295E+03  0.12000000000E+03 0.  0.
<mgrwt>
<rscale>  0 0.30536032E+03</rscale>
<asrwt>0</asrwt>
<pdfrwt beam="1">  1        2 0.15269784E+00 0.30536032E+03</pdfrwt>
<pdfrwt beam="2">  1       -2 0.36133134E-02 0.30536032E+03</pdfrwt>
<totfact> 0.85141609E+03</totfact>
</mgrwt>
</event>
<event>
 4    1  0.1759998E-004  0.3456916E+03  0.7818608E-02  0.1064397E+00
          2   -1    0    0  501    0  0.00000000000E+00  0.00000000000E+00  0.12515057497E+04  0.12515057497E+04  0.00000000000E+00 0. -1.
         -2   -1    0    0    0  501 -0.00000000000E+00 -0.00000000000E+00 -0.23871782383E+02  0.23871782383E+02  0.00000000000E+00 0. -1.
         25    1    1    2    0    0  0.16545484867E+02  0.11525681396E+03  0.45225094884E+03  0.48217093127E+03  0.12000000000E+03 0.  0.
         25    1    1    2    0    0 -0.16545484867E+02 -0.11525681396E+03  0.77538301845E+03  0.79320660079E+03  0.12000000000E+03 0.  0.
<mgrwt>
<rscale>  0 0.34569161E+03</rscale>
<asrwt>0</asrwt>
<pdfrwt beam="1">  1        2 0.19253929E+00 0.34569161E+03</pdfrwt>
<pdfrwt beam="2">  1       -2 0.36725829E-02 0.34569161E+03</pdfrwt>
<totfact> 0.58615375E+03</totfact>
</mgrwt>
</event>
<event>
 4    1  0.1759998E-004  0.3661997E+03  0.7818608E-02  0.1056156E+00
         -2   -1    0    0    0  501 -0.00000000000E+00  0.00000000000E+00  0.16958932933E+02  0.16958932933E+02  0.00000000000E+00 0. -1.
          2   -1    0    0  501    0  0.00000000000E+00 -0.00000000000E+00 -0.19768670833E+04  0.19768670833E+04  0.00000000000E+00 0. -1.
         25    1    1    2    0    0 -0.10322405173E+03 -0.36024956271E+01 -0.14806649463E+04  0.14891060627E+04  0.12000000000E+03 0.  0.
         25    1    1    2    0    0  0.10322405173E+03  0.36024956271E+01 -0.47924320408E+03  0.50471995353E+03  0.12000000000E+03 0.  0.
<mgrwt>
<rscale>  0 0.36619971E+03</rscale>
<asrwt>0</asrwt>
<pdfrwt beam="1">  1        2 0.30413345E+00 0.36619971E+03</pdfrwt>
<pdfrwt beam="2">  1       -2 0.26090661E-02 0.36619971E+03</pdfrwt>
<totfact> 0.39774045E+03</totfact>
</mgrwt>
</event>
<event>
 4    1  0.1759998E-004  0.4738549E+03  0.7818608E-02  0.1020838E+00
         -1   -1    0    0    0  501 -0.00000000000E+00  0.00000000000E+00  0.24315018530E+03  0.24315018530E+03  0.00000000000E+00 0. -1.
          1   -1    0    0  501    0  0.00000000000E+00 -0.00000000000E+00 -0.23086395037E+03  0.23086395037E+03  0.00000000000E+00 0. -1.
         25    1    1    2    0    0 -0.77474876247E+02 -0.94373315833E+02  0.16998440507E+03  0.24125376092E+03  0.12000000000E+03 0.  0.
         25    1    1    2    0    0  0.77474876247E+02  0.94373315833E+02 -0.15769817013E+03  0.23276037475E+03  0.12000000000E+03 0.  0.
<mgrwt>
<rscale>  0 0.47385488E+03</rscale>
<asrwt>0</asrwt>
<pdfrwt beam="1">  1        1 0.35517531E-01 0.47385488E+03</pdfrwt>
<pdfrwt beam="2">  1       -1 0.37407721E-01 0.47385488E+03</pdfrwt>
<totfact> 0.85261518E+02</totfact>
</mgrwt>
</event>
<event>
 4    1  0.1759998E-004  0.2864402E+03  0.7818608E-02  0.1092223E+00
         -2   -1    0    0    0  501 -0.00000000000E+00  0.00000000000E+00  0.28283119873E+03  0.28283119873E+03  0.00000000000E+00 0.  1.
          2   -1    0    0  501    0  0.00000000000E+00 -0.00000000000E+00 -0.72523828175E+02  0.72523828175E+02  0.00000000000E+00 0.  1.
         25    1    1    2    0    0  0.38595970004E+02  0.55546330091E+02  0.56517512799E+02  0.14889349529E+03  0.12000000000E+03 0.  0.
         25    1    1    2    0    0 -0.38595970004E+02 -0.55546330091E+02  0.15378985776E+03  0.20646153161E+03  0.12000000000E+03 0.  0.
<mgrwt>
<rscale>  0 0.28644023E+03</rscale>
<asrwt>0</asrwt>
<pdfrwt beam="1">  1        2 0.11157512E-01 0.28644023E+03</pdfrwt>
<pdfrwt beam="2">  1       -2 0.43512492E-01 0.28644023E+03</pdfrwt>
<totfact> 0.28225828E+03</totfact>
</mgrwt>
</event>
<event>
 4    1  0.1759998E-004  0.4394644E+03  0.7818608E-02  0.1030911E+00
         -2   -1    0    0    0  501 -0.00000000000E+00  0.00000000000E+00  0.34894686539E+02  0.34894686539E+02  0.00000000000E+00 0.  1.
          2   -1    0    0  501    0  0.00000000000E+00 -0.00000000000E+00 -0.13836556122E+04  0.13836556122E+04  0.00000000000E+00 0.  1.
         25    1    1    2    0    0  0.12760134041E+03  0.59989437496E+02 -0.29243027324E+03  0.34611602014E+03  0.12000000000E+03 0.  0.
         25    1    1    2    0    0 -0.12760134041E+03 -0.59989437496E+02 -0.10563306524E+04  0.10724342786E+04  0.12000000000E+03 0.  0.
<mgrwt>
<rscale>  0 0.43946435E+03</rscale>
<asrwt>0</asrwt>
<pdfrwt beam="1">  1        2 0.21287010E+00 0.43946435E+03</pdfrwt>
<pdfrwt beam="2">  1       -2 0.53684132E-02 0.43946435E+03</pdfrwt>
<totfact> 0.27698823E+03</totfact>
</mgrwt>
</event>
<event>
 4    1  0.1759998E-004  0.2585984E+03  0.7818608E-02  0.1107988E+00
          2   -1    0    0  501    0  0.00000000000E+00  0.00000000000E+00  0.19558103493E+02  0.19558103493E+02  0.00000000000E+00 0. -1.
         -2   -1    0    0    0  501 -0.00000000000E+00 -0.00000000000E+00 -0.85480103346E+03  0.85480103346E+03  0.00000000000E+00 0. -1.
         25    1    1    2    0    0  0.61693531131E+01  0.10410338633E+02 -0.57519344142E+03  0.58770224700E+03  0.12000000000E+03 0.  0.
         25    1    1    2    0    0 -0.61693531131E+01 -0.10410338633E+02 -0.26004948855E+03  0.28665688996E+03  0.12000000000E+03 0.  0.
<mgrwt>
<rscale>  0 0.25859843E+03</rscale>
<asrwt>0</asrwt>
<pdfrwt beam="1">  1        2 0.30089390E-02 0.25859843E+03</pdfrwt>
<pdfrwt beam="2">  1       -2 0.13150785E+00 0.25859843E+03</pdfrwt>
<totfact> 0.13789400E+03</totfact>
</mgrwt>
</event>
<event>
 4    1  0.1759998E-004  0.2571173E+03  0.7818608E-02  0.1108888E+00
          1   -1    0    0  501    0  0.00000000000E+00  0.00000000000E+00  0.99669833930E+02  0.99669833930E+02  0.00000000000E+00 0.  1.
         -1   -1    0    0    0  501 -0.00000000000E+00 -0.00000000000E+00 -0.16582080421E+03  0.16582080421E+03  0.00000000000E+00 0.  1.
         25    1    1    2    0    0 -0.29375778949E+02 -0.34446426876E+02 -0.42185462838E+02  0.13501520651E+03  0.12000000000E+03 0.  0.
         25    1    1    2    0    0  0.29375778949E+02  0.34446426876E+02 -0.23965507444E+02  0.13047543164E+03  0.12000000000E+03 0.  0.
<mgrwt>
<rscale>  0 0.25711734E+03</rscale>
<asrwt>0</asrwt>
<pdfrwt beam="1">  1        1 0.15333821E-01 0.25711734E+03</pdfrwt>
<pdfrwt beam="2">  1       -1 0.25510893E-01 0.25711734E+03</pdfrwt>
<totfact> 0.48226251E+03</totfact>
</mgrwt>
</event>
<event>
 4    1  0.1759998E-004  0.3222666E+03  0.7818608E-02  0.1074611E+00
         -1   -1    0    0    0  501 -0.00000000000E+00  0.00000000000E+00  0.33963980916E+03  0.33963980916E+03  0.00000000000E+00 0. -1.
          1   -1    0    0  501    0  0.00000000000E+00 -0.00000000000E+00 -0.76445536560E+02  0.76445536560E+02  0.00000000000E+00 0. -1.
         25    1    1    2    0    0  0.89999248064E+02 -0.19652537273E+02  0.20322657294E+03  0.25335178472E+03  0.12000000000E+03 0.  0.
         25    1    1    2    0    0 -0.89999248064E+02  0.19652537273E+02  0.59967699668E+02  0.16273356100E+03  0.12000000000E+03 0.  0.
<mgrwt>
<rscale>  0 0.32226664E+03</rscale>
<asrwt>0</asrwt>
<pdfrwt beam="1">  1        1 0.11760852E-01 0.32226664E+03</pdfrwt>
<pdfrwt beam="2">  1       -1 0.52252278E-01 0.32226664E+03</pdfrwt>
<totfact> 0.19539195E+03</totfact>
</mgrwt>
</event>
<event>
 4    1  0.1759998E-004  0.2437669E+03  0.7818608E-02  0.1117309E+00
          1   -1    0    0  501    0  0.00000000000E+00  0.00000000000E+00  0.12454933213E+03  0.12454933213E+03  0.00000000000E+00 0.  1.
         -1   -1    0    0    0  501 -0.00000000000E+00 -0.00000000000E+00 -0.11927460491E+03  0.11927460491E+03  0.00000000000E+00 0.  1.
         25    1    1    2    0    0 -0.20460802767E+02 -0.37372990924E+01 -0.21554724191E+01  0.12180828344E+03  0.12000000000E+03 0.  0.
         25    1    1    2    0    0  0.20460802767E+02  0.37372990924E+01  0.74301996351E+01  0.12201565359E+03  0.12000000000E+03 0.  0.
<mgrwt>
<rscale>  0 0.24376688E+03</rscale>
<asrwt>0</asrwt>
<pdfrwt beam="1">  1        1 0.19161436E-01 0.24376688E+03</pdfrwt>
<pdfrwt beam="2">  1       -1 0.18349939E-01 0.24376688E+03</pdfrwt>
<totfact> 0.61772326E+03</totfact>
</mgrwt>
</event>
<event>
 4    1  0.1759998E-004  0.2876595E+03  0.7818608E-02  0.1091577E+00
          1   -1    0    0  501    0  0.00000000000E+00  0.00000000000E+00  0.75989640846E+03  0.75989640846E+03  0.00000000000E+00 0. -1.
         -1   -1    0    0    0  501 -0.00000000000E+00 -0.00000000000E+00 -0.27223451751E+02  0.27223451751E+02  0.00000000000E+00 0. -1.
         25    1    1    2    0    0 -0.18710812078E+02 -0.46818848933E+02  0.53378543068E+03  0.54942605062E+03  0.12000000000E+03 0.  0.
         25    1    1    2    0    0  0.18710812078E+02  0.46818848933E+02  0.19888752603E+03  0.23769380959E+03  0.12000000000E+03 0.  0.
<mgrwt>
<rscale>  0 0.28765954E+03</rscale>
<asrwt>0</asrwt>
<pdfrwt beam="1">  1        1 0.11690712E+00 0.28765954E+03</pdfrwt>
<pdfrwt beam="2">  1       -1 0.41882239E-02 0.28765954E+03</pdfrwt>
<totfact> 0.57209027E+03</totfact>
</mgrwt>
</event>
<event>
 4    1  0.1759998E-004  0.3032871E+03  0.7818608E-02  0.1083609E+00
          2   -1    0    0  501    0  0.00000000000E+00  0.00000000000E+00  0.12005128933E+03  0.12005128933E+03  0.00000000000E+00 0.  1.
         -2   -1    0    0    0  501 -0.00000000000E+00 -0.00000000000E+00 -0.19154947543E+03  0.19154947543E+03  0.00000000000E+00 0.  1.
         25    1    1    2    0    0 -0.45765379670E+02 -0.79751431560E+02 -0.23549222306E+02  0.15300106759E+03  0.12000000000E+03 0.  0.
         25    1    1    2    0    0  0.45765379670E+02  0.79751431560E+02 -0.47948963796E+02  0.15859969717E+03  0.12000000000E+03 0.  0.
<mgrwt>
<rscale>  0 0.30328707E+03</rscale>
<asrwt>0</asrwt>
<pdfrwt beam="1">  1        2 0.18469429E-01 0.30328707E+03</pdfrwt>
<pdfrwt beam="2">  1       -2 0.29469150E-01 0.30328707E+03</pdfrwt>
<totfact> 0.32164293E+03</totfact>
</mgrwt>
</event>
<event>
 4    1  0.1759998E-004  0.3638036E+03  0.7818608E-02  0.1057088E+00
         -3   -1    0    0    0  501 -0.00000000000E+00  0.00000000000E+00  0.82439990999E+03  0.82439990999E+03  0.00000000000E+00 0. -1.
          3   -1    0    0  501    0  0.00000000000E+00 -0.00000000000E+00 -0.40136186902E+02  0.40136186902E+02  0.00000000000E+00 0. -1.
         25    1    1    2    0    0  0.83868904236E+02 -0.10669817764E+03  0.43116349167E+03  0.46767558282E+03  0.12000000000E+03 0.  0.
         25    1    1    2    0    0 -0.83868904236E+02  0.10669817764E+03  0.35310023142E+03  0.39686051408E+03  0.12000000000E+03 0.  0.
<mgrwt>
<rscale>  0 0.36380362E+03</rscale>
<asrwt>0</asrwt>
<pdfrwt beam="1">  1        3 0.61747986E-02 0.36380362E+03</pdfrwt>
<pdfrwt beam="2">  1       -3 0.12683074E+00 0.36380362E+03</pdfrwt>
<totfact> 0.21698968E+02</totfact>
</mgrwt>
</event>
<event>
 4    1  0.1759998E-004  0.3210675E+03  0.7818608E-02  0.1075159E+00
          2   -1    0    0  501    0  0.00000000000E+00  0.00000000000E+00  0.40945453323E+03  0.40945453323E+03  0.00000000000E+00 0. -1.
         -2   -1    0    0    0  501 -0.00000000000E+00 -0.00000000000E+00 -0.62940052021E+02  0.62940052021E+02  0.00000000000E+00 0. -1.
         25    1    1    2    0    0  0.61357577330E+02  0.36029549819E+02  0.56398404396E+02  0.15047810729E+03  0.12000000000E+03 0.  0.
         25    1    1    2    0    0 -0.61357577330E+02 -0.36029549819E+02  0.29011607681E+03  0.32191647795E+03  0.12000000000E+03 0.  0.
<mgrwt>
<rscale>  0 0.32106753E+03</rscale>
<asrwt>0</asrwt>
<pdfrwt beam="1">  1        2 0.62993004E-01 0.32106753E+03</pdfrwt>
<pdfrwt beam="2">  1       -2 0.96830852E-02 0.32106753E+03</pdfrwt>
<totfact> 0.54396377E+03</totfact>
</mgrwt>
</event>
<event>
 4    1  0.1759998E-004  0.2469419E+03  0.7818608E-02  0.1115253E+00
         -2   -1    0    0    0  501 -0.00000000000E+00  0.00000000000E+00  0.21481142488E+02  0.21481142488E+02  0.00000000000E+00 0. -1.
          2   -1    0    0  501    0  0.00000000000E+00 -0.00000000000E+00 -0.70969598323E+03  0.70969598323E+03  0.00000000000E+00 0. -1.
         25    1    1    2    0    0  0.15329622346E+02 -0.16825166388E+02 -0.29056480032E+03  0.31519198393E+03  0.12000000000E+03 0.  0.
         25    1    1    2    0    0 -0.15329622346E+02  0.16825166388E+02 -0.39765004042E+03  0.41598514179E+03  0.12000000000E+03 0.  0.
<mgrwt>
<rscale>  0 0.24694194E+03</rscale>
<asrwt>0</asrwt>
<pdfrwt beam="1">  1        2 0.10918398E+00 0.24694194E+03</pdfrwt>
<pdfrwt beam="2">  1       -2 0.33047917E-02 0.24694194E+03</pdfrwt>
<totfact> 0.14954603E+04</totfact>
</mgrwt>
</event>
<event>
 4    1  0.1759998E-004  0.2719559E+03  0.7818608E-02  0.1100165E+00
          2   -1    0    0  501    0  0.00000000000E+00  0.00000000000E+00  0.16326126289E+04  0.16326126289E+04  0.00000000000E+00 0.  1.
         -2   -1    0    0    0  501 -0.00000000000E+00 -0.00000000000E+00 -0.11325403077E+02  0.11325403077E+02  0.00000000000E+00 0.  1.
         25    1    1    2    0    0 -0.19931147046E+02  0.59110343316E+02  0.89585545169E+03  0.90600677350E+03  0.12000000000E+03 0.  0.
         25    1    1    2    0    0  0.19931147046E+02 -0.59110343316E+02  0.72543177408E+03  0.73793125842E+03  0.12000000000E+03 0.  0.
<mgrwt>
<rscale>  0 0.27195585E+03</rscale>
<asrwt>0</asrwt>
<pdfrwt beam="1">  1        2 0.25117099E+00 0.27195585E+03</pdfrwt>
<pdfrwt beam="2">  1       -2 0.17423710E-02 0.27195585E+03</pdfrwt>
<totfact> 0.10979045E+04</totfact>
</mgrwt>
</event>
<event>
 4    1  0.1759998E-004  0.3808668E+03  0.7818608E-02  0.1050614E+00
         -2   -1    0    0    0  501 -0.00000000000E+00  0.00000000000E+00  0.37342806599E+03  0.37342806599E+03  0.00000000000E+00 0.  1.
          2   -1    0    0  501    0  0.00000000000E+00 -0.00000000000E+00 -0.97113405253E+02  0.97113405253E+02  0.00000000000E+00 0.  1.
         25    1    1    2    0    0  0.76930553500E+02 -0.58748856014E+02  0.56820438672E-01  0.15417438624E+03  0.12000000000E+03 0.  0.
         25    1    1    2    0    0 -0.76930553500E+02  0.58748856014E+02  0.27625784030E+03  0.31636708500E+03  0.12000000000E+03 0.  0.
<mgrwt>
<rscale>  0 0.38086675E+03</rscale>
<asrwt>0</asrwt>
<pdfrwt beam="1">  1        2 0.14940524E-01 0.38086675E+03</pdfrwt>
<pdfrwt beam="2">  1       -2 0.57450471E-01 0.38086675E+03</pdfrwt>
<totfact> 0.11406598E+03</totfact>
</mgrwt>
</event>
<event>
 4    1  0.1759998E-004  0.3261799E+03  0.7818608E-02  0.1072840E+00
          2   -1    0    0  501    0  0.00000000000E+00  0.00000000000E+00  0.31801704175E+03  0.31801704175E+03  0.00000000000E+00 0. -1.
         -2   -1    0    0    0  501 -0.00000000000E+00 -0.00000000000E+00 -0.83638088318E+02  0.83638088318E+02  0.00000000000E+00 0. -1.
         25    1    1    2    0    0 -0.31692994924E+00  0.63540068964E+02  0.22843051023E+03  0.26574035977E+03  0.12000000000E+03 0.  0.
         25    1    1    2    0    0  0.31692994924E+00 -0.63540068964E+02  0.59484432057E+01  0.13591477030E+03  0.12000000000E+03 0.  0.
<mgrwt>
<rscale>  0 0.32617993E+03</rscale>
<asrwt>0</asrwt>
<pdfrwt beam="1">  1        2 0.48925698E-01 0.32617993E+03</pdfrwt>
<pdfrwt beam="2">  1       -2 0.12867398E-01 0.32617993E+03</pdfrwt>
<totfact> 0.45306985E+03</totfact>
</mgrwt>
</event>
<event>
 4    1  0.1759998E-004  0.2944296E+03  0.7818608E-02  0.1088059E+00
          2   -1    0    0  501    0  0.00000000000E+00  0.00000000000E+00  0.16976881989E+04  0.16976881989E+04  0.00000000000E+00 0. -1.
         -2   -1    0    0    0  501 -0.00000000000E+00 -0.00000000000E+00 -0.12765709609E+02  0.12765709609E+02  0.00000000000E+00 0. -1.
         25    1    1    2    0    0 -0.20780642260E+02 -0.71077186583E+02  0.10881365002E+04  0.10972350908E+04  0.12000000000E+03 0.  0.
         25    1    1    2    0    0  0.20780642260E+02  0.71077186583E+02  0.59678598910E+03  0.61321881766E+03  0.12000000000E+03 0.  0.
<mgrwt>
<rscale>  0 0.29442958E+03</rscale>
<asrwt>0</asrwt>
<pdfrwt beam="1">  1        2 0.26118262E+00 0.29442958E+03</pdfrwt>
<pdfrwt beam="2">  1       -2 0.19639567E-02 0.29442958E+03</pdfrwt>
<totfact> 0.85169931E+03</totfact>
</mgrwt>
</event>
<event>
 4    1  0.1759998E-004  0.3018031E+03  0.7818608E-02  0.1084343E+00
          2   -1    0    0  501    0  0.00000000000E+00  0.00000000000E+00  0.65834971572E+02  0.65834971572E+02  0.00000000000E+00 0. -1.
         -2   -1    0    0    0  501 -0.00000000000E+00 -0.00000000000E+00 -0.34588425516E+03  0.34588425516E+03  0.00000000000E+00 0. -1.
         25    1    1    2    0    0 -0.78940121862E+02 -0.23677455212E+01 -0.77003252631E+02  0.16299279117E+03  0.12000000000E+03 0.  0.
         25    1    1    2    0    0  0.78940121862E+02  0.23677455212E+01 -0.20304603095E+03  0.24872643556E+03  0.12000000000E+03 0.  0.
<mgrwt>
<rscale>  0 0.30180312E+03</rscale>
<asrwt>0</asrwt>
<pdfrwt beam="1">  1        2 0.10128457E-01 0.30180312E+03</pdfrwt>
<pdfrwt beam="2">  1       -2 0.53212961E-01 0.30180312E+03</pdfrwt>
<totfact> 0.21371933E+03</totfact>
</mgrwt>
</event>
<event>
 4    1  0.1759998E-004  0.2884713E+03  0.7818608E-02  0.1091150E+00
          1   -1    0    0  501    0  0.00000000000E+00  0.00000000000E+00  0.13911312876E+04  0.13911312876E+04  0.00000000000E+00 0. -1.
         -1   -1    0    0    0  501 -0.00000000000E+00 -0.00000000000E+00 -0.14954678631E+02  0.14954678631E+02  0.00000000000E+00 0. -1.
         25    1    1    2    0    0 -0.62905672385E+02 -0.25444392634E+02  0.48132627133E+03  0.50067905908E+03  0.12000000000E+03 0.  0.
         25    1    1    2    0    0  0.62905672385E+02  0.25444392634E+02  0.89485033766E+03  0.90540690717E+03  0.12000000000E+03 0.  0.
<mgrwt>
<rscale>  0 0.28847129E+03</rscale>
<asrwt>0</asrwt>
<pdfrwt beam="1">  1        1 0.21402010E+00 0.28847129E+03</pdfrwt>
<pdfrwt beam="2">  1       -1 0.23007209E-02 0.28847129E+03</pdfrwt>
<totfact> 0.47270997E+03</totfact>
</mgrwt>
</event>
<event>
 4    1  0.1759998E-004  0.5584271E+03  0.7818608E-02  0.9995620E-01
         -2   -1    0    0    0  501 -0.00000000000E+00  0.00000000000E+00  0.26321969649E+03  0.26321969649E+03  0.00000000000E+00 0. -1.
          2   -1    0    0  501    0  0.00000000000E+00 -0.00000000000E+00 -0.29617919763E+03  0.29617919763E+03  0.00000000000E+00 0. -1.
         25    1    1    2    0    0  0.11100025532E+03  0.15937039008E+03 -0.17750843620E+03  0.28918717613E+03  0.12000000000E+03 0.  0.
         25    1    1    2    0    0 -0.11100025532E+03 -0.15937039008E+03  0.14454893506E+03  0.27021171799E+03  0.12000000000E+03 0.  0.
<mgrwt>
<rscale>  0 0.55842707E+03</rscale>
<asrwt>0</asrwt>
<pdfrwt beam="1">  1        2 0.45566030E-01 0.55842707E+03</pdfrwt>
<pdfrwt beam="2">  1       -2 0.40495338E-01 0.55842707E+03</pdfrwt>
<totfact> 0.64708605E+02</totfact>
</mgrwt>
</event>
<event>
 4    1  0.1759998E-004  0.3343994E+03  0.7818608E-02  0.1069207E+00
         -1   -1    0    0    0  501 -0.00000000000E+00  0.00000000000E+00  0.15634833136E+03  0.15634833136E+03  0.00000000000E+00 0.  1.
          1   -1    0    0  501    0  0.00000000000E+00 -0.00000000000E+00 -0.17880421716E+03  0.17880421716E+03  0.00000000000E+00 0.  1.
         25    1    1    2    0    0  0.81547373206E+02  0.40640677073E+02 -0.83876382059E+02  0.17244386384E+03  0.12000000000E+03 0.  0.
         25    1    1    2    0    0 -0.81547373206E+02 -0.40640677073E+02  0.61420496259E+02  0.16270868468E+03  0.12000000000E+03 0.  0.
<mgrwt>
<rscale>  0 0.33439941E+03</rscale>
<asrwt>0</asrwt>
<pdfrwt beam="1">  1        1 0.27508341E-01 0.33439941E+03</pdfrwt>
<pdfrwt beam="2">  1       -1 0.24053589E-01 0.33439941E+03</pdfrwt>
<totfact> 0.25191012E+03</totfact>
</mgrwt>
</event>
<event>
 4    1  0.1759998E-004  0.2745372E+03  0.7818608E-02  0.1098711E+00
          2   -1    0    0  501    0  0.00000000000E+00  0.00000000000E+00  0.27441253229E+03  0.27441253229E+03  0.00000000000E+00 0. -1.
         -2   -1    0    0    0  501 -0.00000000000E+00 -0.00000000000E+00 -0.68665481745E+02  0.68665481745E+02  0.00000000000E+00 0. -1.
         25    1    1    2    0    0  0.38571093700E+02  0.54030852390E+02  0.11033038560E+03  0.17601095496E+03  0.12000000000E+03 0.  0.
         25    1    1    2    0    0 -0.38571093700E+02 -0.54030852390E+02  0.95416664947E+02  0.16706705908E+03  0.12000000000E+03 0.  0.
<mgrwt>
<rscale>  0 0.27453720E+03</rscale>
<asrwt>0</asrwt>
<pdfrwt beam="1">  1        2 0.42217312E-01 0.27453720E+03</pdfrwt>
<pdfrwt beam="2">  1       -2 0.10563920E-01 0.27453720E+03</pdfrwt>
<totfact> 0.72647459E+03</totfact>
</mgrwt>
</event>
<event>
 4    1  0.1759998E-004  0.4873295E+03  0.7818608E-02  0.1017140E+00
          1   -1    0    0  501    0  0.00000000000E+00  0.00000000000E+00  0.95996279307E+03  0.95996279307E+03  0.00000000000E+00 0.  1.
         -1   -1    0    0    0  501 -0.00000000000E+00 -0.00000000000E+00 -0.61848756817E+02  0.61848756817E+02  0.00000000000E+00 0.  1.
         25    1    1    2    0    0  0.18357991253E+03  0.10583210749E+03  0.46666054984E+03  0.52637827467E+03  0.12000000000E+03 0.  0.
         25    1    1    2    0    0 -0.18357991253E+03 -0.10583210749E+03  0.43145348641E+03  0.49543327522E+03  0.12000000000E+03 0.  0.
<mgrwt>
<rscale>  0 0.48732948E+03</rscale>
<asrwt>0</asrwt>
<pdfrwt beam="1">  1        1 0.14768657E+00 0.48732948E+03</pdfrwt>
<pdfrwt beam="2">  1       -1 0.95151941E-02 0.48732948E+03</pdfrwt>
<totfact> 0.11250431E+03</totfact>
</mgrwt>
</event>
<event>
 4    1  0.1759998E-004  0.3008145E+03  0.7818608E-02  0.1084834E+00
          2   -1    0    0  501    0  0.00000000000E+00  0.00000000000E+00  0.14674951155E+04  0.14674951155E+04  0.00000000000E+00 0.  1.
         -2   -1    0    0    0  501 -0.00000000000E+00 -0.00000000000E+00 -0.15415612563E+02  0.15415612563E+02  0.00000000000E+00 0.  1.
         25    1    1    2    0    0  0.54134254274E+02 -0.68973481327E+02  0.84000724860E+03  0.85305336076E+03  0.12000000000E+03 0.  0.
         25    1    1    2    0    0 -0.54134254274E+02  0.68973481327E+02  0.61207225438E+03  0.62985736734E+03  0.12000000000E+03 0.  0.
<mgrwt>
<rscale>  0 0.30081447E+03</rscale>
<asrwt>0</asrwt>
<pdfrwt beam="1">  1        2 0.22576837E+00 0.30081447E+03</pdfrwt>
<pdfrwt beam="2">  1       -2 0.23716339E-02 0.30081447E+03</pdfrwt>
<totfact> 0.85513933E+03</totfact>
</mgrwt>
</event>
<event>
 4    1  0.1759998E-004  0.2869077E+03  0.7818608E-02  0.1091975E+00
          1   -1    0    0  501    0  0.00000000000E+00  0.00000000000E+00  0.34415090010E+03  0.34415090010E+03  0.00000000000E+00 0. -1.
         -1   -1    0    0    0  501 -0.00000000000E+00 -0.00000000000E+00 -0.59796458018E+02  0.59796458018E+02  0.00000000000E+00 0. -1.
         25    1    1    2    0    0  0.76150693794E+02  0.17118041150E+02  0.15531328824E+03  0.21122067371E+03  0.12000000000E+03 0.  0.
         25    1    1    2    0    0 -0.76150693794E+02 -0.17118041150E+02  0.12904115384E+03  0.19272668441E+03  0.12000000000E+03 0.  0.
<mgrwt>
<rscale>  0 0.28690768E+03</rscale>
<asrwt>0</asrwt>
<pdfrwt beam="1">  1        1 0.52946292E-01 0.28690768E+03</pdfrwt>
<pdfrwt beam="2">  1       -1 0.91994552E-02 0.28690768E+03</pdfrwt>
<totfact> 0.50822039E+03</totfact>
</mgrwt>
</event>
<event>
 4    1  0.1759998E-004  0.3242894E+03  0.7818608E-02  0.1073692E+00
          1   -1    0    0  501    0  0.00000000000E+00  0.00000000000E+00  0.11422225365E+04  0.11422225365E+04  0.00000000000E+00 0.  1.
         -1   -1    0    0    0  501 -0.00000000000E+00 -0.00000000000E+00 -0.23017326919E+02  0.23017326919E+02  0.00000000000E+00 0.  1.
         25    1    1    2    0    0  0.53716269911E+02  0.93235985529E+02  0.62312449990E+03  0.64363229334E+03  0.12000000000E+03 0.  0.
         25    1    1    2    0    0 -0.53716269911E+02 -0.93235985529E+02  0.49608070970E+03  0.52160757010E+03  0.12000000000E+03 0.  0.
<mgrwt>
<rscale>  0 0.32428944E+03</rscale>
<asrwt>0</asrwt>
<pdfrwt beam="1">  1        1 0.17572650E+00 0.32428944E+03</pdfrwt>
<pdfrwt beam="2">  1       -1 0.35411281E-02 0.32428944E+03</pdfrwt>
<totfact> 0.37188401E+03</totfact>
</mgrwt>
</event>
<event>
 4    1  0.1759998E-004  0.2811991E+03  0.7818608E-02  0.1095036E+00
         -1   -1    0    0    0  501 -0.00000000000E+00  0.00000000000E+00  0.26050871458E+02  0.26050871458E+02  0.00000000000E+00 0. -1.
          1   -1    0    0  501    0  0.00000000000E+00 -0.00000000000E+00 -0.75883168802E+03  0.75883168802E+03  0.00000000000E+00 0. -1.
         25    1    1    2    0    0 -0.45907871817E+02  0.41334904236E+02 -0.47635514533E+03  0.49510638401E+03  0.12000000000E+03 0.  0.
         25    1    1    2    0    0  0.45907871817E+02 -0.41334904236E+02 -0.25642567123E+03  0.28977617547E+03  0.12000000000E+03 0.  0.
<mgrwt>
<rscale>  0 0.28119905E+03</rscale>
<asrwt>0</asrwt>
<pdfrwt beam="1">  1        1 0.11674332E+00 0.28119905E+03</pdfrwt>
<pdfrwt beam="2">  1       -1 0.40078269E-02 0.28119905E+03</pdfrwt>
<totfact> 0.61185029E+03</totfact>
</mgrwt>
</event>
<event>
 4    1  0.1759998E-004  0.2568860E+03  0.7818608E-02  0.1109029E+00
          2   -1    0    0  501    0  0.00000000000E+00  0.00000000000E+00  0.16539769222E+04  0.16539769222E+04  0.00000000000E+00 0.  1.
         -2   -1    0    0    0  501 -0.00000000000E+00 -0.00000000000E+00 -0.99745062092E+01  0.99745062092E+01  0.00000000000E+00 0.  1.
         25    1    1    2    0    0 -0.29411924830E+02  0.14360571300E+02  0.10295120157E+04  0.10369986875E+04  0.12000000000E+03 0.  0.
         25    1    1    2    0    0  0.29411924830E+02 -0.14360571300E+02  0.61449040030E+03  0.62695274095E+03  0.12000000000E+03 0.  0.
<mgrwt>
<rscale>  0 0.25688599E+03</rscale>
<asrwt>0</asrwt>
<pdfrwt beam="1">  1        2 0.25445777E+00 0.25688599E+03</pdfrwt>
<pdfrwt beam="2">  1       -2 0.15345407E-02 0.25688599E+03</pdfrwt>
<totfact> 0.12867567E+04</totfact>
</mgrwt>
</event>
<event>
 4    1  0.1759998E-004  0.2875882E+03  0.7818608E-02  0.1091615E+00
         -2   -1    0    0    0  501 -0.00000000000E+00  0.00000000000E+00  0.11387878199E+02  0.11387878199E+02  0.00000000000E+00 0. -1.
          2   -1    0    0  501    0  0.00000000000E+00 -0.00000000000E+00 -0.18156798618E+04  0.18156798618E+04  0.00000000000E+00 0. -1.
         25    1    1    2    0    0 -0.11794908806E+02  0.24845467468E+02 -0.43012002297E+03  0.44739205545E+03  0.12000000000E+03 0.  0.
         25    1    1    2    0    0  0.11794908806E+02 -0.24845467468E+02 -0.13741719606E+04  0.13796756845E+04  0.12000000000E+03 0.  0.
<mgrwt>
<rscale>  0 0.28758819E+03</rscale>
<asrwt>0</asrwt>
<pdfrwt beam="1">  1        2 0.27933523E+00 0.28758819E+03</pdfrwt>
<pdfrwt beam="2">  1       -2 0.17519821E-02 0.28758819E+03</pdfrwt>
<totfact> 0.87295999E+03</totfact>
</mgrwt>
</event>
<event>
 4    1  0.1759998E-004  0.2723427E+03  0.7818608E-02  0.1099946E+00
         -1   -1    0    0    0  501 -0.00000000000E+00  0.00000000000E+00  0.16318433573E+03  0.16318433573E+03  0.00000000000E+00 0. -1.
          1   -1    0    0  501    0  0.00000000000E+00 -0.00000000000E+00 -0.11362998503E+03  0.11362998503E+03  0.00000000000E+00 0. -1.
         25    1    1    2    0    0  0.25080726995E+02  0.42269615451E+02  0.67015114349E+02  0.14596845141E+03  0.12000000000E+03 0.  0.
         25    1    1    2    0    0 -0.25080726995E+02 -0.42269615451E+02 -0.17460763652E+02  0.13084586934E+03  0.12000000000E+03 0.  0.
<mgrwt>
<rscale>  0 0.27234268E+03</rscale>
<asrwt>0</asrwt>
<pdfrwt beam="1">  1        1 0.17481536E-01 0.27234268E+03</pdfrwt>
<pdfrwt beam="2">  1       -1 0.25105282E-01 0.27234268E+03</pdfrwt>
<totfact> 0.41827452E+03</totfact>
</mgrwt>
</event>
<event>
 4    1  0.1759998E-004  0.3262154E+03  0.7818608E-02  0.1072824E+00
          2   -1    0    0  501    0  0.00000000000E+00  0.00000000000E+00  0.14906078908E+03  0.14906078908E+03  0.00000000000E+00 0. -1.
         -2   -1    0    0    0  501 -0.00000000000E+00 -0.00000000000E+00 -0.17847832656E+03  0.17847832656E+03  0.00000000000E+00 0. -1.
         25    1    1    2    0    0 -0.91202032238E+01  0.96385565409E+02 -0.68129597855E+02  0.16856748628E+03  0.12000000000E+03 0.  0.
         25    1    1    2    0    0  0.91202032238E+01 -0.96385565409E+02  0.38712060376E+02  0.15897162937E+03  0.12000000000E+03 0.  0.
<mgrwt>
<rscale>  0 0.32621539E+03</rscale>
<asrwt>0</asrwt>
<pdfrwt beam="1">  1        2 0.22932429E-01 0.32621539E+03</pdfrwt>
<pdfrwt beam="2">  1       -2 0.27458204E-01 0.32621539E+03</pdfrwt>
<totfact> 0.28565024E+03</totfact>
</mgrwt>
</event>
<event>
 4    1  0.1759998E-004  0.2782627E+03  0.7818608E-02  0.1096642E+00
          1   -1    0    0  501    0  0.00000000000E+00  0.00000000000E+00  0.26321435489E+04  0.26321435489E+04  0.00000000000E+00 0. -1.
         -1   -1    0    0    0  501 -0.00000000000E+00 -0.00000000000E+00 -0.73542835837E+01  0.73542835837E+01  0.00000000000E+00 0. -1.
         25    1    1    2    0    0  0.41719172286E+02  0.56537323748E+02  0.13554177887E+04  0.13625323263E+04  0.12000000000E+03 0.  0.
         25    1    1    2    0    0 -0.41719172286E+02 -0.56537323748E+02  0.12693714766E+04  0.12769655062E+04  0.12000000000E+03 0.  0.
<mgrwt>
<rscale>  0 0.27826268E+03</rscale>
<asrwt>0</asrwt>
<pdfrwt beam="1">  1        1 0.40494441E+00 0.27826268E+03</pdfrwt>
<pdfrwt beam="2">  1       -1 0.11314303E-02 0.27826268E+03</pdfrwt>
<totfact> 0.20341575E+03</totfact>
</mgrwt>
</event>
<event>
 4    1  0.1759998E-004  0.3240180E+03  0.7818608E-02  0.1073815E+00
          2   -1    0    0  501    0  0.00000000000E+00  0.00000000000E+00  0.28631862238E+04  0.28631862238E+04  0.00000000000E+00 0.  1.
         -2   -1    0    0    0  501 -0.00000000000E+00 -0.00000000000E+00 -0.91670306685E+01  0.91670306685E+01  0.00000000000E+00 0.  1.
         25    1    1    2    0    0  0.10945289133E+02 -0.78218582038E+02  0.20909212212E+04  0.20958505431E+04  0.12000000000E+03 0.  0.
         25    1    1    2    0    0 -0.10945289133E+02  0.78218582038E+02  0.76309797198E+03  0.77650271137E+03  0.12000000000E+03 0.  0.
<mgrwt>
<rscale>  0 0.32401800E+03</rscale>
<asrwt>0</asrwt>
<pdfrwt beam="1">  1        2 0.44048948E+00 0.32401800E+03</pdfrwt>
<pdfrwt beam="2">  1       -2 0.14103147E-02 0.32401800E+03</pdfrwt>
<totfact> 0.32228705E+03</totfact>
</mgrwt>
</event>
<event>
 4    1  0.1759998E-004  0.3648606E+03  0.7818608E-02  0.1056676E+00
         -1   -1    0    0    0  501 -0.00000000000E+00  0.00000000000E+00  0.18142161950E+02  0.18142161950E+02  0.00000000000E+00 0. -1.
          1   -1    0    0  501    0  0.00000000000E+00 -0.00000000000E+00 -0.18344462546E+04  0.18344462546E+04  0.00000000000E+00 0. -1.
         25    1    1    2    0    0  0.63629658580E+02  0.12167537009E+03 -0.93462922679E+03  0.95225281344E+03  0.12000000000E+03 0.  0.
         25    1    1    2    0    0 -0.63629658580E+02 -0.12167537009E+03 -0.88167486586E+03  0.90033560311E+03  0.12000000000E+03 0.  0.
<mgrwt>
<rscale>  0 0.36486064E+03</rscale>
<asrwt>0</asrwt>
<pdfrwt beam="1">  1        1 0.28222242E+00 0.36486064E+03</pdfrwt>
<pdfrwt beam="2">  1       -1 0.27911026E-02 0.36486064E+03</pdfrwt>
<totfact> 0.18068958E+03</totfact>
</mgrwt>
</event>
<event>
 4    1  0.1759998E-004  0.2695340E+03  0.7818608E-02  0.1101547E+00
          1   -1    0    0  501    0  0.00000000000E+00  0.00000000000E+00  0.43556634785E+03  0.43556634785E+03  0.00000000000E+00 0. -1.
         -1   -1    0    0    0  501 -0.00000000000E+00 -0.00000000000E+00 -0.41697763478E+02  0.41697763478E+02  0.00000000000E+00 0. -1.
         25    1    1    2    0    0  0.58461550209E+02  0.26647372794E+01  0.22945397119E+03  0.26546935525E+03  0.12000000000E+03 0.  0.
         25    1    1    2    0    0 -0.58461550209E+02 -0.26647372794E+01  0.16441461317E+03  0.21179475608E+03  0.12000000000E+03 0.  0.
<mgrwt>
<rscale>  0 0.26953399E+03</rscale>
<asrwt>0</asrwt>
<pdfrwt beam="1">  1        1 0.67010204E-01 0.26953399E+03</pdfrwt>
<pdfrwt beam="2">  1       -1 0.64150408E-02 0.26953399E+03</pdfrwt>
<totfact> 0.65022026E+03</totfact>
</mgrwt>
</event>
<event>
 4    1  0.1759998E-004  0.3201342E+03  0.7818608E-02  0.1075588E+00
         -2   -1    0    0    0  501 -0.00000000000E+00  0.00000000000E+00  0.16545299602E+02  0.16545299602E+02  0.00000000000E+00 0. -1.
          2   -1    0    0  501    0  0.00000000000E+00 -0.00000000000E+00 -0.15485657289E+04  0.15485657289E+04  0.00000000000E+00 0. -1.
         25    1    1    2    0    0 -0.33815609341E+01 -0.79505690301E+02 -0.11078466377E+04  0.11171646084E+04  0.12000000000E+03 0.  0.
         25    1    1    2    0    0  0.33815609341E+01  0.79505690301E+02 -0.42417379160E+03  0.44794642004E+03  0.12000000000E+03 0.  0.
<mgrwt>
<rscale>  0 0.32013425E+03</rscale>
<asrwt>0</asrwt>
<pdfrwt beam="1">  1        2 0.23824094E+00 0.32013425E+03</pdfrwt>
<pdfrwt beam="2">  1       -2 0.25454301E-02 0.32013425E+03</pdfrwt>
<totfact> 0.69692433E+03</totfact>
</mgrwt>
</event>
<event>
 4    1  0.1759998E-004  0.2668101E+03  0.7818608E-02  0.1103119E+00
         -1   -1    0    0    0  501 -0.00000000000E+00  0.00000000000E+00  0.17601344404E+04  0.17601344404E+04  0.00000000000E+00 0. -1.
          1   -1    0    0  501    0  0.00000000000E+00 -0.00000000000E+00 -0.10111105930E+02  0.10111105930E+02  0.00000000000E+00 0. -1.
         25    1    1    2    0    0  0.38535448688E+02  0.41071210969E+02  0.77547105731E+03  0.78671925482E+03  0.12000000000E+03 0.  0.
         25    1    1    2    0    0 -0.38535448688E+02 -0.41071210969E+02  0.97455227713E+03  0.98352629149E+03  0.12000000000E+03 0.  0.
<mgrwt>
<rscale>  0 0.26681009E+03</rscale>
<asrwt>0</asrwt>
<pdfrwt beam="1">  1        1 0.15555562E-02 0.26681009E+03</pdfrwt>
<pdfrwt beam="2">  1       -1 0.27078967E+00 0.26681009E+03</pdfrwt>
<totfact> 0.50784706E+02</totfact>
</mgrwt>
</event>
<event>
 4    1  0.1759998E-004  0.2659031E+03  0.7818608E-02  0.1103648E+00
         -2   -1    0    0    0  501 -0.00000000000E+00  0.00000000000E+00  0.37173817995E+02  0.37173817995E+02  0.00000000000E+00 0. -1.
          2   -1    0    0  501    0  0.00000000000E+00 -0.00000000000E+00 -0.47549913420E+03  0.47549913420E+03  0.00000000000E+00 0. -1.
         25    1    1    2    0    0 -0.63647657684E+01 -0.44951639868E+02 -0.28636704307E+03  0.31379490679E+03  0.12000000000E+03 0.  0.
         25    1    1    2    0    0  0.63647657684E+01  0.44951639868E+02 -0.15195827313E+03  0.19887804541E+03  0.12000000000E+03 0.  0.
<mgrwt>
<rscale>  0 0.26590313E+03</rscale>
<asrwt>0</asrwt>
<pdfrwt beam="1">  1        2 0.73153715E-01 0.26590313E+03</pdfrwt>
<pdfrwt beam="2">  1       -2 0.57190488E-02 0.26590313E+03</pdfrwt>
<totfact> 0.10415040E+04</totfact>
</mgrwt>
</event>
<event>
 4    1  0.1759998E-004  0.3091116E+03  0.7818608E-02  0.1080772E+00
         -1   -1    0    0    0  501 -0.00000000000E+00  0.00000000000E+00  0.23483524201E+03  0.23483524201E+03  0.00000000000E+00 0.  1.
          1   -1    0    0  501    0  0.00000000000E+00 -0.00000000000E+00 -0.10172021937E+03  0.10172021937E+03  0.00000000000E+00 0.  1.
         25    1    1    2    0    0 -0.60173985660E+02  0.70036971338E+02  0.32798099056E+02  0.15492514711E+03  0.12000000000E+03 0.  0.
         25    1    1    2    0    0  0.60173985660E+02 -0.70036971338E+02  0.10031692358E+03  0.18163031427E+03  0.12000000000E+03 0.  0.
<mgrwt>
<rscale>  0 0.30911158E+03</rscale>
<asrwt>0</asrwt>
<pdfrwt beam="1">  1        1 0.15649265E-01 0.30911158E+03</pdfrwt>
<pdfrwt beam="2">  1       -1 0.36128499E-01 0.30911158E+03</pdfrwt>
<totfact> 0.26061993E+03</totfact>
</mgrwt>
</event>
<event>
 4    1  0.1759998E-004  0.2622409E+03  0.7818608E-02  0.1105804E+00
         -2   -1    0    0    0  501 -0.00000000000E+00  0.00000000000E+00  0.18414735816E+02  0.18414735816E+02  0.00000000000E+00 0. -1.
          2   -1    0    0  501    0  0.00000000000E+00 -0.00000000000E+00 -0.93363101959E+03  0.93363101959E+03  0.00000000000E+00 0. -1.
         25    1    1    2    0    0  0.23745221116E+01  0.51596164769E+02 -0.49815951560E+03  0.51500553934E+03  0.12000000000E+03 0.  0.
         25    1    1    2    0    0 -0.23745221116E+01 -0.51596164769E+02 -0.41705676817E+03  0.43704021606E+03  0.12000000000E+03 0.  0.
<mgrwt>
<rscale>  0 0.26224087E+03</rscale>
<asrwt>0</asrwt>
<pdfrwt beam="1">  1        2 0.14363554E+00 0.26224087E+03</pdfrwt>
<pdfrwt beam="2">  1       -2 0.28330364E-02 0.26224087E+03</pdfrwt>
<totfact> 0.13265174E+04</totfact>
</mgrwt>
</event>
<event>
 4    1  0.1759998E-004  0.2624831E+03  0.7818608E-02  0.1105660E+00
          1   -1    0    0  501    0  0.00000000000E+00  0.00000000000E+00  0.26309234636E+04  0.26309234636E+04  0.00000000000E+00 0.  1.
         -1   -1    0    0    0  501 -0.00000000000E+00 -0.00000000000E+00 -0.65468803850E+01  0.65468803850E+01  0.00000000000E+00 0.  1.
         25    1    1    2    0    0 -0.11650910154E+02  0.25857840637E+02  0.17637932428E+04  0.17680981237E+04  0.12000000000E+03 0.  0.
         25    1    1    2    0    0  0.11650910154E+02 -0.25857840637E+02  0.86058334038E+03  0.86937222026E+03  0.12000000000E+03 0.  0.
<mgrwt>
<rscale>  0 0.26248308E+03</rscale>
<asrwt>0</asrwt>
<pdfrwt beam="1">  1        1 0.40475661E+00 0.26248308E+03</pdfrwt>
<pdfrwt beam="2">  1       -1 0.10072145E-02 0.26248308E+03</pdfrwt>
<totfact> 0.24145132E+03</totfact>
</mgrwt>
</event>
<event>
 4    1  0.1759998E-004  0.2609159E+03  0.7818608E-02  0.1106594E+00
          2   -1    0    0  501    0  0.00000000000E+00  0.00000000000E+00  0.17327295350E+03  0.17327295350E+03  0.00000000000E+00 0.  1.
         -2   -1    0    0    0  501 -0.00000000000E+00 -0.00000000000E+00 -0.98222385270E+02  0.98222385270E+02  0.00000000000E+00 0.  1.
         25    1    1    2    0    0 -0.17831847845E+02  0.44549704542E+02  0.56040937232E+02  0.14086602720E+03  0.12000000000E+03 0.  0.
         25    1    1    2    0    0  0.17831847845E+02 -0.44549704542E+02  0.19009631003E+02  0.13062931158E+03  0.12000000000E+03 0.  0.
<mgrwt>
<rscale>  0 0.26091595E+03</rscale>
<asrwt>0</asrwt>
<pdfrwt beam="1">  1        2 0.26657377E-01 0.26091595E+03</pdfrwt>
<pdfrwt beam="2">  1       -2 0.15111136E-01 0.26091595E+03</pdfrwt>
<totfact> 0.66922105E+03</totfact>
</mgrwt>
</event>
<event>
 4    1  0.1759998E-004  0.2643828E+03  0.7818608E-02  0.1104538E+00
          1   -1    0    0  501    0  0.00000000000E+00  0.00000000000E+00  0.66802625939E+02  0.66802625939E+02  0.00000000000E+00 0. -1.
         -1   -1    0    0    0  501 -0.00000000000E+00 -0.00000000000E+00 -0.26158494311E+03  0.26158494311E+03  0.00000000000E+00 0. -1.
         25    1    1    2    0    0 -0.24614263986E+01 -0.25290212930E+02 -0.36175986735E+02  0.12788414877E+03  0.12000000000E+03 0.  0.
         25    1    1    2    0    0  0.24614263986E+01  0.25290212930E+02 -0.15860633044E+03  0.20050342028E+03  0.12000000000E+03 0.  0.
<mgrwt>
<rscale>  0 0.26438276E+03</rscale>
<asrwt>0</asrwt>
<pdfrwt beam="1">  1        1 0.10277327E-01 0.26438276E+03</pdfrwt>
<pdfrwt beam="2">  1       -1 0.40243838E-01 0.26438276E+03</pdfrwt>
<totfact> 0.37509185E+03</totfact>
</mgrwt>
</event>
<event>
 4    1  0.1759998E-004  0.2798366E+03  0.7818608E-02  0.1095778E+00
          2   -1    0    0  501    0  0.00000000000E+00  0.00000000000E+00  0.68550858409E+02  0.68550858409E+02  0.00000000000E+00 0. -1.
         -2   -1    0    0    0  501 -0.00000000000E+00 -0.00000000000E+00 -0.28558557656E+03  0.28558557656E+03  0.00000000000E+00 0. -1.
         25    1    1    2    0    0  0.46496196724E+02  0.31039806663E+02 -0.16584055876E+03  0.21219909716E+03  0.12000000000E+03 0.  0.
         25    1    1    2    0    0 -0.46496196724E+02 -0.31039806663E+02 -0.51194159393E+02  0.14193733781E+03  0.12000000000E+03 0.  0.
<mgrwt>
<rscale>  0 0.27983664E+03</rscale>
<asrwt>0</asrwt>
<pdfrwt beam="1">  1        2 0.10546286E-01 0.27983664E+03</pdfrwt>
<pdfrwt beam="2">  1       -2 0.43936242E-01 0.27983664E+03</pdfrwt>
<totfact> 0.29672197E+03</totfact>
</mgrwt>
</event>
<event>
 4    1  0.1759998E-004  0.3739173E+03  0.7818608E-02  0.1053205E+00
         -2   -1    0    0    0  501 -0.00000000000E+00  0.00000000000E+00  0.49858763753E+02  0.49858763753E+02  0.00000000000E+00 0.  1.
          2   -1    0    0  501    0  0.00000000000E+00 -0.00000000000E+00 -0.70105092126E+03  0.70105092126E+03  0.00000000000E+00 0.  1.
         25    1    1    2    0    0  0.21676829642E+02 -0.11602321262E+03 -0.48901989072E+03  0.51717668579E+03  0.12000000000E+03 0.  0.
         25    1    1    2    0    0 -0.21676829642E+02  0.11602321262E+03 -0.16217226679E+03  0.23373299922E+03  0.12000000000E+03 0.  0.
<mgrwt>
<rscale>  0 0.37391728E+03</rscale>
<asrwt>0</asrwt>
<pdfrwt beam="1">  1        2 0.10785398E+00 0.37391728E+03</pdfrwt>
<pdfrwt beam="2">  1       -2 0.76705797E-02 0.37391728E+03</pdfrwt>
<totfact> 0.42499759E+03</totfact>
</mgrwt>
</event>
<event>
 4    1  0.1759998E-004  0.2672155E+03  0.7818608E-02  0.1102884E+00
          2   -1    0    0  501    0  0.00000000000E+00  0.00000000000E+00  0.14470860553E+04  0.14470860553E+04  0.00000000000E+00 0.  1.
         -2   -1    0    0    0  501 -0.00000000000E+00 -0.00000000000E+00 -0.12335850681E+02  0.12335850681E+02  0.00000000000E+00 0.  1.
         25    1    1    2    0    0 -0.57389135096E+02 -0.11617653285E+02  0.69143697134E+03  0.70421130922E+03  0.12000000000E+03 0.  0.
         25    1    1    2    0    0  0.57389135096E+02  0.11617653285E+02  0.74331323326E+03  0.75521059674E+03  0.12000000000E+03 0.  0.
<mgrwt>
<rscale>  0 0.26721555E+03</rscale>
<asrwt>0</asrwt>
<pdfrwt beam="1">  1        2 0.22262849E+00 0.26721555E+03</pdfrwt>
<pdfrwt beam="2">  1       -2 0.18978243E-02 0.26721555E+03</pdfrwt>
<totfact> 0.12155895E+04</totfact>
</mgrwt>
</event>
<event>
 4    1  0.1759998E-004  0.3733964E+03  0.7818608E-02  0.1053402E+00
          2   -1    0    0  501    0  0.00000000000E+00  0.00000000000E+00  0.96096113282E+03  0.96096113282E+03  0.00000000000E+00 0.  1.
         -2   -1    0    0    0  501 -0.00000000000E+00 -0.00000000000E+00 -0.36272237221E+02  0.36272237221E+02  0.00000000000E+00 0.  1.
         25    1    1    2    0    0  0.63513274498E+02  0.28318355434E+02  0.79613345779E+03  0.80812396815E+03  0.12000000000E+03 0.  0.
         25    1    1    2    0    0 -0.63513274498E+02 -0.28318355434E+02  0.12855543781E+03  0.18910940189E+03  0.12000000000E+03 0.  0.
<mgrwt>
<rscale>  0 0.37339636E+03</rscale>
<asrwt>0</asrwt>
<pdfrwt beam="1">  1        2 0.14784016E+00 0.37339636E+03</pdfrwt>
<pdfrwt beam="2">  1       -2 0.55803449E-02 0.37339636E+03</pdfrwt>
<totfact> 0.46161655E+03</totfact>
</mgrwt>
</event>
<event>
 4    1  0.1759998E-004  0.4650374E+03  0.7818608E-02  0.1023330E+00
         -4   -1    0    0    0  501 -0.00000000000E+00  0.00000000000E+00  0.41702791538E+02  0.41702791538E+02  0.00000000000E+00 0. -1.
          4   -1    0    0  501    0  0.00000000000E+00 -0.00000000000E+00 -0.12964348460E+04  0.12964348460E+04  0.00000000000E+00 0. -1.
         25    1    1    2    0    0  0.18747892862E+03  0.38736629022E+02 -0.78539404530E+03  0.81724701376E+03  0.12000000000E+03 0.  0.
         25    1    1    2    0    0 -0.18747892862E+03 -0.38736629022E+02 -0.46933800921E+03  0.52089062383E+03  0.12000000000E+03 0.  0.
<mgrwt>
<rscale>  0 0.46503743E+03</rscale>
<asrwt>0</asrwt>
<pdfrwt beam="1">  1        4 0.19945150E+00 0.46503743E+03</pdfrwt>
<pdfrwt beam="2">  1       -4 0.64158144E-02 0.46503743E+03</pdfrwt>
<totfact> 0.44260880E+01</totfact>
</mgrwt>
</event>
<event>
 4    1  0.1759998E-004  0.2622682E+03  0.7818608E-02  0.1105788E+00
          2   -1    0    0  501    0  0.00000000000E+00  0.00000000000E+00  0.62869156320E+02  0.62869156320E+02  0.00000000000E+00 0.  1.
         -2   -1    0    0    0  501 -0.00000000000E+00 -0.00000000000E+00 -0.27352296469E+03  0.27352296469E+03  0.00000000000E+00 0.  1.
         25    1    1    2    0    0 -0.11840805982E+02  0.25875133640E+02 -0.48161033087E+02  0.13239793176E+03  0.12000000000E+03 0.  0.
         25    1    1    2    0    0  0.11840805982E+02 -0.25875133640E+02 -0.16249277528E+03  0.20399418924E+03  0.12000000000E+03 0.  0.
<mgrwt>
<rscale>  0 0.26226824E+03</rscale>
<asrwt>0</asrwt>
<pdfrwt beam="1">  1        2 0.96721780E-02 0.26226824E+03</pdfrwt>
<pdfrwt beam="2">  1       -2 0.42080456E-01 0.26226824E+03</pdfrwt>
<totfact> 0.35839576E+03</totfact>
</mgrwt>
</event>
<event>
 4    1  0.1759998E-004  0.2498009E+03  0.7818608E-02  0.1113431E+00
          1   -1    0    0  501    0  0.00000000000E+00  0.00000000000E+00  0.33842667691E+02  0.33842667691E+02  0.00000000000E+00 0.  1.
         -1   -1    0    0    0  501 -0.00000000000E+00 -0.00000000000E+00 -0.46096010493E+03  0.46096010493E+03  0.00000000000E+00 0.  1.
         25    1    1    2    0    0  0.25861512577E+02 -0.80971337986E+01 -0.25630606042E+03  0.28430121002E+03  0.12000000000E+03 0.  0.
         25    1    1    2    0    0 -0.25861512577E+02  0.80971337986E+01 -0.17081137682E+03  0.21050156260E+03  0.12000000000E+03 0.  0.
<mgrwt>
<rscale>  0 0.24980088E+03</rscale>
<asrwt>0</asrwt>
<pdfrwt beam="1">  1        1 0.52065640E-02 0.24980088E+03</pdfrwt>
<pdfrwt beam="2">  1       -1 0.70916943E-01 0.24980088E+03</pdfrwt>
<totfact> 0.32638283E+03</totfact>
</mgrwt>
</event>
<event>
 4    1  0.1759998E-004  0.2901283E+03  0.7818608E-02  0.1090282E+00
         -2   -1    0    0    0  501 -0.00000000000E+00  0.00000000000E+00  0.17324150600E+02  0.17324150600E+02  0.00000000000E+00 0.  1.
          2   -1    0    0  501    0  0.00000000000E+00 -0.00000000000E+00 -0.12146981324E+04  0.12146981324E+04  0.00000000000E+00 0.  1.
         25    1    1    2    0    0 -0.13738697772E+02  0.58567473795E+02 -0.83223193287E+03  0.84298807280E+03  0.12000000000E+03 0.  0.
         25    1    1    2    0    0  0.13738697772E+02 -0.58567473795E+02 -0.36514204889E+03  0.38903421016E+03  0.12000000000E+03 0.  0.
<mgrwt>
<rscale>  0 0.29012834E+03</rscale>
<asrwt>0</asrwt>
<pdfrwt beam="1">  1        2 0.18687672E+00 0.29012834E+03</pdfrwt>
<pdfrwt beam="2">  1       -2 0.26652527E-02 0.29012834E+03</pdfrwt>
<totfact> 0.99080740E+03</totfact>
</mgrwt>
</event>
<event>
 4    1  0.1759998E-004  0.2756311E+03  0.7818608E-02  0.1098099E+00
          1   -1    0    0  501    0  0.00000000000E+00  0.00000000000E+00  0.98094569067E+03  0.98094569067E+03  0.00000000000E+00 0. -1.
         -1   -1    0    0    0  501 -0.00000000000E+00 -0.00000000000E+00 -0.19362054648E+02  0.19362054648E+02  0.00000000000E+00 0. -1.
         25    1    1    2    0    0  0.57488732423E+01 -0.55271317279E+02  0.62158972279E+03  0.63550118138E+03  0.12000000000E+03 0.  0.
         25    1    1    2    0    0 -0.57488732423E+01  0.55271317279E+02  0.33999391323E+03  0.36480656394E+03  0.12000000000E+03 0.  0.
<mgrwt>
<rscale>  0 0.27563109E+03</rscale>
<asrwt>0</asrwt>
<pdfrwt beam="1">  1        1 0.15091468E+00 0.27563109E+03</pdfrwt>
<pdfrwt beam="2">  1       -1 0.29787784E-02 0.27563109E+03</pdfrwt>
<totfact> 0.62967498E+03</totfact>
</mgrwt>
</event>
<event>
 4    1  0.1759998E-004  0.3325289E+03  0.7818608E-02  0.1070023E+00
         -1   -1    0    0    0  501 -0.00000000000E+00  0.00000000000E+00  0.83800177720E+03  0.83800177720E+03  0.00000000000E+00 0.  1.
          1   -1    0    0  501    0  0.00000000000E+00 -0.00000000000E+00 -0.32987848300E+02  0.32987848300E+02  0.00000000000E+00 0.  1.
         25    1    1    2    0    0  0.52051691284E+02  0.52913888818E+02  0.63286477255E+03  0.64840348436E+03  0.12000000000E+03 0.  0.
         25    1    1    2    0    0 -0.52051691284E+02 -0.52913888818E+02  0.17214915635E+03  0.22258614114E+03  0.12000000000E+03 0.  0.
<mgrwt>
<rscale>  0 0.33252895E+03</rscale>
<asrwt>0</asrwt>
<pdfrwt beam="1">  1        1 0.50750542E-02 0.33252895E+03</pdfrwt>
<pdfrwt beam="2">  1       -1 0.12892333E+00 0.33252895E+03</pdfrwt>
<totfact> 0.90804859E+02</totfact>
</mgrwt>
</event>
<event>
 4    1  0.1759998E-004  0.3406351E+03  0.7818608E-02  0.1066526E+00
         -2   -1    0    0    0  501 -0.00000000000E+00  0.00000000000E+00  0.21661342654E+03  0.21661342654E+03  0.00000000000E+00 0. -1.
          2   -1    0    0  501    0  0.00000000000E+00 -0.00000000000E+00 -0.13391631590E+03  0.13391631590E+03  0.00000000000E+00 0. -1.
         25    1    1    2    0    0  0.42988021161E+02  0.54309007628E+02  0.14327431980E+03  0.19931123648E+03  0.12000000000E+03 0.  0.
         25    1    1    2    0    0 -0.42988021161E+02 -0.54309007628E+02 -0.60577209171E+02  0.15121850596E+03  0.12000000000E+03 0.  0.
<mgrwt>
<rscale>  0 0.34063512E+03</rscale>
<asrwt>0</asrwt>
<pdfrwt beam="1">  1        2 0.20602510E-01 0.34063512E+03</pdfrwt>
<pdfrwt beam="2">  1       -2 0.33325142E-01 0.34063512E+03</pdfrwt>
<totfact> 0.22681362E+03</totfact>
</mgrwt>
</event>
<event>
 4    1  0.1759998E-004  0.3168190E+03  0.7818608E-02  0.1077123E+00
         -2   -1    0    0    0  501 -0.00000000000E+00  0.00000000000E+00  0.22761999383E+02  0.22761999383E+02  0.00000000000E+00 0. -1.
          2   -1    0    0  501    0  0.00000000000E+00 -0.00000000000E+00 -0.11024326625E+04  0.11024326625E+04  0.00000000000E+00 0. -1.
         25    1    1    2    0    0  0.34438459676E+02 -0.84017010500E+02 -0.71558104981E+03  0.73123259255E+03  0.12000000000E+03 0.  0.
         25    1    1    2    0    0 -0.34438459676E+02  0.84017010500E+02 -0.36408961335E+03  0.39396206937E+03  0.12000000000E+03 0.  0.
<mgrwt>
<rscale>  0 0.31681901E+03</rscale>
<asrwt>0</asrwt>
<pdfrwt beam="1">  1        2 0.16960497E+00 0.31681901E+03</pdfrwt>
<pdfrwt beam="2">  1       -2 0.35018473E-02 0.31681901E+03</pdfrwt>
<totfact> 0.76671432E+03</totfact>
</mgrwt>
</event>
<event>
 4    1  0.1759998E-004  0.2558137E+03  0.7818608E-02  0.1109685E+00
         -2   -1    0    0    0  501 -0.00000000000E+00  0.00000000000E+00  0.64145471905E+03  0.64145471905E+03  0.00000000000E+00 0.  1.
          2   -1    0    0  501    0  0.00000000000E+00 -0.00000000000E+00 -0.25504785312E+02  0.25504785312E+02  0.00000000000E+00 0.  1.
         25    1    1    2    0    0  0.19946981151E+01  0.46051492631E+01  0.42266184299E+03  0.43939528871E+03  0.12000000000E+03 0.  0.
         25    1    1    2    0    0 -0.19946981151E+01 -0.46051492631E+01  0.19328809075E+03  0.22756421565E+03  0.12000000000E+03 0.  0.
<mgrwt>
<rscale>  0 0.25581372E+03</rscale>
<asrwt>0</asrwt>
<pdfrwt beam="1">  1        2 0.39238136E-02 0.25581372E+03</pdfrwt>
<pdfrwt beam="2">  1       -2 0.98685329E-01 0.25581372E+03</pdfrwt>
<totfact> 0.19158872E+03</totfact>
</mgrwt>
</event>
<event>
 4    1  0.1759998E-004  0.2589462E+03  0.7818608E-02  0.1107778E+00
         -3   -1    0    0    0  501 -0.00000000000E+00  0.00000000000E+00  0.19707875587E+03  0.19707875587E+03  0.00000000000E+00 0.  1.
          3   -1    0    0  501    0  0.00000000000E+00 -0.00000000000E+00 -0.85058775273E+02  0.85058775273E+02  0.00000000000E+00 0.  1.
         25    1    1    2    0    0  0.46657515777E+02  0.11551722391E+02  0.63935488810E+02  0.14421550817E+03  0.12000000000E+03 0.  0.
         25    1    1    2    0    0 -0.46657515777E+02 -0.11551722391E+02  0.48084491784E+02  0.13792202296E+03  0.12000000000E+03 0.  0.
<mgrwt>
<rscale>  0 0.25894615E+03</rscale>
<asrwt>0</asrwt>
<pdfrwt beam="1">  1        3 0.13085966E-01 0.25894615E+03</pdfrwt>
<pdfrwt beam="2">  1       -3 0.30319808E-01 0.25894615E+03</pdfrwt>
<totfact> 0.12475356E+03</totfact>
</mgrwt>
</event>
<event>
 4    1  0.1759998E-004  0.2879254E+03  0.7818608E-02  0.1091437E+00
         -3   -1    0    0    0  501 -0.00000000000E+00  0.00000000000E+00  0.89415451290E+03  0.89415451290E+03  0.00000000000E+00 0. -1.
          3   -1    0    0  501    0  0.00000000000E+00 -0.00000000000E+00 -0.23178602789E+02  0.23178602789E+02  0.00000000000E+00 0. -1.
         25    1    1    2    0    0 -0.65304907959E+02  0.27772055460E+02  0.54988454404E+03  0.56728214307E+03  0.12000000000E+03 0.  0.
         25    1    1    2    0    0  0.65304907959E+02 -0.27772055460E+02  0.32109136607E+03  0.35005097262E+03  0.12000000000E+03 0.  0.
<mgrwt>
<rscale>  0 0.28792535E+03</rscale>
<asrwt>0</asrwt>
<pdfrwt beam="1">  1        3 0.35659396E-02 0.28792535E+03</pdfrwt>
<pdfrwt beam="2">  1       -3 0.13756221E+00 0.28792535E+03</pdfrwt>
<totfact> 0.42015061E+02</totfact>
</mgrwt>
</event>
<event>
 4    1  0.1759998E-004  0.3795845E+03  0.7818608E-02  0.1051087E+00
          2   -1    0    0  501    0  0.00000000000E+00  0.00000000000E+00  0.30268845397E+03  0.30268845397E+03  0.00000000000E+00 0. -1.
         -2   -1    0    0    0  501 -0.00000000000E+00 -0.00000000000E+00 -0.11900386830E+03  0.11900386830E+03  0.00000000000E+00 0. -1.
         25    1    1    2    0    0 -0.61380954977E+02  0.24817869621E+02 -0.54013936992E+02  0.14731277499E+03  0.12000000000E+03 0.  0.
         25    1    1    2    0    0  0.61380954977E+02 -0.24817869621E+02  0.23769852267E+03  0.27437954728E+03  0.12000000000E+03 0.  0.
<mgrwt>
<rscale>  0 0.37958449E+03</rscale>
<asrwt>0</asrwt>
<pdfrwt beam="1">  1        2 0.46567454E-01 0.37958449E+03</pdfrwt>
<pdfrwt beam="2">  1       -2 0.18308288E-01 0.37958449E+03</pdfrwt>
<totfact> 0.26634185E+03</totfact>
</mgrwt>
</event>
<event>
 4    1  0.1759998E-004  0.3474203E+03  0.7818608E-02  0.1063679E+00
         -2   -1    0    0    0  501 -0.00000000000E+00  0.00000000000E+00  0.37040718654E+02  0.37040718654E+02  0.00000000000E+00 0. -1.
          2   -1    0    0  501    0  0.00000000000E+00 -0.00000000000E+00 -0.81464974325E+03  0.81464974325E+03  0.00000000000E+00 0. -1.
         25    1    1    2    0    0 -0.56905298897E+02 -0.48148193060E+02 -0.14099069411E+03  0.19958666630E+03  0.12000000000E+03 0.  0.
         25    1    1    2    0    0  0.56905298897E+02  0.48148193060E+02 -0.63661833049E+03  0.65210379561E+03  0.12000000000E+03 0.  0.
<mgrwt>
<rscale>  0 0.34742028E+03</rscale>
<asrwt>0</asrwt>
<pdfrwt beam="1">  1        2 0.12533073E+00 0.34742028E+03</pdfrwt>
<pdfrwt beam="2">  1       -2 0.56985721E-02 0.34742028E+03</pdfrwt>
<totfact> 0.55756844E+03</totfact>
</mgrwt>
</event>
<event>
 4    1  0.1759998E-004  0.3662652E+03  0.7818608E-02  0.1056130E+00
          3   -1    0    0  501    0  0.00000000000E+00  0.00000000000E+00  0.43025295227E+03  0.43025295227E+03  0.00000000000E+00 0.  1.
         -3   -1    0    0    0  501 -0.00000000000E+00 -0.00000000000E+00 -0.77948430581E+02  0.77948430581E+02  0.00000000000E+00 0.  1.
         25    1    1    2    0    0  0.60751248283E+02 -0.47176130577E+02  0.16609780688E+02  0.14349977797E+03  0.12000000000E+03 0.  0.
         25    1    1    2    0    0 -0.60751248283E+02  0.47176130577E+02  0.33569474100E+03  0.36470160488E+03  0.12000000000E+03 0.  0.
<mgrwt>
<rscale>  0 0.36626516E+03</rscale>
<asrwt>0</asrwt>
<pdfrwt beam="1">  1        3 0.66192760E-01 0.36626516E+03</pdfrwt>
<pdfrwt beam="2">  1       -3 0.11992067E-01 0.36626516E+03</pdfrwt>
<totfact> 0.31631183E+02</totfact>
</mgrwt>
</event>
<event>
 4    1  0.1759998E-004  0.2682062E+03  0.7818608E-02  0.1102311E+00
         -1   -1    0    0    0  501 -0.00000000000E+00  0.00000000000E+00  0.29760576812E+02  0.29760576812E+02  0.00000000000E+00 0.  1.
          1   -1    0    0  501    0  0.00000000000E+00 -0.00000000000E+00 -0.60427727701E+03  0.60427727701E+03  0.00000000000E+00 0.  1.
         25    1    1    2    0    0  0.48277176302E+02 -0.22431625039E+02 -0.22252734112E+03  0.25836462819E+03  0.12000000000E+03 0.  0.
         25    1    1    2    0    0 -0.48277176302E+02  0.22431625039E+02 -0.35198935909E+03  0.37567322564E+03  0.12000000000E+03 0.  0.
<mgrwt>
<rscale>  0 0.26820619E+03</rscale>
<asrwt>0</asrwt>
<pdfrwt beam="1">  1        1 0.92965736E-01 0.26820619E+03</pdfrwt>
<pdfrwt beam="2">  1       -1 0.45785502E-02 0.26820619E+03</pdfrwt>
<totfact> 0.69625956E+03</totfact>
</mgrwt>
</event>
<event>
 4    1  0.1759998E-004  0.2965206E+03  0.7818608E-02  0.1086993E+00
          2   -1    0    0  501    0  0.00000000000E+00  0.00000000000E+00  0.23279273652E+04  0.23279273652E+04  0.00000000000E+00 0.  1.
         -2   -1    0    0    0  501 -0.00000000000E+00 -0.00000000000E+00 -0.94423568746E+01  0.94423568746E+01  0.00000000000E+00 0.  1.
         25    1    1    2    0    0  0.32158866274E+02  0.78563136308E+02  0.13118409860E+04  0.13200504277E+04  0.12000000000E+03 0.  0.
         25    1    1    2    0    0 -0.32158866274E+02 -0.78563136308E+02  0.10066440224E+04  0.10173192944E+04  0.12000000000E+03 0.  0.
<mgrwt>
<rscale>  0 0.29652063E+03</rscale>
<asrwt>0</asrwt>
<pdfrwt beam="1">  1        2 0.35814221E+00 0.29652063E+03</pdfrwt>
<pdfrwt beam="2">  1       -2 0.14526721E-02 0.29652063E+03</pdfrwt>
<totfact> 0.61495817E+03</totfact>
</mgrwt>
</event>
<event>
 4    1  0.1759998E-004  0.2451467E+03  0.7818608E-02  0.1116411E+00
         -1   -1    0    0    0  501 -0.00000000000E+00  0.00000000000E+00  0.85978443718E+01  0.85978443718E+01  0.00000000000E+00 0. -1.
          1   -1    0    0  501    0  0.00000000000E+00 -0.00000000000E+00 -0.17474404900E+04  0.17474404900E+04  0.00000000000E+00 0. -1.
         25    1    1    2    0    0  0.22151062575E+02  0.11544024749E+02 -0.87326084302E+03  0.88182108958E+03  0.12000000000E+03 0.  0.
         25    1    1    2    0    0 -0.22151062575E+02 -0.11544024749E+02 -0.86558180262E+03  0.87421724480E+03  0.12000000000E+03 0.  0.
<mgrwt>
<rscale>  0 0.24514666E+03</rscale>
<asrwt>0</asrwt>
<pdfrwt beam="1">  1        1 0.26883642E+00 0.24514666E+03</pdfrwt>
<pdfrwt beam="2">  1       -1 0.13227482E-02 0.24514666E+03</pdfrwt>
<totfact> 0.61601360E+03</totfact>
</mgrwt>
</event>
<event>
 4    1  0.1759998E-004  0.2814200E+03  0.7818608E-02  0.1094916E+00
         -2   -1    0    0    0  501 -0.00000000000E+00  0.00000000000E+00  0.19271434718E+02  0.19271434718E+02  0.00000000000E+00 0. -1.
          2   -1    0    0  501    0  0.00000000000E+00 -0.00000000000E+00 -0.10273916043E+04  0.10273916043E+04  0.00000000000E+00 0. -1.
         25    1    1    2    0    0 -0.16720332512E+02 -0.33216972599E+02 -0.73976514471E+03  0.75035685251E+03  0.12000000000E+03 0.  0.
         25    1    1    2    0    0  0.16720332512E+02  0.33216972599E+02 -0.26835502491E+03  0.29630618654E+03  0.12000000000E+03 0.  0.
<mgrwt>
<rscale>  0 0.28142004E+03</rscale>
<asrwt>0</asrwt>
<pdfrwt beam="1">  1        2 0.15806024E+00 0.28142004E+03</pdfrwt>
<pdfrwt beam="2">  1       -2 0.29648363E-02 0.28142004E+03</pdfrwt>
<totfact> 0.10874078E+04</totfact>
</mgrwt>
</event>
<event>
 4    1  0.1759998E-004  0.2720575E+03  0.7818608E-02  0.1100108E+00
          2   -1    0    0  501    0  0.00000000000E+00  0.00000000000E+00  0.27526825321E+03  0.27526825321E+03  0.00000000000E+00 0. -1.
         -2   -1    0    0    0  501 -0.00000000000E+00 -0.00000000000E+00 -0.67221028856E+02  0.67221028856E+02  0.00000000000E+00 0. -1.
         25    1    1    2    0    0  0.35804201939E+02  0.33046770499E+02  0.15638153954E+03  0.20304978657E+03  0.12000000000E+03 0.  0.
         25    1    1    2    0    0 -0.35804201939E+02 -0.33046770499E+02  0.51665684811E+02  0.13943949550E+03  0.12000000000E+03 0.  0.
<mgrwt>
<rscale>  0 0.27205746E+03</rscale>
<asrwt>0</asrwt>
<pdfrwt beam="1">  1        2 0.42348961E-01 0.27205746E+03</pdfrwt>
<pdfrwt beam="2">  1       -2 0.10341697E-01 0.27205746E+03</pdfrwt>
<totfact> 0.74875783E+03</totfact>
</mgrwt>
</event>
<event>
 4    1  0.1759998E-004  0.3962131E+03  0.7818608E-02  0.1045099E+00
         -2   -1    0    0    0  501 -0.00000000000E+00  0.00000000000E+00  0.35191317759E+02  0.35191317759E+02  0.00000000000E+00 0.  1.
          2   -1    0    0  501    0  0.00000000000E+00 -0.00000000000E+00 -0.11152239384E+04  0.11152239384E+04  0.00000000000E+00 0.  1.
         25    1    1    2    0    0  0.32277450096E+02 -0.15115485171E+03 -0.45021435368E+03  0.49089977311E+03  0.12000000000E+03 0.  0.
         25    1    1    2    0    0 -0.32277450096E+02  0.15115485171E+03 -0.62981826695E+03  0.65951548304E+03  0.12000000000E+03 0.  0.
<mgrwt>
<rscale>  0 0.39621307E+03</rscale>
<asrwt>0</asrwt>
<pdfrwt beam="1">  1        2 0.17157293E+00 0.39621307E+03</pdfrwt>
<pdfrwt beam="2">  1       -2 0.54140485E-02 0.39621307E+03</pdfrwt>
<totfact> 0.38938671E+03</totfact>
</mgrwt>
</event>
<event>
 4    1  0.1759998E-004  0.2556828E+03  0.7818608E-02  0.1109765E+00
          4   -1    0    0  501    0  0.00000000000E+00  0.00000000000E+00  0.45272676567E+03  0.45272676567E+03  0.00000000000E+00 0. -1.
         -4   -1    0    0    0  501 -0.00000000000E+00 -0.00000000000E+00 -0.36099968564E+02  0.36099968564E+02  0.00000000000E+00 0. -1.
         25    1    1    2    0    0  0.28279753093E+02 -0.18352163712E+02  0.15400627952E+03  0.19812743495E+03  0.12000000000E+03 0.  0.
         25    1    1    2    0    0 -0.28279753093E+02  0.18352163712E+02  0.26262051758E+03  0.29069929928E+03  0.12000000000E+03 0.  0.
<mgrwt>
<rscale>  0 0.25568279E+03</rscale>
<asrwt>0</asrwt>
<pdfrwt beam="1">  1        4 0.69650267E-01 0.25568279E+03</pdfrwt>
<pdfrwt beam="2">  1       -4 0.55538417E-02 0.25568279E+03</pdfrwt>
<totfact> 0.72012749E+02</totfact>
</mgrwt>
</event>
<event>
 4    1  0.1759998E-004  0.2544377E+03  0.7818608E-02  0.1110532E+00
         -2   -1    0    0    0  501 -0.00000000000E+00  0.00000000000E+00  0.27520672757E+02  0.27520672757E+02  0.00000000000E+00 0.  1.
          2   -1    0    0  501    0  0.00000000000E+00 -0.00000000000E+00 -0.58809008360E+03  0.58809008360E+03  0.00000000000E+00 0.  1.
         25    1    1    2    0    0  0.71209806120E+01 -0.32263555090E+02 -0.21659224215E+03  0.24980761540E+03  0.12000000000E+03 0.  0.
         25    1    1    2    0    0 -0.71209806120E+01  0.32263555090E+02 -0.34397716870E+03  0.36580314096E+03  0.12000000000E+03 0.  0.
<mgrwt>
<rscale>  0 0.25443769E+03</rscale>
<asrwt>0</asrwt>
<pdfrwt beam="1">  1        2 0.90475402E-01 0.25443769E+03</pdfrwt>
<pdfrwt beam="2">  1       -2 0.42339495E-02 0.25443769E+03</pdfrwt>
<totfact> 0.12903826E+04</totfact>
</mgrwt>
</event>
<event>
 4    1  0.1759998E-004  0.3187990E+03  0.7818608E-02  0.1076203E+00
         -2   -1    0    0    0  501 -0.00000000000E+00  0.00000000000E+00  0.37828507074E+02  0.37828507074E+02  0.00000000000E+00 0.  1.
          2   -1    0    0  501    0  0.00000000000E+00 -0.00000000000E+00 -0.67166824951E+03  0.67166824951E+03  0.00000000000E+00 0.  1.
         25    1    1    2    0    0 -0.78393364940E+02 -0.69138324813E+02 -0.29669575550E+03  0.33668085624E+03  0.12000000000E+03 0.  0.
         25    1    1    2    0    0  0.78393364940E+02  0.69138324813E+02 -0.33714398694E+03  0.37281590035E+03  0.12000000000E+03 0.  0.
<mgrwt>
<rscale>  0 0.31879904E+03</rscale>
<asrwt>0</asrwt>
<pdfrwt beam="1">  1        2 0.10333357E+00 0.31879904E+03</pdfrwt>
<pdfrwt beam="2">  1       -2 0.58197706E-02 0.31879904E+03</pdfrwt>
<totfact> 0.68544574E+03</totfact>
</mgrwt>
</event>
<event>
 4    1  0.1759998E-004  0.2956823E+03  0.7818608E-02  0.1087419E+00
         -2   -1    0    0    0  501 -0.00000000000E+00  0.00000000000E+00  0.25969420216E+03  0.25969420216E+03  0.00000000000E+00 0.  1.
          2   -1    0    0  501    0  0.00000000000E+00 -0.00000000000E+00 -0.84164409161E+02  0.84164409161E+02  0.00000000000E+00 0.  1.
         25    1    1    2    0    0 -0.15067128281E+02  0.31702719350E+01 -0.11049754329E+02  0.12148730818E+03  0.12000000000E+03 0.  0.
         25    1    1    2    0    0  0.15067128281E+02 -0.31702719350E+01  0.18657954733E+03  0.22237130314E+03  0.12000000000E+03 0.  0.
<mgrwt>
<rscale>  0 0.29568232E+03</rscale>
<asrwt>0</asrwt>
<pdfrwt beam="1">  1        2 0.12948371E-01 0.29568232E+03</pdfrwt>
<pdfrwt beam="2">  1       -2 0.39952954E-01 0.29568232E+03</pdfrwt>
<totfact> 0.27772719E+03</totfact>
</mgrwt>
</event>
<event>
 4    1  0.1759998E-004  0.3532403E+03  0.7818608E-02  0.1061293E+00
          1   -1    0    0  501    0  0.00000000000E+00  0.00000000000E+00  0.14757945218E+04  0.14757945218E+04  0.00000000000E+00 0. -1.
         -1   -1    0    0    0  501 -0.00000000000E+00 -0.00000000000E+00 -0.21137547067E+02  0.21137547067E+02  0.00000000000E+00 0. -1.
         25    1    1    2    0    0 -0.10304103451E+03  0.19551997534E+02  0.10499225400E+04  0.10619496576E+04  0.12000000000E+03 0.  0.
         25    1    1    2    0    0  0.10304103451E+03 -0.19551997534E+02  0.40473443471E+03  0.43498241118E+03  0.12000000000E+03 0.  0.
<mgrwt>
<rscale>  0 0.35324029E+03</rscale>
<asrwt>0</asrwt>
<pdfrwt beam="1">  1        1 0.22704523E+00 0.35324029E+03</pdfrwt>
<pdfrwt beam="2">  1       -1 0.32519315E-02 0.35324029E+03</pdfrwt>
<totfact> 0.24859506E+03</totfact>
</mgrwt>
</event>
<event>
 4    1  0.1759998E-004  0.2542202E+03  0.7818608E-02  0.1110666E+00
         -1   -1    0    0    0  501 -0.00000000000E+00  0.00000000000E+00  0.10026959565E+03  0.10026959565E+03  0.00000000000E+00 0. -1.
          1   -1    0    0  501    0  0.00000000000E+00 -0.00000000000E+00 -0.16113540890E+03  0.16113540890E+03  0.00000000000E+00 0. -1.
         25    1    1    2    0    0  0.19591801418E+02 -0.19390881211E+02  0.20370169911E+01  0.12314217147E+03  0.12000000000E+03 0.  0.
         25    1    1    2    0    0 -0.19591801418E+02  0.19390881211E+02 -0.62902830247E+02  0.13826283308E+03  0.12000000000E+03 0.  0.
<mgrwt>
<rscale>  0 0.25422024E+03</rscale>
<asrwt>0</asrwt>
<pdfrwt beam="1">  1        1 0.24790063E-01 0.25422024E+03</pdfrwt>
<pdfrwt beam="2">  1       -1 0.15426092E-01 0.25422024E+03</pdfrwt>
<totfact> 0.58728105E+03</totfact>
</mgrwt>
</event>
<event>
 4    1  0.1759998E-004  0.6209351E+03  0.7818608E-02  0.9862900E-01
         -2   -1    0    0    0  501 -0.00000000000E+00  0.00000000000E+00  0.15246442815E+03  0.15246442815E+03  0.00000000000E+00 0.  1.
          2   -1    0    0  501    0  0.00000000000E+00 -0.00000000000E+00 -0.63221365885E+03  0.63221365885E+03  0.00000000000E+00 0.  1.
         25    1    1    2    0    0 -0.10446506094E+03  0.26614320267E+03 -0.25965231549E+03  0.40443105497E+03  0.12000000000E+03 0.  0.
         25    1    1    2    0    0  0.10446506094E+03 -0.26614320267E+03 -0.22009691521E+03  0.38024703203E+03  0.12000000000E+03 0.  0.
<mgrwt>
<rscale>  0 0.62093508E+03</rscale>
<asrwt>0</asrwt>
<pdfrwt beam="1">  1        2 0.97263637E-01 0.62093508E+03</pdfrwt>
<pdfrwt beam="2">  1       -2 0.23456067E-01 0.62093508E+03</pdfrwt>
<totfact> 0.75208249E+02</totfact>
</mgrwt>
</event>
<event>
 4    1  0.1759998E-004  0.3816510E+03  0.7818608E-02  0.1050325E+00
          1   -1    0    0  501    0  0.00000000000E+00  0.00000000000E+00  0.74013348001E+02  0.74013348001E+02  0.00000000000E+00 0. -1.
         -1   -1    0    0    0  501 -0.00000000000E+00 -0.00000000000E+00 -0.49199743494E+03  0.49199743494E+03  0.00000000000E+00 0. -1.
         25    1    1    2    0    0 -0.47851354964E+01 -0.14743430794E+03 -0.23265622369E+03  0.30048076661E+03  0.12000000000E+03 0.  0.
         25    1    1    2    0    0  0.47851354964E+01  0.14743430794E+03 -0.18532786325E+03  0.26553001633E+03  0.12000000000E+03 0.  0.
<mgrwt>
<rscale>  0 0.38165103E+03</rscale>
<asrwt>0</asrwt>
<pdfrwt beam="1">  1        1 0.11386670E-01 0.38165103E+03</pdfrwt>
<pdfrwt beam="2">  1       -1 0.75691909E-01 0.38165103E+03</pdfrwt>
<totfact> 0.98818076E+02</totfact>
</mgrwt>
</event>
<event>
 4    1  0.1759998E-004  0.2460283E+03  0.7818608E-02  0.1115841E+00
          1   -1    0    0  501    0  0.00000000000E+00  0.00000000000E+00  0.90810219780E+03  0.90810219780E+03  0.00000000000E+00 0.  1.
         -1   -1    0    0    0  501 -0.00000000000E+00 -0.00000000000E+00 -0.16663846385E+02  0.16663846385E+02  0.00000000000E+00 0.  1.
         25    1    1    2    0    0  0.13721319424E+02 -0.20871152317E+02  0.48488918218E+03  0.50014137861E+03  0.12000000000E+03 0.  0.
         25    1    1    2    0    0 -0.13721319424E+02  0.20871152317E+02  0.40654916924E+03  0.42462466558E+03  0.12000000000E+03 0.  0.
<mgrwt>
<rscale>  0 0.24602825E+03</rscale>
<asrwt>0</asrwt>
<pdfrwt beam="1">  1        1 0.13970799E+00 0.24602825E+03</pdfrwt>
<pdfrwt beam="2">  1       -1 0.25636694E-02 0.24602825E+03</pdfrwt>
<totfact> 0.89021331E+03</totfact>
</mgrwt>
</event>
<event>
 4    1  0.1759998E-004  0.2504867E+03  0.7818608E-02  0.1112998E+00
         -2   -1    0    0    0  501 -0.00000000000E+00  0.00000000000E+00  0.15644262832E+03  0.15644262832E+03  0.00000000000E+00 0.  1.
          2   -1    0    0  501    0  0.00000000000E+00 -0.00000000000E+00 -0.10026614343E+03  0.10026614343E+03  0.00000000000E+00 0.  1.
         25    1    1    2    0    0  0.26403629028E+02  0.16082997349E+02  0.46707768561E+02  0.13242896237E+03  0.12000000000E+03 0.  0.
         25    1    1    2    0    0 -0.26403629028E+02 -0.16082997349E+02  0.94687163279E+01  0.12427980938E+03  0.12000000000E+03 0.  0.
<mgrwt>
<rscale>  0 0.25048672E+03</rscale>
<asrwt>0</asrwt>
<pdfrwt beam="1">  1        2 0.15425561E-01 0.25048672E+03</pdfrwt>
<pdfrwt beam="2">  1       -2 0.24068096E-01 0.25048672E+03</pdfrwt>
<totfact> 0.56603775E+03</totfact>
</mgrwt>
</event>
<event>
 4    1  0.1759998E-004  0.2764222E+03  0.7818608E-02  0.1097659E+00
          3   -1    0    0  501    0  0.00000000000E+00  0.00000000000E+00  0.24301150658E+03  0.24301150658E+03  0.00000000000E+00 0. -1.
         -3   -1    0    0    0  501 -0.00000000000E+00 -0.00000000000E+00 -0.78606589376E+02  0.78606589376E+02  0.00000000000E+00 0. -1.
         25    1    1    2    0    0 -0.57471810993E+02 -0.11146039143E+02  0.40656066483E+02  0.13957134014E+03  0.12000000000E+03 0.  0.
         25    1    1    2    0    0  0.57471810993E+02  0.11146039143E+02  0.12374885072E+03  0.18204675581E+03  0.12000000000E+03 0.  0.
<mgrwt>
<rscale>  0 0.27642218E+03</rscale>
<asrwt>0</asrwt>
<pdfrwt beam="1">  1        3 0.37386385E-01 0.27642218E+03</pdfrwt>
<pdfrwt beam="2">  1       -3 0.12093322E-01 0.27642218E+03</pdfrwt>
<totfact> 0.96574568E+02</totfact>
</mgrwt>
</event>
<event>
 4    1  0.1759998E-004  0.2552071E+03  0.7818608E-02  0.1110058E+00
          2   -1    0    0  501    0  0.00000000000E+00  0.00000000000E+00  0.23074568118E+02  0.23074568118E+02  0.00000000000E+00 0. -1.
         -2   -1    0    0    0  501 -0.00000000000E+00 -0.00000000000E+00 -0.70565423529E+03  0.70565423529E+03  0.00000000000E+00 0. -1.
         25    1    1    2    0    0  0.29414568773E+02 -0.31149867972E+02 -0.36089396667E+03  0.38272703891E+03  0.12000000000E+03 0.  0.
         25    1    1    2    0    0 -0.29414568773E+02  0.31149867972E+02 -0.32168570050E+03  0.34600176450E+03  0.12000000000E+03 0.  0.
<mgrwt>
<rscale>  0 0.25520711E+03</rscale>
<asrwt>0</asrwt>
<pdfrwt beam="1">  1        2 0.35499334E-02 0.25520711E+03</pdfrwt>
<pdfrwt beam="2">  1       -2 0.10856219E+00 0.25520711E+03</pdfrwt>
<totfact> 0.17529884E+03</totfact>
</mgrwt>
</event>
<event>
 4    1  0.1759998E-004  0.2718014E+03  0.7818608E-02  0.1100253E+00
         -1   -1    0    0    0  501 -0.00000000000E+00  0.00000000000E+00  0.67035729287E+02  0.67035729287E+02  0.00000000000E+00 0.  1.
          1   -1    0    0  501    0  0.00000000000E+00 -0.00000000000E+00 -0.27550981022E+03  0.27550981022E+03  0.00000000000E+00 0.  1.
         25    1    1    2    0    0 -0.44089672705E+02 -0.15396098824E+02 -0.49475615744E+02  0.13794482829E+03  0.12000000000E+03 0.  0.
         25    1    1    2    0    0  0.44089672705E+02  0.15396098824E+02 -0.15899846519E+03  0.20460071121E+03  0.12000000000E+03 0.  0.
<mgrwt>
<rscale>  0 0.27180141E+03</rscale>
<asrwt>0</asrwt>
<pdfrwt beam="1">  1        1 0.42386125E-01 0.27180141E+03</pdfrwt>
<pdfrwt beam="2">  1       -1 0.10313189E-01 0.27180141E+03</pdfrwt>
<totfact> 0.56293390E+03</totfact>
</mgrwt>
</event>
<event>
 4    1  0.1759998E-004  0.3877505E+03  0.7818608E-02  0.1048106E+00
          1   -1    0    0  501    0  0.00000000000E+00  0.00000000000E+00  0.29548294939E+03  0.29548294939E+03  0.00000000000E+00 0. -1.
         -1   -1    0    0    0  501 -0.00000000000E+00 -0.00000000000E+00 -0.12720739047E+03  0.12720739047E+03  0.00000000000E+00 0. -1.
         25    1    1    2    0    0  0.10815198039E+03 -0.55731343679E+02 -0.15681818065E+02  0.17160638959E+03  0.12000000000E+03 0.  0.
         25    1    1    2    0    0 -0.10815198039E+03  0.55731343679E+02  0.18395737699E+03  0.25108395027E+03  0.12000000000E+03 0.  0.
<mgrwt>
<rscale>  0 0.38775051E+03</rscale>
<asrwt>0</asrwt>
<pdfrwt beam="1">  1        1 0.45458915E-01 0.38775051E+03</pdfrwt>
<pdfrwt beam="2">  1       -1 0.19570368E-01 0.38775051E+03</pdfrwt>
<totfact> 0.18752186E+03</totfact>
</mgrwt>
</event>
<event>
 4    1  0.1759998E-004  0.2945621E+03  0.7818608E-02  0.1087991E+00
         -2   -1    0    0    0  501 -0.00000000000E+00  0.00000000000E+00  0.12343729818E+03  0.12343729818E+03  0.00000000000E+00 0. -1.
          2   -1    0    0  501    0  0.00000000000E+00 -0.00000000000E+00 -0.17573063020E+03  0.17573063020E+03  0.00000000000E+00 0. -1.
         25    1    1    2    0    0  0.46135050237E+01 -0.16907359086E+02 -0.11102717382E+03  0.16442073028E+03  0.12000000000E+03 0.  0.
         25    1    1    2    0    0 -0.46135050237E+01  0.16907359086E+02  0.58733841808E+02  0.13474719809E+03  0.12000000000E+03 0.  0.
<mgrwt>
<rscale>  0 0.29456214E+03</rscale>
<asrwt>0</asrwt>
<pdfrwt beam="1">  1        2 0.27035482E-01 0.29456214E+03</pdfrwt>
<pdfrwt beam="2">  1       -2 0.18990354E-01 0.29456214E+03</pdfrwt>
<totfact> 0.45113555E+03</totfact>
</mgrwt>
</event>
<event>
 4    1  0.1759998E-004  0.3194989E+03  0.7818608E-02  0.1075880E+00
          1   -1    0    0  501    0  0.00000000000E+00  0.00000000000E+00  0.11864602804E+03  0.11864602804E+03  0.00000000000E+00 0.  1.
         -1   -1    0    0    0  501 -0.00000000000E+00 -0.00000000000E+00 -0.21509269884E+03  0.21509269884E+03  0.00000000000E+00 0.  1.
         25    1    1    2    0    0 -0.43935365511E+02  0.22645560857E+02 -0.14552401656E+03  0.19498814621E+03  0.12000000000E+03 0.  0.
         25    1    1    2    0    0  0.43935365511E+02 -0.22645560857E+02  0.49077345749E+02  0.13875058066E+03  0.12000000000E+03 0.  0.
<mgrwt>
<rscale>  0 0.31949895E+03</rscale>
<asrwt>0</asrwt>
<pdfrwt beam="1">  1        1 0.18253235E-01 0.31949895E+03</pdfrwt>
<pdfrwt beam="2">  1       -1 0.33091184E-01 0.31949895E+03</pdfrwt>
<totfact> 0.24845454E+03</totfact>
</mgrwt>
</event>
<event>
 4    1  0.1759998E-004  0.2938798E+03  0.7818608E-02  0.1088341E+00
         -2   -1    0    0    0  501 -0.00000000000E+00  0.00000000000E+00  0.17834065409E+02  0.17834065409E+02  0.00000000000E+00 0. -1.
          2   -1    0    0  501    0  0.00000000000E+00 -0.00000000000E+00 -0.12106790255E+04  0.12106790255E+04  0.00000000000E+00 0. -1.
         25    1    1    2    0    0  0.11468878281E+02 -0.53418018747E+02 -0.86754194234E+03  0.87750443966E+03  0.12000000000E+03 0.  0.
         25    1    1    2    0    0 -0.11468878281E+02  0.53418018747E+02 -0.32530301772E+03  0.35100865122E+03  0.12000000000E+03 0.  0.
<mgrwt>
<rscale>  0 0.29387976E+03</rscale>
<asrwt>0</asrwt>
<pdfrwt beam="1">  1        2 0.18625829E+00 0.29387976E+03</pdfrwt>
<pdfrwt beam="2">  1       -2 0.27437026E-02 0.29387976E+03</pdfrwt>
<totfact> 0.95427959E+03</totfact>
</mgrwt>
</event>
<event>
 4    1  0.1759998E-004  0.2842344E+03  0.7818608E-02  0.1093398E+00
         -1   -1    0    0    0  501 -0.00000000000E+00  0.00000000000E+00  0.10107000811E+02  0.10107000811E+02  0.00000000000E+00 0. -1.
          1   -1    0    0  501    0  0.00000000000E+00 -0.00000000000E+00 -0.19983466945E+04  0.19983466945E+04  0.00000000000E+00 0. -1.
         25    1    1    2    0    0  0.61072995310E+02  0.16937111814E+02 -0.12922858309E+04  0.12993919522E+04  0.12000000000E+03 0.  0.
         25    1    1    2    0    0 -0.61072995310E+02 -0.16937111814E+02 -0.69595386271E+03  0.70906174310E+03  0.12000000000E+03 0.  0.
<mgrwt>
<rscale>  0 0.28423435E+03</rscale>
<asrwt>0</asrwt>
<pdfrwt beam="1">  1        1 0.30743816E+00 0.28423435E+03</pdfrwt>
<pdfrwt beam="2">  1       -1 0.15549222E-02 0.28423435E+03</pdfrwt>
<totfact> 0.33493876E+03</totfact>
</mgrwt>
</event>
<event>
 4    1  0.1759998E-004  0.2494223E+03  0.7818608E-02  0.1113670E+00
         -1   -1    0    0    0  501 -0.00000000000E+00  0.00000000000E+00  0.12886007675E+02  0.12886007675E+02  0.00000000000E+00 0. -1.
          1   -1    0    0  501    0  0.00000000000E+00 -0.00000000000E+00 -0.12069580416E+04  0.12069580416E+04  0.00000000000E+00 0. -1.
         25    1    1    2    0    0  0.17781947581E+02  0.21740450434E+01 -0.73810018933E+03  0.74800589144E+03  0.12000000000E+03 0.  0.
         25    1    1    2    0    0 -0.17781947581E+02 -0.21740450434E+01 -0.45597184461E+03  0.47183815786E+03  0.12000000000E+03 0.  0.
<mgrwt>
<rscale>  0 0.24942230E+03</rscale>
<asrwt>0</asrwt>
<pdfrwt beam="1">  1        1 0.18568588E+00 0.24942230E+03</pdfrwt>
<pdfrwt beam="2">  1       -1 0.19824624E-02 0.24942230E+03</pdfrwt>
<totfact> 0.78375938E+03</totfact>
</mgrwt>
</event>
<event>
 4    1  0.1759998E-004  0.2540388E+03  0.7818608E-02  0.1110779E+00
         -4   -1    0    0    0  501 -0.00000000000E+00  0.00000000000E+00  0.14296023749E+03  0.14296023749E+03  0.00000000000E+00 0. -1.
          4   -1    0    0  501    0  0.00000000000E+00 -0.00000000000E+00 -0.11285608740E+03  0.11285608740E+03  0.00000000000E+00 0. -1.
         25    1    1    2    0    0 -0.24696873980E+02  0.65979531582E+01  0.48152485798E+02  0.13180337803E+03  0.12000000000E+03 0.  0.
         25    1    1    2    0    0  0.24696873980E+02 -0.65979531582E+01 -0.18048335709E+02  0.12401294687E+03  0.12000000000E+03 0.  0.
<mgrwt>
<rscale>  0 0.25403884E+03</rscale>
<asrwt>0</asrwt>
<pdfrwt beam="1">  1        4 0.17362475E-01 0.25403884E+03</pdfrwt>
<pdfrwt beam="2">  1       -4 0.21993883E-01 0.25403884E+03</pdfrwt>
<totfact> 0.10240378E+03</totfact>
</mgrwt>
</event>
<event>
 4    1  0.1759998E-004  0.2923670E+03  0.7818608E-02  0.1089120E+00
          1   -1    0    0  501    0  0.00000000000E+00  0.00000000000E+00  0.39237228450E+02  0.39237228450E+02  0.00000000000E+00 0.  1.
         -1   -1    0    0    0  501 -0.00000000000E+00 -0.00000000000E+00 -0.54462590324E+03  0.54462590324E+03  0.00000000000E+00 0.  1.
         25    1    1    2    0    0 -0.10420231943E+02 -0.54533797150E+01 -0.41775140397E+03  0.43480404333E+03  0.12000000000E+03 0.  0.
         25    1    1    2    0    0  0.10420231943E+02  0.54533797150E+01 -0.87637270826E+02  0.14905908836E+03  0.12000000000E+03 0.  0.
<mgrwt>
<rscale>  0 0.29236697E+03</rscale>
<asrwt>0</asrwt>
<pdfrwt beam="1">  1        1 0.60364974E-02 0.29236697E+03</pdfrwt>
<pdfrwt beam="2">  1       -1 0.83788590E-01 0.29236697E+03</pdfrwt>
<totfact> 0.18972657E+03</totfact>
</mgrwt>
</event>
<event>
 4    1  0.1759998E-004  0.3124096E+03  0.7818608E-02  0.1079197E+00
          2   -1    0    0  501    0  0.00000000000E+00  0.00000000000E+00  0.53309262890E+03  0.53309262890E+03  0.00000000000E+00 0. -1.
         -2   -1    0    0    0  501 -0.00000000000E+00 -0.00000000000E+00 -0.45770554987E+02  0.45770554987E+02  0.00000000000E+00 0. -1.
         25    1    1    2    0    0  0.95506968235E+02  0.24156718509E+02  0.27547575663E+03  0.31621514911E+03  0.12000000000E+03 0.  0.
         25    1    1    2    0    0 -0.95506968235E+02 -0.24156718509E+02  0.21184631728E+03  0.26264803479E+03  0.12000000000E+03 0.  0.
<mgrwt>
<rscale>  0 0.31240964E+03</rscale>
<asrwt>0</asrwt>
<pdfrwt beam="1">  1        2 0.82014246E-01 0.31240964E+03</pdfrwt>
<pdfrwt beam="2">  1       -2 0.70416242E-02 0.31240964E+03</pdfrwt>
<totfact> 0.66842127E+03</totfact>
</mgrwt>
</event>
<event>
 4    1  0.1759998E-004  0.2576697E+03  0.7818608E-02  0.1108551E+00
         -1   -1    0    0    0  501 -0.00000000000E+00  0.00000000000E+00  0.90475105041E+01  0.90475105041E+01  0.00000000000E+00 0.  1.
          1   -1    0    0  501    0  0.00000000000E+00 -0.00000000000E+00 -0.18345843334E+04  0.18345843334E+04  0.00000000000E+00 0.  1.
         25    1    1    2    0    0 -0.39744103596E+02 -0.23602065143E+02 -0.85653442983E+03  0.86613386999E+03  0.12000000000E+03 0.  0.
         25    1    1    2    0    0  0.39744103596E+02  0.23602065143E+02 -0.96900239305E+03  0.97749797390E+03  0.12000000000E+03 0.  0.
<mgrwt>
<rscale>  0 0.25766972E+03</rscale>
<asrwt>0</asrwt>
<pdfrwt beam="1">  1        1 0.28224373E+00 0.25766972E+03</pdfrwt>
<pdfrwt beam="2">  1       -1 0.13919248E-02 0.25766972E+03</pdfrwt>
<totfact> 0.50255915E+03</totfact>
</mgrwt>
</event>
<event>
 4    1  0.1759998E-004  0.2497124E+03  0.7818608E-02  0.1113487E+00
         -2   -1    0    0    0  501 -0.00000000000E+00  0.00000000000E+00  0.10199730983E+03  0.10199730983E+03  0.00000000000E+00 0. -1.
          2   -1    0    0  501    0  0.00000000000E+00 -0.00000000000E+00 -0.15283804142E+03  0.15283804142E+03  0.00000000000E+00 0. -1.
         25    1    1    2    0    0  0.28604695274E+02  0.18202140092E+02 -0.31836038044E+02  0.12869762940E+03  0.12000000000E+03 0.  0.
         25    1    1    2    0    0 -0.28604695274E+02 -0.18202140092E+02 -0.19004693545E+02  0.12613772185E+03  0.12000000000E+03 0.  0.
<mgrwt>
<rscale>  0 0.24971239E+03</rscale>
<asrwt>0</asrwt>
<pdfrwt beam="1">  1        2 0.23513545E-01 0.24971239E+03</pdfrwt>
<pdfrwt beam="2">  1       -2 0.15691894E-01 0.24971239E+03</pdfrwt>
<totfact> 0.72189634E+03</totfact>
</mgrwt>
</event>
<event>
 4    1  0.1759998E-004  0.2574590E+03  0.7818608E-02  0.1108680E+00
          2   -1    0    0  501    0  0.00000000000E+00  0.00000000000E+00  0.72906231339E+03  0.72906231339E+03  0.00000000000E+00 0.  1.
         -2   -1    0    0    0  501 -0.00000000000E+00 -0.00000000000E+00 -0.22729588049E+02  0.22729588049E+02  0.00000000000E+00 0.  1.
         25    1    1    2    0    0  0.28885285681E+02 -0.13316074422E+02  0.45260272573E+03  0.46931961914E+03  0.12000000000E+03 0.  0.
         25    1    1    2    0    0 -0.28885285681E+02  0.13316074422E+02  0.25372999961E+03  0.28247228230E+03  0.12000000000E+03 0.  0.
<mgrwt>
<rscale>  0 0.25745901E+03</rscale>
<asrwt>0</asrwt>
<pdfrwt beam="1">  1        2 0.11216341E+00 0.25745901E+03</pdfrwt>
<pdfrwt beam="2">  1       -2 0.34968603E-02 0.25745901E+03</pdfrwt>
<totfact> 0.13325540E+04</totfact>
</mgrwt>
</event>
<event>
 4    1  0.1759998E-004  0.2504906E+03  0.7818608E-02  0.1112995E+00
          1   -1    0    0  501    0  0.00000000000E+00  0.00000000000E+00  0.11260696602E+03  0.11260696602E+03  0.00000000000E+00 0.  1.
         -1   -1    0    0    0  501 -0.00000000000E+00 -0.00000000000E+00 -0.13930212453E+03  0.13930212453E+03  0.00000000000E+00 0.  1.
         25    1    1    2    0    0 -0.28199659491E+02  0.20634293651E+02 -0.21480072954E+02  0.12681635700E+03  0.12000000000E+03 0.  0.
         25    1    1    2    0    0  0.28199659491E+02 -0.20634293651E+02 -0.52150855529E+01  0.12509273355E+03  0.12000000000E+03 0.  0.
<mgrwt>
<rscale>  0 0.25049064E+03</rscale>
<asrwt>0</asrwt>
<pdfrwt beam="1">  1        1 0.17324149E-01 0.25049064E+03</pdfrwt>
<pdfrwt beam="2">  1       -1 0.21431096E-01 0.25049064E+03</pdfrwt>
<totfact> 0.54776174E+03</totfact>
</mgrwt>
</event>
<event>
 4    1  0.1759998E-004  0.5469867E+03  0.7818608E-02  0.1002194E+00
          2   -1    0    0  501    0  0.00000000000E+00  0.00000000000E+00  0.23426598265E+04  0.23426598265E+04  0.00000000000E+00 0.  1.
         -2   -1    0    0    0  501 -0.00000000000E+00 -0.00000000000E+00 -0.31928927905E+02  0.31928927905E+02  0.00000000000E+00 0.  1.
         25    1    1    2    0    0 -0.25890279151E+02  0.91490582038E+02  0.17154744917E+03  0.22993338269E+03  0.12000000000E+03 0.  0.
         25    1    1    2    0    0  0.25890279151E+02 -0.91490582038E+02  0.21391834494E+04  0.21446553717E+04  0.12000000000E+03 0.  0.
<mgrwt>
<rscale>  0 0.54698672E+03</rscale>
<asrwt>0</asrwt>
<pdfrwt beam="1">  1        2 0.36040907E+00 0.54698672E+03</pdfrwt>
<pdfrwt beam="2">  1       -2 0.49121446E-02 0.54698672E+03</pdfrwt>
<totfact> 0.95402621E+02</totfact>
</mgrwt>
</event>
<event>
 4    1  0.1759998E-004  0.3012813E+03  0.7818608E-02  0.1084602E+00
         -2   -1    0    0    0  501 -0.00000000000E+00  0.00000000000E+00  0.11791537522E+02  0.11791537522E+02  0.00000000000E+00 0.  1.
          2   -1    0    0  501    0  0.00000000000E+00 -0.00000000000E+00 -0.19244820032E+04  0.19244820032E+04  0.00000000000E+00 0.  1.
         25    1    1    2    0    0 -0.70789008023E+02  0.46474613882E+02 -0.74110717726E+03  0.75552023241E+03  0.12000000000E+03 0.  0.
         25    1    1    2    0    0  0.70789008023E+02 -0.46474613882E+02 -0.11715832884E+04  0.11807533083E+04  0.12000000000E+03 0.  0.
<mgrwt>
<rscale>  0 0.30128128E+03</rscale>
<asrwt>0</asrwt>
<pdfrwt beam="1">  1        2 0.29607384E+00 0.30128128E+03</pdfrwt>
<pdfrwt beam="2">  1       -2 0.18140846E-02 0.30128128E+03</pdfrwt>
<totfact> 0.72718019E+03</totfact>
</mgrwt>
</event>
<event>
 4    1  0.1759998E-004  0.2835855E+03  0.7818608E-02  0.1093747E+00
          3   -1    0    0  501    0  0.00000000000E+00  0.00000000000E+00  0.17569662453E+04  0.17569662453E+04  0.00000000000E+00 0.  1.
         -3   -1    0    0    0  501 -0.00000000000E+00 -0.00000000000E+00 -0.11443125146E+02  0.11443125146E+02  0.00000000000E+00 0.  1.
         25    1    1    2    0    0 -0.70150527755E+00 -0.72882565092E+02  0.74916741246E+03  0.76221005786E+03  0.12000000000E+03 0.  0.
         25    1    1    2    0    0  0.70150527755E+00  0.72882565092E+02  0.99635570769E+03  0.10061993126E+04  0.12000000000E+03 0.  0.
<mgrwt>
<rscale>  0 0.28358550E+03</rscale>
<asrwt>0</asrwt>
<pdfrwt beam="1">  1        3 0.27030229E+00 0.28358550E+03</pdfrwt>
<pdfrwt beam="2">  1       -3 0.17604822E-02 0.28358550E+03</pdfrwt>
<totfact> 0.18845943E+02</totfact>
</mgrwt>
</event>
<event>
 4    1  0.1759998E-004  0.2557051E+03  0.7818608E-02  0.1109751E+00
         -3   -1    0    0    0  501 -0.00000000000E+00  0.00000000000E+00  0.14505709467E+03  0.14505709467E+03  0.00000000000E+00 0.  1.
          3   -1    0    0  501    0  0.00000000000E+00 -0.00000000000E+00 -0.11268857240E+03  0.11268857240E+03  0.00000000000E+00 0.  1.
         25    1    1    2    0    0 -0.26343957218E+02  0.16201992943E+02 -0.15527379586E+02  0.12489038463E+03  0.12000000000E+03 0.  0.
         25    1    1    2    0    0  0.26343957218E+02 -0.16201992943E+02  0.47895901851E+02  0.13285528244E+03  0.12000000000E+03 0.  0.
<mgrwt>
<rscale>  0 0.25570512E+03</rscale>
<asrwt>0</asrwt>
<pdfrwt beam="1">  1        3 0.17336703E-01 0.25570512E+03</pdfrwt>
<pdfrwt beam="2">  1       -3 0.22316476E-01 0.25570512E+03</pdfrwt>
<totfact> 0.13441441E+03</totfact>
</mgrwt>
</event>
<event>
 4    1  0.1759998E-004  0.4336736E+03  0.7818608E-02  0.1032706E+00
          2   -1    0    0  501    0  0.00000000000E+00  0.00000000000E+00  0.13845251573E+04  0.13845251573E+04  0.00000000000E+00 0. -1.
         -2   -1    0    0    0  501 -0.00000000000E+00 -0.00000000000E+00 -0.33959801345E+02  0.33959801345E+02  0.00000000000E+00 0. -1.
         25    1    1    2    0    0  0.46001876185E+02 -0.62015443128E+02  0.12093058981E+04  0.12176957104E+04  0.12000000000E+03 0.  0.
         25    1    1    2    0    0 -0.46001876185E+02  0.62015443128E+02  0.14125945783E+03  0.20078924828E+03  0.12000000000E+03 0.  0.
<mgrwt>
<rscale>  0 0.43367361E+03</rscale>
<asrwt>0</asrwt>
<pdfrwt beam="1">  1        2 0.21300383E+00 0.43367361E+03</pdfrwt>
<pdfrwt beam="2">  1       -2 0.52245859E-02 0.43367361E+03</pdfrwt>
<totfact> 0.28855213E+03</totfact>
</mgrwt>
</event>
<event>
 4    1  0.1759998E-004  0.3360680E+03  0.7818608E-02  0.1068483E+00
         -1   -1    0    0    0  501 -0.00000000000E+00  0.00000000000E+00  0.20048184060E+03  0.20048184060E+03  0.00000000000E+00 0.  1.
          1   -1    0    0  501    0  0.00000000000E+00 -0.00000000000E+00 -0.14083785525E+03  0.14083785525E+03  0.00000000000E+00 0.  1.
         25    1    1    2    0    0  0.80615081400E+02  0.21666789718E+02  0.11398547686E+03  0.18536701449E+03  0.12000000000E+03 0.  0.
         25    1    1    2    0    0 -0.80615081400E+02 -0.21666789718E+02 -0.54341491506E+02  0.15595268137E+03  0.12000000000E+03 0.  0.
<mgrwt>
<rscale>  0 0.33606804E+03</rscale>
<asrwt>0</asrwt>
<pdfrwt beam="1">  1        1 0.21667362E-01 0.33606804E+03</pdfrwt>
<pdfrwt beam="2">  1       -1 0.30843360E-01 0.33606804E+03</pdfrwt>
<totfact> 0.22477730E+03</totfact>
</mgrwt>
</event>
<event>
 4    1  0.1759998E-004  0.2558340E+03  0.7818608E-02  0.1109672E+00
         -2   -1    0    0    0  501 -0.00000000000E+00  0.00000000000E+00  0.24334143592E+02  0.24334143592E+02  0.00000000000E+00 0. -1.
          2   -1    0    0  501    0  0.00000000000E+00 -0.00000000000E+00 -0.67241996387E+03  0.67241996387E+03  0.00000000000E+00 0. -1.
         25    1    1    2    0    0 -0.15265161315E+02  0.41435225613E+02 -0.33380980721E+03  0.35746173286E+03  0.12000000000E+03 0.  0.
         25    1    1    2    0    0  0.15265161315E+02 -0.41435225613E+02 -0.31427601307E+03  0.33929237460E+03  0.12000000000E+03 0.  0.
<mgrwt>
<rscale>  0 0.25583404E+03</rscale>
<asrwt>0</asrwt>
<pdfrwt beam="1">  1        2 0.10344921E+00 0.25583404E+03</pdfrwt>
<pdfrwt beam="2">  1       -2 0.37437148E-02 0.25583404E+03</pdfrwt>
<totfact> 0.13267342E+04</totfact>
</mgrwt>
</event>
<event>
 4    1  0.1759998E-004  0.2605308E+03  0.7818608E-02  0.1106825E+00
          2   -1    0    0  501    0  0.00000000000E+00  0.00000000000E+00  0.74653952579E+03  0.74653952579E+03  0.00000000000E+00 0.  1.
         -2   -1    0    0    0  501 -0.00000000000E+00 -0.00000000000E+00 -0.22730303915E+02  0.22730303915E+02  0.00000000000E+00 0.  1.
         25    1    1    2    0    0  0.20153968267E+02  0.99862546633E+01  0.22778681532E+03  0.25844291624E+03  0.12000000000E+03 0.  0.
         25    1    1    2    0    0 -0.20153968267E+02 -0.99862546633E+01  0.49602240656E+03  0.51082691347E+03  0.12000000000E+03 0.  0.
<mgrwt>
<rscale>  0 0.26053077E+03</rscale>
<asrwt>0</asrwt>
<pdfrwt beam="1">  1        2 0.11485222E+00 0.26053077E+03</pdfrwt>
<pdfrwt beam="2">  1       -2 0.34969704E-02 0.26053077E+03</pdfrwt>
<totfact> 0.12947796E+04</totfact>
</mgrwt>
</event>
<event>
 4    1  0.1759998E-004  0.2995952E+03  0.7818608E-02  0.1085443E+00
          2   -1    0    0  501    0  0.00000000000E+00  0.00000000000E+00  0.97212678855E+03  0.97212678855E+03  0.00000000000E+00 0.  1.
         -2   -1    0    0    0  501 -0.00000000000E+00 -0.00000000000E+00 -0.23082716118E+02  0.23082716118E+02  0.00000000000E+00 0.  1.
         25    1    1    2    0    0  0.57456060583E+01  0.61140258309E+02  0.25750134081E+03  0.29065113744E+03  0.12000000000E+03 0.  0.
         25    1    1    2    0    0 -0.57456060583E+01 -0.61140258309E+02  0.69154273162E+03  0.70455836723E+03  0.12000000000E+03 0.  0.
<mgrwt>
<rscale>  0 0.29959524E+03</rscale>
<asrwt>0</asrwt>
<pdfrwt beam="1">  1        2 0.14955794E+00 0.29959524E+03</pdfrwt>
<pdfrwt beam="2">  1       -2 0.35511878E-02 0.29959524E+03</pdfrwt>
<totfact> 0.89931688E+03</totfact>
</mgrwt>
</event>
<event>
 4    1  0.1759998E-004  0.2798381E+03  0.7818608E-02  0.1095777E+00
          2   -1    0    0  501    0  0.00000000000E+00  0.00000000000E+00  0.95062770227E+02  0.95062770227E+02  0.00000000000E+00 0.  1.
         -2   -1    0    0    0  501 -0.00000000000E+00 -0.00000000000E+00 -0.20594113995E+03  0.20594113995E+03  0.00000000000E+00 0.  1.
         25    1    1    2    0    0  0.46898028559E+02 -0.14090003585E+02 -0.11214655038E+03  0.17139078752E+03  0.12000000000E+03 0.  0.
         25    1    1    2    0    0 -0.46898028559E+02  0.14090003585E+02  0.12681806551E+01  0.12961312266E+03  0.12000000000E+03 0.  0.
<mgrwt>
<rscale>  0 0.27983806E+03</rscale>
<asrwt>0</asrwt>
<pdfrwt beam="1">  1        2 0.14625042E-01 0.27983806E+03</pdfrwt>
<pdfrwt beam="2">  1       -2 0.31683252E-01 0.27983806E+03</pdfrwt>
<totfact> 0.36992133E+03</totfact>
</mgrwt>
</event>
<event>
 4    1  0.1759998E-004  0.2595608E+03  0.7818608E-02  0.1107407E+00
          2   -1    0    0  501    0  0.00000000000E+00  0.00000000000E+00  0.12432463034E+04  0.12432463034E+04  0.00000000000E+00 0.  1.
         -2   -1    0    0    0  501 -0.00000000000E+00 -0.00000000000E+00 -0.13547556234E+02  0.13547556234E+02  0.00000000000E+00 0.  1.
         25    1    1    2    0    0 -0.12607315704E+02  0.26064107305E+02  0.42088701319E+03  0.43861618754E+03  0.12000000000E+03 0.  0.
         25    1    1    2    0    0  0.12607315704E+02 -0.26064107305E+02  0.80881173400E+03  0.81817767212E+03  0.12000000000E+03 0.  0.
<mgrwt>
<rscale>  0 0.25956078E+03</rscale>
<asrwt>0</asrwt>
<pdfrwt beam="1">  1        2 0.19126857E+00 0.25956078E+03</pdfrwt>
<pdfrwt beam="2">  1       -2 0.20842404E-02 0.25956078E+03</pdfrwt>
<totfact> 0.13689297E+04</totfact>
</mgrwt>
</event>
<event>
 4    1  0.1759998E-004  0.2618941E+03  0.7818608E-02  0.1106011E+00
         -2   -1    0    0    0  501 -0.00000000000E+00  0.00000000000E+00  0.21279008000E+03  0.21279008000E+03  0.00000000000E+00 0.  1.
          2   -1    0    0  501    0  0.00000000000E+00 -0.00000000000E+00 -0.80582395095E+02  0.80582395095E+02  0.00000000000E+00 0.  1.
         25    1    1    2    0    0 -0.34419062567E+01  0.46050668739E+02  0.38332417028E+02  0.13417110347E+03  0.12000000000E+03 0.  0.
         25    1    1    2    0    0  0.34419062567E+01 -0.46050668739E+02  0.93875267878E+02  0.15920137163E+03  0.12000000000E+03 0.  0.
<mgrwt>
<rscale>  0 0.26189413E+03</rscale>
<asrwt>0</asrwt>
<pdfrwt beam="1">  1        2 0.12397292E-01 0.26189413E+03</pdfrwt>
<pdfrwt beam="2">  1       -2 0.32736935E-01 0.26189413E+03</pdfrwt>
<totfact> 0.42384473E+03</totfact>
</mgrwt>
</event>
<event>
 4    1  0.1759998E-004  0.3192838E+03  0.7818608E-02  0.1075979E+00
          2   -1    0    0  501    0  0.00000000000E+00  0.00000000000E+00  0.13983681052E+04  0.13983681052E+04  0.00000000000E+00 0.  1.
         -2   -1    0    0    0  501 -0.00000000000E+00 -0.00000000000E+00 -0.18225192906E+02  0.18225192906E+02  0.00000000000E+00 0.  1.
         25    1    1    2    0    0  0.44426688907E+01  0.48641353676E+02  0.27624024101E+03  0.30511373182E+03  0.12000000000E+03 0.  0.
         25    1    1    2    0    0 -0.44426688907E+01 -0.48641353676E+02  0.11039026713E+04  0.11114795663E+04  0.12000000000E+03 0.  0.
<mgrwt>
<rscale>  0 0.31928375E+03</rscale>
<asrwt>0</asrwt>
<pdfrwt beam="1">  1        2 0.21513347E+00 0.31928375E+03</pdfrwt>
<pdfrwt beam="2">  1       -2 0.28038769E-02 0.31928375E+03</pdfrwt>
<totfact> 0.72751859E+03</totfact>
</mgrwt>
</event>
<event>
 4    1  0.1759998E-004  0.2839142E+03  0.7818608E-02  0.1093570E+00
         -2   -1    0    0    0  501 -0.00000000000E+00  0.00000000000E+00  0.19979831036E+03  0.19979831036E+03  0.00000000000E+00 0. -1.
          2   -1    0    0  501    0  0.00000000000E+00 -0.00000000000E+00 -0.10086083475E+03  0.10086083475E+03  0.00000000000E+00 0. -1.
         25    1    1    2    0    0 -0.82696299143E+01  0.69479516249E+02  0.80452407088E+02  0.16052532437E+03  0.12000000000E+03 0.  0.
         25    1    1    2    0    0  0.82696299143E+01 -0.69479516249E+02  0.18485068523E+02  0.14013382074E+03  0.12000000000E+03 0.  0.
<mgrwt>
<rscale>  0 0.28391424E+03</rscale>
<asrwt>0</asrwt>
<pdfrwt beam="1">  1        2 0.15517052E-01 0.28391424E+03</pdfrwt>
<pdfrwt beam="2">  1       -2 0.30738202E-01 0.28391424E+03</pdfrwt>
<totfact> 0.36463518E+03</totfact>
</mgrwt>
</event>
<event>
 4    1  0.1759998E-004  0.4003885E+03  0.7818608E-02  0.1043645E+00
         -1   -1    0    0    0  501 -0.00000000000E+00  0.00000000000E+00  0.43110110563E+02  0.43110110563E+02  0.00000000000E+00 0.  1.
          1   -1    0    0  501    0  0.00000000000E+00 -0.00000000000E+00 -0.92965980770E+03  0.92965980770E+03  0.00000000000E+00 0.  1.
         25    1    1    2    0    0  0.67195372241E+02 -0.52076816779E+02 -0.77328925210E+03  0.78714895688E+03  0.12000000000E+03 0.  0.
         25    1    1    2    0    0 -0.67195372241E+02  0.52076816779E+02 -0.11326044504E+03  0.18562096139E+03  0.12000000000E+03 0.  0.
<mgrwt>
<rscale>  0 0.40038850E+03</rscale>
<asrwt>0</asrwt>
<pdfrwt beam="1">  1        1 0.14302458E+00 0.40038850E+03</pdfrwt>
<pdfrwt beam="2">  1       -1 0.66323250E-02 0.40038850E+03</pdfrwt>
<totfact> 0.20803279E+03</totfact>
</mgrwt>
</event>
<event>
 4    1  0.1759998E-004  0.2790537E+03  0.7818608E-02  0.1096207E+00
          1   -1    0    0  501    0  0.00000000000E+00  0.00000000000E+00  0.44952417456E+03  0.44952417456E+03  0.00000000000E+00 0.  1.
         -1   -1    0    0    0  501 -0.00000000000E+00 -0.00000000000E+00 -0.43307455661E+02  0.43307455661E+02  0.00000000000E+00 0.  1.
         25    1    1    2    0    0  0.22228243186E+02 -0.95890396163E+01  0.84877106753E+02  0.14896364565E+03  0.12000000000E+03 0.  0.
         25    1    1    2    0    0 -0.22228243186E+02  0.95890396163E+01  0.32133961214E+03  0.34386798456E+03  0.12000000000E+03 0.  0.
<mgrwt>
<rscale>  0 0.27905375E+03</rscale>
<asrwt>0</asrwt>
<pdfrwt beam="1">  1        1 0.69157562E-01 0.27905375E+03</pdfrwt>
<pdfrwt beam="2">  1       -1 0.66626858E-02 0.27905375E+03</pdfrwt>
<totfact> 0.58996438E+03</totfact>
</mgrwt>
</event>
<event>
 4    1  0.1759998E-004  0.2685708E+03  0.7818608E-02  0.1102100E+00
         -2   -1    0    0    0  501 -0.00000000000E+00  0.00000000000E+00  0.13872682692E+02  0.13872682692E+02  0.00000000000E+00 0.  1.
          2   -1    0    0  501    0  0.00000000000E+00 -0.00000000000E+00 -0.12998615332E+04  0.12998615332E+04  0.00000000000E+00 0.  1.
         25    1    1    2    0    0  0.46364662130E+02 -0.25878248184E+02 -0.50350294363E+03  0.52032161195E+03  0.12000000000E+03 0.  0.
         25    1    1    2    0    0 -0.46364662130E+02  0.25878248184E+02 -0.78248590684E+03  0.79341260390E+03  0.12000000000E+03 0.  0.
<mgrwt>
<rscale>  0 0.26857078E+03</rscale>
<asrwt>0</asrwt>
<pdfrwt beam="1">  1        2 0.19997872E+00 0.26857078E+03</pdfrwt>
<pdfrwt beam="2">  1       -2 0.21342586E-02 0.26857078E+03</pdfrwt>
<totfact> 0.12306768E+04</totfact>
</mgrwt>
</event>
<event>
 4    1  0.1759998E-004  0.3030100E+03  0.7818608E-02  0.1083746E+00
         -4   -1    0    0    0  501 -0.00000000000E+00  0.00000000000E+00  0.86499089380E+03  0.86499089380E+03  0.00000000000E+00 0. -1.
          4   -1    0    0  501    0  0.00000000000E+00 -0.00000000000E+00 -0.26536426937E+02  0.26536426937E+02  0.00000000000E+00 0. -1.
         25    1    1    2    0    0 -0.38398328225E+02  0.30079639034E+02  0.65042326436E+03  0.66319653129E+03  0.12000000000E+03 0.  0.
         25    1    1    2    0    0  0.38398328225E+02 -0.30079639034E+02  0.18803120251E+03  0.22833078945E+03  0.12000000000E+03 0.  0.
<mgrwt>
<rscale>  0 0.30301002E+03</rscale>
<asrwt>0</asrwt>
<pdfrwt beam="1">  1        4 0.40825279E-02 0.30301002E+03</pdfrwt>
<pdfrwt beam="2">  1       -4 0.13307550E+00 0.30301002E+03</pdfrwt>
<totfact> 0.26809442E+02</totfact>
</mgrwt>
</event>
<event>
 4    1  0.1759998E-004  0.2850148E+03  0.7818608E-02  0.1092981E+00
          2   -1    0    0  501    0  0.00000000000E+00  0.00000000000E+00  0.69922537464E+02  0.69922537464E+02  0.00000000000E+00 0.  1.
         -2   -1    0    0    0  501 -0.00000000000E+00 -0.00000000000E+00 -0.29044087587E+03  0.29044087587E+03  0.00000000000E+00 0.  1.
         25    1    1    2    0    0 -0.38497426079E+02  0.37416247536E+02 -0.17981471817E+03  0.22274505666E+03  0.12000000000E+03 0.  0.
         25    1    1    2    0    0  0.38497426079E+02 -0.37416247536E+02 -0.40703620235E+02  0.13761835668E+03  0.12000000000E+03 0.  0.
<mgrwt>
<rscale>  0 0.28501483E+03</rscale>
<asrwt>0</asrwt>
<pdfrwt beam="1">  1        2 0.10757313E-01 0.28501483E+03</pdfrwt>
<pdfrwt beam="2">  1       -2 0.44683212E-01 0.28501483E+03</pdfrwt>
<totfact> 0.28033043E+03</totfact>
</mgrwt>
</event>
<event>
 4    1  0.1759998E-004  0.2580238E+03  0.7818608E-02  0.1108336E+00
         -1   -1    0    0    0  501 -0.00000000000E+00  0.00000000000E+00  0.46146177522E+01  0.46146177522E+01  0.00000000000E+00 0. -1.
          1   -1    0    0  501    0  0.00000000000E+00 -0.00000000000E+00 -0.36068152301E+04  0.36068152301E+04  0.00000000000E+00 0. -1.
         25    1    1    2    0    0  0.33327024993E+02  0.16872531391E+02 -0.13933477909E+04  0.13990044458E+04  0.12000000000E+03 0.  0.
         25    1    1    2    0    0 -0.33327024993E+02 -0.16872531391E+02 -0.22088528215E+04  0.22124254021E+04  0.12000000000E+03 0.  0.
<mgrwt>
<rscale>  0 0.25802383E+03</rscale>
<asrwt>0</asrwt>
<pdfrwt beam="1">  1        1 0.55489775E+00 0.25802383E+03</pdfrwt>
<pdfrwt beam="2">  1       -1 0.70993723E-03 0.25802383E+03</pdfrwt>
<totfact> 0.80447749E+02</totfact>
</mgrwt>
</event>
<event>
 4    1  0.1759998E-004  0.2964728E+03  0.7818608E-02  0.1087017E+00
         -1   -1    0    0    0  501 -0.00000000000E+00  0.00000000000E+00  0.11348552429E+02  0.11348552429E+02  0.00000000000E+00 0. -1.
          1   -1    0    0  501    0  0.00000000000E+00 -0.00000000000E+00 -0.19362844388E+04  0.19362844388E+04  0.00000000000E+00 0. -1.
         25    1    1    2    0    0 -0.59593965070E+02 -0.44987930015E+02 -0.66877536939E+03  0.68354652309E+03  0.12000000000E+03 0.  0.
         25    1    1    2    0    0  0.59593965070E+02  0.44987930015E+02 -0.12561605170E+04  0.12640864681E+04  0.12000000000E+03 0.  0.
<mgrwt>
<rscale>  0 0.29647277E+03</rscale>
<asrwt>0</asrwt>
<pdfrwt beam="1">  1        1 0.29789009E+00 0.29647277E+03</pdfrwt>
<pdfrwt beam="2">  1       -1 0.17459301E-02 0.29647277E+03</pdfrwt>
<totfact> 0.31028046E+03</totfact>
</mgrwt>
</event>
<event>
 4    1  0.1759998E-004  0.2669897E+03  0.7818608E-02  0.1103015E+00
         -3   -1    0    0    0  501 -0.00000000000E+00  0.00000000000E+00  0.25787023021E+03  0.25787023021E+03  0.00000000000E+00 0. -1.
          3   -1    0    0  501    0  0.00000000000E+00 -0.00000000000E+00 -0.69107920611E+02  0.69107920611E+02  0.00000000000E+00 0. -1.
         25    1    1    2    0    0  0.50638315978E+02  0.28712097316E+02  0.87426087515E+02  0.15947396137E+03  0.12000000000E+03 0.  0.
         25    1    1    2    0    0 -0.50638315978E+02 -0.28712097316E+02  0.10133622209E+03  0.16750418945E+03  0.12000000000E+03 0.  0.
<mgrwt>
<rscale>  0 0.26698970E+03</rscale>
<asrwt>0</asrwt>
<pdfrwt beam="1">  1        3 0.10631988E-01 0.26698970E+03</pdfrwt>
<pdfrwt beam="2">  1       -3 0.39672343E-01 0.26698970E+03</pdfrwt>
<totfact> 0.10653902E+03</totfact>
</mgrwt>
</event>
<event>
 4    1  0.1759998E-004  0.2548296E+03  0.7818608E-02  0.1110290E+00
          1   -1    0    0  501    0  0.00000000000E+00  0.00000000000E+00  0.72663150356E+02  0.72663150356E+02  0.00000000000E+00 0. -1.
         -1   -1    0    0    0  501 -0.00000000000E+00 -0.00000000000E+00 -0.22342181219E+03  0.22342181219E+03  0.00000000000E+00 0. -1.
         25    1    1    2    0    0  0.97296543896E+01 -0.36565376711E+02 -0.98699550522E+02  0.15991652267E+03  0.12000000000E+03 0.  0.
         25    1    1    2    0    0 -0.97296543896E+01  0.36565376711E+02 -0.52059111313E+02  0.13616843988E+03  0.12000000000E+03 0.  0.
<mgrwt>
<rscale>  0 0.25482961E+03</rscale>
<asrwt>0</asrwt>
<pdfrwt beam="1">  1        1 0.11178946E-01 0.25482961E+03</pdfrwt>
<pdfrwt beam="2">  1       -1 0.34372586E-01 0.25482961E+03</pdfrwt>
<totfact> 0.44135720E+03</totfact>
</mgrwt>
</event>
<event>
 4    1  0.1759998E-004  0.3058618E+03  0.7818608E-02  0.1082347E+00
         -4   -1    0    0    0  501 -0.00000000000E+00  0.00000000000E+00  0.28677403061E+03  0.28677403061E+03  0.00000000000E+00 0.  1.
          4   -1    0    0  501    0  0.00000000000E+00 -0.00000000000E+00 -0.81554996983E+02  0.81554996983E+02  0.00000000000E+00 0.  1.
         25    1    1    2    0    0 -0.81202451305E+02  0.14388446050E+02  0.15892581810E+03  0.21554183153E+03  0.12000000000E+03 0.  0.
         25    1    1    2    0    0  0.81202451305E+02 -0.14388446050E+02  0.46293215520E+02  0.15278719606E+03  0.12000000000E+03 0.  0.
<mgrwt>
<rscale>  0 0.30586177E+03</rscale>
<asrwt>0</asrwt>
<pdfrwt beam="1">  1        4 0.12546923E-01 0.30586177E+03</pdfrwt>
<pdfrwt beam="2">  1       -4 0.44119081E-01 0.30586177E+03</pdfrwt>
<totfact> 0.48852921E+02</totfact>
</mgrwt>
</event>
<event>
 4    1  0.1759998E-004  0.2684778E+03  0.7818608E-02  0.1102154E+00
         -2   -1    0    0    0  501 -0.00000000000E+00  0.00000000000E+00  0.60298775946E+01  0.60298775946E+01  0.00000000000E+00 0.  1.
          2   -1    0    0  501    0  0.00000000000E+00 -0.00000000000E+00 -0.29884656246E+04  0.29884656246E+04  0.00000000000E+00 0.  1.
         25    1    1    2    0    0 -0.27483811851E+02 -0.24543567336E+02 -0.96070762866E+03  0.96887403432E+03  0.12000000000E+03 0.  0.
         25    1    1    2    0    0  0.27483811851E+02  0.24543567336E+02 -0.20217281183E+04  0.20256214678E+04  0.12000000000E+03 0.  0.
<mgrwt>
<rscale>  0 0.26847780E+03</rscale>
<asrwt>0</asrwt>
<pdfrwt beam="1">  1        2 0.45976368E+00 0.26847780E+03</pdfrwt>
<pdfrwt beam="2">  1       -2 0.92767400E-03 0.26847780E+03</pdfrwt>
<totfact> 0.50350029E+03</totfact>
</mgrwt>
</event>
<event>
 4    1  0.1759998E-004  0.3743647E+03  0.7818608E-02  0.1053036E+00
         -2   -1    0    0    0  501 -0.00000000000E+00  0.00000000000E+00  0.11599794929E+02  0.11599794929E+02  0.00000000000E+00 0. -1.
          2   -1    0    0  501    0  0.00000000000E+00 -0.00000000000E+00 -0.30205045916E+04  0.30205045916E+04  0.00000000000E+00 0. -1.
         25    1    1    2    0    0  0.34106938301E+02 -0.15273293459E+02 -0.26279170771E+04  0.26309208883E+04  0.12000000000E+03 0.  0.
         25    1    1    2    0    0 -0.34106938301E+02  0.15273293459E+02 -0.38098771958E+03  0.40118349817E+03  0.12000000000E+03 0.  0.
<mgrwt>
<rscale>  0 0.37436471E+03</rscale>
<asrwt>0</asrwt>
<pdfrwt beam="1">  1        2 0.46469300E+00 0.37436471E+03</pdfrwt>
<pdfrwt beam="2">  1       -2 0.17845839E-02 0.37436471E+03</pdfrwt>
<totfact> 0.18297446E+03</totfact>
</mgrwt>
</event>
<event>
 4    1  0.1759998E-004  0.2878883E+03  0.7818608E-02  0.1091457E+00
         -2   -1    0    0    0  501 -0.00000000000E+00  0.00000000000E+00  0.24015131656E+02  0.24015131656E+02  0.00000000000E+00 0. -1.
          2   -1    0    0  501    0  0.00000000000E+00 -0.00000000000E+00 -0.86278595657E+03  0.86278595657E+03  0.00000000000E+00 0. -1.
         25    1    1    2    0    0  0.49049464345E+02 -0.13950507648E+02 -0.60724859053E+03  0.62108881596E+03  0.12000000000E+03 0.  0.
         25    1    1    2    0    0 -0.49049464345E+02  0.13950507648E+02 -0.23152223438E+03  0.26571227226E+03  0.12000000000E+03 0.  0.
<mgrwt>
<rscale>  0 0.28788830E+03</rscale>
<asrwt>0</asrwt>
<pdfrwt beam="1">  1        2 0.13273630E+00 0.28788830E+03</pdfrwt>
<pdfrwt beam="2">  1       -2 0.36946356E-02 0.28788830E+03</pdfrwt>
<totfact> 0.99494951E+03</totfact>
</mgrwt>
</event>
<event>
 4    1  0.1759998E-004  0.2457995E+03  0.7818608E-02  0.1115989E+00
         -1   -1    0    0    0  501 -0.00000000000E+00  0.00000000000E+00  0.59267400692E+03  0.59267400692E+03  0.00000000000E+00 0. -1.
          1   -1    0    0  501    0  0.00000000000E+00 -0.00000000000E+00 -0.25485095297E+02  0.25485095297E+02  0.00000000000E+00 0. -1.
         25    1    1    2    0    0 -0.10064208909E+02 -0.89057292843E+01  0.34114938968E+03  0.36188880391E+03  0.12000000000E+03 0.  0.
         25    1    1    2    0    0  0.10064208909E+02  0.89057292843E+01  0.22603952194E+03  0.25627029831E+03  0.12000000000E+03 0.  0.
<mgrwt>
<rscale>  0 0.24579954E+03</rscale>
<asrwt>0</asrwt>
<pdfrwt beam="1">  1        1 0.39207844E-02 0.24579954E+03</pdfrwt>
<pdfrwt beam="2">  1       -1 0.91180606E-01 0.24579954E+03</pdfrwt>
<totfact> 0.28706139E+03</totfact>
</mgrwt>
</event>
<event>
 4    1  0.1759998E-004  0.2868540E+03  0.7818608E-02  0.1092003E+00
          2   -1    0    0  501    0  0.00000000000E+00  0.00000000000E+00  0.29682929888E+04  0.29682929888E+04  0.00000000000E+00 0.  1.
         -2   -1    0    0    0  501 -0.00000000000E+00 -0.00000000000E+00 -0.69303489688E+01  0.69303489688E+01  0.00000000000E+00 0.  1.
         25    1    1    2    0    0 -0.60535254173E+01  0.55669521651E+02  0.90923105087E+03  0.91882362000E+03  0.12000000000E+03 0.  0.
         25    1    1    2    0    0  0.60535254173E+01 -0.55669521651E+02  0.20521315889E+04  0.20563997177E+04  0.12000000000E+03 0.  0.
<mgrwt>
<rscale>  0 0.28685401E+03</rscale>
<asrwt>0</asrwt>
<pdfrwt beam="1">  1        2 0.45665944E+00 0.28685401E+03</pdfrwt>
<pdfrwt beam="2">  1       -2 0.10662099E-02 0.28685401E+03</pdfrwt>
<totfact> 0.42218698E+03</totfact>
</mgrwt>
</event>
<event>
 4    1  0.1759998E-004  0.2488640E+03  0.7818608E-02  0.1114025E+00
         -1   -1    0    0    0  501 -0.00000000000E+00  0.00000000000E+00  0.40448157752E+03  0.40448157752E+03  0.00000000000E+00 0. -1.
          1   -1    0    0  501    0  0.00000000000E+00 -0.00000000000E+00 -0.38279412077E+02  0.38279412077E+02  0.00000000000E+00 0. -1.
         25    1    1    2    0    0  0.23008448398E+02 -0.10669068072E+02  0.14577755576E+03  0.19051066499E+03  0.12000000000E+03 0.  0.
         25    1    1    2    0    0 -0.23008448398E+02  0.10669068072E+02  0.22042460968E+03  0.25225032461E+03  0.12000000000E+03 0.  0.
<mgrwt>
<rscale>  0 0.24886395E+03</rscale>
<asrwt>0</asrwt>
<pdfrwt beam="1">  1        1 0.58891406E-02 0.24886395E+03</pdfrwt>
<pdfrwt beam="2">  1       -1 0.62227932E-01 0.24886395E+03</pdfrwt>
<totfact> 0.35621159E+03</totfact>
</mgrwt>
</event>
<event>
 4    1  0.1759998E-004  0.2535683E+03  0.7818608E-02  0.1111070E+00
          2   -1    0    0  501    0  0.00000000000E+00  0.00000000000E+00  0.11549595848E+03  0.11549595848E+03  0.00000000000E+00 0.  1.
         -2   -1    0    0    0  501 -0.00000000000E+00 -0.00000000000E+00 -0.13917562036E+03  0.13917562036E+03  0.00000000000E+00 0.  1.
         25    1    1    2    0    0 -0.32918499530E+02  0.52318468332E+01 -0.35675384979E+02  0.12955204717E+03  0.12000000000E+03 0.  0.
         25    1    1    2    0    0  0.32918499530E+02 -0.52318468332E+01  0.11995723097E+02  0.12511953167E+03  0.12000000000E+03 0.  0.
<mgrwt>
<rscale>  0 0.25356831E+03</rscale>
<asrwt>0</asrwt>
<pdfrwt beam="1">  1        2 0.17768609E-01 0.25356831E+03</pdfrwt>
<pdfrwt beam="2">  1       -2 0.21411634E-01 0.25356831E+03</pdfrwt>
<totfact> 0.58815447E+03</totfact>
</mgrwt>
</event>
<event>
 4    1  0.1759998E-004  0.3213669E+03  0.7818608E-02  0.1075022E+00
         -2   -1    0    0    0  501 -0.00000000000E+00  0.00000000000E+00  0.53504294269E+02  0.53504294269E+02  0.00000000000E+00 0.  1.
          2   -1    0    0  501    0  0.00000000000E+00 -0.00000000000E+00 -0.48256273895E+03  0.48256273895E+03  0.00000000000E+00 0.  1.
         25    1    1    2    0    0  0.20012158809E+02  0.21201703312E+02 -0.43039324987E+02  0.13077607663E+03  0.12000000000E+03 0.  0.
         25    1    1    2    0    0 -0.20012158809E+02 -0.21201703312E+02 -0.38601911970E+03  0.40529095659E+03  0.12000000000E+03 0.  0.
<mgrwt>
<rscale>  0 0.32136695E+03</rscale>
<asrwt>0</asrwt>
<pdfrwt beam="1">  1        2 0.74240418E-01 0.32136695E+03</pdfrwt>
<pdfrwt beam="2">  1       -2 0.82314303E-02 0.32136695E+03</pdfrwt>
<totfact> 0.58640672E+03</totfact>
</mgrwt>
</event>
<event>
 4    1  0.1759998E-004  0.2572188E+03  0.7818608E-02  0.1108826E+00
         -2   -1    0    0    0  501 -0.00000000000E+00  0.00000000000E+00  0.34881672111E+02  0.34881672111E+02  0.00000000000E+00 0.  1.
          2   -1    0    0  501    0  0.00000000000E+00 -0.00000000000E+00 -0.47418549216E+03  0.47418549216E+03  0.00000000000E+00 0.  1.
         25    1    1    2    0    0 -0.23708750229E+02  0.86951700462E+01 -0.14293264863E+03  0.18832804588E+03  0.12000000000E+03 0.  0.
         25    1    1    2    0    0  0.23708750229E+02 -0.86951700462E+01 -0.29637117142E+03  0.32073911839E+03  0.12000000000E+03 0.  0.
<mgrwt>
<rscale>  0 0.25721884E+03</rscale>
<asrwt>0</asrwt>
<pdfrwt beam="1">  1        2 0.72951612E-01 0.25721884E+03</pdfrwt>
<pdfrwt beam="2">  1       -2 0.53664112E-02 0.25721884E+03</pdfrwt>
<totfact> 0.11496153E+04</totfact>
</mgrwt>
</event>
<event>
 4    1  0.1759998E-004  0.2582399E+03  0.7818608E-02  0.1108205E+00
          3   -1    0    0  501    0  0.00000000000E+00  0.00000000000E+00  0.64128886255E+02  0.64128886255E+02  0.00000000000E+00 0.  1.
         -3   -1    0    0    0  501 -0.00000000000E+00 -0.00000000000E+00 -0.25997586164E+03  0.25997586164E+03  0.00000000000E+00 0.  1.
         25    1    1    2    0    0  0.24919099121E+02 -0.36106209478E+02 -0.74532904030E+02  0.14791813157E+03  0.12000000000E+03 0.  0.
         25    1    1    2    0    0 -0.24919099121E+02  0.36106209478E+02 -0.12131407136E+03  0.17618661633E+03  0.12000000000E+03 0.  0.
<mgrwt>
<rscale>  0 0.25823991E+03</rscale>
<asrwt>0</asrwt>
<pdfrwt beam="1">  1        3 0.98659826E-02 0.25823991E+03</pdfrwt>
<pdfrwt beam="2">  1       -3 0.39996286E-01 0.25823991E+03</pdfrwt>
<totfact> 0.11838793E+03</totfact>
</mgrwt>
</event>
<event>
 4    1  0.1759998E-004  0.4080771E+03  0.7818608E-02  0.1041018E+00
         -2   -1    0    0    0  501 -0.00000000000E+00  0.00000000000E+00  0.66925978534E+03  0.66925978534E+03  0.00000000000E+00 0. -1.
          2   -1    0    0  501    0  0.00000000000E+00 -0.00000000000E+00 -0.62205635005E+02  0.62205635005E+02  0.00000000000E+00 0. -1.
         25    1    1    2    0    0 -0.16221738104E+02 -0.81968790067E+02  0.48456183675E+02  0.15404554219E+03  0.12000000000E+03 0.  0.
         25    1    1    2    0    0  0.16221738104E+02  0.81968790067E+02  0.55859796666E+03  0.57741987815E+03  0.12000000000E+03 0.  0.
<mgrwt>
<rscale>  0 0.40807710E+03</rscale>
<asrwt>0</asrwt>
<pdfrwt beam="1">  1        2 0.95700982E-02 0.40807710E+03</pdfrwt>
<pdfrwt beam="2">  1       -2 0.10296304E+00 0.40807710E+03</pdfrwt>
<totfact> 0.54544050E+02</totfact>
</mgrwt>
</event>
<event>
 4    1  0.1759998E-004  0.2901197E+03  0.7818608E-02  0.1090287E+00
         -1   -1    0    0    0  501 -0.00000000000E+00  0.00000000000E+00  0.28594309441E+03  0.28594309441E+03  0.00000000000E+00 0. -1.
          1   -1    0    0  501    0  0.00000000000E+00 -0.00000000000E+00 -0.73589346532E+02  0.73589346532E+02  0.00000000000E+00 0. -1.
         25    1    1    2    0    0  0.29282676618E+02 -0.68244171925E+02  0.14779119665E+03  0.20434524697E+03  0.12000000000E+03 0.  0.
         25    1    1    2    0    0 -0.29282676618E+02  0.68244171925E+02  0.64562551228E+02  0.15518719397E+03  0.12000000000E+03 0.  0.
<mgrwt>
<rscale>  0 0.29011974E+03</rscale>
<asrwt>0</asrwt>
<pdfrwt beam="1">  1        1 0.11321438E-01 0.29011974E+03</pdfrwt>
<pdfrwt beam="2">  1       -1 0.43991245E-01 0.29011974E+03</pdfrwt>
<totfact> 0.28162497E+03</totfact>
</mgrwt>
</event>
<event>
 4    1  0.1759998E-004  0.2418809E+03  0.7818608E-02  0.1118546E+00
          1   -1    0    0  501    0  0.00000000000E+00  0.00000000000E+00  0.12247348334E+02  0.12247348334E+02  0.00000000000E+00 0.  1.
         -1   -1    0    0    0  501 -0.00000000000E+00 -0.00000000000E+00 -0.11942659162E+04  0.11942659162E+04  0.00000000000E+00 0.  1.
         25    1    1    2    0    0  0.41630306998E+01 -0.46430499260E+01 -0.52267086391E+03  0.53630562249E+03  0.12000000000E+03 0.  0.
         25    1    1    2    0    0 -0.41630306998E+01  0.46430499260E+01 -0.65934770394E+03  0.67020764202E+03  0.12000000000E+03 0.  0.
<mgrwt>
<rscale>  0 0.24188089E+03</rscale>
<asrwt>0</asrwt>
<pdfrwt beam="1">  1        1 0.18842071E-02 0.24188089E+03</pdfrwt>
<pdfrwt beam="2">  1       -1 0.18373325E+00 0.24188089E+03</pdfrwt>
<totfact> 0.14132076E+03</totfact>
</mgrwt>
</event>
<event>
 4    1  0.1759998E-004  0.2959944E+03  0.7818608E-02  0.1087260E+00
          2   -1    0    0  501    0  0.00000000000E+00  0.00000000000E+00  0.41155659004E+03  0.41155659004E+03  0.00000000000E+00 0.  1.
         -2   -1    0    0    0  501 -0.00000000000E+00 -0.00000000000E+00 -0.53220308768E+02  0.53220308768E+02  0.00000000000E+00 0.  1.
         25    1    1    2    0    0 -0.71766365965E+02  0.16485089579E+02  0.10753779713E+03  0.17716248834E+03  0.12000000000E+03 0.  0.
         25    1    1    2    0    0  0.71766365965E+02 -0.16485089579E+02  0.25079848414E+03  0.28761441046E+03  0.12000000000E+03 0.  0.
<mgrwt>
<rscale>  0 0.29599438E+03</rscale>
<asrwt>0</asrwt>
<pdfrwt beam="1">  1        2 0.63316397E-01 0.29599438E+03</pdfrwt>
<pdfrwt beam="2">  1       -2 0.81877401E-02 0.29599438E+03</pdfrwt>
<totfact> 0.70333399E+03</totfact>
</mgrwt>
</event>
<event>
 4    1  0.1759998E-004  0.3524210E+03  0.7818608E-02  0.1061626E+00
          1   -1    0    0  501    0  0.00000000000E+00  0.00000000000E+00  0.41334115479E+03  0.41334115479E+03  0.00000000000E+00 0. -1.
         -1   -1    0    0    0  501 -0.00000000000E+00 -0.00000000000E+00 -0.75119874233E+02  0.75119874233E+02  0.00000000000E+00 0. -1.
         25    1    1    2    0    0  0.38186430218E+02  0.12282162138E+03  0.18343304844E+03  0.25414766847E+03  0.12000000000E+03 0.  0.
         25    1    1    2    0    0 -0.38186430218E+02 -0.12282162138E+03  0.15478823212E+03  0.23431336055E+03  0.12000000000E+03 0.  0.
<mgrwt>
<rscale>  0 0.35242097E+03</rscale>
<asrwt>0</asrwt>
<pdfrwt beam="1">  1        1 0.63590946E-01 0.35242097E+03</pdfrwt>
<pdfrwt beam="2">  1       -1 0.11556904E-01 0.35242097E+03</pdfrwt>
<totfact> 0.28305784E+03</totfact>
</mgrwt>
</event>
<event>
 4    1  0.1759998E-004  0.3606127E+03  0.7818608E-02  0.1058342E+00
          1   -1    0    0  501    0  0.00000000000E+00  0.00000000000E+00  0.63728334700E+03  0.63728334700E+03  0.00000000000E+00 0.  1.
         -1   -1    0    0    0  501 -0.00000000000E+00 -0.00000000000E+00 -0.51014022493E+02  0.51014022493E+02  0.00000000000E+00 0.  1.
         25    1    1    2    0    0  0.13370194233E+02 -0.10385394166E+03  0.45448357948E+03  0.48158044739E+03  0.12000000000E+03 0.  0.
         25    1    1    2    0    0 -0.13370194233E+02  0.10385394166E+03  0.13178574503E+03  0.20671692210E+03  0.12000000000E+03 0.  0.
<mgrwt>
<rscale>  0 0.36061274E+03</rscale>
<asrwt>0</asrwt>
<pdfrwt beam="1">  1        1 0.98043586E-01 0.36061274E+03</pdfrwt>
<pdfrwt beam="2">  1       -1 0.78483116E-02 0.36061274E+03</pdfrwt>
<totfact> 0.28731863E+03</totfact>
</mgrwt>
</event>
<event>
 4    1  0.1759998E-004  0.3133616E+03  0.7818608E-02  0.1078746E+00
          2   -1    0    0  501    0  0.00000000000E+00  0.00000000000E+00  0.17009760417E+04  0.17009760417E+04  0.00000000000E+00 0.  1.
         -2   -1    0    0    0  501 -0.00000000000E+00 -0.00000000000E+00 -0.14432231504E+02  0.14432231504E+02  0.00000000000E+00 0.  1.
         25    1    1    2    0    0  0.30201867611E+01 -0.26752665851E+02  0.31184867942E+03  0.33522294897E+03  0.12000000000E+03 0.  0.
         25    1    1    2    0    0 -0.30201867611E+01  0.26752665851E+02  0.13746951308E+04  0.13801853243E+04  0.12000000000E+03 0.  0.
<mgrwt>
<rscale>  0 0.31336164E+03</rscale>
<asrwt>0</asrwt>
<pdfrwt beam="1">  1        2 0.26168846E+00 0.31336164E+03</pdfrwt>
<pdfrwt beam="2">  1       -2 0.22203446E-02 0.31336164E+03</pdfrwt>
<totfact> 0.70805574E+03</totfact>
</mgrwt>
</event>
<event>
 4    1  0.1759998E-004  0.2849285E+03  0.7818608E-02  0.1093027E+00
         -2   -1    0    0    0  501 -0.00000000000E+00  0.00000000000E+00  0.61214316733E+02  0.61214316733E+02  0.00000000000E+00 0. -1.
          2   -1    0    0  501    0  0.00000000000E+00 -0.00000000000E+00 -0.33155738847E+03  0.33155738847E+03  0.00000000000E+00 0. -1.
         25    1    1    2    0    0 -0.15835387242E+02  0.68697166263E+02 -0.17711937214E+03  0.22525836750E+03  0.12000000000E+03 0.  0.
         25    1    1    2    0    0  0.15835387242E+02 -0.68697166263E+02 -0.93223699596E+02  0.16751333770E+03  0.12000000000E+03 0.  0.
<mgrwt>
<rscale>  0 0.28492848E+03</rscale>
<asrwt>0</asrwt>
<pdfrwt beam="1">  1        2 0.51008830E-01 0.28492848E+03</pdfrwt>
<pdfrwt beam="2">  1       -2 0.94175870E-02 0.28492848E+03</pdfrwt>
<totfact> 0.71232466E+03</totfact>
</mgrwt>
</event>
<event>
 4    1  0.1759998E-004  0.2710570E+03  0.7818608E-02  0.1100676E+00
          2   -1    0    0  501    0  0.00000000000E+00  0.00000000000E+00  0.64998488745E+01  0.64998488745E+01  0.00000000000E+00 0. -1.
         -2   -1    0    0    0  501 -0.00000000000E+00 -0.00000000000E+00 -0.28259070748E+04  0.28259070748E+04  0.00000000000E+00 0. -1.
         25    1    1    2    0    0 -0.44688587008E+02  0.20599059184E+02 -0.18206460382E+04  0.18252598137E+04  0.12000000000E+03 0.  0.
         25    1    1    2    0    0  0.44688587008E+02 -0.20599059184E+02 -0.99876118765E+03  0.10071471099E+04  0.12000000000E+03 0.  0.
<mgrwt>
<rscale>  0 0.27105696E+03</rscale>
<asrwt>0</asrwt>
<pdfrwt beam="1">  1        2 0.99997811E-03 0.27105696E+03</pdfrwt>
<pdfrwt beam="2">  1       -2 0.43475434E+00 0.27105696E+03</pdfrwt>
<totfact> 0.77647957E+01</totfact>
</mgrwt>
</event>
<event>
 4    1  0.1759998E-004  0.3212015E+03  0.7818608E-02  0.1075098E+00
         -2   -1    0    0    0  501 -0.00000000000E+00  0.00000000000E+00  0.20168901465E+02  0.20168901465E+02  0.00000000000E+00 0.  1.
          2   -1    0    0  501    0  0.00000000000E+00 -0.00000000000E+00 -0.12788302766E+04  0.12788302766E+04  0.00000000000E+00 0.  1.
         25    1    1    2    0    0  0.93438790433E+02  0.51586949124E+02 -0.63241320152E+03  0.65248638173E+03  0.12000000000E+03 0.  0.
         25    1    1    2    0    0 -0.93438790433E+02 -0.51586949124E+02 -0.62624817359E+03  0.64651279632E+03  0.12000000000E+03 0.  0.
<mgrwt>
<rscale>  0 0.32120151E+03</rscale>
<asrwt>0</asrwt>
<pdfrwt beam="1">  1        2 0.19674315E+00 0.32120151E+03</pdfrwt>
<pdfrwt beam="2">  1       -2 0.31029075E-02 0.32120151E+03</pdfrwt>
<totfact> 0.72817432E+03</totfact>
</mgrwt>
</event>
<event>
 4    1  0.1759998E-004  0.3692634E+03  0.7818608E-02  0.1054975E+00
          2   -1    0    0  501    0  0.00000000000E+00  0.00000000000E+00  0.11732331295E+04  0.11732331295E+04  0.00000000000E+00 0.  1.
         -2   -1    0    0    0  501 -0.00000000000E+00 -0.00000000000E+00 -0.29055491655E+02  0.29055491655E+02  0.00000000000E+00 0.  1.
         25    1    1    2    0    0 -0.45961225738E+02 -0.13136503418E+03  0.51387636781E+03  0.54574547901E+03  0.12000000000E+03 0.  0.
         25    1    1    2    0    0  0.45961225738E+02  0.13136503418E+03  0.63030127000E+03  0.65654314210E+03  0.12000000000E+03 0.  0.
<mgrwt>
<rscale>  0 0.36926340E+03</rscale>
<asrwt>0</asrwt>
<pdfrwt beam="1">  1        2 0.18049737E+00 0.36926340E+03</pdfrwt>
<pdfrwt beam="2">  1       -2 0.44700765E-02 0.36926340E+03</pdfrwt>
<totfact> 0.48270696E+03</totfact>
</mgrwt>
</event>
<event>
 4    1  0.1759998E-004  0.2845561E+03  0.7818608E-02  0.1093226E+00
          2   -1    0    0  501    0  0.00000000000E+00  0.00000000000E+00  0.34418504959E+03  0.34418504959E+03  0.00000000000E+00 0.  1.
         -2   -1    0    0    0  501 -0.00000000000E+00 -0.00000000000E+00 -0.58814409719E+02  0.58814409719E+02  0.00000000000E+00 0.  1.
         25    1    1    2    0    0  0.57075438508E+02  0.81761552959E+00  0.70682875441E+02  0.15051359758E+03  0.12000000000E+03 0.  0.
         25    1    1    2    0    0 -0.57075438508E+02 -0.81761552959E+00  0.21468776443E+03  0.25248586172E+03  0.12000000000E+03 0.  0.
<mgrwt>
<rscale>  0 0.28455608E+03</rscale>
<asrwt>0</asrwt>
<pdfrwt beam="1">  1        2 0.52951545E-01 0.28455608E+03</pdfrwt>
<pdfrwt beam="2">  1       -2 0.90483710E-02 0.28455608E+03</pdfrwt>
<totfact> 0.72877851E+03</totfact>
</mgrwt>
</event>
<event>
 4    1  0.1759998E-004  0.3046835E+03  0.7818608E-02  0.1082923E+00
         -2   -1    0    0    0  501 -0.00000000000E+00  0.00000000000E+00  0.22096588983E+02  0.22096588983E+02  0.00000000000E+00 0.  1.
          2   -1    0    0  501    0  0.00000000000E+00 -0.00000000000E+00 -0.10502979170E+04  0.10502979170E+04  0.00000000000E+00 0.  1.
         25    1    1    2    0    0  0.61638458477E+02 -0.70718958289E+02 -0.52375950447E+03  0.54545805443E+03  0.12000000000E+03 0.  0.
         25    1    1    2    0    0 -0.61638458477E+02  0.70718958289E+02 -0.50444182351E+03  0.52693645152E+03  0.12000000000E+03 0.  0.
<mgrwt>
<rscale>  0 0.30468345E+03</rscale>
<asrwt>0</asrwt>
<pdfrwt beam="1">  1        2 0.16158427E+00 0.30468345E+03</pdfrwt>
<pdfrwt beam="2">  1       -2 0.33994757E-02 0.30468345E+03</pdfrwt>
<totfact> 0.86036945E+03</totfact>
</mgrwt>
</event>
<event>
 4    1  0.1759998E-004  0.2456313E+03  0.7818608E-02  0.1116097E+00
         -2   -1    0    0    0  501 -0.00000000000E+00  0.00000000000E+00  0.13781951771E+02  0.13781951771E+02  0.00000000000E+00 0.  1.
          2   -1    0    0  501    0  0.00000000000E+00 -0.00000000000E+00 -0.10944516352E+04  0.10944516352E+04  0.00000000000E+00 0.  1.
         25    1    1    2    0    0 -0.59428780315E+01  0.22791917923E+02 -0.59155699485E+03  0.60406495303E+03  0.12000000000E+03 0.  0.
         25    1    1    2    0    0  0.59428780315E+01 -0.22791917923E+02 -0.48911268856E+03  0.50416863392E+03  0.12000000000E+03 0.  0.
<mgrwt>
<rscale>  0 0.24563127E+03</rscale>
<asrwt>0</asrwt>
<pdfrwt beam="1">  1        2 0.16837723E+00 0.24563127E+03</pdfrwt>
<pdfrwt beam="2">  1       -2 0.21202996E-02 0.24563127E+03</pdfrwt>
<totfact> 0.16207803E+04</totfact>
</mgrwt>
</event>
<event>
 4    1  0.1759998E-004  0.4204305E+03  0.7818608E-02  0.1036926E+00
          1   -1    0    0  501    0  0.00000000000E+00  0.00000000000E+00  0.48285861312E+03  0.48285861312E+03  0.00000000000E+00 0.  1.
         -1   -1    0    0    0  501 -0.00000000000E+00 -0.00000000000E+00 -0.91518429276E+02  0.91518429276E+02  0.00000000000E+00 0.  1.
         25    1    1    2    0    0 -0.13310893852E+03  0.18408959912E+02  0.34365523715E+03  0.38801520762E+03  0.12000000000E+03 0.  0.
         25    1    1    2    0    0  0.13310893852E+03 -0.18408959912E+02  0.47684946689E+02  0.18636183478E+03  0.12000000000E+03 0.  0.
<mgrwt>
<rscale>  0 0.42043055E+03</rscale>
<asrwt>0</asrwt>
<pdfrwt beam="1">  1        1 0.74285939E-01 0.42043055E+03</pdfrwt>
<pdfrwt beam="2">  1       -1 0.14079759E-01 0.42043055E+03</pdfrwt>
<totfact> 0.16893816E+03</totfact>
</mgrwt>
</event>
<event>
 4    1  0.1759998E-004  0.4215729E+03  0.7818608E-02  0.1036556E+00
         -2   -1    0    0    0  501 -0.00000000000E+00  0.00000000000E+00  0.82483284884E+02  0.82483284884E+02  0.00000000000E+00 0.  1.
          2   -1    0    0  501    0  0.00000000000E+00 -0.00000000000E+00 -0.53866586651E+03  0.53866586651E+03  0.00000000000E+00 0.  1.
         25    1    1    2    0    0 -0.16694175076E+03 -0.42028953632E+02 -0.19880976349E+03  0.28906972022E+03  0.12000000000E+03 0.  0.
         25    1    1    2    0    0  0.16694175076E+03  0.42028953632E+02 -0.25737281813E+03  0.33207943117E+03  0.12000000000E+03 0.  0.
<mgrwt>
<rscale>  0 0.42157291E+03</rscale>
<asrwt>0</asrwt>
<pdfrwt beam="1">  1        2 0.82871668E-01 0.42157291E+03</pdfrwt>
<pdfrwt beam="2">  1       -2 0.12689737E-01 0.42157291E+03</pdfrwt>
<totfact> 0.25961654E+03</totfact>
</mgrwt>
</event>
<event>
 4    1  0.1759998E-004  0.2993629E+03  0.7818608E-02  0.1085560E+00
          2   -1    0    0  501    0  0.00000000000E+00  0.00000000000E+00  0.14211956553E+04  0.14211956553E+04  0.00000000000E+00 0.  1.
         -2   -1    0    0    0  501 -0.00000000000E+00 -0.00000000000E+00 -0.15764566142E+02  0.15764566142E+02  0.00000000000E+00 0.  1.
         25    1    1    2    0    0  0.86341966870E+02  0.21684161804E+01  0.81476337930E+03  0.82806944245E+03  0.12000000000E+03 0.  0.
         25    1    1    2    0    0 -0.86341966870E+02 -0.21684161804E+01  0.59066770987E+03  0.60889077900E+03  0.12000000000E+03 0.  0.
<mgrwt>
<rscale>  0 0.29936288E+03</rscale>
<asrwt>0</asrwt>
<pdfrwt beam="1">  1        2 0.21864538E+00 0.29936288E+03</pdfrwt>
<pdfrwt beam="2">  1       -2 0.24253190E-02 0.29936288E+03</pdfrwt>
<totfact> 0.87631237E+03</totfact>
</mgrwt>
</event>
<event>
 4    1  0.1759998E-004  0.2865607E+03  0.7818608E-02  0.1092159E+00
         -2   -1    0    0    0  501 -0.00000000000E+00  0.00000000000E+00  0.16324308677E+02  0.16324308677E+02  0.00000000000E+00 0.  1.
          2   -1    0    0  501    0  0.00000000000E+00 -0.00000000000E+00 -0.12575881673E+04  0.12575881673E+04  0.00000000000E+00 0.  1.
         25    1    1    2    0    0 -0.36060824010E+02  0.67468022310E+02 -0.54665162583E+03  0.56487194751E+03  0.12000000000E+03 0.  0.
         25    1    1    2    0    0  0.36060824010E+02 -0.67468022310E+02 -0.69461223282E+03  0.70904052849E+03  0.12000000000E+03 0.  0.
<mgrwt>
<rscale>  0 0.28656069E+03</rscale>
<asrwt>0</asrwt>
<pdfrwt beam="1">  1        2 0.19347514E+00 0.28656069E+03</pdfrwt>
<pdfrwt beam="2">  1       -2 0.25114317E-02 0.28656069E+03</pdfrwt>
<totfact> 0.10232579E+04</totfact>
</mgrwt>
</event>
<event>
 4    1  0.1759998E-004  0.2565798E+03  0.7818608E-02  0.1109216E+00
          1   -1    0    0  501    0  0.00000000000E+00  0.00000000000E+00  0.19327704541E+02  0.19327704541E+02  0.00000000000E+00 0. -1.
         -1   -1    0    0    0  501 -0.00000000000E+00 -0.00000000000E+00 -0.85153895786E+03  0.85153895786E+03  0.00000000000E+00 0. -1.
         25    1    1    2    0    0  0.20216023228E+02  0.36984607098E+02 -0.35913420065E+03  0.38099071227E+03  0.12000000000E+03 0.  0.
         25    1    1    2    0    0 -0.20216023228E+02 -0.36984607098E+02 -0.47307705267E+03  0.48987595013E+03  0.12000000000E+03 0.  0.
<mgrwt>
<rscale>  0 0.25657976E+03</rscale>
<asrwt>0</asrwt>
<pdfrwt beam="1">  1        1 0.29734927E-02 0.25657976E+03</pdfrwt>
<pdfrwt beam="2">  1       -1 0.13100601E+00 0.25657976E+03</pdfrwt>
<totfact> 0.18382538E+03</totfact>
</mgrwt>
</event>
<event>
 4    1  0.1759998E-004  0.2480070E+03  0.7818608E-02  0.1114571E+00
         -2   -1    0    0    0  501 -0.00000000000E+00  0.00000000000E+00  0.50213407855E+02  0.50213407855E+02  0.00000000000E+00 0.  1.
          2   -1    0    0  501    0  0.00000000000E+00 -0.00000000000E+00 -0.30623020043E+03  0.30623020043E+03  0.00000000000E+00 0.  1.
         25    1    1    2    0    0 -0.75355289930E+01 -0.24965293012E+02 -0.10324742754E+03  0.16043715700E+03  0.12000000000E+03 0.  0.
         25    1    1    2    0    0  0.75355289930E+01  0.24965293012E+02 -0.15276936504E+03  0.19600645129E+03  0.12000000000E+03 0.  0.
<mgrwt>
<rscale>  0 0.24800695E+03</rscale>
<asrwt>0</asrwt>
<pdfrwt beam="1">  1        2 0.47112338E-01 0.24800695E+03</pdfrwt>
<pdfrwt beam="2">  1       -2 0.77251398E-02 0.24800695E+03</pdfrwt>
<totfact> 0.10526456E+04</totfact>
</mgrwt>
</event>
<event>
 4    1  0.1759998E-004  0.2670247E+03  0.7818608E-02  0.1102995E+00
         -1   -1    0    0    0  501 -0.00000000000E+00  0.00000000000E+00  0.72860335077E+01  0.72860335077E+01  0.00000000000E+00 0. -1.
          1   -1    0    0  501    0  0.00000000000E+00 -0.00000000000E+00 -0.24465365514E+04  0.24465365514E+04  0.00000000000E+00 0. -1.
         25    1    1    2    0    0  0.30948952741E+02  0.43357698172E+02 -0.99682598665E+03  0.10054351174E+04  0.12000000000E+03 0.  0.
         25    1    1    2    0    0 -0.30948952741E+02 -0.43357698172E+02 -0.14424245313E+04  0.14483874675E+04  0.12000000000E+03 0.  0.
<mgrwt>
<rscale>  0 0.26702470E+03</rscale>
<asrwt>0</asrwt>
<pdfrwt beam="1">  1        1 0.37639061E+00 0.26702470E+03</pdfrwt>
<pdfrwt beam="2">  1       -1 0.11209271E-02 0.26702470E+03</pdfrwt>
<totfact> 0.27440973E+03</totfact>
</mgrwt>
</event>
<event>
 4    1  0.1759998E-004  0.6142789E+03  0.7818608E-02  0.9876217E-01
         -2   -1    0    0    0  501 -0.00000000000E+00  0.00000000000E+00  0.32472083645E+03  0.32472083645E+03  0.00000000000E+00 0.  1.
          2   -1    0    0  501    0  0.00000000000E+00 -0.00000000000E+00 -0.29050997978E+03  0.29050997978E+03  0.00000000000E+00 0.  1.
         25    1    1    2    0    0 -0.77797436364E+02  0.27180376859E+03  0.19325597419E+02  0.30773886404E+03  0.12000000000E+03 0.  0.
         25    1    1    2    0    0  0.77797436364E+02 -0.27180376859E+03  0.14885259254E+02  0.30749195220E+03  0.12000000000E+03 0.  0.
<mgrwt>
<rscale>  0 0.61427891E+03</rscale>
<asrwt>0</asrwt>
<pdfrwt beam="1">  1        2 0.44693843E-01 0.61427891E+03</pdfrwt>
<pdfrwt beam="2">  1       -2 0.49957051E-01 0.61427891E+03</pdfrwt>
<totfact> 0.43531778E+02</totfact>
</mgrwt>
</event>
<event>
 4    1  0.1759998E-004  0.2694507E+03  0.7818608E-02  0.1101594E+00
         -1   -1    0    0    0  501 -0.00000000000E+00  0.00000000000E+00  0.11221863714E+03  0.11221863714E+03  0.00000000000E+00 0.  1.
          1   -1    0    0  501    0  0.00000000000E+00 -0.00000000000E+00 -0.16174601351E+03  0.16174601351E+03  0.00000000000E+00 0.  1.
         25    1    1    2    0    0  0.17228001383E+02 -0.43142195481E+02  0.15815617650E+02  0.12964639148E+03  0.12000000000E+03 0.  0.
         25    1    1    2    0    0 -0.17228001383E+02  0.43142195481E+02 -0.65342994012E+02  0.14431825917E+03  0.12000000000E+03 0.  0.
<mgrwt>
<rscale>  0 0.26945068E+03</rscale>
<asrwt>0</asrwt>
<pdfrwt beam="1">  1        1 0.24884002E-01 0.26945068E+03</pdfrwt>
<pdfrwt beam="2">  1       -1 0.17264406E-01 0.26945068E+03</pdfrwt>
<totfact> 0.48937516E+03</totfact>
</mgrwt>
</event>
<event>
 4    1  0.1759998E-004  0.2873416E+03  0.7818608E-02  0.1091745E+00
         -1   -1    0    0    0  501 -0.00000000000E+00  0.00000000000E+00  0.25202717156E+02  0.25202717156E+02  0.00000000000E+00 0.  1.
          1   -1    0    0  501    0  0.00000000000E+00 -0.00000000000E+00 -0.81901080193E+03  0.81901080193E+03  0.00000000000E+00 0.  1.
         25    1    1    2    0    0  0.54323706216E+02 -0.57353887898E+02 -0.39947219982E+03  0.42452158007E+03  0.12000000000E+03 0.  0.
         25    1    1    2    0    0 -0.54323706216E+02  0.57353887898E+02 -0.39433588495E+03  0.41969193902E+03  0.12000000000E+03 0.  0.
<mgrwt>
<rscale>  0 0.28734159E+03</rscale>
<asrwt>0</asrwt>
<pdfrwt beam="1">  1        1 0.12600166E+00 0.28734159E+03</pdfrwt>
<pdfrwt beam="2">  1       -1 0.38773413E-02 0.28734159E+03</pdfrwt>
<totfact> 0.57207361E+03</totfact>
</mgrwt>
</event>
<event>
 4    1  0.1759998E-004  0.3250056E+03  0.7818608E-02  0.1073368E+00
          2   -1    0    0  501    0  0.00000000000E+00  0.00000000000E+00  0.92784004369E+03  0.92784004369E+03  0.00000000000E+00 0.  1.
         -2   -1    0    0    0  501 -0.00000000000E+00 -0.00000000000E+00 -0.28460894523E+02  0.28460894523E+02  0.00000000000E+00 0.  1.
         25    1    1    2    0    0 -0.17705305626E+02 -0.10794003022E+03  0.43047814738E+03  0.46008256144E+03  0.12000000000E+03 0.  0.
         25    1    1    2    0    0  0.17705305626E+02  0.10794003022E+03  0.46890100178E+03  0.49621837677E+03  0.12000000000E+03 0.  0.
<mgrwt>
<rscale>  0 0.32500559E+03</rscale>
<asrwt>0</asrwt>
<pdfrwt beam="1">  1        2 0.14274460E+00 0.32500559E+03</pdfrwt>
<pdfrwt beam="2">  1       -2 0.43785999E-02 0.32500559E+03</pdfrwt>
<totfact> 0.70057340E+03</totfact>
</mgrwt>
</event>
<event>
 4    1  0.1759998E-004  0.3608512E+03  0.7818608E-02  0.1058247E+00
         -1   -1    0    0    0  501 -0.00000000000E+00  0.00000000000E+00  0.14837271051E+03  0.14837271051E+03  0.00000000000E+00 0. -1.
          1   -1    0    0  501    0  0.00000000000E+00 -0.00000000000E+00 -0.21940286235E+03  0.21940286235E+03  0.00000000000E+00 0. -1.
         25    1    1    2    0    0 -0.10160708683E+02  0.44938526755E+02 -0.16455698558E+03  0.20881023129E+03  0.12000000000E+03 0.  0.
         25    1    1    2    0    0  0.10160708683E+02 -0.44938526755E+02  0.93526833746E+02  0.15896534156E+03  0.12000000000E+03 0.  0.
<mgrwt>
<rscale>  0 0.36085120E+03</rscale>
<asrwt>0</asrwt>
<pdfrwt beam="1">  1        1 0.33754286E-01 0.36085120E+03</pdfrwt>
<pdfrwt beam="2">  1       -1 0.22826571E-01 0.36085120E+03</pdfrwt>
<totfact> 0.21211291E+03</totfact>
</mgrwt>
</event>
<event>
 4    1  0.1759998E-004  0.3684800E+03  0.7818608E-02  0.1055276E+00
          2   -1    0    0  501    0  0.00000000000E+00  0.00000000000E+00  0.52261053432E+03  0.52261053432E+03  0.00000000000E+00 0. -1.
         -2   -1    0    0    0  501 -0.00000000000E+00 -0.00000000000E+00 -0.64951578232E+02  0.64951578232E+02  0.00000000000E+00 0. -1.
         25    1    1    2    0    0  0.12188359785E+03  0.62239699477E+02  0.18330811076E+03  0.25832393441E+03  0.12000000000E+03 0.  0.
         25    1    1    2    0    0 -0.12188359785E+03 -0.62239699477E+02  0.27435084533E+03  0.32923817815E+03  0.12000000000E+03 0.  0.
<mgrwt>
<rscale>  0 0.36848001E+03</rscale>
<asrwt>0</asrwt>
<pdfrwt beam="1">  1        2 0.80401618E-01 0.36848001E+03</pdfrwt>
<pdfrwt beam="2">  1       -2 0.99925509E-02 0.36848001E+03</pdfrwt>
<totfact> 0.39519601E+03</totfact>
</mgrwt>
</event>
<event>
 4    1  0.1759998E-004  0.3062365E+03  0.7818608E-02  0.1082164E+00
          1   -1    0    0  501    0  0.00000000000E+00  0.00000000000E+00  0.17761653979E+03  0.17761653979E+03  0.00000000000E+00 0.  1.
         -1   -1    0    0    0  501 -0.00000000000E+00 -0.00000000000E+00 -0.13199894667E+03  0.13199894667E+03  0.00000000000E+00 0.  1.
         25    1    1    2    0    0  0.13763073033E+01 -0.61424301269E+02 -0.50589463974E+02  0.14399351678E+03  0.12000000000E+03 0.  0.
         25    1    1    2    0    0 -0.13763073033E+01  0.61424301269E+02  0.96207057097E+02  0.16562196969E+03  0.12000000000E+03 0.  0.
<mgrwt>
<rscale>  0 0.30623648E+03</rscale>
<asrwt>0</asrwt>
<pdfrwt beam="1">  1        1 0.27325622E-01 0.30623648E+03</pdfrwt>
<pdfrwt beam="2">  1       -1 0.20307530E-01 0.30623648E+03</pdfrwt>
<totfact> 0.33525253E+03</totfact>
</mgrwt>
</event>
<event>
 4    1  0.1759998E-004  0.2459582E+03  0.7818608E-02  0.1115886E+00
          2   -1    0    0  501    0  0.00000000000E+00  0.00000000000E+00  0.30423487901E+03  0.30423487901E+03  0.00000000000E+00 0.  1.
         -2   -1    0    0    0  501 -0.00000000000E+00 -0.00000000000E+00 -0.49711145656E+02  0.49711145656E+02  0.00000000000E+00 0.  1.
         25    1    1    2    0    0  0.26310478613E+02  0.51499181749E+00  0.13532027039E+03  0.18276783656E+03  0.12000000000E+03 0.  0.
         25    1    1    2    0    0 -0.26310478613E+02 -0.51499181749E+00  0.11920346297E+03  0.17117818811E+03  0.12000000000E+03 0.  0.
<mgrwt>
<rscale>  0 0.24595824E+03</rscale>
<asrwt>0</asrwt>
<pdfrwt beam="1">  1        2 0.46805365E-01 0.24595824E+03</pdfrwt>
<pdfrwt beam="2">  1       -2 0.76478687E-02 0.24595824E+03</pdfrwt>
<totfact> 0.10763308E+04</totfact>
</mgrwt>
</event>
<event>
 4    1  0.1759998E-004  0.3060091E+03  0.7818608E-02  0.1082275E+00
          2   -1    0    0  501    0  0.00000000000E+00  0.00000000000E+00  0.32036156833E+03  0.32036156833E+03  0.00000000000E+00 0. -1.
         -2   -1    0    0    0  501 -0.00000000000E+00 -0.00000000000E+00 -0.73074890620E+02  0.73074890620E+02  0.00000000000E+00 0. -1.
         25    1    1    2    0    0  0.69488712980E+02 -0.40456452179E+01  0.20662181274E+03  0.24887270236E+03  0.12000000000E+03 0.  0.
         25    1    1    2    0    0 -0.69488712980E+02  0.40456452179E+01  0.40664864964E+02  0.14456375659E+03  0.12000000000E+03 0.  0.
<mgrwt>
<rscale>  0 0.30600906E+03</rscale>
<asrwt>0</asrwt>
<pdfrwt beam="1">  1        2 0.49286394E-01 0.30600906E+03</pdfrwt>
<pdfrwt beam="2">  1       -2 0.11242291E-01 0.30600906E+03</pdfrwt>
<totfact> 0.55845626E+03</totfact>
</mgrwt>
</event>
<event>
 4    1  0.1759998E-004  0.2532894E+03  0.7818608E-02  0.1111243E+00
          2   -1    0    0  501    0  0.00000000000E+00  0.00000000000E+00  0.66499333793E+02  0.66499333793E+02  0.00000000000E+00 0.  1.
         -2   -1    0    0    0  501 -0.00000000000E+00 -0.00000000000E+00 -0.24118858082E+03  0.24118858082E+03  0.00000000000E+00 0.  1.
         25    1    1    2    0    0  0.36602284187E+01  0.38818757472E+02 -0.10057315050E+03  0.16135442915E+03  0.12000000000E+03 0.  0.
         25    1    1    2    0    0 -0.36602284187E+01 -0.38818757472E+02 -0.74116096521E+02  0.14633348546E+03  0.12000000000E+03 0.  0.
<mgrwt>
<rscale>  0 0.25328940E+03</rscale>
<asrwt>0</asrwt>
<pdfrwt beam="1">  1        2 0.10230667E-01 0.25328940E+03</pdfrwt>
<pdfrwt beam="2">  1       -2 0.37105935E-01 0.25328940E+03</pdfrwt>
<totfact> 0.42420836E+03</totfact>
</mgrwt>
</event>
<event>
 4    1  0.1759998E-004  0.4464946E+03  0.7818608E-02  0.1028773E+00
         -1   -1    0    0    0  501 -0.00000000000E+00  0.00000000000E+00  0.55973917258E+02  0.55973917258E+02  0.00000000000E+00 0. -1.
          1   -1    0    0  501    0  0.00000000000E+00 -0.00000000000E+00 -0.89040342019E+03  0.89040342019E+03  0.00000000000E+00 0. -1.
         25    1    1    2    0    0 -0.90000797199E+02  0.17006633607E+02 -0.68611288790E+02  0.16582182616E+03  0.12000000000E+03 0.  0.
         25    1    1    2    0    0  0.90000797199E+02 -0.17006633607E+02 -0.76581821414E+03  0.78055551128E+03  0.12000000000E+03 0.  0.
<mgrwt>
<rscale>  0 0.44649465E+03</rscale>
<asrwt>0</asrwt>
<pdfrwt beam="1">  1        1 0.13698514E+00 0.44649465E+03</pdfrwt>
<pdfrwt beam="2">  1       -1 0.86113720E-02 0.44649465E+03</pdfrwt>
<totfact> 0.14935148E+03</totfact>
</mgrwt>
</event>
<event>
 4    1  0.1759998E-004  0.3729157E+03  0.7818608E-02  0.1053584E+00
         -1   -1    0    0    0  501 -0.00000000000E+00  0.00000000000E+00  0.48417146594E+02  0.48417146594E+02  0.00000000000E+00 0. -1.
          1   -1    0    0  501    0  0.00000000000E+00 -0.00000000000E+00 -0.71806239520E+03  0.71806239520E+03  0.00000000000E+00 0. -1.
         25    1    1    2    0    0  0.95933752275E+02 -0.97441009617E+02 -0.25086645611E+03  0.30989032573E+03  0.12000000000E+03 0.  0.
         25    1    1    2    0    0 -0.95933752275E+02  0.97441009617E+02 -0.41877879249E+03  0.45658921606E+03  0.12000000000E+03 0.  0.
<mgrwt>
<rscale>  0 0.37291571E+03</rscale>
<asrwt>0</asrwt>
<pdfrwt beam="1">  1        1 0.11047112E+00 0.37291571E+03</pdfrwt>
<pdfrwt beam="2">  1       -1 0.74487926E-02 0.37291571E+03</pdfrwt>
<totfact> 0.26166253E+03</totfact>
</mgrwt>
</event>
<event>
 4    1  0.1759998E-004  0.3043945E+03  0.7818608E-02  0.1083064E+00
         -1   -1    0    0    0  501 -0.00000000000E+00  0.00000000000E+00  0.16542312956E+03  0.16542312956E+03  0.00000000000E+00 0.  1.
          1   -1    0    0  501    0  0.00000000000E+00 -0.00000000000E+00 -0.14002877042E+03  0.14002877042E+03  0.00000000000E+00 0.  1.
         25    1    1    2    0    0 -0.62009746359E+02  0.59976161154E+02 -0.23783601439E+02  0.14969304676E+03  0.12000000000E+03 0.  0.
         25    1    1    2    0    0  0.62009746359E+02 -0.59976161154E+02  0.49177960584E+02  0.15575885322E+03  0.12000000000E+03 0.  0.
<mgrwt>
<rscale>  0 0.30439446E+03</rscale>
<asrwt>0</asrwt>
<pdfrwt beam="1">  1        1 0.21542888E-01 0.30439446E+03</pdfrwt>
<pdfrwt beam="2">  1       -1 0.25449712E-01 0.30439446E+03</pdfrwt>
<totfact> 0.31298194E+03</totfact>
</mgrwt>
</event>
<event>
 4    1  0.1759998E-004  0.2561869E+03  0.7818608E-02  0.1109456E+00
          2   -1    0    0  501    0  0.00000000000E+00  0.00000000000E+00  0.18603072940E+04  0.18603072940E+04  0.00000000000E+00 0.  1.
         -2   -1    0    0    0  501 -0.00000000000E+00 -0.00000000000E+00 -0.88200113698E+01  0.88200113698E+01  0.00000000000E+00 0.  1.
         25    1    1    2    0    0  0.31513819436E+02 -0.17268379132E+02  0.11210536676E+04  0.11280304266E+04  0.12000000000E+03 0.  0.
         25    1    1    2    0    0 -0.31513819436E+02  0.17268379132E+02  0.73043361511E+03  0.74109687884E+03  0.12000000000E+03 0.  0.
<mgrwt>
<rscale>  0 0.25618690E+03</rscale>
<asrwt>0</asrwt>
<pdfrwt beam="1">  1        2 0.28620081E+00 0.25618690E+03</pdfrwt>
<pdfrwt beam="2">  1       -2 0.13569263E-02 0.25618690E+03</pdfrwt>
<totfact> 0.12000749E+04</totfact>
</mgrwt>
</event>
<event>
 4    1  0.1759998E-004  0.3062000E+03  0.7818608E-02  0.1082182E+00
         -2   -1    0    0    0  501 -0.00000000000E+00  0.00000000000E+00  0.23264464725E+02  0.23264464725E+02  0.00000000000E+00 0. -1.
          2   -1    0    0  501    0  0.00000000000E+00 -0.00000000000E+00 -0.10075287003E+04  0.10075287003E+04  0.00000000000E+00 0. -1.
         25    1    1    2    0    0 -0.28085853305E+01 -0.85465262139E+02 -0.35221693343E+03  0.38179702380E+03  0.12000000000E+03 0.  0.
         25    1    1    2    0    0  0.28085853305E+01  0.85465262139E+02 -0.63204730218E+03  0.64899614126E+03  0.12000000000E+03 0.  0.
<mgrwt>
<rscale>  0 0.30620004E+03</rscale>
<asrwt>0</asrwt>
<pdfrwt beam="1">  1        2 0.15500442E+00 0.30620004E+03</pdfrwt>
<pdfrwt beam="2">  1       -2 0.35791483E-02 0.30620004E+03</pdfrwt>
<totfact> 0.84555590E+03</totfact>
</mgrwt>
</event>
<event>
 4    1  0.1759998E-004  0.2479702E+03  0.7818608E-02  0.1114594E+00
         -1   -1    0    0    0  501 -0.00000000000E+00  0.00000000000E+00  0.10997723397E+03  0.10997723397E+03  0.00000000000E+00 0. -1.
          1   -1    0    0  501    0  0.00000000000E+00 -0.00000000000E+00 -0.13977718752E+03  0.13977718752E+03  0.00000000000E+00 0. -1.
         25    1    1    2    0    0  0.13773394126E+02  0.26213395647E+02 -0.24740637662E+02  0.12605136909E+03  0.12000000000E+03 0.  0.
         25    1    1    2    0    0 -0.13773394126E+02 -0.26213395647E+02 -0.50593158921E+01  0.12370305241E+03  0.12000000000E+03 0.  0.
<mgrwt>
<rscale>  0 0.24797023E+03</rscale>
<asrwt>0</asrwt>
<pdfrwt beam="1">  1        1 0.21504183E-01 0.24797023E+03</pdfrwt>
<pdfrwt beam="2">  1       -1 0.16919574E-01 0.24797023E+03</pdfrwt>
<totfact> 0.60711520E+03</totfact>
</mgrwt>
</event>
<event>
 4    1  0.1759998E-004  0.2487837E+03  0.7818608E-02  0.1114076E+00
         -2   -1    0    0    0  501 -0.00000000000E+00  0.00000000000E+00  0.82208469846E+01  0.82208469846E+01  0.00000000000E+00 0.  1.
          2   -1    0    0  501    0  0.00000000000E+00 -0.00000000000E+00 -0.18822071885E+04  0.18822071885E+04  0.00000000000E+00 0.  1.
         25    1    1    2    0    0  0.20945376145E+02 -0.13605218425E+02 -0.10981006959E+04  0.11049203360E+04  0.12000000000E+03 0.  0.
         25    1    1    2    0    0 -0.20945376145E+02  0.13605218425E+02 -0.77588564567E+03  0.78550769945E+03  0.12000000000E+03 0.  0.
<mgrwt>
<rscale>  0 0.24878374E+03</rscale>
<asrwt>0</asrwt>
<pdfrwt beam="1">  1        2 0.28957052E+00 0.24878374E+03</pdfrwt>
<pdfrwt beam="2">  1       -2 0.12647449E-02 0.24878374E+03</pdfrwt>
<totfact> 0.12941042E+04</totfact>
</mgrwt>
</event>
<event>
 4    1  0.1759998E-004  0.5615067E+03  0.7818608E-02  0.9988651E-01
          2   -1    0    0  501    0  0.00000000000E+00  0.00000000000E+00  0.38144598303E+03  0.38144598303E+03  0.00000000000E+00 0.  1.
         -2   -1    0    0    0  501 -0.00000000000E+00 -0.00000000000E+00 -0.20664114611E+03  0.20664114611E+03  0.00000000000E+00 0.  1.
         25    1    1    2    0    0  0.15688622426E+03  0.19751034476E+03  0.57801246954E+02  0.28524482081E+03  0.12000000000E+03 0.  0.
         25    1    1    2    0    0 -0.15688622426E+03 -0.19751034476E+03  0.11700358996E+03  0.30284230833E+03  0.12000000000E+03 0.  0.
<mgrwt>
<rscale>  0 0.56150667E+03</rscale>
<asrwt>0</asrwt>
<pdfrwt beam="1">  1        2 0.58683997E-01 0.56150667E+03</pdfrwt>
<pdfrwt beam="2">  1       -2 0.31790946E-01 0.56150667E+03</pdfrwt>
<totfact> 0.77514197E+02</totfact>
</mgrwt>
</event>
<event>
 4    1  0.1759998E-004  0.3110626E+03  0.7818608E-02  0.1079838E+00
         -1   -1    0    0    0  501 -0.00000000000E+00  0.00000000000E+00  0.21278414773E+02  0.21278414773E+02  0.00000000000E+00 0.  1.
          1   -1    0    0  501    0  0.00000000000E+00 -0.00000000000E+00 -0.11368320788E+04  0.11368320788E+04  0.00000000000E+00 0.  1.
         25    1    1    2    0    0 -0.31185192886E+01  0.83253104420E+02 -0.35904742110E+03  0.38762850148E+03  0.12000000000E+03 0.  0.
         25    1    1    2    0    0  0.31185192886E+01 -0.83253104420E+02 -0.75650624290E+03  0.77048199207E+03  0.12000000000E+03 0.  0.
<mgrwt>
<rscale>  0 0.31106259E+03</rscale>
<asrwt>0</asrwt>
<pdfrwt beam="1">  1        1 0.17489726E+00 0.31106259E+03</pdfrwt>
<pdfrwt beam="2">  1       -1 0.32736020E-02 0.31106259E+03</pdfrwt>
<totfact> 0.42154744E+03</totfact>
</mgrwt>
</event>
<event>
 4    1  0.1759998E-004  0.4405026E+03  0.7818608E-02  0.1030593E+00
         -1   -1    0    0    0  501 -0.00000000000E+00  0.00000000000E+00  0.27189878331E+02  0.27189878331E+02  0.00000000000E+00 0.  1.
          1   -1    0    0  501    0  0.00000000000E+00 -0.00000000000E+00 -0.17841428614E+04  0.17841428614E+04  0.00000000000E+00 0.  1.
         25    1    1    2    0    0 -0.28687779639E+02  0.17220961664E+03 -0.63068178948E+03  0.66531095012E+03  0.12000000000E+03 0.  0.
         25    1    1    2    0    0  0.28687779639E+02 -0.17220961664E+03 -0.11262711936E+04  0.11460217897E+04  0.12000000000E+03 0.  0.
<mgrwt>
<rscale>  0 0.44050256E+03</rscale>
<asrwt>0</asrwt>
<pdfrwt beam="1">  1        1 0.27448336E+00 0.44050256E+03</pdfrwt>
<pdfrwt beam="2">  1       -1 0.41830605E-02 0.44050256E+03</pdfrwt>
<totfact> 0.10595315E+03</totfact>
</mgrwt>
</event>
<event>
 4    1  0.1759998E-004  0.3575421E+03  0.7818608E-02  0.1059561E+00
         -2   -1    0    0    0  501 -0.00000000000E+00  0.00000000000E+00  0.23267897989E+02  0.23267897989E+02  0.00000000000E+00 0. -1.
          2   -1    0    0  501    0  0.00000000000E+00 -0.00000000000E+00 -0.13735271288E+04  0.13735271288E+04  0.00000000000E+00 0. -1.
         25    1    1    2    0    0  0.81133602823E+02 -0.10473707852E+03 -0.68514468567E+03  0.70807892034E+03  0.12000000000E+03 0.  0.
         25    1    1    2    0    0 -0.81133602823E+02  0.10473707852E+03 -0.66511454509E+03  0.68871610640E+03  0.12000000000E+03 0.  0.
<mgrwt>
<rscale>  0 0.35754210E+03</rscale>
<asrwt>0</asrwt>
<pdfrwt beam="1">  1        2 0.21131195E+00 0.35754210E+03</pdfrwt>
<pdfrwt beam="2">  1       -2 0.35796753E-02 0.35754210E+03</pdfrwt>
<totfact> 0.52093701E+03</totfact>
</mgrwt>
</event>
<event>
 4    1  0.1759998E-004  0.3253159E+03  0.7818608E-02  0.1073228E+00
         -2   -1    0    0    0  501 -0.00000000000E+00  0.00000000000E+00  0.67957694410E+02  0.67957694410E+02  0.00000000000E+00 0.  1.
          2   -1    0    0  501    0  0.00000000000E+00 -0.00000000000E+00 -0.38932464755E+03  0.38932464755E+03  0.00000000000E+00 0.  1.
         25    1    1    2    0    0  0.39184741726E+02 -0.16028325123E+02 -0.30310119465E+03  0.32872889345E+03  0.12000000000E+03 0.  0.
         25    1    1    2    0    0 -0.39184741726E+02  0.16028325123E+02 -0.18265758488E+02  0.12855344851E+03  0.12000000000E+03 0.  0.
<mgrwt>
<rscale>  0 0.32531588E+03</rscale>
<asrwt>0</asrwt>
<pdfrwt beam="1">  1        2 0.59896100E-01 0.32531588E+03</pdfrwt>
<pdfrwt beam="2">  1       -2 0.10455030E-01 0.32531588E+03</pdfrwt>
<totfact> 0.50870954E+03</totfact>
</mgrwt>
</event>
<event>
 4    1  0.1759998E-004  0.3175646E+03  0.7818608E-02  0.1076776E+00
          1   -1    0    0  501    0  0.00000000000E+00  0.00000000000E+00  0.12718085287E+04  0.12718085287E+04  0.00000000000E+00 0.  1.
         -1   -1    0    0    0  501 -0.00000000000E+00 -0.00000000000E+00 -0.19823596572E+02  0.19823596572E+02  0.00000000000E+00 0.  1.
         25    1    1    2    0    0  0.10424691199E+02 -0.76645807034E+01  0.10456232377E+04  0.10525660906E+04  0.12000000000E+03 0.  0.
         25    1    1    2    0    0 -0.10424691199E+02  0.76645807034E+01  0.20636169451E+03  0.23906603469E+03  0.12000000000E+03 0.  0.
<mgrwt>
<rscale>  0 0.31756460E+03</rscale>
<asrwt>0</asrwt>
<pdfrwt beam="1">  1        1 0.19566279E+00 0.31756460E+03</pdfrwt>
<pdfrwt beam="2">  1       -1 0.30497851E-02 0.31756460E+03</pdfrwt>
<totfact> 0.37641997E+03</totfact>
</mgrwt>
</event>
<event>
 4    1  0.1759998E-004  0.4049341E+03  0.7818608E-02  0.1042084E+00
         -2   -1    0    0    0  501 -0.00000000000E+00  0.00000000000E+00  0.39365268239E+03  0.39365268239E+03  0.00000000000E+00 0. -1.
          2   -1    0    0  501    0  0.00000000000E+00 -0.00000000000E+00 -0.10413471500E+03  0.10413471500E+03  0.00000000000E+00 0. -1.
         25    1    1    2    0    0 -0.27892210805E+02  0.11265733993E+03  0.39337875012E+01  0.16698840183E+03  0.12000000000E+03 0.  0.
         25    1    1    2    0    0  0.27892210805E+02 -0.11265733993E+03  0.28558417989E+03  0.33079899556E+03  0.12000000000E+03 0.  0.
<mgrwt>
<rscale>  0 0.40493412E+03</rscale>
<asrwt>0</asrwt>
<pdfrwt beam="1">  1        2 0.16020726E-01 0.40493412E+03</pdfrwt>
<pdfrwt beam="2">  1       -2 0.60561950E-01 0.40493412E+03</pdfrwt>
<totfact> 0.94092428E+02</totfact>
</mgrwt>
</event>
<event>
 4    1  0.1759998E-004  0.2490602E+03  0.7818608E-02  0.1113900E+00
         -1   -1    0    0    0  501 -0.00000000000E+00  0.00000000000E+00  0.12397245885E+03  0.12397245885E+03  0.00000000000E+00 0. -1.
          1   -1    0    0  501    0  0.00000000000E+00 -0.00000000000E+00 -0.12509026451E+03  0.12509026451E+03  0.00000000000E+00 0. -1.
         25    1    1    2    0    0 -0.16191276275E+02 -0.27031253996E+02 -0.11278224849E+02  0.12457947052E+03  0.12000000000E+03 0.  0.
         25    1    1    2    0    0  0.16191276275E+02  0.27031253996E+02  0.10160419191E+02  0.12448325284E+03  0.12000000000E+03 0.  0.
<mgrwt>
<rscale>  0 0.24906021E+03</rscale>
<asrwt>0</asrwt>
<pdfrwt beam="1">  1        1 0.19244656E-01 0.24906021E+03</pdfrwt>
<pdfrwt beam="2">  1       -1 0.19072686E-01 0.24906021E+03</pdfrwt>
<totfact> 0.57768570E+03</totfact>
</mgrwt>
</event>
<event>
 4    1  0.1759998E-004  0.3462889E+03  0.7818608E-02  0.1064149E+00
         -2   -1    0    0    0  501 -0.00000000000E+00  0.00000000000E+00  0.23366873724E+02  0.23366873724E+02  0.00000000000E+00 0. -1.
          2   -1    0    0  501    0  0.00000000000E+00 -0.00000000000E+00 -0.12829703098E+04  0.12829703098E+04  0.00000000000E+00 0. -1.
         25    1    1    2    0    0  0.75476232393E+02 -0.95568679898E+02 -0.73304199985E+03  0.75271548926E+03  0.12000000000E+03 0.  0.
         25    1    1    2    0    0 -0.75476232393E+02  0.95568679898E+02 -0.52656143619E+03  0.55362169423E+03  0.12000000000E+03 0.  0.
<mgrwt>
<rscale>  0 0.34628893E+03</rscale>
<asrwt>0</asrwt>
<pdfrwt beam="1">  1        2 0.19737999E+00 0.34628893E+03</pdfrwt>
<pdfrwt beam="2">  1       -2 0.35949047E-02 0.34628893E+03</pdfrwt>
<totfact> 0.58115029E+03</totfact>
</mgrwt>
</event>
<event>
 4    1  0.1759998E-004  0.2779825E+03  0.7818608E-02  0.1096796E+00
         -2   -1    0    0    0  501 -0.00000000000E+00  0.00000000000E+00  0.24304245902E+02  0.24304245902E+02  0.00000000000E+00 0.  1.
          2   -1    0    0  501    0  0.00000000000E+00 -0.00000000000E+00 -0.79486376770E+03  0.79486376770E+03  0.00000000000E+00 0.  1.
         25    1    1    2    0    0 -0.35386294809E+02  0.53368511201E+02 -0.30098917024E+03  0.33029512326E+03  0.12000000000E+03 0.  0.
         25    1    1    2    0    0  0.35386294809E+02 -0.53368511201E+02 -0.46957035156E+03  0.48887289034E+03  0.12000000000E+03 0.  0.
<mgrwt>
<rscale>  0 0.27798248E+03</rscale>
<asrwt>0</asrwt>
<pdfrwt beam="1">  1        2 0.12228674E+00 0.27798248E+03</pdfrwt>
<pdfrwt beam="2">  1       -2 0.37391147E-02 0.27798248E+03</pdfrwt>
<totfact> 0.10853071E+04</totfact>
</mgrwt>
</event>
<event>
 4    1  0.1759998E-004  0.4061632E+03  0.7818608E-02  0.1041666E+00
         -2   -1    0    0    0  501 -0.00000000000E+00  0.00000000000E+00  0.18268389983E+02  0.18268389983E+02  0.00000000000E+00 0.  1.
          2   -1    0    0  501    0  0.00000000000E+00 -0.00000000000E+00 -0.22575681218E+04  0.22575681218E+04  0.00000000000E+00 0.  1.
         25    1    1    2    0    0 -0.24169816538E+02  0.28950291240E+02 -0.22628912451E+03  0.25889972435E+03  0.12000000000E+03 0.  0.
         25    1    1    2    0    0  0.24169816538E+02 -0.28950291240E+02 -0.20130106073E+04  0.20169367875E+04  0.12000000000E+03 0.  0.
<mgrwt>
<rscale>  0 0.40616319E+03</rscale>
<asrwt>0</asrwt>
<pdfrwt beam="1">  1        2 0.34731813E+00 0.40616319E+03</pdfrwt>
<pdfrwt beam="2">  1       -2 0.28105219E-02 0.40616319E+03</pdfrwt>
<totfact> 0.25114180E+03</totfact>
</mgrwt>
</event>
<event>
 4    1  0.1759998E-004  0.2558412E+03  0.7818608E-02  0.1109668E+00
          1   -1    0    0  501    0  0.00000000000E+00  0.00000000000E+00  0.46206312923E+02  0.46206312923E+02  0.00000000000E+00 0. -1.
         -1   -1    0    0    0  501 -0.00000000000E+00 -0.00000000000E+00 -0.35414389090E+03  0.35414389090E+03  0.00000000000E+00 0. -1.
         25    1    1    2    0    0  0.29368283345E+02 -0.32858403266E+02 -0.16122679119E+03  0.20575774330E+03  0.12000000000E+03 0.  0.
         25    1    1    2    0    0 -0.29368283345E+02  0.32858403266E+02 -0.14671078679E+03  0.19459246052E+03  0.12000000000E+03 0.  0.
<mgrwt>
<rscale>  0 0.25584123E+03</rscale>
<asrwt>0</asrwt>
<pdfrwt beam="1">  1        1 0.71086636E-02 0.25584123E+03</pdfrwt>
<pdfrwt beam="2">  1       -1 0.54483675E-01 0.25584123E+03</pdfrwt>
<totfact> 0.35500465E+03</totfact>
</mgrwt>
</event>
<event>
 4    1  0.1759998E-004  0.3704841E+03  0.7818608E-02  0.1054508E+00
         -1   -1    0    0    0  501 -0.00000000000E+00  0.00000000000E+00  0.32318278589E+02  0.32318278589E+02  0.00000000000E+00 0.  1.
          1   -1    0    0  501    0  0.00000000000E+00 -0.00000000000E+00 -0.10617711760E+04  0.10617711760E+04  0.00000000000E+00 0.  1.
         25    1    1    2    0    0 -0.21878749446E+02  0.13881567448E+03 -0.55279159996E+03  0.58286106762E+03  0.12000000000E+03 0.  0.
         25    1    1    2    0    0  0.21878749446E+02 -0.13881567448E+03 -0.47666129750E+03  0.51122838702E+03  0.12000000000E+03 0.  0.
<mgrwt>
<rscale>  0 0.37048410E+03</rscale>
<asrwt>0</asrwt>
<pdfrwt beam="1">  1        1 0.16334942E+00 0.37048410E+03</pdfrwt>
<pdfrwt beam="2">  1       -1 0.49720427E-02 0.37048410E+03</pdfrwt>
<totfact> 0.25585554E+03</totfact>
</mgrwt>
</event>
<event>
 4    1  0.1759998E-004  0.2431636E+03  0.7818608E-02  0.1117703E+00
         -2   -1    0    0    0  501 -0.00000000000E+00  0.00000000000E+00  0.25132306224E+02  0.25132306224E+02  0.00000000000E+00 0. -1.
          2   -1    0    0  501    0  0.00000000000E+00 -0.00000000000E+00 -0.58817271836E+03  0.58817271836E+03  0.00000000000E+00 0. -1.
         25    1    1    2    0    0  0.10189349428E+02 -0.87958679352E+01 -0.31727369235E+03  0.33947575170E+03  0.12000000000E+03 0.  0.
         25    1    1    2    0    0 -0.10189349428E+02  0.87958679352E+01 -0.24576671978E+03  0.27382927288E+03  0.12000000000E+03 0.  0.
<mgrwt>
<rscale>  0 0.24316362E+03</rscale>
<asrwt>0</asrwt>
<pdfrwt beam="1">  1        2 0.90488113E-01 0.24316362E+03</pdfrwt>
<pdfrwt beam="2">  1       -2 0.38665085E-02 0.24316362E+03</pdfrwt>
<totfact> 0.14755280E+04</totfact>
</mgrwt>
</event>
<event>
 4    1  0.1759998E-004  0.2685981E+03  0.7818608E-02  0.1102085E+00
         -2   -1    0    0    0  501 -0.00000000000E+00  0.00000000000E+00  0.35241089457E+02  0.35241089457E+02  0.00000000000E+00 0.  1.
          2   -1    0    0  501    0  0.00000000000E+00 -0.00000000000E+00 -0.51179551392E+03  0.51179551392E+03  0.00000000000E+00 0.  1.
         25    1    1    2    0    0 -0.58503118723E+02 -0.97577209662E+01 -0.21611588799E+03  0.25421232280E+03  0.12000000000E+03 0.  0.
         25    1    1    2    0    0  0.58503118723E+02  0.97577209662E+01 -0.26043853647E+03  0.29282428058E+03  0.12000000000E+03 0.  0.
<mgrwt>
<rscale>  0 0.26859808E+03</rscale>
<asrwt>0</asrwt>
<pdfrwt beam="1">  1        2 0.78737770E-01 0.26859808E+03</pdfrwt>
<pdfrwt beam="2">  1       -2 0.54217062E-02 0.26859808E+03</pdfrwt>
<totfact> 0.10413924E+04</totfact>
</mgrwt>
</event>
<event>
 4    1  0.1759998E-004  0.2789468E+03  0.7818608E-02  0.1096266E+00
          3   -1    0    0  501    0  0.00000000000E+00  0.00000000000E+00  0.15950956839E+03  0.15950956839E+03  0.00000000000E+00 0. -1.
         -3   -1    0    0    0  501 -0.00000000000E+00 -0.00000000000E+00 -0.12195398661E+03  0.12195398661E+03  0.00000000000E+00 0. -1.
         25    1    1    2    0    0 -0.20945667326E+02 -0.15604569359E+02  0.85484811173E+02  0.14963247143E+03  0.12000000000E+03 0.  0.
         25    1    1    2    0    0  0.20945667326E+02  0.15604569359E+02 -0.47929229401E+02  0.13183108357E+03  0.12000000000E+03 0.  0.
<mgrwt>
<rscale>  0 0.27894679E+03</rscale>
<asrwt>0</asrwt>
<pdfrwt beam="1">  1        3 0.24539934E-01 0.27894679E+03</pdfrwt>
<pdfrwt beam="2">  1       -3 0.18762152E-01 0.27894679E+03</pdfrwt>
<totfact> 0.99462715E+02</totfact>
</mgrwt>
</event>
<event>
 4    1  0.1759998E-004  0.2508395E+03  0.7818608E-02  0.1112775E+00
         -2   -1    0    0    0  501 -0.00000000000E+00  0.00000000000E+00  0.15679436321E+02  0.15679436321E+02  0.00000000000E+00 0.  1.
          2   -1    0    0  501    0  0.00000000000E+00 -0.00000000000E+00 -0.10032319861E+04  0.10032319861E+04  0.00000000000E+00 0.  1.
         25    1    1    2    0    0  0.30639769258E+02  0.19755798949E+02 -0.48966382899E+03  0.50546983340E+03  0.12000000000E+03 0.  0.
         25    1    1    2    0    0 -0.30639769258E+02 -0.19755798949E+02 -0.49788872081E+03  0.51344158905E+03  0.12000000000E+03 0.  0.
<mgrwt>
<rscale>  0 0.25083949E+03</rscale>
<asrwt>0</asrwt>
<pdfrwt beam="1">  1        2 0.15434336E+00 0.25083949E+03</pdfrwt>
<pdfrwt beam="2">  1       -2 0.24122214E-02 0.25083949E+03</pdfrwt>
<totfact> 0.15208705E+04</totfact>
</mgrwt>
</event>
<event>
 4    1  0.1759998E-004  0.2648406E+03  0.7818608E-02  0.1104269E+00
         -1   -1    0    0    0  501 -0.00000000000E+00  0.00000000000E+00  0.93175136588E+01  0.93175136588E+01  0.00000000000E+00 0.  1.
          1   -1    0    0  501    0  0.00000000000E+00 -0.00000000000E+00 -0.18819537688E+04  0.18819537688E+04  0.00000000000E+00 0.  1.
         25    1    1    2    0    0  0.96353305637E+01  0.50427442002E+02 -0.10958978523E+04  0.11036429990E+04  0.12000000000E+03 0.  0.
         25    1    1    2    0    0 -0.96353305637E+01 -0.50427442002E+02 -0.77673840283E+03  0.78762828348E+03  0.12000000000E+03 0.  0.
<mgrwt>
<rscale>  0 0.26484056E+03</rscale>
<asrwt>0</asrwt>
<pdfrwt beam="1">  1        1 0.28953120E+00 0.26484056E+03</pdfrwt>
<pdfrwt beam="2">  1       -1 0.14334644E-02 0.26484056E+03</pdfrwt>
<totfact> 0.44872610E+03</totfact>
</mgrwt>
</event>
<event>
 4    1  0.1759998E-004  0.2619685E+03  0.7818608E-02  0.1105966E+00
          4   -1    0    0  501    0  0.00000000000E+00  0.00000000000E+00  0.96095616333E+03  0.96095616333E+03  0.00000000000E+00 0. -1.
         -4   -1    0    0    0  501 -0.00000000000E+00 -0.00000000000E+00 -0.17853958963E+02  0.17853958963E+02  0.00000000000E+00 0. -1.
         25    1    1    2    0    0 -0.26796645451E+02  0.29777933229E+02  0.59837232170E+03  0.61159972277E+03  0.12000000000E+03 0.  0.
         25    1    1    2    0    0  0.26796645451E+02 -0.29777933229E+02  0.34472988266E+03  0.36721039952E+03  0.12000000000E+03 0.  0.
<mgrwt>
<rscale>  0 0.26196849E+03</rscale>
<asrwt>0</asrwt>
<pdfrwt beam="1">  1        4 0.14783937E+00 0.26196849E+03</pdfrwt>
<pdfrwt beam="2">  1       -4 0.27467637E-02 0.26196849E+03</pdfrwt>
<totfact> 0.37873283E+02</totfact>
</mgrwt>
</event>
<event>
 4    1  0.1759998E-004  0.3086186E+03  0.7818608E-02  0.1081010E+00
          1   -1    0    0  501    0  0.00000000000E+00  0.00000000000E+00  0.25505660539E+02  0.25505660539E+02  0.00000000000E+00 0. -1.
         -1   -1    0    0    0  501 -0.00000000000E+00 -0.00000000000E+00 -0.93357179165E+03  0.93357179165E+03  0.00000000000E+00 0. -1.
         25    1    1    2    0    0  0.42946859314E+02 -0.44448739037E+02 -0.68640607642E+03  0.69955230317E+03  0.12000000000E+03 0.  0.
         25    1    1    2    0    0 -0.42946859314E+02  0.44448739037E+02 -0.22166005469E+03  0.25952514902E+03  0.12000000000E+03 0.  0.
<mgrwt>
<rscale>  0 0.30861863E+03</rscale>
<asrwt>0</asrwt>
<pdfrwt beam="1">  1        1 0.39239488E-02 0.30861863E+03</pdfrwt>
<pdfrwt beam="2">  1       -1 0.14362639E+00 0.30861863E+03</pdfrwt>
<totfact> 0.99060240E+02</totfact>
</mgrwt>
</event>
<event>
 4    1  0.1759998E-004  0.2631933E+03  0.7818608E-02  0.1105240E+00
         -2   -1    0    0    0  501 -0.00000000000E+00  0.00000000000E+00  0.10638122050E+02  0.10638122050E+02  0.00000000000E+00 0.  1.
          2   -1    0    0  501    0  0.00000000000E+00 -0.00000000000E+00 -0.16278884615E+04  0.16278884615E+04  0.00000000000E+00 0.  1.
         25    1    1    2    0    0  0.32390429075E+02 -0.47491135181E+01 -0.10761058626E+04  0.10832707517E+04  0.12000000000E+03 0.  0.
         25    1    1    2    0    0 -0.32390429075E+02  0.47491135181E+01 -0.54114447686E+03  0.55525583186E+03  0.12000000000E+03 0.  0.
<mgrwt>
<rscale>  0 0.26319328E+03</rscale>
<asrwt>0</asrwt>
<pdfrwt beam="1">  1        2 0.25044453E+00 0.26319328E+03</pdfrwt>
<pdfrwt beam="2">  1       -2 0.16366332E-02 0.26319328E+03</pdfrwt>
<totfact> 0.12094709E+04</totfact>
</mgrwt>
</event>
<event>
 4    1  0.1759998E-004  0.3428831E+03  0.7818608E-02  0.1065575E+00
          2   -1    0    0  501    0  0.00000000000E+00  0.00000000000E+00  0.97613990551E+03  0.97613990551E+03  0.00000000000E+00 0.  1.
         -2   -1    0    0    0  501 -0.00000000000E+00 -0.00000000000E+00 -0.30110652619E+02  0.30110652619E+02  0.00000000000E+00 0.  1.
         25    1    1    2    0    0  0.76035759340E+02 -0.61692252888E+02  0.25726433309E+03  0.30028704242E+03  0.12000000000E+03 0.  0.
         25    1    1    2    0    0 -0.76035759340E+02  0.61692252888E+02  0.68876491980E+03  0.70596351571E+03  0.12000000000E+03 0.  0.
<mgrwt>
<rscale>  0 0.34288313E+03</rscale>
<asrwt>0</asrwt>
<pdfrwt beam="1">  1        2 0.15017535E+00 0.34288313E+03</pdfrwt>
<pdfrwt beam="2">  1       -2 0.46324088E-02 0.34288313E+03</pdfrwt>
<totfact> 0.59995117E+03</totfact>
</mgrwt>
</event>
<event>
 4    1  0.1759998E-004  0.2477081E+03  0.7818608E-02  0.1114762E+00
         -2   -1    0    0    0  501 -0.00000000000E+00  0.00000000000E+00  0.13224457297E+02  0.13224457297E+02  0.00000000000E+00 0.  1.
          2   -1    0    0  501    0  0.00000000000E+00 -0.00000000000E+00 -0.11599586558E+04  0.11599586558E+04  0.00000000000E+00 0.  1.
         25    1    1    2    0    0 -0.14539625516E+02 -0.22653673418E+02 -0.64285051232E+03  0.65450849561E+03  0.12000000000E+03 0.  0.
         25    1    1    2    0    0  0.14539625516E+02  0.22653673418E+02 -0.50388368622E+03  0.51867461753E+03  0.12000000000E+03 0.  0.
<mgrwt>
<rscale>  0 0.24770808E+03</rscale>
<asrwt>0</asrwt>
<pdfrwt beam="1">  1        2 0.17845513E+00 0.24770808E+03</pdfrwt>
<pdfrwt beam="2">  1       -2 0.20345324E-02 0.24770808E+03</pdfrwt>
<totfact> 0.15785398E+04</totfact>
</mgrwt>
</event>
<event>
 4    1  0.1759998E-004  0.2539752E+03  0.7818608E-02  0.1110818E+00
          1   -1    0    0  501    0  0.00000000000E+00  0.00000000000E+00  0.28016617848E+04  0.28016617848E+04  0.00000000000E+00 0.  1.
         -1   -1    0    0    0  501 -0.00000000000E+00 -0.00000000000E+00 -0.57558156796E+01  0.57558156796E+01  0.00000000000E+00 0.  1.
         25    1    1    2    0    0 -0.25811480367E+02  0.12934525375E+02  0.10677548064E+04  0.10748645780E+04  0.12000000000E+03 0.  0.
         25    1    1    2    0    0  0.25811480367E+02 -0.12934525375E+02  0.17281511627E+04  0.17325530225E+04  0.12000000000E+03 0.  0.
<mgrwt>
<rscale>  0 0.25397519E+03</rscale>
<asrwt>0</asrwt>
<pdfrwt beam="1">  1        1 0.43102380E+00 0.25397519E+03</pdfrwt>
<pdfrwt beam="2">  1       -1 0.88551234E-03 0.25397519E+03</pdfrwt>
<totfact> 0.22297243E+03</totfact>
</mgrwt>
</event>
<event>
 4    1  0.1759998E-004  0.4966664E+03  0.7818608E-02  0.1014653E+00
          1   -1    0    0  501    0  0.00000000000E+00  0.00000000000E+00  0.20192921241E+03  0.20192921241E+03  0.00000000000E+00 0.  1.
         -1   -1    0    0    0  501 -0.00000000000E+00 -0.00000000000E+00 -0.30540098892E+03  0.30540098892E+03  0.00000000000E+00 0.  1.
         25    1    1    2    0    0  0.29725191230E+02 -0.77214461684E+02 -0.25710923011E+03  0.29555171509E+03  0.12000000000E+03 0.  0.
         25    1    1    2    0    0 -0.29725191230E+02  0.77214461684E+02  0.15363745360E+03  0.21177848624E+03  0.12000000000E+03 0.  0.
<mgrwt>
<rscale>  0 0.49666641E+03</rscale>
<asrwt>0</asrwt>
<pdfrwt beam="1">  1        1 0.31066033E-01 0.49666641E+03</pdfrwt>
<pdfrwt beam="2">  1       -1 0.46984767E-01 0.49666641E+03</pdfrwt>
<totfact> 0.66877540E+02</totfact>
</mgrwt>
</event>
<event>
 4    1  0.1759998E-004  0.3000233E+03  0.7818608E-02  0.1085229E+00
         -2   -1    0    0    0  501 -0.00000000000E+00  0.00000000000E+00  0.29020712120E+02  0.29020712120E+02  0.00000000000E+00 0. -1.
          2   -1    0    0  501    0  0.00000000000E+00 -0.00000000000E+00 -0.77542852810E+03  0.77542852810E+03  0.00000000000E+00 0. -1.
         25    1    1    2    0    0 -0.56817427316E+02 -0.29223508651E+02 -0.54323350069E+03  0.55998649071E+03  0.12000000000E+03 0.  0.
         25    1    1    2    0    0  0.56817427316E+02  0.29223508651E+02 -0.20317431529E+03  0.24446274951E+03  0.12000000000E+03 0.  0.
<mgrwt>
<rscale>  0 0.30002325E+03</rscale>
<asrwt>0</asrwt>
<pdfrwt beam="1">  1        2 0.11929669E+00 0.30002325E+03</pdfrwt>
<pdfrwt beam="2">  1       -2 0.44647252E-02 0.30002325E+03</pdfrwt>
<totfact> 0.85910713E+03</totfact>
</mgrwt>
</event>
<event>
 4    1  0.1759998E-004  0.2652071E+03  0.7818608E-02  0.1104054E+00
          1   -1    0    0  501    0  0.00000000000E+00  0.00000000000E+00  0.16667315437E+03  0.16667315437E+03  0.00000000000E+00 0. -1.
         -1   -1    0    0    0  501 -0.00000000000E+00 -0.00000000000E+00 -0.10549813582E+03  0.10549813582E+03  0.00000000000E+00 0. -1.
         25    1    1    2    0    0  0.52338646379E+00 -0.24834275552E+02 -0.21405381695E+02  0.12439937918E+03  0.12000000000E+03 0.  0.
         25    1    1    2    0    0 -0.52338646379E+00  0.24834275552E+02  0.82580400246E+02  0.14777191100E+03  0.12000000000E+03 0.  0.
<mgrwt>
<rscale>  0 0.26520714E+03</rscale>
<asrwt>0</asrwt>
<pdfrwt beam="1">  1        1 0.25642024E-01 0.26520714E+03</pdfrwt>
<pdfrwt beam="2">  1       -1 0.16230482E-01 0.26520714E+03</pdfrwt>
<totfact> 0.51968040E+03</totfact>
</mgrwt>
</event>
<event>
 4    1  0.1759998E-004  0.4320694E+03  0.7818608E-02  0.1033208E+00
         -1   -1    0    0    0  501 -0.00000000000E+00  0.00000000000E+00  0.14977168374E+03  0.14977168374E+03  0.00000000000E+00 0.  1.
          1   -1    0    0  501    0  0.00000000000E+00 -0.00000000000E+00 -0.31161422571E+03  0.31161422571E+03  0.00000000000E+00 0.  1.
         25    1    1    2    0    0 -0.11799228473E+03 -0.91116371852E+02 -0.18795501393E+03  0.26823769261E+03  0.12000000000E+03 0.  0.
         25    1    1    2    0    0  0.11799228473E+03  0.91116371852E+02  0.26112471961E+02  0.19314821684E+03  0.12000000000E+03 0.  0.
<mgrwt>
<rscale>  0 0.43206938E+03</rscale>
<asrwt>0</asrwt>
<pdfrwt beam="1">  1        1 0.47940650E-01 0.43206938E+03</pdfrwt>
<pdfrwt beam="2">  1       -1 0.23041798E-01 0.43206938E+03</pdfrwt>
<totfact> 0.13385163E+03</totfact>
</mgrwt>
</event>
<event>
 4    1  0.1759998E-004  0.3434257E+03  0.7818608E-02  0.1065346E+00
          1   -1    0    0  501    0  0.00000000000E+00  0.00000000000E+00  0.96983365963E+03  0.96983365963E+03  0.00000000000E+00 0.  1.
         -1   -1    0    0    0  501 -0.00000000000E+00 -0.00000000000E+00 -0.30402429800E+02  0.30402429800E+02  0.00000000000E+00 0.  1.
         25    1    1    2    0    0  0.99605124265E+02  0.23657078625E+01  0.67890151656E+03  0.69658742921E+03  0.12000000000E+03 0.  0.
         25    1    1    2    0    0 -0.99605124265E+02 -0.23657078625E+01  0.26052971328E+03  0.30364866022E+03  0.12000000000E+03 0.  0.
<mgrwt>
<rscale>  0 0.34342568E+03</rscale>
<asrwt>0</asrwt>
<pdfrwt beam="1">  1        1 0.14920515E+00 0.34342568E+03</pdfrwt>
<pdfrwt beam="2">  1       -1 0.46772976E-02 0.34342568E+03</pdfrwt>
<totfact> 0.32884344E+03</totfact>
</mgrwt>
</event>
<event>
 4    1  0.1759998E-004  0.2677315E+03  0.7818608E-02  0.1102585E+00
         -1   -1    0    0    0  501 -0.00000000000E+00  0.00000000000E+00  0.29228105736E+02  0.29228105736E+02  0.00000000000E+00 0. -1.
          1   -1    0    0  501    0  0.00000000000E+00 -0.00000000000E+00 -0.61310999702E+03  0.61310999702E+03  0.00000000000E+00 0. -1.
         25    1    1    2    0    0  0.50709116756E+02  0.27825849613E+02 -0.26026155172E+03  0.29237265216E+03  0.12000000000E+03 0.  0.
         25    1    1    2    0    0 -0.50709116756E+02 -0.27825849613E+02 -0.32362033956E+03  0.34996545059E+03  0.12000000000E+03 0.  0.
<mgrwt>
<rscale>  0 0.26773154E+03</rscale>
<asrwt>0</asrwt>
<pdfrwt beam="1">  1        1 0.94324604E-01 0.26773154E+03</pdfrwt>
<pdfrwt beam="2">  1       -1 0.44966322E-02 0.26773154E+03</pdfrwt>
<totfact> 0.70091873E+03</totfact>
</mgrwt>
</event>
<event>
 4    1  0.1759998E-004  0.3519104E+03  0.7818608E-02  0.1061834E+00
          2   -1    0    0  501    0  0.00000000000E+00  0.00000000000E+00  0.36809390749E+03  0.36809390749E+03  0.00000000000E+00 0. -1.
         -2   -1    0    0    0  501 -0.00000000000E+00 -0.00000000000E+00 -0.84109617411E+02  0.84109617411E+02  0.00000000000E+00 0. -1.
         25    1    1    2    0    0 -0.11354588129E+03 -0.14650617512E+02  0.21750061846E+03  0.27352116331E+03  0.12000000000E+03 0.  0.
         25    1    1    2    0    0  0.11354588129E+03  0.14650617512E+02  0.66483671624E+02  0.17868236159E+03  0.12000000000E+03 0.  0.
<mgrwt>
<rscale>  0 0.35191043E+03</rscale>
<asrwt>0</asrwt>
<pdfrwt beam="1">  1        2 0.56629831E-01 0.35191043E+03</pdfrwt>
<pdfrwt beam="2">  1       -2 0.12939941E-01 0.35191043E+03</pdfrwt>
<totfact> 0.38362755E+03</totfact>
</mgrwt>
</event>
<event>
 4    1  0.1759998E-004  0.2916428E+03  0.7818608E-02  0.1089495E+00
          2   -1    0    0  501    0  0.00000000000E+00  0.00000000000E+00  0.19905658949E+03  0.19905658949E+03  0.00000000000E+00 0.  1.
         -2   -1    0    0    0  501 -0.00000000000E+00 -0.00000000000E+00 -0.10682327518E+03  0.10682327518E+03  0.00000000000E+00 0.  1.
         25    1    1    2    0    0 -0.44405623070E+02 -0.63899722665E+02  0.75945181155E+02  0.16193425968E+03  0.12000000000E+03 0.  0.
         25    1    1    2    0    0  0.44405623070E+02  0.63899722665E+02  0.16288133153E+02  0.14394560500E+03  0.12000000000E+03 0.  0.
<mgrwt>
<rscale>  0 0.29164277E+03</rscale>
<asrwt>0</asrwt>
<pdfrwt beam="1">  1        2 0.30624091E-01 0.29164277E+03</pdfrwt>
<pdfrwt beam="2">  1       -2 0.16434350E-01 0.29164277E+03</pdfrwt>
<totfact> 0.50151164E+03</totfact>
</mgrwt>
</event>
<event>
 4    1  0.1759998E-004  0.2614438E+03  0.7818608E-02  0.1106279E+00
          2   -1    0    0  501    0  0.00000000000E+00  0.00000000000E+00  0.18138047929E+04  0.18138047929E+04  0.00000000000E+00 0. -1.
         -2   -1    0    0    0  501 -0.00000000000E+00 -0.00000000000E+00 -0.94211962355E+01  0.94211962355E+01  0.00000000000E+00 0. -1.
         25    1    1    2    0    0 -0.55939193948E+01  0.19413124381E+02  0.12351842222E+04  0.12411640601E+04  0.12000000000E+03 0.  0.
         25    1    1    2    0    0  0.55939193948E+01 -0.19413124381E+02  0.56919937448E+03  0.58206192904E+03  0.12000000000E+03 0.  0.
<mgrwt>
<rscale>  0 0.26144377E+03</rscale>
<asrwt>0</asrwt>
<pdfrwt beam="1">  1        2 0.27904661E+00 0.26144377E+03</pdfrwt>
<pdfrwt beam="2">  1       -2 0.14494162E-02 0.26144377E+03</pdfrwt>
<totfact> 0.11533387E+04</totfact>
</mgrwt>
</event>
<event>
 4    1  0.1759998E-004  0.3083972E+03  0.7818608E-02  0.1081117E+00
         -1   -1    0    0    0  501 -0.00000000000E+00  0.00000000000E+00  0.11131249997E+02  0.11131249997E+02  0.00000000000E+00 0. -1.
          1   -1    0    0  501    0  0.00000000000E+00 -0.00000000000E+00 -0.21360774187E+04  0.21360774187E+04  0.00000000000E+00 0. -1.
         25    1    1    2    0    0  0.21177156847E+02  0.71087758587E+02 -0.14958989219E+04  0.15025363643E+04  0.12000000000E+03 0.  0.
         25    1    1    2    0    0 -0.21177156847E+02 -0.71087758587E+02 -0.62904724676E+03  0.64467230439E+03  0.12000000000E+03 0.  0.
<mgrwt>
<rscale>  0 0.30839722E+03</rscale>
<asrwt>0</asrwt>
<pdfrwt beam="1">  1        1 0.32862750E+00 0.30839722E+03</pdfrwt>
<pdfrwt beam="2">  1       -1 0.17124989E-02 0.30839722E+03</pdfrwt>
<totfact> 0.23639379E+03</totfact>
</mgrwt>
</event>
<event>
 4    1  0.1759998E-004  0.2698793E+03  0.7818608E-02  0.1101349E+00
          1   -1    0    0  501    0  0.00000000000E+00  0.00000000000E+00  0.35582728107E+03  0.35582728107E+03  0.00000000000E+00 0.  1.
         -1   -1    0    0    0  501 -0.00000000000E+00 -0.00000000000E+00 -0.51172870688E+02  0.51172870688E+02  0.00000000000E+00 0.  1.
         25    1    1    2    0    0 -0.41153386800E+02 -0.35416060500E+02  0.19657355189E+03  0.23662007499E+03  0.12000000000E+03 0.  0.
         25    1    1    2    0    0  0.41153386800E+02  0.35416060500E+02  0.10808085849E+03  0.17038007676E+03  0.12000000000E+03 0.  0.
<mgrwt>
<rscale>  0 0.26987926E+03</rscale>
<asrwt>0</asrwt>
<pdfrwt beam="1">  1        1 0.54742657E-01 0.26987926E+03</pdfrwt>
<pdfrwt beam="2">  1       -1 0.78727496E-02 0.26987926E+03</pdfrwt>
<totfact> 0.61732284E+03</totfact>
</mgrwt>
</event>
<event>
 4    1  0.1759998E-004  0.3600656E+03  0.7818608E-02  0.1058558E+00
         -2   -1    0    0    0  501 -0.00000000000E+00  0.00000000000E+00  0.15962389294E+02  0.15962389294E+02  0.00000000000E+00 0. -1.
          2   -1    0    0  501    0  0.00000000000E+00 -0.00000000000E+00 -0.20305111806E+04  0.20305111806E+04  0.00000000000E+00 0. -1.
         25    1    1    2    0    0  0.87225850501E+02  0.40282844630E+02 -0.47468760337E+03  0.49895829221E+03  0.12000000000E+03 0.  0.
         25    1    1    2    0    0 -0.87225850501E+02 -0.40282844630E+02 -0.15398611879E+04  0.15475152776E+04  0.12000000000E+03 0.  0.
<mgrwt>
<rscale>  0 0.36006560E+03</rscale>
<asrwt>0</asrwt>
<pdfrwt beam="1">  1        2 0.31238643E+00 0.36006560E+03</pdfrwt>
<pdfrwt beam="2">  1       -2 0.24557515E-02 0.36006560E+03</pdfrwt>
<totfact> 0.40775852E+03</totfact>
</mgrwt>
</event>
<event>
 4    1  0.1759998E-004  0.3321920E+03  0.7818608E-02  0.1070171E+00
          2   -1    0    0  501    0  0.00000000000E+00  0.00000000000E+00  0.13788307868E+04  0.13788307868E+04  0.00000000000E+00 0.  1.
         -2   -1    0    0    0  501 -0.00000000000E+00 -0.00000000000E+00 -0.20008165020E+02  0.20008165020E+02  0.00000000000E+00 0.  1.
         25    1    1    2    0    0  0.57736582151E+02  0.97940796684E+02  0.74756623058E+03  0.76562470028E+03  0.12000000000E+03 0.  0.
         25    1    1    2    0    0 -0.57736582151E+02 -0.97940796684E+02  0.61125639121E+03  0.63321425155E+03  0.12000000000E+03 0.  0.
<mgrwt>
<rscale>  0 0.33219196E+03</rscale>
<asrwt>0</asrwt>
<pdfrwt beam="1">  1        2 0.21212774E+00 0.33219196E+03</pdfrwt>
<pdfrwt beam="2">  1       -2 0.30781803E-02 0.33219196E+03</pdfrwt>
<totfact> 0.64887734E+03</totfact>
</mgrwt>
</event>
<event>
 4    1  0.1759998E-004  0.2690776E+03  0.7818608E-02  0.1101809E+00
          2   -1    0    0  501    0  0.00000000000E+00  0.00000000000E+00  0.54102301739E+03  0.54102301739E+03  0.00000000000E+00 0.  1.
         -2   -1    0    0    0  501 -0.00000000000E+00 -0.00000000000E+00 -0.33456412860E+02  0.33456412860E+02  0.00000000000E+00 0.  1.
         25    1    1    2    0    0  0.33664090732E+02 -0.30789556491E+02  0.16786673864E+03  0.21133033321E+03  0.12000000000E+03 0.  0.
         25    1    1    2    0    0 -0.33664090732E+02  0.30789556491E+02  0.33969986589E+03  0.36314909703E+03  0.12000000000E+03 0.  0.
<mgrwt>
<rscale>  0 0.26907761E+03</rscale>
<asrwt>0</asrwt>
<pdfrwt beam="1">  1        2 0.83234304E-01 0.26907761E+03</pdfrwt>
<pdfrwt beam="2">  1       -2 0.51471409E-02 0.26907761E+03</pdfrwt>
<totfact> 0.10587782E+04</totfact>
</mgrwt>
</event>
<event>
 4    1  0.1759998E-004  0.2513670E+03  0.7818608E-02  0.1112444E+00
         -2   -1    0    0    0  501 -0.00000000000E+00  0.00000000000E+00  0.15385447149E+02  0.15385447149E+02  0.00000000000E+00 0.  1.
          2   -1    0    0  501    0  0.00000000000E+00 -0.00000000000E+00 -0.10267071185E+04  0.10267071185E+04  0.00000000000E+00 0.  1.
         25    1    1    2    0    0 -0.37313718331E+02  0.64246572251E+00 -0.49777117269E+03  0.51338958569E+03  0.12000000000E+03 0.  0.
         25    1    1    2    0    0  0.37313718331E+02 -0.64246572251E+00 -0.51355049867E+03  0.52870297997E+03  0.12000000000E+03 0.  0.
<mgrwt>
<rscale>  0 0.25136705E+03</rscale>
<asrwt>0</asrwt>
<pdfrwt beam="1">  1        2 0.15795497E+00 0.25136705E+03</pdfrwt>
<pdfrwt beam="2">  1       -2 0.23669914E-02 0.25136705E+03</pdfrwt>
<totfact> 0.15136288E+04</totfact>
</mgrwt>
</event>
<event>
 4    1  0.1759998E-004  0.2891710E+03  0.7818608E-02  0.1090783E+00
         -1   -1    0    0    0  501 -0.00000000000E+00  0.00000000000E+00  0.78949708136E+02  0.78949708136E+02  0.00000000000E+00 0.  1.
          1   -1    0    0  501    0  0.00000000000E+00 -0.00000000000E+00 -0.26478835937E+03  0.26478835937E+03  0.00000000000E+00 0.  1.
         25    1    1    2    0    0 -0.42574065349E+02 -0.57398732089E+02 -0.13736148635E+03  0.19589625677E+03  0.12000000000E+03 0.  0.
         25    1    1    2    0    0  0.42574065349E+02  0.57398732089E+02 -0.48477164885E+02  0.14784181073E+03  0.12000000000E+03 0.  0.
<mgrwt>
<rscale>  0 0.28917098E+03</rscale>
<asrwt>0</asrwt>
<pdfrwt beam="1">  1        1 0.40736671E-01 0.28917098E+03</pdfrwt>
<pdfrwt beam="2">  1       -1 0.12146109E-01 0.28917098E+03</pdfrwt>
<totfact> 0.45955761E+03</totfact>
</mgrwt>
</event>
<event>
 4    1  0.1759998E-004  0.2411233E+03  0.7818608E-02  0.1119047E+00
          2   -1    0    0  501    0  0.00000000000E+00  0.00000000000E+00  0.10713818931E+03  0.10713818931E+03  0.00000000000E+00 0.  1.
         -2   -1    0    0    0  501 -0.00000000000E+00 -0.00000000000E+00 -0.13566695939E+03  0.13566695939E+03  0.00000000000E+00 0.  1.
         25    1    1    2    0    0  0.66737755841E+01 -0.28636052542E+01 -0.51251303984E+01  0.12032874335E+03  0.12000000000E+03 0.  0.
         25    1    1    2    0    0 -0.66737755841E+01  0.28636052542E+01 -0.23403639682E+02  0.12247640534E+03  0.12000000000E+03 0.  0.
<mgrwt>
<rscale>  0 0.24112331E+03</rscale>
<asrwt>0</asrwt>
<pdfrwt beam="1">  1        2 0.16482799E-01 0.24112331E+03</pdfrwt>
<pdfrwt beam="2">  1       -2 0.20871840E-01 0.24112331E+03</pdfrwt>
<totfact> 0.66931550E+03</totfact>
</mgrwt>
</event>
<event>
 4    1  0.1759998E-004  0.4042930E+03  0.7818608E-02  0.1042303E+00
          1   -1    0    0  501    0  0.00000000000E+00  0.00000000000E+00  0.95461916898E+03  0.95461916898E+03  0.00000000000E+00 0.  1.
         -1   -1    0    0    0  501 -0.00000000000E+00 -0.00000000000E+00 -0.42805773952E+02  0.42805773952E+02  0.00000000000E+00 0.  1.
         25    1    1    2    0    0 -0.29165630867E+02  0.12589407149E+03  0.21213604016E+03  0.27586527653E+03  0.12000000000E+03 0.  0.
         25    1    1    2    0    0  0.29165630867E+02 -0.12589407149E+03  0.69967735487E+03  0.72155966640E+03  0.12000000000E+03 0.  0.
<mgrwt>
<rscale>  0 0.40429302E+03</rscale>
<asrwt>0</asrwt>
<pdfrwt beam="1">  1        1 0.14686447E+00 0.40429302E+03</pdfrwt>
<pdfrwt beam="2">  1       -1 0.65855044E-02 0.40429302E+03</pdfrwt>
<totfact> 0.20107855E+03</totfact>
</mgrwt>
</event>
<event>
 4    1  0.1759998E-004  0.2694815E+03  0.7818608E-02  0.1101577E+00
          2   -1    0    0  501    0  0.00000000000E+00  0.00000000000E+00  0.94711626250E+03  0.94711626250E+03  0.00000000000E+00 0. -1.
         -2   -1    0    0    0  501 -0.00000000000E+00 -0.00000000000E+00 -0.19168785871E+02  0.19168785871E+02  0.00000000000E+00 0. -1.
         25    1    1    2    0    0 -0.57234166196E+02  0.46503159025E+01  0.54068581505E+03  0.55681103241E+03  0.12000000000E+03 0.  0.
         25    1    1    2    0    0  0.57234166196E+02 -0.46503159025E+01  0.38726166158E+03  0.40947401596E+03  0.12000000000E+03 0.  0.
<mgrwt>
<rscale>  0 0.26948149E+03</rscale>
<asrwt>0</asrwt>
<pdfrwt beam="1">  1        2 0.14571016E+00 0.26948149E+03</pdfrwt>
<pdfrwt beam="2">  1       -2 0.29490447E-02 0.26948149E+03</pdfrwt>
<totfact> 0.12267145E+04</totfact>
</mgrwt>
</event>
<event>
 4    1  0.1759998E-004  0.6075339E+03  0.7818608E-02  0.9889898E-01
          2   -1    0    0  501    0  0.00000000000E+00  0.00000000000E+00  0.17249911123E+03  0.17249911123E+03  0.00000000000E+00 0. -1.
         -2   -1    0    0    0  501 -0.00000000000E+00 -0.00000000000E+00 -0.53492655968E+03  0.53492655968E+03  0.00000000000E+00 0. -1.
         25    1    1    2    0    0  0.17350185435E+02  0.24149690194E+03 -0.34278148406E+03  0.43648703119E+03  0.12000000000E+03 0.  0.
         25    1    1    2    0    0 -0.17350185435E+02 -0.24149690194E+03 -0.19645964397E+02  0.27093863973E+03  0.12000000000E+03 0.  0.
<mgrwt>
<rscale>  0 0.60753389E+03</rscale>
<asrwt>0</asrwt>
<pdfrwt beam="1">  1        2 0.26538326E-01 0.60753389E+03</pdfrwt>
<pdfrwt beam="2">  1       -2 0.82296391E-01 0.60753389E+03</pdfrwt>
<totfact> 0.26828981E+02</totfact>
</mgrwt>
</event>
<event>
 4    1  0.1759998E-004  0.2820628E+03  0.7818608E-02  0.1094568E+00
         -2   -1    0    0    0  501 -0.00000000000E+00  0.00000000000E+00  0.22878247325E+02  0.22878247325E+02  0.00000000000E+00 0.  1.
          2   -1    0    0  501    0  0.00000000000E+00 -0.00000000000E+00 -0.86937872000E+03  0.86937872000E+03  0.00000000000E+00 0.  1.
         25    1    1    2    0    0  0.72803687017E+02 -0.13692653131E+02 -0.42771913681E+03  0.45036821112E+03  0.12000000000E+03 0.  0.
         25    1    1    2    0    0 -0.72803687017E+02  0.13692653131E+02 -0.41878133587E+03  0.44188875621E+03  0.12000000000E+03 0.  0.
<mgrwt>
<rscale>  0 0.28206284E+03</rscale>
<asrwt>0</asrwt>
<pdfrwt beam="1">  1        2 0.13375057E+00 0.28206284E+03</pdfrwt>
<pdfrwt beam="2">  1       -2 0.35197305E-02 0.28206284E+03</pdfrwt>
<totfact> 0.10586756E+04</totfact>
</mgrwt>
</event>
<event>
 4    1  0.1759998E-004  0.3724588E+03  0.7818608E-02  0.1053757E+00
          2   -1    0    0  501    0  0.00000000000E+00  0.00000000000E+00  0.40619122142E+03  0.40619122142E+03  0.00000000000E+00 0. -1.
         -2   -1    0    0    0  501 -0.00000000000E+00 -0.00000000000E+00 -0.85381935936E+02  0.85381935936E+02  0.00000000000E+00 0. -1.
         25    1    1    2    0    0  0.44713288595E+02 -0.58722421880E+02 -0.33980796649E+00  0.14088192389E+03  0.12000000000E+03 0.  0.
         25    1    1    2    0    0 -0.44713288595E+02  0.58722421880E+02  0.32114909345E+03  0.35069123347E+03  0.12000000000E+03 0.  0.
<mgrwt>
<rscale>  0 0.37245882E+03</rscale>
<asrwt>0</asrwt>
<pdfrwt beam="1">  1        2 0.62490956E-01 0.37245882E+03</pdfrwt>
<pdfrwt beam="2">  1       -2 0.13135683E-01 0.37245882E+03</pdfrwt>
<totfact> 0.33636941E+03</totfact>
</mgrwt>
</event>
<event>
 4    1  0.1759998E-004  0.2497234E+03  0.7818608E-02  0.1113480E+00
         -4   -1    0    0    0  501 -0.00000000000E+00  0.00000000000E+00  0.12237317916E+03  0.12237317916E+03  0.00000000000E+00 0. -1.
          4   -1    0    0  501    0  0.00000000000E+00 -0.00000000000E+00 -0.12740087552E+03  0.12740087552E+03  0.00000000000E+00 0. -1.
         25    1    1    2    0    0  0.33163233619E+02  0.78142445770E+00  0.69769881103E+01  0.12469598651E+03  0.12000000000E+03 0.  0.
         25    1    1    2    0    0 -0.33163233619E+02 -0.78142445770E+00 -0.12004684469E+02  0.12507806817E+03  0.12000000000E+03 0.  0.
<mgrwt>
<rscale>  0 0.24972345E+03</rscale>
<asrwt>0</asrwt>
<pdfrwt beam="1">  1        4 0.19600134E-01 0.24972345E+03</pdfrwt>
<pdfrwt beam="2">  1       -4 0.18826643E-01 0.24972345E+03</pdfrwt>
<totfact> 0.10896428E+03</totfact>
</mgrwt>
</event>
<event>
 4    1  0.1759998E-004  0.2409271E+03  0.7818608E-02  0.1119177E+00
         -2   -1    0    0    0  501 -0.00000000000E+00  0.00000000000E+00  0.45189668391E+02  0.45189668391E+02  0.00000000000E+00 0. -1.
          2   -1    0    0  501    0  0.00000000000E+00 -0.00000000000E+00 -0.32112344084E+03  0.32112344084E+03  0.00000000000E+00 0. -1.
         25    1    1    2    0    0  0.74699128964E+01  0.59292525344E+01 -0.14485196891E+03  0.18834290146E+03  0.12000000000E+03 0.  0.
         25    1    1    2    0    0 -0.74699128964E+01 -0.59292525344E+01 -0.13108180354E+03  0.17797020777E+03  0.12000000000E+03 0.  0.
<mgrwt>
<rscale>  0 0.24092706E+03</rscale>
<asrwt>0</asrwt>
<pdfrwt beam="1">  1        2 0.49403604E-01 0.24092706E+03</pdfrwt>
<pdfrwt beam="2">  1       -2 0.69522570E-02 0.24092706E+03</pdfrwt>
<totfact> 0.11762511E+04</totfact>
</mgrwt>
</event>
<event>
 4    1  0.1759998E-004  0.2890464E+03  0.7818608E-02  0.1090848E+00
          2   -1    0    0  501    0  0.00000000000E+00  0.00000000000E+00  0.99050355728E+02  0.99050355728E+02  0.00000000000E+00 0. -1.
         -2   -1    0    0    0  501 -0.00000000000E+00 -0.00000000000E+00 -0.21087203045E+03  0.21087203045E+03  0.00000000000E+00 0. -1.
         25    1    1    2    0    0  0.13783440905E+02  0.54361880612E+02 -0.11789383431E+03  0.17732499394E+03  0.12000000000E+03 0.  0.
         25    1    1    2    0    0 -0.13783440905E+02 -0.54361880612E+02  0.60721595878E+01  0.13259739224E+03  0.12000000000E+03 0.  0.
<mgrwt>
<rscale>  0 0.28904636E+03</rscale>
<asrwt>0</asrwt>
<pdfrwt beam="1">  1        2 0.15238516E-01 0.28904636E+03</pdfrwt>
<pdfrwt beam="2">  1       -2 0.32441851E-01 0.28904636E+03</pdfrwt>
<totfact> 0.33762000E+03</totfact>
</mgrwt>
</event>
<event>
 4    1  0.1759998E-004  0.3544617E+03  0.7818608E-02  0.1060799E+00
          2   -1    0    0  501    0  0.00000000000E+00  0.00000000000E+00  0.13007687344E+04  0.13007687344E+04  0.00000000000E+00 0. -1.
         -2   -1    0    0    0  501 -0.00000000000E+00 -0.00000000000E+00 -0.24147853729E+02  0.24147853729E+02  0.00000000000E+00 0. -1.
         25    1    1    2    0    0  0.59347111224E+02  0.41513720842E+02  0.23287583481E+03  0.27180254426E+03  0.12000000000E+03 0.  0.
         25    1    1    2    0    0 -0.59347111224E+02 -0.41513720842E+02  0.10437450458E+04  0.10531140438E+04  0.12000000000E+03 0.  0.
<mgrwt>
<rscale>  0 0.35446169E+03</rscale>
<asrwt>0</asrwt>
<pdfrwt beam="1">  1        2 0.20011821E+00 0.35446169E+03</pdfrwt>
<pdfrwt beam="2">  1       -2 0.37150554E-02 0.35446169E+03</pdfrwt>
<totfact> 0.54056205E+03</totfact>
</mgrwt>
</event>
<event>
 4    1  0.1759998E-004  0.2803721E+03  0.7818608E-02  0.1095486E+00
         -3   -1    0    0    0  501 -0.00000000000E+00  0.00000000000E+00  0.18586511912E+02  0.18586511912E+02  0.00000000000E+00 0. -1.
          3   -1    0    0  501    0  0.00000000000E+00 -0.00000000000E+00 -0.10573325864E+04  0.10573325864E+04  0.00000000000E+00 0. -1.
         25    1    1    2    0    0  0.25619040549E+02  0.55405318834E+02 -0.66928208331E+03  0.68268923503E+03  0.12000000000E+03 0.  0.
         25    1    1    2    0    0 -0.25619040549E+02 -0.55405318834E+02 -0.36946399114E+03  0.39322986324E+03  0.12000000000E+03 0.  0.
<mgrwt>
<rscale>  0 0.28037207E+03</rscale>
<asrwt>0</asrwt>
<pdfrwt beam="1">  1        3 0.16266658E+00 0.28037207E+03</pdfrwt>
<pdfrwt beam="2">  1       -3 0.28594629E-02 0.28037207E+03</pdfrwt>
<totfact> 0.38905021E+02</totfact>
</mgrwt>
</event>
<event>
 4    1  0.1759998E-004  0.2682377E+03  0.7818608E-02  0.1102292E+00
          1   -1    0    0  501    0  0.00000000000E+00  0.00000000000E+00  0.24433793316E+04  0.24433793316E+04  0.00000000000E+00 0. -1.
         -1   -1    0    0    0  501 -0.00000000000E+00 -0.00000000000E+00 -0.73618823668E+01  0.73618823668E+01  0.00000000000E+00 0. -1.
         25    1    1    2    0    0 -0.92130666107E-01  0.25385273645E+02  0.17136939227E+04  0.17180777867E+04  0.12000000000E+03 0.  0.
         25    1    1    2    0    0  0.92130666107E-01 -0.25385273645E+02  0.72232352656E+03  0.73266342725E+03  0.12000000000E+03 0.  0.
<mgrwt>
<rscale>  0 0.26823774E+03</rscale>
<asrwt>0</asrwt>
<pdfrwt beam="1">  1        1 0.37590387E+00 0.26823774E+03</pdfrwt>
<pdfrwt beam="2">  1       -1 0.11325992E-02 0.26823774E+03</pdfrwt>
<totfact> 0.27161282E+03</totfact>
</mgrwt>
</event>
<event>
 4    1  0.1759998E-004  0.2611466E+03  0.7818608E-02  0.1106456E+00
         -2   -1    0    0    0  501 -0.00000000000E+00  0.00000000000E+00  0.13874279629E+02  0.13874279629E+02  0.00000000000E+00 0.  1.
          2   -1    0    0  501    0  0.00000000000E+00 -0.00000000000E+00 -0.12288483497E+04  0.12288483497E+04  0.00000000000E+00 0.  1.
         25    1    1    2    0    0  0.18050456014E+02  0.31193308062E+02 -0.78236868587E+03  0.79233806046E+03  0.12000000000E+03 0.  0.
         25    1    1    2    0    0 -0.18050456014E+02 -0.31193308062E+02 -0.43260538416E+03  0.45038456882E+03  0.12000000000E+03 0.  0.
<mgrwt>
<rscale>  0 0.26114659E+03</rscale>
<asrwt>0</asrwt>
<pdfrwt beam="1">  1        2 0.18905364E+00 0.26114659E+03</pdfrwt>
<pdfrwt beam="2">  1       -2 0.21345041E-02 0.26114659E+03</pdfrwt>
<totfact> 0.13468535E+04</totfact>
</mgrwt>
</event>
<event>
 4    1  0.1759998E-004  0.3175955E+03  0.7818608E-02  0.1076761E+00
         -1   -1    0    0    0  501 -0.00000000000E+00  0.00000000000E+00  0.19651708601E+03  0.19651708601E+03  0.00000000000E+00 0. -1.
          1   -1    0    0  501    0  0.00000000000E+00 -0.00000000000E+00 -0.12831826118E+03  0.12831826118E+03  0.00000000000E+00 0. -1.
         25    1    1    2    0    0 -0.78255040746E+02 -0.63761769445E+02  0.59716639616E+02  0.16779598235E+03  0.12000000000E+03 0.  0.
         25    1    1    2    0    0  0.78255040746E+02  0.63761769445E+02  0.84821852089E+01  0.15703936484E+03  0.12000000000E+03 0.  0.
<mgrwt>
<rscale>  0 0.31759553E+03</rscale>
<asrwt>0</asrwt>
<pdfrwt beam="1">  1        1 0.19741271E-01 0.31759553E+03</pdfrwt>
<pdfrwt beam="2">  1       -1 0.30233398E-01 0.31759553E+03</pdfrwt>
<totfact> 0.26209496E+03</totfact>
</mgrwt>
</event>
<event>
 4    1  0.1759998E-004  0.3285551E+03  0.7818608E-02  0.1071778E+00
          1   -1    0    0  501    0  0.00000000000E+00  0.00000000000E+00  0.16984085402E+04  0.16984085402E+04  0.00000000000E+00 0. -1.
         -1   -1    0    0    0  501 -0.00000000000E+00 -0.00000000000E+00 -0.15889648592E+02  0.15889648592E+02  0.00000000000E+00 0. -1.
         25    1    1    2    0    0 -0.10673034551E+02 -0.27446227234E+02  0.14061186405E+04  0.14115370489E+04  0.12000000000E+03 0.  0.
         25    1    1    2    0    0  0.10673034551E+02  0.27446227234E+02  0.27640025105E+03  0.30276113990E+03  0.12000000000E+03 0.  0.
<mgrwt>
<rscale>  0 0.32855511E+03</rscale>
<asrwt>0</asrwt>
<pdfrwt beam="1">  1        1 0.26129348E+00 0.32855511E+03</pdfrwt>
<pdfrwt beam="2">  1       -1 0.24445627E-02 0.32855511E+03</pdfrwt>
<totfact> 0.27037684E+03</totfact>
</mgrwt>
</event>
<event>
 4    1  0.1759998E-004  0.2425592E+03  0.7818608E-02  0.1118100E+00
         -1   -1    0    0    0  501 -0.00000000000E+00  0.00000000000E+00  0.53681051101E+03  0.53681051101E+03  0.00000000000E+00 0. -1.
          1   -1    0    0  501    0  0.00000000000E+00 -0.00000000000E+00 -0.27400248470E+02  0.27400248470E+02  0.00000000000E+00 0. -1.
         25    1    1    2    0    0  0.14698452532E+02  0.78878531856E+01  0.26754680008E+03  0.29369976672E+03  0.12000000000E+03 0.  0.
         25    1    1    2    0    0 -0.14698452532E+02 -0.78878531856E+01  0.24186346246E+03  0.27051099277E+03  0.12000000000E+03 0.  0.
<mgrwt>
<rscale>  0 0.24255920E+03</rscale>
<asrwt>0</asrwt>
<pdfrwt beam="1">  1        1 0.42154232E-02 0.24255920E+03</pdfrwt>
<pdfrwt beam="2">  1       -1 0.82586225E-01 0.24255920E+03</pdfrwt>
<totfact> 0.32002253E+03</totfact>
</mgrwt>
</event>
<event>
 4    1  0.1759998E-004  0.2490980E+03  0.7818608E-02  0.1113876E+00
          2   -1    0    0  501    0  0.00000000000E+00  0.00000000000E+00  0.24299237916E+04  0.24299237916E+04  0.00000000000E+00 0.  1.
         -2   -1    0    0    0  501 -0.00000000000E+00 -0.00000000000E+00 -0.63839239690E+01  0.63839239690E+01  0.00000000000E+00 0.  1.
         25    1    1    2    0    0 -0.11356752973E+02 -0.29343415479E+02  0.13199925596E+04  0.13258093262E+04  0.12000000000E+03 0.  0.
         25    1    1    2    0    0  0.11356752973E+02  0.29343415479E+02  0.11035473080E+04  0.11104983894E+04  0.12000000000E+03 0.  0.
<mgrwt>
<rscale>  0 0.24909796E+03</rscale>
<asrwt>0</asrwt>
<pdfrwt beam="1">  1        2 0.37383369E+00 0.24909796E+03</pdfrwt>
<pdfrwt beam="2">  1       -2 0.98214409E-03 0.24909796E+03</pdfrwt>
<totfact> 0.95786861E+03</totfact>
</mgrwt>
</event>
<event>
 4    1  0.1759998E-004  0.3417015E+03  0.7818608E-02  0.1066074E+00
         -2   -1    0    0    0  501 -0.00000000000E+00  0.00000000000E+00  0.16423200208E+02  0.16423200208E+02  0.00000000000E+00 0. -1.
          2   -1    0    0  501    0  0.00000000000E+00 -0.00000000000E+00 -0.17773622018E+04  0.17773622018E+04  0.00000000000E+00 0. -1.
         25    1    1    2    0    0 -0.79081429816E+02  0.85535162929E+02 -0.69712207373E+03  0.71690258915E+03  0.12000000000E+03 0.  0.
         25    1    1    2    0    0  0.79081429816E+02 -0.85535162929E+02 -0.10638169279E+04  0.10768828129E+04  0.12000000000E+03 0.  0.
<mgrwt>
<rscale>  0 0.34170148E+03</rscale>
<asrwt>0</asrwt>
<pdfrwt beam="1">  1        2 0.27344052E+00 0.34170148E+03</pdfrwt>
<pdfrwt beam="2">  1       -2 0.25266445E-02 0.34170148E+03</pdfrwt>
<totfact> 0.53254487E+03</totfact>
</mgrwt>
</event>
<event>
 4    1  0.1759998E-004  0.2568961E+03  0.7818608E-02  0.1109023E+00
         -2   -1    0    0    0  501 -0.00000000000E+00  0.00000000000E+00  0.57843335624E+03  0.57843335624E+03  0.00000000000E+00 0. -1.
          2   -1    0    0  501    0  0.00000000000E+00 -0.00000000000E+00 -0.28523426708E+02  0.28523426708E+02  0.00000000000E+00 0. -1.
         25    1    1    2    0    0 -0.12453735878E+02 -0.87961187092E+00  0.17080952530E+03  0.20912140777E+03  0.12000000000E+03 0.  0.
         25    1    1    2    0    0  0.12453735878E+02  0.87961187092E+00  0.37910040423E+03  0.39783537518E+03  0.12000000000E+03 0.  0.
<mgrwt>
<rscale>  0 0.25689610E+03</rscale>
<asrwt>0</asrwt>
<pdfrwt beam="1">  1        2 0.43882199E-02 0.25689610E+03</pdfrwt>
<pdfrwt beam="2">  1       -2 0.88989738E-01 0.25689610E+03</pdfrwt>
<totfact> 0.20894944E+03</totfact>
</mgrwt>
</event>
<event>
 4    1  0.1759998E-004  0.2781375E+03  0.7818608E-02  0.1096711E+00
          2   -1    0    0  501    0  0.00000000000E+00  0.00000000000E+00  0.15697525462E+03  0.15697525462E+03  0.00000000000E+00 0.  1.
         -2   -1    0    0    0  501 -0.00000000000E+00 -0.00000000000E+00 -0.12320484376E+03  0.12320484376E+03  0.00000000000E+00 0.  1.
         25    1    1    2    0    0  0.32675179033E+02  0.55921288933E+02 -0.10614618252E+02  0.13677546564E+03  0.12000000000E+03 0.  0.
         25    1    1    2    0    0 -0.32675179033E+02 -0.55921288933E+02  0.44385029112E+02  0.14340463274E+03  0.12000000000E+03 0.  0.
<mgrwt>
<rscale>  0 0.27813746E+03</rscale>
<asrwt>0</asrwt>
<pdfrwt beam="1">  1        2 0.24150039E-01 0.27813746E+03</pdfrwt>
<pdfrwt beam="2">  1       -2 0.18954591E-01 0.27813746E+03</pdfrwt>
<totfact> 0.51245713E+03</totfact>
</mgrwt>
</event>
<event>
 4    1  0.1759998E-004  0.3969703E+03  0.7818608E-02  0.1044834E+00
          3   -1    0    0  501    0  0.00000000000E+00  0.00000000000E+00  0.43160729686E+03  0.43160729686E+03  0.00000000000E+00 0. -1.
         -3   -1    0    0    0  501 -0.00000000000E+00 -0.00000000000E+00 -0.91278245720E+02  0.91278245720E+02  0.00000000000E+00 0. -1.
         25    1    1    2    0    0  0.84052353639E+02  0.21443795624E+01  0.34652527521E+03  0.37623019931E+03  0.12000000000E+03 0.  0.
         25    1    1    2    0    0 -0.84052353639E+02 -0.21443795624E+01 -0.61962240698E+01  0.14665534327E+03  0.12000000000E+03 0.  0.
<mgrwt>
<rscale>  0 0.39697031E+03</rscale>
<asrwt>0</asrwt>
<pdfrwt beam="1">  1        3 0.66401122E-01 0.39697031E+03</pdfrwt>
<pdfrwt beam="2">  1       -3 0.14042807E-01 0.39697031E+03</pdfrwt>
<totfact> 0.24097560E+02</totfact>
</mgrwt>
</event>
<event>
 4    1  0.1759998E-004  0.2871238E+03  0.7818608E-02  0.1091860E+00
          2   -1    0    0  501    0  0.00000000000E+00  0.00000000000E+00  0.82181651791E+03  0.82181651791E+03  0.00000000000E+00 0. -1.
         -2   -1    0    0    0  501 -0.00000000000E+00 -0.00000000000E+00 -0.25078621358E+02  0.25078621358E+02  0.00000000000E+00 0. -1.
         25    1    1    2    0    0 -0.24417405018E+02 -0.53500326690E+02  0.55308934138E+03  0.56900466973E+03  0.12000000000E+03 0.  0.
         25    1    1    2    0    0  0.24417405018E+02  0.53500326690E+02  0.24364855517E+03  0.27789046954E+03  0.12000000000E+03 0.  0.
<mgrwt>
<rscale>  0 0.28712384E+03</rscale>
<asrwt>0</asrwt>
<pdfrwt beam="1">  1        2 0.12643329E+00 0.28712384E+03</pdfrwt>
<pdfrwt beam="2">  1       -2 0.38582501E-02 0.28712384E+03</pdfrwt>
<totfact> 0.99313477E+03</totfact>
</mgrwt>
</event>
<event>
 4    1  0.1759998E-004  0.2429695E+03  0.7818608E-02  0.1117830E+00
         -2   -1    0    0    0  501 -0.00000000000E+00  0.00000000000E+00  0.81843405166E+01  0.81843405166E+01  0.00000000000E+00 0. -1.
          2   -1    0    0  501    0  0.00000000000E+00 -0.00000000000E+00 -0.18032659857E+04  0.18032659857E+04  0.00000000000E+00 0. -1.
         25    1    1    2    0    0  0.83065605949E+01  0.13089605707E+02 -0.97859860448E+03  0.98605048827E+03  0.12000000000E+03 0.  0.
         25    1    1    2    0    0 -0.83065605949E+01 -0.13089605707E+02 -0.81648304070E+03  0.82539983794E+03  0.12000000000E+03 0.  0.
<mgrwt>
<rscale>  0 0.24296949E+03</rscale>
<asrwt>0</asrwt>
<pdfrwt beam="1">  1        2 0.27742540E+00 0.24296949E+03</pdfrwt>
<pdfrwt beam="2">  1       -2 0.12591299E-02 0.24296949E+03</pdfrwt>
<totfact> 0.14315116E+04</totfact>
</mgrwt>
</event>
<event>
 4    1  0.1759998E-004  0.2423237E+03  0.7818608E-02  0.1118254E+00
         -1   -1    0    0    0  501 -0.00000000000E+00  0.00000000000E+00  0.57142013008E+03  0.57142013008E+03  0.00000000000E+00 0.  1.
          1   -1    0    0  501    0  0.00000000000E+00 -0.00000000000E+00 -0.25690726092E+02  0.25690726092E+02  0.00000000000E+00 0.  1.
         25    1    1    2    0    0  0.33595831449E+01  0.15679303486E+02  0.26102912892E+03  0.28773830732E+03  0.12000000000E+03 0.  0.
         25    1    1    2    0    0 -0.33595831449E+01 -0.15679303486E+02  0.28470027507E+03  0.30937254885E+03  0.12000000000E+03 0.  0.
<mgrwt>
<rscale>  0 0.24232373E+03</rscale>
<asrwt>0</asrwt>
<pdfrwt beam="1">  1        1 0.39524198E-02 0.24232373E+03</pdfrwt>
<pdfrwt beam="2">  1       -1 0.87910780E-01 0.24232373E+03</pdfrwt>
<totfact> 0.30681364E+03</totfact>
</mgrwt>
</event>
<event>
 4    1  0.1759998E-004  0.3491110E+03  0.7818608E-02  0.1062981E+00
          1   -1    0    0  501    0  0.00000000000E+00  0.00000000000E+00  0.15070298880E+04  0.15070298880E+04  0.00000000000E+00 0. -1.
         -1   -1    0    0    0  501 -0.00000000000E+00 -0.00000000000E+00 -0.20218330190E+02  0.20218330190E+02  0.00000000000E+00 0. -1.
         25    1    1    2    0    0 -0.15712318776E+02 -0.33213665848E+02  0.12741607977E+04  0.12803264283E+04  0.12000000000E+03 0.  0.
         25    1    1    2    0    0  0.15712318776E+02  0.33213665848E+02  0.21265076017E+03  0.24692178997E+03  0.12000000000E+03 0.  0.
<mgrwt>
<rscale>  0 0.34911103E+03</rscale>
<asrwt>0</asrwt>
<pdfrwt beam="1">  1        1 0.23185066E+00 0.34911103E+03</pdfrwt>
<pdfrwt beam="2">  1       -1 0.31105135E-02 0.34911103E+03</pdfrwt>
<totfact> 0.25314104E+03</totfact>
</mgrwt>
</event>
<event>
 4    1  0.1759998E-004  0.2921030E+03  0.7818608E-02  0.1089256E+00
         -1   -1    0    0    0  501 -0.00000000000E+00  0.00000000000E+00  0.10599767189E+03  0.10599767189E+03  0.00000000000E+00 0. -1.
          1   -1    0    0  501    0  0.00000000000E+00 -0.00000000000E+00 -0.20124064501E+03  0.20124064501E+03  0.00000000000E+00 0. -1.
         25    1    1    2    0    0  0.68739403062E+01 -0.65659382263E+02  0.57277732350E+01  0.13708104508E+03  0.12000000000E+03 0.  0.
         25    1    1    2    0    0 -0.68739403062E+01  0.65659382263E+02 -0.10097074635E+03  0.17015727182E+03  0.12000000000E+03 0.  0.
<mgrwt>
<rscale>  0 0.29210299E+03</rscale>
<asrwt>0</asrwt>
<pdfrwt beam="1">  1        1 0.30960099E-01 0.29210299E+03</pdfrwt>
<pdfrwt beam="2">  1       -1 0.16307334E-01 0.29210299E+03</pdfrwt>
<totfact> 0.40748447E+03</totfact>
</mgrwt>
</event>
<event>
 4    1  0.1759998E-004  0.2728058E+03  0.7818608E-02  0.1099684E+00
          1   -1    0    0  501    0  0.00000000000E+00  0.00000000000E+00  0.17782327495E+04  0.17782327495E+04  0.00000000000E+00 0.  1.
         -1   -1    0    0    0  501 -0.00000000000E+00 -0.00000000000E+00 -0.10463056981E+02  0.10463056981E+02  0.00000000000E+00 0.  1.
         25    1    1    2    0    0  0.47343131061E+02  0.40247135288E+02  0.76218027351E+03  0.77406716329E+03  0.12000000000E+03 0.  0.
         25    1    1    2    0    0 -0.47343131061E+02 -0.40247135288E+02  0.10055894190E+04  0.10146286432E+04  0.12000000000E+03 0.  0.
<mgrwt>
<rscale>  0 0.27280580E+03</rscale>
<asrwt>0</asrwt>
<pdfrwt beam="1">  1        1 0.27357403E+00 0.27280580E+03</pdfrwt>
<pdfrwt beam="2">  1       -1 0.16097025E-02 0.27280580E+03</pdfrwt>
<totfact> 0.44267438E+03</totfact>
</mgrwt>
</event>
<event>
 4    1  0.1759998E-004  0.3264336E+03  0.7818608E-02  0.1072726E+00
         -2   -1    0    0    0  501 -0.00000000000E+00  0.00000000000E+00  0.56468809216E+02  0.56468809216E+02  0.00000000000E+00 0.  1.
          2   -1    0    0  501    0  0.00000000000E+00 -0.00000000000E+00 -0.47175998090E+03  0.47175998090E+03  0.00000000000E+00 0.  1.
         25    1    1    2    0    0  0.92815774535E+02 -0.41044591226E+02 -0.27892455562E+03  0.32015361032E+03  0.12000000000E+03 0.  0.
         25    1    1    2    0    0 -0.92815774535E+02  0.41044591226E+02 -0.13636661607E+03  0.20807517980E+03  0.12000000000E+03 0.  0.
<mgrwt>
<rscale>  0 0.32643360E+03</rscale>
<asrwt>0</asrwt>
<pdfrwt beam="1">  1        2 0.72578459E-01 0.32643360E+03</pdfrwt>
<pdfrwt beam="2">  1       -2 0.86875091E-02 0.32643360E+03</pdfrwt>
<totfact> 0.55268248E+03</totfact>
</mgrwt>
</event>
<event>
 4    1  0.1759998E-004  0.3587426E+03  0.7818608E-02  0.1059083E+00
          1   -1    0    0  501    0  0.00000000000E+00  0.00000000000E+00  0.14081537030E+03  0.14081537030E+03  0.00000000000E+00 0. -1.
         -1   -1    0    0    0  501 -0.00000000000E+00 -0.00000000000E+00 -0.22848402528E+03  0.22848402528E+03  0.00000000000E+00 0. -1.
         25    1    1    2    0    0 -0.95939491990E+02 -0.16424960071E+02  0.49950375254E+02  0.16238597669E+03  0.12000000000E+03 0.  0.
         25    1    1    2    0    0  0.95939491990E+02  0.16424960071E+02 -0.13761903023E+03  0.20691341890E+03  0.12000000000E+03 0.  0.
<mgrwt>
<rscale>  0 0.35874260E+03</rscale>
<asrwt>0</asrwt>
<pdfrwt beam="1">  1        1 0.21663903E-01 0.35874260E+03</pdfrwt>
<pdfrwt beam="2">  1       -1 0.35151389E-01 0.35874260E+03</pdfrwt>
<totfact> 0.17937287E+03</totfact>
</mgrwt>
</event>
<event>
 4    1  0.1759998E-004  0.2695133E+03  0.7818608E-02  0.1101558E+00
         -2   -1    0    0    0  501 -0.00000000000E+00  0.00000000000E+00  0.21023021919E+03  0.21023021919E+03  0.00000000000E+00 0. -1.
          2   -1    0    0  501    0  0.00000000000E+00 -0.00000000000E+00 -0.86378423918E+02  0.86378423918E+02  0.00000000000E+00 0. -1.
         25    1    1    2    0    0  0.49944300723E+02 -0.55954749910E+01  0.10057976695E+03  0.16444461692E+03  0.12000000000E+03 0.  0.
         25    1    1    2    0    0 -0.49944300723E+02  0.55954749910E+01  0.23272028321E+02  0.13216402618E+03  0.12000000000E+03 0.  0.
<mgrwt>
<rscale>  0 0.26951330E+03</rscale>
<asrwt>0</asrwt>
<pdfrwt beam="1">  1        2 0.13288988E-01 0.26951330E+03</pdfrwt>
<pdfrwt beam="2">  1       -2 0.32343110E-01 0.26951330E+03</pdfrwt>
<totfact> 0.39893389E+03</totfact>
</mgrwt>
</event>
<event>
 4    1  0.1759998E-004  0.4398638E+03  0.7818608E-02  0.1030789E+00
         -1   -1    0    0    0  501 -0.00000000000E+00  0.00000000000E+00  0.13134601795E+03  0.13134601795E+03  0.00000000000E+00 0.  1.
          1   -1    0    0  501    0  0.00000000000E+00 -0.00000000000E+00 -0.36826423567E+03  0.36826423567E+03  0.00000000000E+00 0.  1.
         25    1    1    2    0    0  0.11222121623E+03  0.13174794020E+03 -0.19046496017E+03  0.28395073899E+03  0.12000000000E+03 0.  0.
         25    1    1    2    0    0 -0.11222121623E+03 -0.13174794020E+03 -0.46453257554E+02  0.21565951464E+03  0.12000000000E+03 0.  0.
<mgrwt>
<rscale>  0 0.43986380E+03</rscale>
<asrwt>0</asrwt>
<pdfrwt beam="1">  1        1 0.56656035E-01 0.43986380E+03</pdfrwt>
<pdfrwt beam="2">  1       -1 0.20207080E-01 0.43986380E+03</pdfrwt>
<totfact> 0.13424526E+03</totfact>
</mgrwt>
</event>
<event>
 4    1  0.1759998E-004  0.4833867E+03  0.7818608E-02  0.1018209E+00
          2   -1    0    0  501    0  0.00000000000E+00  0.00000000000E+00  0.21239129782E+03  0.21239129782E+03  0.00000000000E+00 0.  1.
         -2   -1    0    0    0  501 -0.00000000000E+00 -0.00000000000E+00 -0.27503798060E+03  0.27503798060E+03  0.00000000000E+00 0.  1.
         25    1    1    2    0    0  0.12811284022E+03 -0.12860260762E+03  0.74742566767E+02  0.23008255432E+03  0.12000000000E+03 0.  0.
         25    1    1    2    0    0 -0.12811284022E+03  0.12860260762E+03 -0.13738924954E+03  0.25734672410E+03  0.12000000000E+03 0.  0.
<mgrwt>
<rscale>  0 0.48338669E+03</rscale>
<asrwt>0</asrwt>
<pdfrwt beam="1">  1        2 0.32675584E-01 0.48338669E+03</pdfrwt>
<pdfrwt beam="2">  1       -2 0.42313535E-01 0.48338669E+03</pdfrwt>
<totfact> 0.85809246E+02</totfact>
</mgrwt>
</event>
<event>
 4    1  0.1759998E-004  0.2578851E+03  0.7818608E-02  0.1108421E+00
         -2   -1    0    0    0  501 -0.00000000000E+00  0.00000000000E+00  0.50749910771E+02  0.50749910771E+02  0.00000000000E+00 0.  1.
          2   -1    0    0  501    0  0.00000000000E+00 -0.00000000000E+00 -0.32761002737E+03  0.32761002737E+03  0.00000000000E+00 0.  1.
         25    1    1    2    0    0 -0.95363277232E+01  0.45361372914E+02 -0.15135310401E+03  0.19863624491E+03  0.12000000000E+03 0.  0.
         25    1    1    2    0    0  0.95363277232E+01 -0.45361372914E+02 -0.12550701259E+03  0.17972369323E+03  0.12000000000E+03 0.  0.
<mgrwt>
<rscale>  0 0.25788509E+03</rscale>
<asrwt>0</asrwt>
<pdfrwt beam="1">  1        2 0.50401542E-01 0.25788509E+03</pdfrwt>
<pdfrwt beam="2">  1       -2 0.78076786E-02 0.25788509E+03</pdfrwt>
<totfact> 0.96470364E+03</totfact>
</mgrwt>
</event>
<event>
 4    1  0.1759998E-004  0.3253177E+03  0.7818608E-02  0.1073228E+00
          4   -1    0    0  501    0  0.00000000000E+00  0.00000000000E+00  0.82198209640E+02  0.82198209640E+02  0.00000000000E+00 0.  1.
         -4   -1    0    0    0  501 -0.00000000000E+00 -0.00000000000E+00 -0.32187935088E+03  0.32187935088E+03  0.00000000000E+00 0.  1.
         25    1    1    2    0    0  0.10541847294E+03  0.30364530437E+02 -0.11390348035E+03  0.19851715790E+03  0.12000000000E+03 0.  0.
         25    1    1    2    0    0 -0.10541847294E+03 -0.30364530437E+02 -0.12577766089E+03  0.20556040262E+03  0.12000000000E+03 0.  0.
<mgrwt>
<rscale>  0 0.32531773E+03</rscale>
<asrwt>0</asrwt>
<pdfrwt beam="1">  1        4 0.12645878E-01 0.32531773E+03</pdfrwt>
<pdfrwt beam="2">  1       -4 0.49519900E-01 0.32531773E+03</pdfrwt>
<totfact> 0.38358197E+02</totfact>
</mgrwt>
</event>
<event>
 4    1  0.1759998E-004  0.3042613E+03  0.7818608E-02  0.1083130E+00
          1   -1    0    0  501    0  0.00000000000E+00  0.00000000000E+00  0.13557610546E+04  0.13557610546E+04  0.00000000000E+00 0.  1.
         -1   -1    0    0    0  501 -0.00000000000E+00 -0.00000000000E+00 -0.17070658055E+02  0.17070658055E+02  0.00000000000E+00 0.  1.
         25    1    1    2    0    0 -0.50468926166E+02 -0.32075828639E+01  0.31446054431E+03  0.34035692299E+03  0.12000000000E+03 0.  0.
         25    1    1    2    0    0  0.50468926166E+02  0.32075828639E+01  0.10242298522E+04  0.10324747897E+04  0.12000000000E+03 0.  0.
<mgrwt>
<rscale>  0 0.30426129E+03</rscale>
<asrwt>0</asrwt>
<pdfrwt beam="1">  1        1 0.20857854E+00 0.30426129E+03</pdfrwt>
<pdfrwt beam="2">  1       -1 0.26262562E-02 0.30426129E+03</pdfrwt>
<totfact> 0.41122959E+03</totfact>
</mgrwt>
</event>
<event>
 4    1  0.1759998E-004  0.2606283E+03  0.7818608E-02  0.1106766E+00
         -2   -1    0    0    0  501 -0.00000000000E+00  0.00000000000E+00  0.43623118932E+01  0.43623118932E+01  0.00000000000E+00 0. -1.
          2   -1    0    0  501    0  0.00000000000E+00 -0.00000000000E+00 -0.38928395235E+04  0.38928395235E+04  0.00000000000E+00 0. -1.
         25    1    1    2    0    0  0.25714553002E+02  0.25357780539E+02 -0.24786995560E+04  0.24818653759E+04  0.12000000000E+03 0.  0.
         25    1    1    2    0    0 -0.25714553002E+02 -0.25357780539E+02 -0.14097776557E+04  0.14153364595E+04  0.12000000000E+03 0.  0.
<mgrwt>
<rscale>  0 0.26062832E+03</rscale>
<asrwt>0</asrwt>
<pdfrwt beam="1">  1        2 0.59889746E+00 0.26062832E+03</pdfrwt>
<pdfrwt beam="2">  1       -2 0.67112594E-03 0.26062832E+03</pdfrwt>
<totfact> 0.20523597E+03</totfact>
</mgrwt>
</event>
<event>
 4    1  0.1759998E-004  0.2726171E+03  0.7818608E-02  0.1099791E+00
         -2   -1    0    0    0  501 -0.00000000000E+00  0.00000000000E+00  0.62909831233E+01  0.62909831233E+01  0.00000000000E+00 0. -1.
          2   -1    0    0  501    0  0.00000000000E+00 -0.00000000000E+00 -0.29534366491E+04  0.29534366491E+04  0.00000000000E+00 0. -1.
         25    1    1    2    0    0 -0.35062682045E+02  0.40991235601E+02 -0.18605272894E+04  0.18651733077E+04  0.12000000000E+03 0.  0.
         25    1    1    2    0    0  0.35062682045E+02 -0.40991235601E+02 -0.10866183765E+04  0.10945543245E+04  0.12000000000E+03 0.  0.
<mgrwt>
<rscale>  0 0.27261709E+03</rscale>
<asrwt>0</asrwt>
<pdfrwt beam="1">  1        2 0.45437572E+00 0.27261709E+03</pdfrwt>
<pdfrwt beam="2">  1       -2 0.96784176E-03 0.27261709E+03</pdfrwt>
<totfact> 0.49636810E+03</totfact>
</mgrwt>
</event>
<event>
 4    1  0.1759998E-004  0.4338658E+03  0.7818608E-02  0.1032646E+00
          2   -1    0    0  501    0  0.00000000000E+00  0.00000000000E+00  0.32057727777E+03  0.32057727777E+03  0.00000000000E+00 0.  1.
         -2   -1    0    0    0  501 -0.00000000000E+00 -0.00000000000E+00 -0.14679732870E+03  0.14679732870E+03  0.00000000000E+00 0.  1.
         25    1    1    2    0    0  0.15883664948E+03  0.45097078321E+02  0.77513844970E+01  0.20426187028E+03  0.12000000000E+03 0.  0.
         25    1    1    2    0    0 -0.15883664948E+03 -0.45097078321E+02  0.16602856457E+03  0.26311273619E+03  0.12000000000E+03 0.  0.
<mgrwt>
<rscale>  0 0.43386582E+03</rscale>
<asrwt>0</asrwt>
<pdfrwt beam="1">  1        2 0.49319581E-01 0.43386582E+03</pdfrwt>
<pdfrwt beam="2">  1       -2 0.22584204E-01 0.43386582E+03</pdfrwt>
<totfact> 0.17424138E+03</totfact>
</mgrwt>
</event>
<event>
 4    1  0.1759998E-004  0.2739752E+03  0.7818608E-02  0.1099026E+00
          2   -1    0    0  501    0  0.00000000000E+00  0.00000000000E+00  0.70367911797E+03  0.70367911797E+03  0.00000000000E+00 0. -1.
         -2   -1    0    0    0  501 -0.00000000000E+00 -0.00000000000E+00 -0.26667831483E+02  0.26667831483E+02  0.00000000000E+00 0. -1.
         25    1    1    2    0    0 -0.39785289894E+02  0.14380687332E+02  0.20320980044E+03  0.23975799560E+03  0.12000000000E+03 0.  0.
         25    1    1    2    0    0  0.39785289894E+02 -0.14380687332E+02  0.47380148605E+03  0.49058895386E+03  0.12000000000E+03 0.  0.
<mgrwt>
<rscale>  0 0.27397515E+03</rscale>
<asrwt>0</asrwt>
<pdfrwt beam="1">  1        2 0.10825831E+00 0.27397515E+03</pdfrwt>
<pdfrwt beam="2">  1       -2 0.41027438E-02 0.27397515E+03</pdfrwt>
<totfact> 0.10976317E+04</totfact>
</mgrwt>
</event>
<event>
 4    1  0.1759998E-004  0.2932385E+03  0.7818608E-02  0.1088670E+00
          2   -1    0    0  501    0  0.00000000000E+00  0.00000000000E+00  0.14256669430E+03  0.14256669430E+03  0.00000000000E+00 0. -1.
         -2   -1    0    0    0  501 -0.00000000000E+00 -0.00000000000E+00 -0.15078699027E+03  0.15078699027E+03  0.00000000000E+00 0. -1.
         25    1    1    2    0    0  0.22513505053E+02 -0.45905849616E+02  0.62871347347E+02  0.14479990075E+03  0.12000000000E+03 0.  0.
         25    1    1    2    0    0 -0.22513505053E+02  0.45905849616E+02 -0.71091643321E+02  0.14855378383E+03  0.12000000000E+03 0.  0.
<mgrwt>
<rscale>  0 0.29323849E+03</rscale>
<asrwt>0</asrwt>
<pdfrwt beam="1">  1        2 0.21933338E-01 0.29323849E+03</pdfrwt>
<pdfrwt beam="2">  1       -2 0.23197999E-01 0.29323849E+03</pdfrwt>
<totfact> 0.40398448E+03</totfact>
</mgrwt>
</event>
<event>
 4    1  0.1759998E-004  0.2716703E+03  0.7818608E-02  0.1100327E+00
          2   -1    0    0  501    0  0.00000000000E+00  0.00000000000E+00  0.12891668536E+03  0.12891668536E+03  0.00000000000E+00 0.  1.
         -2   -1    0    0    0  501 -0.00000000000E+00 -0.00000000000E+00 -0.14312494600E+03  0.14312494600E+03  0.00000000000E+00 0.  1.
         25    1    1    2    0    0  0.19418696866E+02  0.55678137562E+02  0.16888014626E+02  0.13476774773E+03  0.12000000000E+03 0.  0.
         25    1    1    2    0    0 -0.19418696866E+02 -0.55678137562E+02 -0.31096275269E+02  0.13727388363E+03  0.12000000000E+03 0.  0.
<mgrwt>
<rscale>  0 0.27167034E+03</rscale>
<asrwt>0</asrwt>
<pdfrwt beam="1">  1        2 0.19833336E-01 0.27167034E+03</pdfrwt>
<pdfrwt beam="2">  1       -2 0.22019223E-01 0.27167034E+03</pdfrwt>
<totfact> 0.49497777E+03</totfact>
</mgrwt>
</event>
<event>
 4    1  0.1759998E-004  0.2424722E+03  0.7818608E-02  0.1118157E+00
          4   -1    0    0  501    0  0.00000000000E+00  0.00000000000E+00  0.52035167502E+03  0.52035167502E+03  0.00000000000E+00 0. -1.
         -4   -1    0    0    0  501 -0.00000000000E+00 -0.00000000000E+00 -0.28246660920E+02  0.28246660920E+02  0.00000000000E+00 0. -1.
         25    1    1    2    0    0 -0.67123631115E+01  0.13787974569E+02  0.26401544399E+03  0.29041232537E+03  0.12000000000E+03 0.  0.
         25    1    1    2    0    0  0.67123631115E+01 -0.13787974569E+02  0.22808957011E+03  0.25818601057E+03  0.12000000000E+03 0.  0.
<mgrwt>
<rscale>  0 0.24247224E+03</rscale>
<asrwt>0</asrwt>
<pdfrwt beam="1">  1        4 0.80054096E-01 0.24247224E+03</pdfrwt>
<pdfrwt beam="2">  1       -4 0.43456405E-02 0.24247224E+03</pdfrwt>
<totfact> 0.78208307E+02</totfact>
</mgrwt>
</event>
<event>
 4    1  0.1759998E-004  0.6407776E+03  0.7818608E-02  0.9824240E-01
         -2   -1    0    0    0  501 -0.00000000000E+00  0.00000000000E+00  0.71863615746E+03  0.71863615746E+03  0.00000000000E+00 0.  1.
          2   -1    0    0  501    0  0.00000000000E+00 -0.00000000000E+00 -0.14283858560E+03  0.14283858560E+03  0.00000000000E+00 0.  1.
         25    1    1    2    0    0 -0.22017031261E+03 -0.19288057482E+03  0.21972869769E+03  0.38517344572E+03  0.12000000000E+03 0.  0.
         25    1    1    2    0    0  0.22017031261E+03  0.19288057482E+03  0.35606887417E+03  0.47630129734E+03  0.12000000000E+03 0.  0.
<mgrwt>
<rscale>  0 0.64077757E+03</rscale>
<asrwt>0</asrwt>
<pdfrwt beam="1">  1        2 0.21975167E-01 0.64077757E+03</pdfrwt>
<pdfrwt beam="2">  1       -2 0.11055941E+00 0.64077757E+03</pdfrwt>
<totfact> 0.16714991E+02</totfact>
</mgrwt>
</event>
<event>
 4    1  0.1759998E-004  0.3357697E+03  0.7818608E-02  0.1068612E+00
         -2   -1    0    0    0  501 -0.00000000000E+00  0.00000000000E+00  0.20553072121E+04  0.20553072121E+04  0.00000000000E+00 0.  1.
          2   -1    0    0  501    0  0.00000000000E+00 -0.00000000000E+00 -0.13713437360E+02  0.13713437360E+02  0.00000000000E+00 0.  1.
         25    1    1    2    0    0  0.10659755439E+03  0.38959436689E+01  0.71847385372E+03  0.73619487601E+03  0.12000000000E+03 0.  0.
         25    1    1    2    0    0 -0.10659755439E+03 -0.38959436689E+01  0.13231199210E+04  0.13328257734E+04  0.12000000000E+03 0.  0.
<mgrwt>
<rscale>  0 0.33576972E+03</rscale>
<asrwt>0</asrwt>
<pdfrwt beam="1">  1        2 0.21097612E-02 0.33576972E+03</pdfrwt>
<pdfrwt beam="2">  1       -2 0.31620086E+00 0.33576972E+03</pdfrwt>
<totfact> 0.14879723E+02</totfact>
</mgrwt>
</event>
<event>
 4    1  0.1759998E-004  0.4466902E+03  0.7818608E-02  0.1028714E+00
          2   -1    0    0  501    0  0.00000000000E+00  0.00000000000E+00  0.28805695527E+03  0.28805695527E+03  0.00000000000E+00 0.  1.
         -2   -1    0    0    0  501 -0.00000000000E+00 -0.00000000000E+00 -0.17317073943E+03  0.17317073943E+03  0.00000000000E+00 0.  1.
         25    1    1    2    0    0  0.17473553378E+03 -0.70355938831E+02  0.56662838026E+02  0.23041949159E+03  0.12000000000E+03 0.  0.
         25    1    1    2    0    0 -0.17473553378E+03  0.70355938831E+02  0.58223377816E+02  0.23080820310E+03  0.12000000000E+03 0.  0.
<mgrwt>
<rscale>  0 0.44669021E+03</rscale>
<asrwt>0</asrwt>
<pdfrwt beam="1">  1        2 0.44316454E-01 0.44669021E+03</pdfrwt>
<pdfrwt beam="2">  1       -2 0.26641652E-01 0.44669021E+03</pdfrwt>
<totfact> 0.14600359E+03</totfact>
</mgrwt>
</event>
<event>
 4    1  0.1759998E-004  0.2558254E+03  0.7818608E-02  0.1109678E+00
          2   -1    0    0  501    0  0.00000000000E+00  0.00000000000E+00  0.21386448811E+04  0.21386448811E+04  0.00000000000E+00 0. -1.
         -2   -1    0    0    0  501 -0.00000000000E+00 -0.00000000000E+00 -0.76504816247E+01  0.76504816247E+01  0.00000000000E+00 0. -1.
         25    1    1    2    0    0  0.10740906727E+02  0.37978248156E+02  0.89687722916E+03  0.90572980441E+03  0.12000000000E+03 0.  0.
         25    1    1    2    0    0 -0.10740906727E+02 -0.37978248156E+02  0.12341171703E+04  0.12405655583E+04  0.12000000000E+03 0.  0.
<mgrwt>
<rscale>  0 0.25582544E+03</rscale>
<asrwt>0</asrwt>
<pdfrwt beam="1">  1        2 0.32902181E+00 0.25582544E+03</pdfrwt>
<pdfrwt beam="2">  1       -2 0.11769989E-02 0.25582544E+03</pdfrwt>
<totfact> 0.10543144E+04</totfact>
</mgrwt>
</event>
<event>
 4    1  0.1759998E-004  0.3169453E+03  0.7818608E-02  0.1077064E+00
          2   -1    0    0  501    0  0.00000000000E+00  0.00000000000E+00  0.21283131222E+02  0.21283131222E+02  0.00000000000E+00 0. -1.
         -2   -1    0    0    0  501 -0.00000000000E+00 -0.00000000000E+00 -0.11799758642E+04  0.11799758642E+04  0.00000000000E+00 0. -1.
         25    1    1    2    0    0 -0.56453298849E+02 -0.44357179610E+01 -0.25096119758E+03  0.28388056156E+03  0.12000000000E+03 0.  0.
         25    1    1    2    0    0  0.56453298849E+02  0.44357179610E+01 -0.90773153537E+03  0.91737843383E+03  0.12000000000E+03 0.  0.
<mgrwt>
<rscale>  0 0.31694530E+03</rscale>
<asrwt>0</asrwt>
<pdfrwt beam="1">  1        2 0.32743290E-02 0.31694530E+03</pdfrwt>
<pdfrwt beam="2">  1       -2 0.18153469E+00 0.31694530E+03</pdfrwt>
<totfact> 0.52972351E+02</totfact>
</mgrwt>
</event>
<event>
 4    1  0.1759998E-004  0.2560215E+03  0.7818608E-02  0.1109557E+00
          2   -1    0    0  501    0  0.00000000000E+00  0.00000000000E+00  0.12573463140E+03  0.12573463140E+03  0.00000000000E+00 0.  1.
         -2   -1    0    0    0  501 -0.00000000000E+00 -0.00000000000E+00 -0.13032803261E+03  0.13032803261E+03  0.00000000000E+00 0.  1.
         25    1    1    2    0    0  0.72848062308E+01  0.88678923800E+01  0.40780397195E+02  0.12725858994E+03  0.12000000000E+03 0.  0.
         25    1    1    2    0    0 -0.72848062308E+01 -0.88678923800E+01 -0.45373798406E+02  0.12880407408E+03  0.12000000000E+03 0.  0.
<mgrwt>
<rscale>  0 0.25602146E+03</rscale>
<asrwt>0</asrwt>
<pdfrwt beam="1">  1        2 0.19343790E-01 0.25602146E+03</pdfrwt>
<pdfrwt beam="2">  1       -2 0.20050466E-01 0.25602146E+03</pdfrwt>
<totfact> 0.59710943E+03</totfact>
</mgrwt>
</event>
<event>
 4    1  0.1759998E-004  0.2848884E+03  0.7818608E-02  0.1093049E+00
          2   -1    0    0  501    0  0.00000000000E+00  0.00000000000E+00  0.14853134076E+04  0.14853134076E+04  0.00000000000E+00 0.  1.
         -2   -1    0    0    0  501 -0.00000000000E+00 -0.00000000000E+00 -0.13660655650E+02  0.13660655650E+02  0.00000000000E+00 0.  1.
         25    1    1    2    0    0 -0.26236930503E+02  0.49746674124E+02  0.10106041033E+04  0.10192564749E+04  0.12000000000E+03 0.  0.
         25    1    1    2    0    0  0.26236930503E+02 -0.49746674124E+02  0.46104864866E+03  0.47971758831E+03  0.12000000000E+03 0.  0.
<mgrwt>
<rscale>  0 0.28488843E+03</rscale>
<asrwt>0</asrwt>
<pdfrwt beam="1">  1        2 0.22850963E+00 0.28488843E+03</pdfrwt>
<pdfrwt beam="2">  1       -2 0.21016405E-02 0.28488843E+03</pdfrwt>
<totfact> 0.99917028E+03</totfact>
</mgrwt>
</event>
<event>
 4    1  0.1759998E-004  0.3249379E+03  0.7818608E-02  0.1073399E+00
          2   -1    0    0  501    0  0.00000000000E+00  0.00000000000E+00  0.13250885988E+04  0.13250885988E+04  0.00000000000E+00 0.  1.
         -2   -1    0    0    0  501 -0.00000000000E+00 -0.00000000000E+00 -0.19920300890E+02  0.19920300890E+02  0.00000000000E+00 0.  1.
         25    1    1    2    0    0 -0.29303788889E+02 -0.93748742134E+02  0.45198384484E+03  0.47784614123E+03  0.12000000000E+03 0.  0.
         25    1    1    2    0    0  0.29303788889E+02  0.93748742134E+02  0.85318445310E+03  0.86716275849E+03  0.12000000000E+03 0.  0.
<mgrwt>
<rscale>  0 0.32493792E+03</rscale>
<asrwt>0</asrwt>
<pdfrwt beam="1">  1        2 0.20385972E+00 0.32493792E+03</pdfrwt>
<pdfrwt beam="2">  1       -2 0.30646627E-02 0.32493792E+03</pdfrwt>
<totfact> 0.69916689E+03</totfact>
</mgrwt>
</event>
<event>
 4    1  0.1759998E-004  0.2907210E+03  0.7818608E-02  0.1089973E+00
         -4   -1    0    0    0  501 -0.00000000000E+00  0.00000000000E+00  0.31767560642E+02  0.31767560642E+02  0.00000000000E+00 0. -1.
          4   -1    0    0  501    0  0.00000000000E+00 -0.00000000000E+00 -0.66513378715E+03  0.66513378715E+03  0.00000000000E+00 0. -1.
         25    1    1    2    0    0 -0.72459208679E+01  0.21524714140E+02 -0.50564562164E+03  0.52018584311E+03  0.12000000000E+03 0.  0.
         25    1    1    2    0    0  0.72459208679E+01 -0.21524714140E+02 -0.12772060488E+03  0.17671550469E+03  0.12000000000E+03 0.  0.
<mgrwt>
<rscale>  0 0.29072102E+03</rscale>
<asrwt>0</asrwt>
<pdfrwt beam="1">  1        4 0.10232828E+00 0.29072102E+03</pdfrwt>
<pdfrwt beam="2">  1       -4 0.48873169E-02 0.29072102E+03</pdfrwt>
<totfact> 0.37775763E+02</totfact>
</mgrwt>
</event>
<event>
 4    1  0.1759998E-004  0.3168553E+03  0.7818608E-02  0.1077106E+00
          2   -1    0    0  501    0  0.00000000000E+00  0.00000000000E+00  0.95171372388E+03  0.95171372388E+03  0.00000000000E+00 0.  1.
         -2   -1    0    0    0  501 -0.00000000000E+00 -0.00000000000E+00 -0.26372761340E+02  0.26372761340E+02  0.00000000000E+00 0.  1.
         25    1    1    2    0    0 -0.74426797399E+02  0.69184960200E+02  0.52232047988E+03  0.54547648032E+03  0.12000000000E+03 0.  0.
         25    1    1    2    0    0  0.74426797399E+02 -0.69184960200E+02  0.40302048266E+03  0.43261000490E+03  0.12000000000E+03 0.  0.
<mgrwt>
<rscale>  0 0.31685529E+03</rscale>
<asrwt>0</asrwt>
<pdfrwt beam="1">  1        2 0.14641747E+00 0.31685529E+03</pdfrwt>
<pdfrwt beam="2">  1       -2 0.40573486E-02 0.31685529E+03</pdfrwt>
<totfact> 0.75883401E+03</totfact>
</mgrwt>
</event>
<event>
 4    1  0.1759998E-004  0.3610692E+03  0.7818608E-02  0.1058161E+00
         -2   -1    0    0    0  501 -0.00000000000E+00  0.00000000000E+00  0.30755343862E+02  0.30755343862E+02  0.00000000000E+00 0. -1.
          2   -1    0    0  501    0  0.00000000000E+00 -0.00000000000E+00 -0.10597424784E+04  0.10597424784E+04  0.00000000000E+00 0. -1.
         25    1    1    2    0    0 -0.11238087528E+03 -0.48912530440E+02 -0.34442579447E+03  0.38477399166E+03  0.12000000000E+03 0.  0.
         25    1    1    2    0    0  0.11238087528E+03  0.48912530440E+02 -0.68456134008E+03  0.70572383062E+03  0.12000000000E+03 0.  0.
<mgrwt>
<rscale>  0 0.36106921E+03</rscale>
<asrwt>0</asrwt>
<pdfrwt beam="1">  1        2 0.16303729E+00 0.36106921E+03</pdfrwt>
<pdfrwt beam="2">  1       -2 0.47315918E-02 0.36106921E+03</pdfrwt>
<totfact> 0.51645062E+03</totfact>
</mgrwt>
</event>
<event>
 4    1  0.1759998E-004  0.2695115E+03  0.7818608E-02  0.1101559E+00
          1   -1    0    0  501    0  0.00000000000E+00  0.00000000000E+00  0.25485415439E+03  0.25485415439E+03  0.00000000000E+00 0.  1.
         -1   -1    0    0    0  501 -0.00000000000E+00 -0.00000000000E+00 -0.71252975505E+02  0.71252975505E+02  0.00000000000E+00 0.  1.
         25    1    1    2    0    0 -0.29837460478E+02 -0.44162481349E+02  0.55129249739E+02  0.14240727855E+03  0.12000000000E+03 0.  0.
         25    1    1    2    0    0  0.29837460478E+02  0.44162481349E+02  0.12847192915E+03  0.18369985135E+03  0.12000000000E+03 0.  0.
<mgrwt>
<rscale>  0 0.26951153E+03</rscale>
<asrwt>0</asrwt>
<pdfrwt beam="1">  1        1 0.39208331E-01 0.26951153E+03</pdfrwt>
<pdfrwt beam="2">  1       -1 0.10961996E-01 0.26951153E+03</pdfrwt>
<totfact> 0.56454521E+03</totfact>
</mgrwt>
</event>
<event>
 4    1  0.1759998E-004  0.2695516E+03  0.7818608E-02  0.1101536E+00
          2   -1    0    0  501    0  0.00000000000E+00  0.00000000000E+00  0.23933686299E+03  0.23933686299E+03  0.00000000000E+00 0.  1.
         -2   -1    0    0    0  501 -0.00000000000E+00 -0.00000000000E+00 -0.75895206695E+02  0.75895206695E+02  0.00000000000E+00 0.  1.
         25    1    1    2    0    0  0.40187851039E+02  0.38684195464E+02  0.11160503980E+03  0.17311041349E+03  0.12000000000E+03 0.  0.
         25    1    1    2    0    0 -0.40187851039E+02 -0.38684195464E+02  0.51836616495E+02  0.14212165619E+03  0.12000000000E+03 0.  0.
<mgrwt>
<rscale>  0 0.26955163E+03</rscale>
<asrwt>0</asrwt>
<pdfrwt beam="1">  1        2 0.36821055E-01 0.26955163E+03</pdfrwt>
<pdfrwt beam="2">  1       -2 0.11676186E-01 0.26955163E+03</pdfrwt>
<totfact> 0.71662500E+03</totfact>
</mgrwt>
</event>
<event>
 4    1  0.1759998E-004  0.3455194E+03  0.7818608E-02  0.1064469E+00
         -1   -1    0    0    0  501 -0.00000000000E+00  0.00000000000E+00  0.36227747346E+03  0.36227747346E+03  0.00000000000E+00 0. -1.
          1   -1    0    0  501    0  0.00000000000E+00 -0.00000000000E+00 -0.82384152305E+02  0.82384152305E+02  0.00000000000E+00 0. -1.
         25    1    1    2    0    0 -0.10090254454E+03  0.70890059029E+02  0.12004283964E+03  0.20980230531E+03  0.12000000000E+03 0.  0.
         25    1    1    2    0    0  0.10090254454E+03 -0.70890059029E+02  0.15985048151E+03  0.23485932045E+03  0.12000000000E+03 0.  0.
<mgrwt>
<rscale>  0 0.34551945E+03</rscale>
<asrwt>0</asrwt>
<pdfrwt beam="1">  1        1 0.12674485E-01 0.34551945E+03</pdfrwt>
<pdfrwt beam="2">  1       -1 0.55734995E-01 0.34551945E+03</pdfrwt>
<totfact> 0.15665834E+03</totfact>
</mgrwt>
</event>
<event>
 4    1  0.1759998E-004  0.2419550E+03  0.7818608E-02  0.1118497E+00
          2   -1    0    0  501    0  0.00000000000E+00  0.00000000000E+00  0.27460426939E+03  0.27460426939E+03  0.00000000000E+00 0. -1.
         -2   -1    0    0    0  501 -0.00000000000E+00 -0.00000000000E+00 -0.53296898666E+02  0.53296898666E+02  0.00000000000E+00 0. -1.
         25    1    1    2    0    0  0.10825255326E+02  0.10586436709E+02  0.10725289798E+03  0.16165532135E+03  0.12000000000E+03 0.  0.
         25    1    1    2    0    0 -0.10825255326E+02 -0.10586436709E+02  0.11405447275E+03  0.16624584671E+03  0.12000000000E+03 0.  0.
<mgrwt>
<rscale>  0 0.24195500E+03</rscale>
<asrwt>0</asrwt>
<pdfrwt beam="1">  1        2 0.42246810E-01 0.24195500E+03</pdfrwt>
<pdfrwt beam="2">  1       -2 0.81995230E-02 0.24195500E+03</pdfrwt>
<totfact> 0.10769824E+04</totfact>
</mgrwt>
</event>
<event>
 4    1  0.1759998E-004  0.3385796E+03  0.7818608E-02  0.1067403E+00
          2   -1    0    0  501    0  0.00000000000E+00  0.00000000000E+00  0.77024858611E+02  0.77024858611E+02  0.00000000000E+00 0. -1.
         -2   -1    0    0    0  501 -0.00000000000E+00 -0.00000000000E+00 -0.37207511550E+03  0.37207511550E+03  0.00000000000E+00 0. -1.
         25    1    1    2    0    0  0.37318974531E+02 -0.21669628759E+02 -0.29521008755E+03  0.32157623430E+03  0.12000000000E+03 0.  0.
         25    1    1    2    0    0 -0.37318974531E+02  0.21669628759E+02  0.15983066515E+00  0.12752373982E+03  0.12000000000E+03 0.  0.
<mgrwt>
<rscale>  0 0.33857958E+03</rscale>
<asrwt>0</asrwt>
<pdfrwt beam="1">  1        2 0.11849978E-01 0.33857958E+03</pdfrwt>
<pdfrwt beam="2">  1       -2 0.57242326E-01 0.33857958E+03</pdfrwt>
<totfact> 0.15199502E+03</totfact>
</mgrwt>
</event>
<event>
 4    1  0.1759998E-004  0.3169873E+03  0.7818608E-02  0.1077044E+00
         -2   -1    0    0    0  501 -0.00000000000E+00  0.00000000000E+00  0.15080385185E+02  0.15080385185E+02  0.00000000000E+00 0.  1.
          2   -1    0    0  501    0  0.00000000000E+00 -0.00000000000E+00 -0.16657553561E+04  0.16657553561E+04  0.00000000000E+00 0.  1.
         25    1    1    2    0    0 -0.67880345518E+02 -0.37897748958E+02 -0.46273365108E+03  0.48432056794E+03  0.12000000000E+03 0.  0.
         25    1    1    2    0    0  0.67880345518E+02  0.37897748958E+02 -0.11879413199E+04  0.11965151734E+04  0.12000000000E+03 0.  0.
<mgrwt>
<rscale>  0 0.31698727E+03</rscale>
<asrwt>0</asrwt>
<pdfrwt beam="1">  1        2 0.25626999E+00 0.31698727E+03</pdfrwt>
<pdfrwt beam="2">  1       -2 0.23200599E-02 0.31698727E+03</pdfrwt>
<totfact> 0.69261424E+03</totfact>
</mgrwt>
</event>
<event>
 4    1  0.1759998E-004  0.2595681E+03  0.7818608E-02  0.1107403E+00
          2   -1    0    0  501    0  0.00000000000E+00  0.00000000000E+00  0.24478730341E+03  0.24478730341E+03  0.00000000000E+00 0. -1.
         -2   -1    0    0    0  501 -0.00000000000E+00 -0.00000000000E+00 -0.68810369601E+02  0.68810369601E+02  0.00000000000E+00 0. -1.
         25    1    1    2    0    0  0.21222751430E+02 -0.13244887124E+02  0.13950267859E+03  0.18570629916E+03  0.12000000000E+03 0.  0.
         25    1    1    2    0    0 -0.21222751430E+02  0.13244887124E+02  0.36474255223E+02  0.12789137386E+03  0.12000000000E+03 0.  0.
<mgrwt>
<rscale>  0 0.25956814E+03</rscale>
<asrwt>0</asrwt>
<pdfrwt beam="1">  1        2 0.37659584E-01 0.25956814E+03</pdfrwt>
<pdfrwt beam="2">  1       -2 0.10586211E-01 0.25956814E+03</pdfrwt>
<totfact> 0.81706494E+03</totfact>
</mgrwt>
</event>
<event>
 4    1  0.1759998E-004  0.2537817E+03  0.7818608E-02  0.1110938E+00
         -1   -1    0    0    0  501 -0.00000000000E+00  0.00000000000E+00  0.14100286570E+03  0.14100286570E+03  0.00000000000E+00 0.  1.
          1   -1    0    0  501    0  0.00000000000E+00 -0.00000000000E+00 -0.11419119134E+03  0.11419119134E+03  0.00000000000E+00 0.  1.
         25    1    1    2    0    0 -0.25085129180E+02  0.30530884553E+02  0.15126475244E+01  0.12634748403E+03  0.12000000000E+03 0.  0.
         25    1    1    2    0    0  0.25085129180E+02 -0.30530884553E+02  0.25299026835E+02  0.12884657301E+03  0.12000000000E+03 0.  0.
<mgrwt>
<rscale>  0 0.25378168E+03</rscale>
<asrwt>0</asrwt>
<pdfrwt beam="1">  1        1 0.17567875E-01 0.25378168E+03</pdfrwt>
<pdfrwt beam="2">  1       -1 0.21692749E-01 0.25378168E+03</pdfrwt>
<totfact> 0.52761349E+03</totfact>
</mgrwt>
</event>
<event>
 4    1  0.1759998E-004  0.3325568E+03  0.7818608E-02  0.1070011E+00
          1   -1    0    0  501    0  0.00000000000E+00  0.00000000000E+00  0.17643671885E+04  0.17643671885E+04  0.00000000000E+00 0.  1.
         -1   -1    0    0    0  501 -0.00000000000E+00 -0.00000000000E+00 -0.15670491013E+02  0.15670491013E+02  0.00000000000E+00 0.  1.
         25    1    1    2    0    0  0.54620989515E+02  0.17504543918E+02  0.14084985514E+04  0.14147643023E+04  0.12000000000E+03 0.  0.
         25    1    1    2    0    0 -0.54620989515E+02 -0.17504543918E+02  0.34019814607E+03  0.36527337727E+03  0.12000000000E+03 0.  0.
<mgrwt>
<rscale>  0 0.33255676E+03</rscale>
<asrwt>0</asrwt>
<pdfrwt beam="1">  1        1 0.27144095E+00 0.33255676E+03</pdfrwt>
<pdfrwt beam="2">  1       -1 0.24108462E-02 0.33255676E+03</pdfrwt>
<totfact> 0.24979358E+03</totfact>
</mgrwt>
</event>
<event>
 4    1  0.1759998E-004  0.2655141E+03  0.7818608E-02  0.1103875E+00
          2   -1    0    0  501    0  0.00000000000E+00  0.00000000000E+00  0.15270173215E+03  0.15270173215E+03  0.00000000000E+00 0.  1.
         -2   -1    0    0    0  501 -0.00000000000E+00 -0.00000000000E+00 -0.11541740834E+03  0.11541740834E+03  0.00000000000E+00 0.  1.
         25    1    1    2    0    0  0.38709193757E+02 -0.37956305237E+02  0.35700362577E+02  0.13643166303E+03  0.12000000000E+03 0.  0.
         25    1    1    2    0    0 -0.38709193757E+02  0.37956305237E+02  0.15839612361E+01  0.13168747747E+03  0.12000000000E+03 0.  0.
<mgrwt>
<rscale>  0 0.26551413E+03</rscale>
<asrwt>0</asrwt>
<pdfrwt beam="1">  1        2 0.23492574E-01 0.26551413E+03</pdfrwt>
<pdfrwt beam="2">  1       -2 0.17756524E-01 0.26551413E+03</pdfrwt>
<totfact> 0.58929415E+03</totfact>
</mgrwt>
</event>
<event>
 4    1  0.1759998E-004  0.2871856E+03  0.7818608E-02  0.1091828E+00
         -2   -1    0    0    0  501 -0.00000000000E+00  0.00000000000E+00  0.54063937562E+02  0.54063937562E+02  0.00000000000E+00 0. -1.
          2   -1    0    0  501    0  0.00000000000E+00 -0.00000000000E+00 -0.38137964059E+03  0.38137964059E+03  0.00000000000E+00 0. -1.
         25    1    1    2    0    0  0.42288256372E+02 -0.46898971439E+01 -0.62983387945E+02  0.14204646746E+03  0.12000000000E+03 0.  0.
         25    1    1    2    0    0 -0.42288256372E+02  0.46898971439E+01 -0.26433231508E+03  0.29339711069E+03  0.12000000000E+03 0.  0.
<mgrwt>
<rscale>  0 0.28718555E+03</rscale>
<asrwt>0</asrwt>
<pdfrwt beam="1">  1        2 0.58673792E-01 0.28718555E+03</pdfrwt>
<pdfrwt beam="2">  1       -2 0.83175287E-02 0.28718555E+03</pdfrwt>
<totfact> 0.74477449E+03</totfact>
</mgrwt>
</event>
<event>
 4    1  0.1759998E-004  0.4245380E+03  0.7818608E-02  0.1035599E+00
         -2   -1    0    0    0  501 -0.00000000000E+00  0.00000000000E+00  0.11091583551E+03  0.11091583551E+03  0.00000000000E+00 0. -1.
          2   -1    0    0  501    0  0.00000000000E+00 -0.00000000000E+00 -0.40623717596E+03  0.40623717596E+03  0.00000000000E+00 0. -1.
         25    1    1    2    0    0 -0.46861668358E+02 -0.16732888934E+03 -0.12144450273E+03  0.24360570685E+03  0.12000000000E+03 0.  0.
         25    1    1    2    0    0  0.46861668358E+02  0.16732888934E+03 -0.17387683772E+03  0.27354730462E+03  0.12000000000E+03 0.  0.
<mgrwt>
<rscale>  0 0.42453803E+03</rscale>
<asrwt>0</asrwt>
<pdfrwt beam="1">  1        2 0.62498028E-01 0.42453803E+03</pdfrwt>
<pdfrwt beam="2">  1       -2 0.17063975E-01 0.42453803E+03</pdfrwt>
<totfact> 0.21779520E+03</totfact>
</mgrwt>
</event>
<event>
 4    1  0.1759998E-004  0.2865313E+03  0.7818608E-02  0.1092174E+00
         -1   -1    0    0    0  501 -0.00000000000E+00  0.00000000000E+00  0.92899735303E+01  0.92899735303E+01  0.00000000000E+00 0.  1.
          1   -1    0    0  501    0  0.00000000000E+00 -0.00000000000E+00 -0.22093765630E+04  0.22093765630E+04  0.00000000000E+00 0.  1.
         25    1    1    2    0    0 -0.75662552421E+02 -0.17792059010E+02 -0.10292150737E+04  0.10390981893E+04  0.12000000000E+03 0.  0.
         25    1    1    2    0    0  0.75662552421E+02  0.17792059010E+02 -0.11708715158E+04  0.11795683472E+04  0.12000000000E+03 0.  0.
<mgrwt>
<rscale>  0 0.28653132E+03</rscale>
<asrwt>0</asrwt>
<pdfrwt beam="1">  1        1 0.33990425E+00 0.28653132E+03</pdfrwt>
<pdfrwt beam="2">  1       -1 0.14292260E-02 0.28653132E+03</pdfrwt>
<totfact> 0.27589791E+03</totfact>
</mgrwt>
</event>
<event>
 4    1  0.1759998E-004  0.2561628E+03  0.7818608E-02  0.1109471E+00
         -1   -1    0    0    0  501 -0.00000000000E+00  0.00000000000E+00  0.33650912235E+02  0.33650912235E+02  0.00000000000E+00 0. -1.
          1   -1    0    0  501    0  0.00000000000E+00 -0.00000000000E+00 -0.48750058396E+03  0.48750058396E+03  0.00000000000E+00 0. -1.
         25    1    1    2    0    0 -0.17587069044E+02 -0.17569058207E+02 -0.15116051852E+03  0.19459568125E+03  0.12000000000E+03 0.  0.
         25    1    1    2    0    0  0.17587069044E+02  0.17569058207E+02 -0.30268915321E+03  0.32655581494E+03  0.12000000000E+03 0.  0.
<mgrwt>
<rscale>  0 0.25616276E+03</rscale>
<asrwt>0</asrwt>
<pdfrwt beam="1">  1        1 0.75000088E-01 0.25616276E+03</pdfrwt>
<pdfrwt beam="2">  1       -1 0.51770635E-02 0.25616276E+03</pdfrwt>
<totfact> 0.77345734E+03</totfact>
</mgrwt>
</event>
<event>
 4    1  0.1759998E-004  0.2679743E+03  0.7818608E-02  0.1102445E+00
          4   -1    0    0  501    0  0.00000000000E+00  0.00000000000E+00  0.25052835866E+02  0.25052835866E+02  0.00000000000E+00 0.  1.
         -4   -1    0    0    0  501 -0.00000000000E+00 -0.00000000000E+00 -0.71658755503E+03  0.71658755503E+03  0.00000000000E+00 0.  1.
         25    1    1    2    0    0 -0.55284322419E+02 -0.44864762942E+01 -0.28538171409E+03  0.31451424056E+03  0.12000000000E+03 0.  0.
         25    1    1    2    0    0  0.55284322419E+02  0.44864762942E+01 -0.40615300507E+03  0.42712615034E+03  0.12000000000E+03 0.  0.
<mgrwt>
<rscale>  0 0.26797426E+03</rscale>
<asrwt>0</asrwt>
<pdfrwt beam="1">  1        4 0.38542818E-02 0.26797426E+03</pdfrwt>
<pdfrwt beam="2">  1       -4 0.11024426E+00 0.26797426E+03</pdfrwt>
<totfact> 0.45914664E+02</totfact>
</mgrwt>
</event>
<event>
 4    1  0.1759998E-004  0.2623239E+03  0.7818608E-02  0.1105755E+00
          1   -1    0    0  501    0  0.00000000000E+00  0.00000000000E+00  0.17098786529E+03  0.17098786529E+03  0.00000000000E+00 0. -1.
         -1   -1    0    0    0  501 -0.00000000000E+00 -0.00000000000E+00 -0.10061215989E+03  0.10061215989E+03  0.00000000000E+00 0. -1.
         25    1    1    2    0    0 -0.17631242982E+01  0.48919998841E+02  0.14295514875E+02  0.13038648948E+03  0.12000000000E+03 0.  0.
         25    1    1    2    0    0  0.17631242982E+01 -0.48919998841E+02  0.56080190523E+02  0.14121353569E+03  0.12000000000E+03 0.  0.
<mgrwt>
<rscale>  0 0.26232391E+03</rscale>
<asrwt>0</asrwt>
<pdfrwt beam="1">  1        1 0.26305825E-01 0.26232391E+03</pdfrwt>
<pdfrwt beam="2">  1       -1 0.15478794E-01 0.26232391E+03</pdfrwt>
<totfact> 0.54233634E+03</totfact>
</mgrwt>
</event>
<event>
 4    1  0.1759998E-004  0.3395670E+03  0.7818608E-02  0.1066980E+00
         -1   -1    0    0    0  501 -0.00000000000E+00  0.00000000000E+00  0.20969074551E+03  0.20969074551E+03  0.00000000000E+00 0.  1.
          1   -1    0    0  501    0  0.00000000000E+00 -0.00000000000E+00 -0.13747120480E+03  0.13747120480E+03  0.00000000000E+00 0.  1.
         25    1    1    2    0    0 -0.94391570890E+02  0.73908631007E+02  0.28584081204E+02  0.17201541818E+03  0.12000000000E+03 0.  0.
         25    1    1    2    0    0  0.94391570890E+02 -0.73908631007E+02  0.43635459504E+02  0.17514653213E+03  0.12000000000E+03 0.  0.
<mgrwt>
<rscale>  0 0.33956702E+03</rscale>
<asrwt>0</asrwt>
<pdfrwt beam="1">  1        1 0.21149416E-01 0.33956702E+03</pdfrwt>
<pdfrwt beam="2">  1       -1 0.32260115E-01 0.33956702E+03</pdfrwt>
<totfact> 0.21468985E+03</totfact>
</mgrwt>
</event>
<event>
 4    1  0.1759998E-004  0.2738285E+03  0.7818608E-02  0.1099108E+00
         -1   -1    0    0    0  501 -0.00000000000E+00  0.00000000000E+00  0.30003070940E+02  0.30003070940E+02  0.00000000000E+00 0. -1.
          1   -1    0    0  501    0  0.00000000000E+00 -0.00000000000E+00 -0.62478653206E+03  0.62478653206E+03  0.00000000000E+00 0. -1.
         25    1    1    2    0    0 -0.38756503410E+02 -0.21836702432E+02 -0.41372022917E+03  0.43306273928E+03  0.12000000000E+03 0.  0.
         25    1    1    2    0    0  0.38756503410E+02  0.21836702432E+02 -0.18106323195E+03  0.22172686372E+03  0.12000000000E+03 0.  0.
<mgrwt>
<rscale>  0 0.27382852E+03</rscale>
<asrwt>0</asrwt>
<pdfrwt beam="1">  1        1 0.96121004E-01 0.27382852E+03</pdfrwt>
<pdfrwt beam="2">  1       -1 0.46158571E-02 0.27382852E+03</pdfrwt>
<totfact> 0.65692658E+03</totfact>
</mgrwt>
</event>
<event>
 4    1  0.1759998E-004  0.3252467E+03  0.7818608E-02  0.1073260E+00
          1   -1    0    0  501    0  0.00000000000E+00  0.00000000000E+00  0.77845201812E+02  0.77845201812E+02  0.00000000000E+00 0.  1.
         -1   -1    0    0    0  501 -0.00000000000E+00 -0.00000000000E+00 -0.33973012805E+03  0.33973012805E+03  0.00000000000E+00 0.  1.
         25    1    1    2    0    0 -0.89487480522E+01  0.68238737308E+02 -0.24070984163E+03  0.27762894882E+03  0.12000000000E+03 0.  0.
         25    1    1    2    0    0  0.89487480522E+01 -0.68238737308E+02 -0.21175084610E+02  0.13994638105E+03  0.12000000000E+03 0.  0.
<mgrwt>
<rscale>  0 0.32524674E+03</rscale>
<asrwt>0</asrwt>
<pdfrwt beam="1">  1        1 0.11976185E-01 0.32524674E+03</pdfrwt>
<pdfrwt beam="2">  1       -1 0.52266173E-01 0.32524674E+03</pdfrwt>
<totfact> 0.19063722E+03</totfact>
</mgrwt>
</event>
<event>
 4    1  0.1759998E-004  0.2749684E+03  0.7818608E-02  0.1098469E+00
         -2   -1    0    0    0  501 -0.00000000000E+00  0.00000000000E+00  0.74628200889E+01  0.74628200889E+01  0.00000000000E+00 0.  1.
          2   -1    0    0  501    0  0.00000000000E+00 -0.00000000000E+00 -0.25328096677E+04  0.25328096677E+04  0.00000000000E+00 0.  1.
         25    1    1    2    0    0 -0.47133813516E+02  0.43079230413E+02 -0.10723336996E+04  0.10809148809E+04  0.12000000000E+03 0.  0.
         25    1    1    2    0    0  0.47133813516E+02 -0.43079230413E+02 -0.14530131481E+04  0.14593576069E+04  0.12000000000E+03 0.  0.
<mgrwt>
<rscale>  0 0.27496838E+03</rscale>
<asrwt>0</asrwt>
<pdfrwt beam="1">  1        2 0.38966288E+00 0.27496838E+03</pdfrwt>
<pdfrwt beam="2">  1       -2 0.11481266E-02 0.27496838E+03</pdfrwt>
<totfact> 0.67090524E+03</totfact>
</mgrwt>
</event>
<event>
 4    1  0.1759998E-004  0.2429711E+03  0.7818608E-02  0.1117829E+00
          2   -1    0    0  501    0  0.00000000000E+00  0.00000000000E+00  0.24477782602E+03  0.24477782602E+03  0.00000000000E+00 0.  1.
         -2   -1    0    0    0  501 -0.00000000000E+00 -0.00000000000E+00 -0.60294444237E+02  0.60294444237E+02  0.00000000000E+00 0.  1.
         25    1    1    2    0    0 -0.10952748362E+02 -0.14299707505E+02  0.84888318377E+02  0.14808940181E+03  0.12000000000E+03 0.  0.
         25    1    1    2    0    0  0.10952748362E+02  0.14299707505E+02  0.99595063407E+02  0.15698286845E+03  0.12000000000E+03 0.  0.
<mgrwt>
<rscale>  0 0.24297113E+03</rscale>
<asrwt>0</asrwt>
<pdfrwt beam="1">  1        2 0.37658127E-01 0.24297113E+03</pdfrwt>
<pdfrwt beam="2">  1       -2 0.92760685E-02 0.24297113E+03</pdfrwt>
<totfact> 0.10045234E+04</totfact>
</mgrwt>
</event>
<event>
 4    1  0.1759998E-004  0.2487426E+03  0.7818608E-02  0.1114102E+00
         -1   -1    0    0    0  501 -0.00000000000E+00  0.00000000000E+00  0.39083783073E+02  0.39083783073E+02  0.00000000000E+00 0. -1.
          1   -1    0    0  501    0  0.00000000000E+00 -0.00000000000E+00 -0.39577066112E+03  0.39577066112E+03  0.00000000000E+00 0. -1.
         25    1    1    2    0    0  0.31489901614E+02  0.59097342538E+01 -0.18962932900E+03  0.22668440899E+03  0.12000000000E+03 0.  0.
         25    1    1    2    0    0 -0.31489901614E+02 -0.59097342538E+01 -0.16705754905E+03  0.20817003520E+03  0.12000000000E+03 0.  0.
<mgrwt>
<rscale>  0 0.24874255E+03</rscale>
<asrwt>0</asrwt>
<pdfrwt beam="1">  1        1 0.60887796E-01 0.24874255E+03</pdfrwt>
<pdfrwt beam="2">  1       -1 0.60128895E-02 0.24874255E+03</pdfrwt>
<totfact> 0.80861808E+03</totfact>
</mgrwt>
</event>
<event>
 4    1  0.1759998E-004  0.2725502E+03  0.7818608E-02  0.1099829E+00
          4   -1    0    0  501    0  0.00000000000E+00  0.00000000000E+00  0.11508442270E+03  0.11508442270E+03  0.00000000000E+00 0. -1.
         -4   -1    0    0    0  501 -0.00000000000E+00 -0.00000000000E+00 -0.16136760206E+03  0.16136760206E+03  0.00000000000E+00 0. -1.
         25    1    1    2    0    0  0.32857172992E+01 -0.61214485195E+02 -0.43752138919E+02  0.14167659932E+03  0.12000000000E+03 0.  0.
         25    1    1    2    0    0 -0.32857172992E+01  0.61214485195E+02 -0.25310404311E+01  0.13477542544E+03  0.12000000000E+03 0.  0.
<mgrwt>
<rscale>  0 0.27255016E+03</rscale>
<asrwt>0</asrwt>
<pdfrwt beam="1">  1        4 0.17705296E-01 0.27255016E+03</pdfrwt>
<pdfrwt beam="2">  1       -4 0.24825785E-01 0.27255016E+03</pdfrwt>
<totfact> 0.79873592E+02</totfact>
</mgrwt>
</event>
<event>
 4    1  0.1759998E-004  0.3493134E+03  0.7818608E-02  0.1062897E+00
          2   -1    0    0  501    0  0.00000000000E+00  0.00000000000E+00  0.58434526833E+03  0.58434526833E+03  0.00000000000E+00 0. -1.
         -2   -1    0    0    0  501 -0.00000000000E+00 -0.00000000000E+00 -0.52203664609E+02  0.52203664609E+02  0.00000000000E+00 0. -1.
         25    1    1    2    0    0 -0.97290443941E+02  0.69443314016E+02  0.18839010214E+03  0.25333502507E+03  0.12000000000E+03 0.  0.
         25    1    1    2    0    0  0.97290443941E+02 -0.69443314016E+02  0.34375150158E+03  0.38321390787E+03  0.12000000000E+03 0.  0.
<mgrwt>
<rscale>  0 0.34931341E+03</rscale>
<asrwt>0</asrwt>
<pdfrwt beam="1">  1        2 0.89899268E-01 0.34931341E+03</pdfrwt>
<pdfrwt beam="2">  1       -2 0.80313334E-02 0.34931341E+03</pdfrwt>
<totfact> 0.49097820E+03</totfact>
</mgrwt>
</event>
<event>
 4    1  0.1759998E-004  0.2414161E+03  0.7818608E-02  0.1118853E+00
         -2   -1    0    0    0  501 -0.00000000000E+00  0.00000000000E+00  0.18496689051E+03  0.18496689051E+03  0.00000000000E+00 0. -1.
          2   -1    0    0  501    0  0.00000000000E+00 -0.00000000000E+00 -0.78773173529E+02  0.78773173529E+02  0.00000000000E+00 0. -1.
         25    1    1    2    0    0 -0.47441851846E+01 -0.54145695856E+01  0.41199246376E+02  0.12707951353E+03  0.12000000000E+03 0.  0.
         25    1    1    2    0    0  0.47441851846E+01  0.54145695856E+01  0.64994470609E+02  0.13666055051E+03  0.12000000000E+03 0.  0.
<mgrwt>
<rscale>  0 0.24141606E+03</rscale>
<asrwt>0</asrwt>
<pdfrwt beam="1">  1        2 0.12118950E-01 0.24141606E+03</pdfrwt>
<pdfrwt beam="2">  1       -2 0.28456445E-01 0.24141606E+03</pdfrwt>
<totfact> 0.56037132E+03</totfact>
</mgrwt>
</event>
<event>
 4    1  0.1759998E-004  0.2623598E+03  0.7818608E-02  0.1105734E+00
          2   -1    0    0  501    0  0.00000000000E+00  0.00000000000E+00  0.25414436678E+03  0.25414436678E+03  0.00000000000E+00 0. -1.
         -2   -1    0    0    0  501 -0.00000000000E+00 -0.00000000000E+00 -0.67710179610E+02  0.67710179610E+02  0.00000000000E+00 0. -1.
         25    1    1    2    0    0 -0.43302374982E+02 -0.29872531892E+02  0.85391036917E+02  0.15639403130E+03  0.12000000000E+03 0.  0.
         25    1    1    2    0    0  0.43302374982E+02  0.29872531892E+02  0.10104315025E+03  0.16546051509E+03  0.12000000000E+03 0.  0.
<mgrwt>
<rscale>  0 0.26235976E+03</rscale>
<asrwt>0</asrwt>
<pdfrwt beam="1">  1        2 0.39099133E-01 0.26235976E+03</pdfrwt>
<pdfrwt beam="2">  1       -2 0.10416951E-01 0.26235976E+03</pdfrwt>
<totfact> 0.80541704E+03</totfact>
</mgrwt>
</event>
<event>
 4    1  0.1759998E-004  0.2728445E+03  0.7818608E-02  0.1099663E+00
          2   -1    0    0  501    0  0.00000000000E+00  0.00000000000E+00  0.66004115388E+03  0.66004115388E+03  0.00000000000E+00 0. -1.
         -2   -1    0    0    0  501 -0.00000000000E+00 -0.00000000000E+00 -0.28196762456E+02  0.28196762456E+02  0.00000000000E+00 0. -1.
         25    1    1    2    0    0  0.63661225307E+02 -0.10756529557E+02  0.33237995326E+03  0.35922818356E+03  0.12000000000E+03 0.  0.
         25    1    1    2    0    0 -0.63661225307E+02  0.10756529557E+02  0.29946443816E+03  0.32900973277E+03  0.12000000000E+03 0.  0.
<mgrwt>
<rscale>  0 0.27284445E+03</rscale>
<asrwt>0</asrwt>
<pdfrwt beam="1">  1        2 0.10154478E+00 0.27284445E+03</pdfrwt>
<pdfrwt beam="2">  1       -2 0.43379639E-02 0.27284445E+03</pdfrwt>
<totfact> 0.10897982E+04</totfact>
</mgrwt>
</event>
<event>
 4    1  0.1759998E-004  0.3477774E+03  0.7818608E-02  0.1063531E+00
         -2   -1    0    0    0  501 -0.00000000000E+00  0.00000000000E+00  0.20010720615E+02  0.20010720615E+02  0.00000000000E+00 0. -1.
          2   -1    0    0  501    0  0.00000000000E+00 -0.00000000000E+00 -0.15110537180E+04  0.15110537180E+04  0.00000000000E+00 0. -1.
         25    1    1    2    0    0  0.81807673901E+02 -0.68896940411E+02 -0.45356424462E+03  0.48120661665E+03  0.12000000000E+03 0.  0.
         25    1    1    2    0    0 -0.81807673901E+02  0.68896940411E+02 -0.10374787528E+04  0.10498578220E+04  0.12000000000E+03 0.  0.
<mgrwt>
<rscale>  0 0.34777736E+03</rscale>
<asrwt>0</asrwt>
<pdfrwt beam="1">  1        2 0.23246978E+00 0.34777736E+03</pdfrwt>
<pdfrwt beam="2">  1       -2 0.30785727E-02 0.34777736E+03</pdfrwt>
<totfact> 0.54986346E+03</totfact>
</mgrwt>
</event>
<event>
 4    1  0.1759998E-004  0.2501088E+03  0.7818608E-02  0.1113236E+00
         -2   -1    0    0    0  501 -0.00000000000E+00  0.00000000000E+00  0.42971519207E+02  0.42971519207E+02  0.00000000000E+00 0. -1.
          2   -1    0    0  501    0  0.00000000000E+00 -0.00000000000E+00 -0.36392944468E+03  0.36392944468E+03  0.00000000000E+00 0. -1.
         25    1    1    2    0    0 -0.31308634862E+02  0.15267747383E+02 -0.16865666717E+03  0.20990094356E+03  0.12000000000E+03 0.  0.
         25    1    1    2    0    0  0.31308634862E+02 -0.15267747383E+02 -0.15230125830E+03  0.19700002032E+03  0.12000000000E+03 0.  0.
<mgrwt>
<rscale>  0 0.25010879E+03</rscale>
<asrwt>0</asrwt>
<pdfrwt beam="1">  1        2 0.55989144E-01 0.25010879E+03</pdfrwt>
<pdfrwt beam="2">  1       -2 0.66110031E-02 0.25010879E+03</pdfrwt>
<totfact> 0.11131284E+04</totfact>
</mgrwt>
</event>
<event>
 4    1  0.1759998E-004  0.2664413E+03  0.7818608E-02  0.1103334E+00
          2   -1    0    0  501    0  0.00000000000E+00  0.00000000000E+00  0.98414264749E+03  0.98414264749E+03  0.00000000000E+00 0.  1.
         -2   -1    0    0    0  501 -0.00000000000E+00 -0.00000000000E+00 -0.18033702687E+02  0.18033702687E+02  0.00000000000E+00 0.  1.
         25    1    1    2    0    0  0.29260262782E+02  0.48837244560E+02  0.52187042834E+03  0.53850718047E+03  0.12000000000E+03 0.  0.
         25    1    1    2    0    0 -0.29260262782E+02 -0.48837244560E+02  0.44423851646E+03  0.46366916971E+03  0.12000000000E+03 0.  0.
<mgrwt>
<rscale>  0 0.26644126E+03</rscale>
<asrwt>0</asrwt>
<pdfrwt beam="1">  1        2 0.15140652E+00 0.26644126E+03</pdfrwt>
<pdfrwt beam="2">  1       -2 0.27744166E-02 0.26644126E+03</pdfrwt>
<totfact> 0.12731905E+04</totfact>
</mgrwt>
</event>
<event>
 4    1  0.1759998E-004  0.3777320E+03  0.7818608E-02  0.1051775E+00
         -1   -1    0    0    0  501 -0.00000000000E+00  0.00000000000E+00  0.19674330145E+03  0.19674330145E+03  0.00000000000E+00 0.  1.
          1   -1    0    0  501    0  0.00000000000E+00 -0.00000000000E+00 -0.18130406940E+03  0.18130406940E+03  0.00000000000E+00 0.  1.
         25    1    1    2    0    0 -0.11427064683E+02 -0.10165446193E+03  0.11175906517E+03  0.19327259528E+03  0.12000000000E+03 0.  0.
         25    1    1    2    0    0  0.11427064683E+02  0.10165446193E+03 -0.96319833117E+02  0.18477477557E+03  0.12000000000E+03 0.  0.
<mgrwt>
<rscale>  0 0.37773197E+03</rscale>
<asrwt>0</asrwt>
<pdfrwt beam="1">  1        1 0.27892934E-01 0.37773197E+03</pdfrwt>
<pdfrwt beam="2">  1       -1 0.30268200E-01 0.37773197E+03</pdfrwt>
<totfact> 0.16806400E+03</totfact>
</mgrwt>
</event>
<event>
 4    1  0.1759998E-004  0.3286669E+03  0.7818608E-02  0.1071728E+00
          2   -1    0    0  501    0  0.00000000000E+00  0.00000000000E+00  0.14824048443E+04  0.14824048443E+04  0.00000000000E+00 0. -1.
         -2   -1    0    0    0  501 -0.00000000000E+00 -0.00000000000E+00 -0.18217341106E+02  0.18217341106E+02  0.00000000000E+00 0. -1.
         25    1    1    2    0    0 -0.40379240868E+02 -0.41596866100E+02  0.29309661185E+03  0.32197267934E+03  0.12000000000E+03 0.  0.
         25    1    1    2    0    0  0.40379240868E+02  0.41596866100E+02  0.11710908913E+04  0.11786495060E+04  0.12000000000E+03 0.  0.
<mgrwt>
<rscale>  0 0.32866685E+03</rscale>
<asrwt>0</asrwt>
<pdfrwt beam="1">  1        2 0.22806219E+00 0.32866685E+03</pdfrwt>
<pdfrwt beam="2">  1       -2 0.28026690E-02 0.32866685E+03</pdfrwt>
<totfact> 0.65552286E+03</totfact>
</mgrwt>
</event>
<event>
 4    1  0.1759998E-004  0.3240703E+03  0.7818608E-02  0.1073791E+00
          2   -1    0    0  501    0  0.00000000000E+00  0.00000000000E+00  0.56301791431E+03  0.56301791431E+03  0.00000000000E+00 0. -1.
         -2   -1    0    0    0  501 -0.00000000000E+00 -0.00000000000E+00 -0.46633300151E+02  0.46633300151E+02  0.00000000000E+00 0. -1.
         25    1    1    2    0    0 -0.70644269700E+02  0.74798064804E+02  0.32523439848E+03  0.36161136223E+03  0.12000000000E+03 0.  0.
         25    1    1    2    0    0  0.70644269700E+02 -0.74798064804E+02  0.19115021567E+03  0.24803985222E+03  0.12000000000E+03 0.  0.
<mgrwt>
<rscale>  0 0.32407026E+03</rscale>
<asrwt>0</asrwt>
<pdfrwt beam="1">  1        2 0.86618136E-01 0.32407026E+03</pdfrwt>
<pdfrwt beam="2">  1       -2 0.71743543E-02 0.32407026E+03</pdfrwt>
<totfact> 0.61054497E+03</totfact>
</mgrwt>
</event>
<event>
 4    1  0.1759998E-004  0.3405270E+03  0.7818608E-02  0.1066572E+00
         -1   -1    0    0    0  501 -0.00000000000E+00  0.00000000000E+00  0.38111306628E+02  0.38111306628E+02  0.00000000000E+00 0.  1.
          1   -1    0    0  501    0  0.00000000000E+00 -0.00000000000E+00 -0.76065752006E+03  0.76065752006E+03  0.00000000000E+00 0.  1.
         25    1    1    2    0    0  0.60040590169E+02 -0.71435153422E+02 -0.54117042002E+03  0.56211500346E+03  0.12000000000E+03 0.  0.
         25    1    1    2    0    0 -0.60040590169E+02  0.71435153422E+02 -0.18137579342E+03  0.23665382323E+03  0.12000000000E+03 0.  0.
<mgrwt>
<rscale>  0 0.34052696E+03</rscale>
<asrwt>0</asrwt>
<pdfrwt beam="1">  1        1 0.11702423E+00 0.34052696E+03</pdfrwt>
<pdfrwt beam="2">  1       -1 0.58632779E-02 0.34052696E+03</pdfrwt>
<totfact> 0.34542679E+03</totfact>
</mgrwt>
</event>
<event>
 4    1  0.1759998E-004  0.2829974E+03  0.7818608E-02  0.1094063E+00
          1   -1    0    0  501    0  0.00000000000E+00  0.00000000000E+00  0.31936619601E+04  0.31936619601E+04  0.00000000000E+00 0.  1.
         -1   -1    0    0    0  501 -0.00000000000E+00 -0.00000000000E+00 -0.62692545475E+01  0.62692545475E+01  0.00000000000E+00 0.  1.
         25    1    1    2    0    0  0.69086309814E+02 -0.27171390877E+02  0.14747401561E+04  0.14814755249E+04  0.12000000000E+03 0.  0.
         25    1    1    2    0    0 -0.69086309814E+02  0.27171390877E+02  0.17126525494E+04  0.17184556897E+04  0.12000000000E+03 0.  0.
<mgrwt>
<rscale>  0 0.28299738E+03</rscale>
<asrwt>0</asrwt>
<pdfrwt beam="1">  1        1 0.49133131E+00 0.28299738E+03</pdfrwt>
<pdfrwt beam="2">  1       -1 0.96450325E-03 0.28299738E+03</pdfrwt>
<totfact> 0.10444246E+03</totfact>
</mgrwt>
</event>
<event>
 4    1  0.1759998E-004  0.5286483E+03  0.7818608E-02  0.1006560E+00
         -2   -1    0    0    0  501 -0.00000000000E+00  0.00000000000E+00  0.11319877965E+03  0.11319877965E+03  0.00000000000E+00 0. -1.
          2   -1    0    0  501    0  0.00000000000E+00 -0.00000000000E+00 -0.61720861510E+03  0.61720861510E+03  0.00000000000E+00 0. -1.
         25    1    1    2    0    0 -0.30163496637E+02 -0.28881288721E+01 -0.57469976854E+03  0.58787583875E+03  0.12000000000E+03 0.  0.
         25    1    1    2    0    0  0.30163496637E+02  0.28881288721E+01  0.70689933087E+02  0.14253155601E+03  0.12000000000E+03 0.  0.
<mgrwt>
<rscale>  0 0.52864832E+03</rscale>
<asrwt>0</asrwt>
<pdfrwt beam="1">  1        2 0.94955173E-01 0.52864832E+03</pdfrwt>
<pdfrwt beam="2">  1       -2 0.17415197E-01 0.52864832E+03</pdfrwt>
<totfact> 0.13030734E+03</totfact>
</mgrwt>
</event>
<event>
 4    1  0.1759998E-004  0.6232955E+03  0.7818608E-02  0.9858220E-01
          1   -1    0    0  501    0  0.00000000000E+00  0.00000000000E+00  0.72384806930E+03  0.72384806930E+03  0.00000000000E+00 0.  1.
         -1   -1    0    0    0  501 -0.00000000000E+00 -0.00000000000E+00 -0.13417775622E+03  0.13417775622E+03  0.00000000000E+00 0.  1.
         25    1    1    2    0    0 -0.13179691617E+03  0.23009723096E+03  0.44818288798E+03  0.53439972295E+03  0.12000000000E+03 0.  0.
         25    1    1    2    0    0  0.13179691617E+03 -0.23009723096E+03  0.14148742509E+03  0.32362610258E+03  0.12000000000E+03 0.  0.
<mgrwt>
<rscale>  0 0.62329547E+03</rscale>
<asrwt>0</asrwt>
<pdfrwt beam="1">  1        1 0.11136124E+00 0.62329547E+03</pdfrwt>
<pdfrwt beam="2">  1       -1 0.20642732E-01 0.62329547E+03</pdfrwt>
<totfact> 0.50727617E+02</totfact>
</mgrwt>
</event>
<event>
 4    1  0.1759998E-004  0.3870948E+03  0.7818608E-02  0.1048342E+00
         -1   -1    0    0    0  501 -0.00000000000E+00  0.00000000000E+00  0.16713074259E+03  0.16713074259E+03  0.00000000000E+00 0.  1.
          1   -1    0    0  501    0  0.00000000000E+00 -0.00000000000E+00 -0.22413951409E+03  0.22413951409E+03  0.00000000000E+00 0.  1.
         25    1    1    2    0    0 -0.11492293919E+03  0.15524037514E+02 -0.12760439498E+03  0.21007417574E+03  0.12000000000E+03 0.  0.
         25    1    1    2    0    0  0.11492293919E+03 -0.15524037514E+02  0.70595623490E+02  0.18119608094E+03  0.12000000000E+03 0.  0.
<mgrwt>
<rscale>  0 0.38709484E+03</rscale>
<asrwt>0</asrwt>
<pdfrwt beam="1">  1        1 0.34483002E-01 0.38709484E+03</pdfrwt>
<pdfrwt beam="2">  1       -1 0.25712422E-01 0.38709484E+03</pdfrwt>
<totfact> 0.16930713E+03</totfact>
</mgrwt>
</event>
<event>
 4    1  0.1759998E-004  0.2495760E+03  0.7818608E-02  0.1113573E+00
          1   -1    0    0  501    0  0.00000000000E+00  0.00000000000E+00  0.24890752806E+03  0.24890752806E+03  0.00000000000E+00 0. -1.
         -1   -1    0    0    0  501 -0.00000000000E+00 -0.00000000000E+00 -0.62561547625E+02  0.62561547625E+02  0.00000000000E+00 0. -1.
         25    1    1    2    0    0 -0.14621383299E+02  0.58288524935E+01  0.13111443911E+03  0.17843417978E+03  0.12000000000E+03 0.  0.
         25    1    1    2    0    0  0.14621383299E+02 -0.58288524935E+01  0.55231541323E+02  0.13303489590E+03  0.12000000000E+03 0.  0.
<mgrwt>
<rscale>  0 0.24957596E+03</rscale>
<asrwt>0</asrwt>
<pdfrwt beam="1">  1        1 0.38293465E-01 0.24957596E+03</pdfrwt>
<pdfrwt beam="2">  1       -1 0.96248536E-02 0.24957596E+03</pdfrwt>
<totfact> 0.70900075E+03</totfact>
</mgrwt>
</event>
<event>
 4    1  0.1759998E-004  0.2427680E+03  0.7818608E-02  0.1117962E+00
          1   -1    0    0  501    0  0.00000000000E+00  0.00000000000E+00  0.19238423700E+04  0.19238423700E+04  0.00000000000E+00 0.  1.
         -1   -1    0    0    0  501 -0.00000000000E+00 -0.00000000000E+00 -0.76586709593E+01  0.76586709593E+01  0.00000000000E+00 0.  1.
         25    1    1    2    0    0  0.17021971848E+02 -0.57786010863E+01  0.93178120864E+03  0.93964853032E+03  0.12000000000E+03 0.  0.
         25    1    1    2    0    0 -0.17021971848E+02  0.57786010863E+01  0.98440249040E+03  0.99185251064E+03  0.12000000000E+03 0.  0.
<mgrwt>
<rscale>  0 0.24276800E+03</rscale>
<asrwt>0</asrwt>
<pdfrwt beam="1">  1        1 0.29597537E+00 0.24276800E+03</pdfrwt>
<pdfrwt beam="2">  1       -1 0.11782586E-02 0.24276800E+03</pdfrwt>
<totfact> 0.55980623E+03</totfact>
</mgrwt>
</event>
<event>
 4    1  0.1759998E-004  0.3505710E+03  0.7818608E-02  0.1062381E+00
          2   -1    0    0  501    0  0.00000000000E+00  0.00000000000E+00  0.48771934729E+03  0.48771934729E+03  0.00000000000E+00 0.  1.
         -2   -1    0    0    0  501 -0.00000000000E+00 -0.00000000000E+00 -0.62997326774E+02  0.62997326774E+02  0.00000000000E+00 0.  1.
         25    1    1    2    0    0  0.64222000871E+02 -0.74792595949E+02  0.34004656055E+03  0.37383159463E+03  0.12000000000E+03 0.  0.
         25    1    1    2    0    0 -0.64222000871E+02  0.74792595949E+02  0.84675459969E+02  0.17688507943E+03  0.12000000000E+03 0.  0.
<mgrwt>
<rscale>  0 0.35057105E+03</rscale>
<asrwt>0</asrwt>
<pdfrwt beam="1">  1        2 0.75033743E-01 0.35057105E+03</pdfrwt>
<pdfrwt beam="2">  1       -2 0.96918968E-02 0.35057105E+03</pdfrwt>
<totfact> 0.44833374E+03</totfact>
</mgrwt>
</event>
<event>
 4    1  0.1759998E-004  0.2999080E+03  0.7818608E-02  0.1085287E+00
          1   -1    0    0  501    0  0.00000000000E+00  0.00000000000E+00  0.70303159490E+02  0.70303159490E+02  0.00000000000E+00 0. -1.
         -1   -1    0    0    0  501 -0.00000000000E+00 -0.00000000000E+00 -0.31984622650E+03  0.31984622650E+03  0.00000000000E+00 0. -1.
         25    1    1    2    0    0  0.12847008886E+02 -0.88107174809E+02 -0.10840500985E+03  0.18460651682E+03  0.12000000000E+03 0.  0.
         25    1    1    2    0    0 -0.12847008886E+02  0.88107174809E+02 -0.14113805716E+03  0.20554286917E+03  0.12000000000E+03 0.  0.
<mgrwt>
<rscale>  0 0.29990799E+03</rscale>
<asrwt>0</asrwt>
<pdfrwt beam="1">  1        1 0.10815870E-01 0.29990799E+03</pdfrwt>
<pdfrwt beam="2">  1       -1 0.49207114E-01 0.29990799E+03</pdfrwt>
<totfact> 0.24413487E+03</totfact>
</mgrwt>
</event>
<event>
 4    1  0.1759998E-004  0.3078091E+03  0.7818608E-02  0.1081401E+00
          2   -1    0    0  501    0  0.00000000000E+00  0.00000000000E+00  0.25515718800E+03  0.25515718800E+03  0.00000000000E+00 0. -1.
         -2   -1    0    0    0  501 -0.00000000000E+00 -0.00000000000E+00 -0.92831471863E+02  0.92831471863E+02  0.00000000000E+00 0. -1.
         25    1    1    2    0    0 -0.75575897712E+02 -0.68942618860E+01  0.14018567093E+02  0.14267363942E+03  0.12000000000E+03 0.  0.
         25    1    1    2    0    0  0.75575897712E+02  0.68942618860E+01  0.14830714904E+03  0.20531502044E+03  0.12000000000E+03 0.  0.
<mgrwt>
<rscale>  0 0.30780914E+03</rscale>
<asrwt>0</asrwt>
<pdfrwt beam="1">  1        2 0.39254952E-01 0.30780914E+03</pdfrwt>
<pdfrwt beam="2">  1       -2 0.14281765E-01 0.30780914E+03</pdfrwt>
<totfact> 0.48373559E+03</totfact>
</mgrwt>
</event>
<event>
 4    1  0.1759998E-004  0.2780423E+03  0.7818608E-02  0.1096763E+00
          1   -1    0    0  501    0  0.00000000000E+00  0.00000000000E+00  0.39770599447E+02  0.39770599447E+02  0.00000000000E+00 0.  1.
         -1   -1    0    0    0  501 -0.00000000000E+00 -0.00000000000E+00 -0.48595912492E+03  0.48595912492E+03  0.00000000000E+00 0.  1.
         25    1    1    2    0    0 -0.33756032184E+02 -0.56405157955E+02 -0.26963602356E+03  0.30236500584E+03  0.12000000000E+03 0.  0.
         25    1    1    2    0    0  0.33756032184E+02  0.56405157955E+02 -0.17655250191E+03  0.22336471853E+03  0.12000000000E+03 0.  0.
<mgrwt>
<rscale>  0 0.27804234E+03</rscale>
<asrwt>0</asrwt>
<pdfrwt beam="1">  1        1 0.61185536E-02 0.27804234E+03</pdfrwt>
<pdfrwt beam="2">  1       -1 0.74762944E-01 0.27804234E+03</pdfrwt>
<totfact> 0.23553874E+03</totfact>
</mgrwt>
</event>
<event>
 4    1  0.1759998E-004  0.2424168E+03  0.7818608E-02  0.1118193E+00
         -2   -1    0    0    0  501 -0.00000000000E+00  0.00000000000E+00  0.14540317813E+02  0.14540317813E+02  0.00000000000E+00 0.  1.
          2   -1    0    0  501    0  0.00000000000E+00 -0.00000000000E+00 -0.10103962187E+04  0.10103962187E+04  0.00000000000E+00 0.  1.
         25    1    1    2    0    0  0.14972766155E+02 -0.26811591801E+01 -0.53070778843E+03  0.54431804034E+03  0.12000000000E+03 0.  0.
         25    1    1    2    0    0 -0.14972766155E+02  0.26811591801E+01 -0.46514811249E+03  0.48061849620E+03  0.12000000000E+03 0.  0.
<mgrwt>
<rscale>  0 0.24241685E+03</rscale>
<asrwt>0</asrwt>
<pdfrwt beam="1">  1        2 0.15544562E+00 0.24241685E+03</pdfrwt>
<pdfrwt beam="2">  1       -2 0.22369712E-02 0.24241685E+03</pdfrwt>
<totfact> 0.16802921E+04</totfact>
</mgrwt>
</event>
<event>
 4    1  0.1759998E-004  0.2855190E+03  0.7818608E-02  0.1092712E+00
         -4   -1    0    0    0  501 -0.00000000000E+00  0.00000000000E+00  0.18448705039E+03  0.18448705039E+03  0.00000000000E+00 0. -1.
          4   -1    0    0  501    0  0.00000000000E+00 -0.00000000000E+00 -0.11046991934E+03  0.11046991934E+03  0.00000000000E+00 0. -1.
         25    1    1    2    0    0  0.52387619782E+02  0.52636342730E+02  0.14726576081E+02  0.14188699491E+03  0.12000000000E+03 0.  0.
         25    1    1    2    0    0 -0.52387619782E+02 -0.52636342730E+02  0.59290554966E+02  0.15306997482E+03  0.12000000000E+03 0.  0.
<mgrwt>
<rscale>  0 0.28551896E+03</rscale>
<asrwt>0</asrwt>
<pdfrwt beam="1">  1        4 0.16995372E-01 0.28551896E+03</pdfrwt>
<pdfrwt beam="2">  1       -4 0.28382623E-01 0.28551896E+03</pdfrwt>
<totfact> 0.67258195E+02</totfact>
</mgrwt>
</event>
<event>
 4    1  0.1759998E-004  0.2966651E+03  0.7818608E-02  0.1086920E+00
         -2   -1    0    0    0  501 -0.00000000000E+00  0.00000000000E+00  0.22431108204E+02  0.22431108204E+02  0.00000000000E+00 0.  1.
          2   -1    0    0  501    0  0.00000000000E+00 -0.00000000000E+00 -0.98089440651E+03  0.98089440651E+03  0.00000000000E+00 0.  1.
         25    1    1    2    0    0  0.77014499638E+02  0.28831290280E+02 -0.38120737131E+03  0.40802149012E+03  0.12000000000E+03 0.  0.
         25    1    1    2    0    0 -0.77014499638E+02 -0.28831290280E+02 -0.57725592699E+03  0.59530402459E+03  0.12000000000E+03 0.  0.
<mgrwt>
<rscale>  0 0.29666512E+03</rscale>
<asrwt>0</asrwt>
<pdfrwt beam="1">  1        2 0.15090680E+00 0.29666512E+03</pdfrwt>
<pdfrwt beam="2">  1       -2 0.34509405E-02 0.29666512E+03</pdfrwt>
<totfact> 0.92684199E+03</totfact>
</mgrwt>
</event>
<event>
 4    1  0.1759998E-004  0.2644687E+03  0.7818608E-02  0.1104488E+00
          1   -1    0    0  501    0  0.00000000000E+00  0.00000000000E+00  0.29622977769E+03  0.29622977769E+03  0.00000000000E+00 0. -1.
         -1   -1    0    0    0  501 -0.00000000000E+00 -0.00000000000E+00 -0.59028255035E+02  0.59028255035E+02  0.00000000000E+00 0. -1.
         25    1    1    2    0    0 -0.46490328127E+02 -0.29807589337E+02  0.12666988120E+03  0.18301667081E+03  0.12000000000E+03 0.  0.
         25    1    1    2    0    0  0.46490328127E+02  0.29807589337E+02  0.11053164146E+03  0.17224136192E+03  0.12000000000E+03 0.  0.
<mgrwt>
<rscale>  0 0.26446873E+03</rscale>
<asrwt>0</asrwt>
<pdfrwt beam="1">  1        1 0.45573811E-01 0.26446873E+03</pdfrwt>
<pdfrwt beam="2">  1       -1 0.90812702E-02 0.26446873E+03</pdfrwt>
<totfact> 0.62474637E+03</totfact>
</mgrwt>
</event>
<event>
 4    1  0.1759998E-004  0.2780738E+03  0.7818608E-02  0.1096746E+00
         -1   -1    0    0    0  501 -0.00000000000E+00  0.00000000000E+00  0.16774358550E+03  0.16774358550E+03  0.00000000000E+00 0. -1.
          1   -1    0    0  501    0  0.00000000000E+00 -0.00000000000E+00 -0.11524289602E+03  0.11524289602E+03  0.00000000000E+00 0. -1.
         25    1    1    2    0    0 -0.21259767049E+02  0.49270261169E+02 -0.19845812655E+02  0.13294131266E+03  0.12000000000E+03 0.  0.
         25    1    1    2    0    0  0.21259767049E+02 -0.49270261169E+02  0.72346502131E+02  0.15004516887E+03  0.12000000000E+03 0.  0.
<mgrwt>
<rscale>  0 0.27807378E+03</rscale>
<asrwt>0</asrwt>
<pdfrwt beam="1">  1        1 0.17729676E-01 0.27807378E+03</pdfrwt>
<pdfrwt beam="2">  1       -1 0.25806706E-01 0.27807378E+03</pdfrwt>
<totfact> 0.39249395E+03</totfact>
</mgrwt>
</event>
<event>
 4    1  0.1759998E-004  0.3640864E+03  0.7818608E-02  0.1056977E+00
         -2   -1    0    0    0  501 -0.00000000000E+00  0.00000000000E+00  0.22791324453E+02  0.22791324453E+02  0.00000000000E+00 0. -1.
          2   -1    0    0  501    0  0.00000000000E+00 -0.00000000000E+00 -0.14540500701E+04  0.14540500701E+04  0.00000000000E+00 0. -1.
         25    1    1    2    0    0  0.64389182588E+02  0.11536997116E+03 -0.57030703250E+03  0.59758372501E+03  0.12000000000E+03 0.  0.
         25    1    1    2    0    0 -0.64389182588E+02 -0.11536997116E+03 -0.86095171317E+03  0.87925766956E+03  0.12000000000E+03 0.  0.
<mgrwt>
<rscale>  0 0.36408640E+03</rscale>
<asrwt>0</asrwt>
<pdfrwt beam="1">  1        2 0.22370006E+00 0.36408640E+03</pdfrwt>
<pdfrwt beam="2">  1       -2 0.35063569E-02 0.36408640E+03</pdfrwt>
<totfact> 0.48555356E+03</totfact>
</mgrwt>
</event>
<event>
 4    1  0.1759998E-004  0.2540883E+03  0.7818608E-02  0.1110748E+00
          2   -1    0    0  501    0  0.00000000000E+00  0.00000000000E+00  0.31891924718E+03  0.31891924718E+03  0.00000000000E+00 0. -1.
         -2   -1    0    0    0  501 -0.00000000000E+00 -0.00000000000E+00 -0.50609117583E+02  0.50609117583E+02  0.00000000000E+00 0. -1.
         25    1    1    2    0    0  0.23006043118E+02 -0.66508109938E+01  0.84479299508E+02  0.14869520286E+03  0.12000000000E+03 0.  0.
         25    1    1    2    0    0 -0.23006043118E+02  0.66508109938E+01  0.18383083008E+03  0.22083316190E+03  0.12000000000E+03 0.  0.
<mgrwt>
<rscale>  0 0.25408834E+03</rscale>
<asrwt>0</asrwt>
<pdfrwt beam="1">  1        2 0.49064498E-01 0.25408834E+03</pdfrwt>
<pdfrwt beam="2">  1       -2 0.77860183E-02 0.25408834E+03</pdfrwt>
<totfact> 0.99662967E+03</totfact>
</mgrwt>
</event>
<event>
 4    1  0.1759998E-004  0.3324849E+03  0.7818608E-02  0.1070043E+00
         -2   -1    0    0    0  501 -0.00000000000E+00  0.00000000000E+00  0.16508086641E+03  0.16508086641E+03  0.00000000000E+00 0. -1.
          2   -1    0    0  501    0  0.00000000000E+00 -0.00000000000E+00 -0.16741223459E+03  0.16741223459E+03  0.00000000000E+00 0. -1.
         25    1    1    2    0    0  0.69869271895E+02  0.57849026821E+02 -0.71936991277E+02  0.16674278327E+03  0.12000000000E+03 0.  0.
         25    1    1    2    0    0 -0.69869271895E+02 -0.57849026821E+02  0.69605623095E+02  0.16575031772E+03  0.12000000000E+03 0.  0.
<mgrwt>
<rscale>  0 0.33248493E+03</rscale>
<asrwt>0</asrwt>
<pdfrwt beam="1">  1        2 0.25755728E-01 0.33248493E+03</pdfrwt>
<pdfrwt beam="2">  1       -2 0.25397057E-01 0.33248493E+03</pdfrwt>
<totfact> 0.28822306E+03</totfact>
</mgrwt>
</event>
<event>
 4    1  0.1759998E-004  0.3486187E+03  0.7818608E-02  0.1063183E+00
         -2   -1    0    0    0  501 -0.00000000000E+00  0.00000000000E+00  0.13072726182E+02  0.13072726182E+02  0.00000000000E+00 0.  1.
          2   -1    0    0  501    0  0.00000000000E+00 -0.00000000000E+00 -0.23242091534E+04  0.23242091534E+04  0.00000000000E+00 0.  1.
         25    1    1    2    0    0 -0.74779053581E+01 -0.11019522048E+03 -0.15680306587E+04  0.15764894711E+04  0.12000000000E+03 0.  0.
         25    1    1    2    0    0  0.74779053581E+01  0.11019522048E+03 -0.74310576848E+03  0.76079240850E+03  0.12000000000E+03 0.  0.
<mgrwt>
<rscale>  0 0.34861870E+03</rscale>
<asrwt>0</asrwt>
<pdfrwt beam="1">  1        2 0.35757008E+00 0.34861870E+03</pdfrwt>
<pdfrwt beam="2">  1       -2 0.20111918E-02 0.34861870E+03</pdfrwt>
<totfact> 0.38189648E+03</totfact>
</mgrwt>
</event>
<event>
 4    1  0.1759998E-004  0.2617412E+03  0.7818608E-02  0.1106102E+00
          1   -1    0    0  501    0  0.00000000000E+00  0.00000000000E+00  0.76208305213E+03  0.76208305213E+03  0.00000000000E+00 0.  1.
         -1   -1    0    0    0  501 -0.00000000000E+00 -0.00000000000E+00 -0.22474074725E+02  0.22474074725E+02  0.00000000000E+00 0.  1.
         25    1    1    2    0    0 -0.45608085614E+01 -0.49430884252E+02  0.32120336689E+03  0.34646185388E+03  0.12000000000E+03 0.  0.
         25    1    1    2    0    0  0.45608085614E+01  0.49430884252E+02  0.41840561051E+03  0.43809527297E+03  0.12000000000E+03 0.  0.
<mgrwt>
<rscale>  0 0.26174118E+03</rscale>
<asrwt>0</asrwt>
<pdfrwt beam="1">  1        1 0.11724353E+00 0.26174118E+03</pdfrwt>
<pdfrwt beam="2">  1       -1 0.34575505E-02 0.26174118E+03</pdfrwt>
<totfact> 0.75537380E+03</totfact>
</mgrwt>
</event>
<event>
 4    1  0.1759998E-004  0.3211204E+03  0.7818608E-02  0.1075135E+00
         -2   -1    0    0    0  501 -0.00000000000E+00  0.00000000000E+00  0.31984829156E+02  0.31984829156E+02  0.00000000000E+00 0. -1.
          2   -1    0    0  501    0  0.00000000000E+00 -0.00000000000E+00 -0.80599401315E+03  0.80599401315E+03  0.00000000000E+00 0. -1.
         25    1    1    2    0    0  0.45935052239E+02  0.54023161195E+01 -0.13615711518E+03  0.18729114784E+03  0.12000000000E+03 0.  0.
         25    1    1    2    0    0 -0.45935052239E+02 -0.54023161195E+01 -0.63785206882E+03  0.65068769447E+03  0.12000000000E+03 0.  0.
<mgrwt>
<rscale>  0 0.32112042E+03</rscale>
<asrwt>0</asrwt>
<pdfrwt beam="1">  1        2 0.12399907E+00 0.32112042E+03</pdfrwt>
<pdfrwt beam="2">  1       -2 0.49207432E-02 0.32112042E+03</pdfrwt>
<totfact> 0.70668335E+03</totfact>
</mgrwt>
</event>
<event>
 4    1  0.1759998E-004  0.2977072E+03  0.7818608E-02  0.1086392E+00
         -2   -1    0    0    0  501 -0.00000000000E+00  0.00000000000E+00  0.24835250508E+02  0.24835250508E+02  0.00000000000E+00 0. -1.
          2   -1    0    0  501    0  0.00000000000E+00 -0.00000000000E+00 -0.89217498697E+03  0.89217498697E+03  0.00000000000E+00 0. -1.
         25    1    1    2    0    0 -0.13082789216E+02 -0.55658629074E+02 -0.22730864007E+03  0.26332159086E+03  0.12000000000E+03 0.  0.
         25    1    1    2    0    0  0.13082789216E+02  0.55658629074E+02 -0.64003109639E+03  0.65368864662E+03  0.12000000000E+03 0.  0.
<mgrwt>
<rscale>  0 0.29770717E+03</rscale>
<asrwt>0</asrwt>
<pdfrwt beam="1">  1        2 0.13725768E+00 0.29770717E+03</pdfrwt>
<pdfrwt beam="2">  1       -2 0.38208081E-02 0.29770717E+03</pdfrwt>
<totfact> 0.90570724E+03</totfact>
</mgrwt>
</event>
<event>
 4    1  0.1759998E-004  0.3179194E+03  0.7818608E-02  0.1076611E+00
          2   -1    0    0  501    0  0.00000000000E+00  0.00000000000E+00  0.13557019275E+04  0.13557019275E+04  0.00000000000E+00 0.  1.
         -2   -1    0    0    0  501 -0.00000000000E+00 -0.00000000000E+00 -0.18638456783E+02  0.18638456783E+02  0.00000000000E+00 0.  1.
         25    1    1    2    0    0 -0.91991182108E+02 -0.11251127298E+01  0.45655217612E+03  0.48094025927E+03  0.12000000000E+03 0.  0.
         25    1    1    2    0    0  0.91991182108E+02  0.11251127298E+01  0.88051129459E+03  0.89340012501E+03  0.12000000000E+03 0.  0.
<mgrwt>
<rscale>  0 0.31791943E+03</rscale>
<asrwt>0</asrwt>
<pdfrwt beam="1">  1        2 0.20856945E+00 0.31791943E+03</pdfrwt>
<pdfrwt beam="2">  1       -2 0.28674559E-02 0.31791943E+03</pdfrwt>
<totfact> 0.74251114E+03</totfact>
</mgrwt>
</event>
<event>
 4    1  0.1759998E-004  0.2548240E+03  0.7818608E-02  0.1110294E+00
          2   -1    0    0  501    0  0.00000000000E+00  0.00000000000E+00  0.68489535207E+03  0.68489535207E+03  0.00000000000E+00 0.  1.
         -2   -1    0    0    0  501 -0.00000000000E+00 -0.00000000000E+00 -0.23702629594E+02  0.23702629594E+02  0.00000000000E+00 0.  1.
         25    1    1    2    0    0 -0.33859077968E+02  0.24927733988E+02  0.30800697715E+03  0.33322083827E+03  0.12000000000E+03 0.  0.
         25    1    1    2    0    0  0.33859077968E+02 -0.24927733988E+02  0.35318574533E+03  0.37537714340E+03  0.12000000000E+03 0.  0.
<mgrwt>
<rscale>  0 0.25482402E+03</rscale>
<asrwt>0</asrwt>
<pdfrwt beam="1">  1        2 0.10536850E+00 0.25482402E+03</pdfrwt>
<pdfrwt beam="2">  1       -2 0.36465589E-02 0.25482402E+03</pdfrwt>
<totfact> 0.13496921E+04</totfact>
</mgrwt>
</event>
<event>
 4    1  0.1759998E-004  0.3946999E+03  0.7818608E-02  0.1045631E+00
          2   -1    0    0  501    0  0.00000000000E+00  0.00000000000E+00  0.13452634991E+04  0.13452634991E+04  0.00000000000E+00 0.  1.
         -2   -1    0    0    0  501 -0.00000000000E+00 -0.00000000000E+00 -0.28951213194E+02  0.28951213194E+02  0.00000000000E+00 0.  1.
         25    1    1    2    0    0 -0.36195968343E+02 -0.36483325730E+00  0.12742443744E+03  0.17873798836E+03  0.12000000000E+03 0.  0.
         25    1    1    2    0    0  0.36195968343E+02  0.36483325730E+00  0.11888878484E+04  0.11954767239E+04  0.12000000000E+03 0.  0.
<mgrwt>
<rscale>  0 0.39469994E+03</rscale>
<asrwt>0</asrwt>
<pdfrwt beam="1">  1        2 0.20696357E+00 0.39469994E+03</pdfrwt>
<pdfrwt beam="2">  1       -2 0.44540339E-02 0.39469994E+03</pdfrwt>
<totfact> 0.38773055E+03</totfact>
</mgrwt>
</event>
<event>
 4    1  0.1759998E-004  0.2706418E+03  0.7818608E-02  0.1100913E+00
          1   -1    0    0  501    0  0.00000000000E+00  0.00000000000E+00  0.30272246425E+03  0.30272246425E+03  0.00000000000E+00 0. -1.
         -1   -1    0    0    0  501 -0.00000000000E+00 -0.00000000000E+00 -0.60490223154E+02  0.60490223154E+02  0.00000000000E+00 0. -1.
         25    1    1    2    0    0  0.38992296850E+02  0.42940715727E+02  0.89715632588E+02  0.16066486552E+03  0.12000000000E+03 0.  0.
         25    1    1    2    0    0 -0.38992296850E+02 -0.42940715727E+02  0.15251660851E+03  0.20254782189E+03  0.12000000000E+03 0.  0.
<mgrwt>
<rscale>  0 0.27064183E+03</rscale>
<asrwt>0</asrwt>
<pdfrwt beam="1">  1        1 0.46572686E-01 0.27064183E+03</pdfrwt>
<pdfrwt beam="2">  1       -1 0.93061884E-02 0.27064183E+03</pdfrwt>
<totfact> 0.58598069E+03</totfact>
</mgrwt>
</event>
<event>
 4    1  0.1759998E-004  0.3146237E+03  0.7818608E-02  0.1078151E+00
         -2   -1    0    0    0  501 -0.00000000000E+00  0.00000000000E+00  0.30959046983E+03  0.30959046983E+03  0.00000000000E+00 0. -1.
          2   -1    0    0  501    0  0.00000000000E+00 -0.00000000000E+00 -0.79934700915E+02  0.79934700915E+02  0.00000000000E+00 0. -1.
         25    1    1    2    0    0  0.62480715282E+02  0.55693204347E+02  0.43261105870E+02  0.15256833247E+03  0.12000000000E+03 0.  0.
         25    1    1    2    0    0 -0.62480715282E+02 -0.55693204347E+02  0.18639466305E+03  0.23695683827E+03  0.12000000000E+03 0.  0.
<mgrwt>
<rscale>  0 0.31462372E+03</rscale>
<asrwt>0</asrwt>
<pdfrwt beam="1">  1        2 0.12297646E-01 0.31462372E+03</pdfrwt>
<pdfrwt beam="2">  1       -2 0.47629302E-01 0.31462372E+03</pdfrwt>
<totfact> 0.21030511E+03</totfact>
</mgrwt>
</event>
<event>
 4    1  0.1759998E-004  0.3997646E+03  0.7818608E-02  0.1043861E+00
         -1   -1    0    0    0  501 -0.00000000000E+00  0.00000000000E+00  0.48449817922E+03  0.48449817922E+03  0.00000000000E+00 0.  1.
          1   -1    0    0  501    0  0.00000000000E+00 -0.00000000000E+00 -0.82462493807E+02  0.82462493807E+02  0.00000000000E+00 0.  1.
         25    1    1    2    0    0  0.86473971947E+02  0.75912652857E+01  0.39138697770E+03  0.41847239030E+03  0.12000000000E+03 0.  0.
         25    1    1    2    0    0 -0.86473971947E+02 -0.75912652857E+01  0.10648707722E+02  0.14848828273E+03  0.12000000000E+03 0.  0.
<mgrwt>
<rscale>  0 0.39976457E+03</rscale>
<asrwt>0</asrwt>
<pdfrwt beam="1">  1        1 0.12686538E-01 0.39976457E+03</pdfrwt>
<pdfrwt beam="2">  1       -1 0.74538180E-01 0.39976457E+03</pdfrwt>
<totfact> 0.88191561E+02</totfact>
</mgrwt>
</event>
<event>
 4    1  0.1759998E-004  0.4126479E+03  0.7818608E-02  0.1039486E+00
          1   -1    0    0  501    0  0.00000000000E+00  0.00000000000E+00  0.62277243976E+03  0.62277243976E+03  0.00000000000E+00 0.  1.
         -1   -1    0    0    0  501 -0.00000000000E+00 -0.00000000000E+00 -0.68354934293E+02  0.68354934293E+02  0.00000000000E+00 0.  1.
         25    1    1    2    0    0  0.78524862459E+02 -0.83261397376E+02  0.48282094156E+03  0.51050433488E+03  0.12000000000E+03 0.  0.
         25    1    1    2    0    0 -0.78524862459E+02  0.83261397376E+02  0.71596563901E+02  0.18062303917E+03  0.12000000000E+03 0.  0.
<mgrwt>
<rscale>  0 0.41264788E+03</rscale>
<asrwt>0</asrwt>
<pdfrwt beam="1">  1        1 0.95811140E-01 0.41264788E+03</pdfrwt>
<pdfrwt beam="2">  1       -1 0.10516144E-01 0.41264788E+03</pdfrwt>
<totfact> 0.18869425E+03</totfact>
</mgrwt>
</event>
<event>
 4    1  0.1759998E-004  0.3305696E+03  0.7818608E-02  0.1070885E+00
          2   -1    0    0  501    0  0.00000000000E+00  0.00000000000E+00  0.34647985754E+04  0.34647985754E+04  0.00000000000E+00 0.  1.
         -2   -1    0    0    0  501 -0.00000000000E+00 -0.00000000000E+00 -0.78847493991E+01  0.78847493991E+01  0.00000000000E+00 0.  1.
         25    1    1    2    0    0 -0.51319663581E+02  0.10134166618E+03  0.17694503043E+04  0.17771489022E+04  0.12000000000E+03 0.  0.
         25    1    1    2    0    0  0.51319663581E+02 -0.10134166618E+03  0.16874635217E+04  0.16955344226E+04  0.12000000000E+03 0.  0.
<mgrwt>
<rscale>  0 0.33056962E+03</rscale>
<asrwt>0</asrwt>
<pdfrwt beam="1">  1        2 0.53304472E+00 0.33056962E+03</pdfrwt>
<pdfrwt beam="2">  1       -2 0.12130411E-02 0.33056962E+03</pdfrwt>
<totfact> 0.17069010E+03</totfact>
</mgrwt>
</event>
<event>
 4    1  0.1759998E-004  0.2564768E+03  0.7818608E-02  0.1109279E+00
         -2   -1    0    0    0  501 -0.00000000000E+00  0.00000000000E+00  0.32311297179E+02  0.32311297179E+02  0.00000000000E+00 0. -1.
          2   -1    0    0  501    0  0.00000000000E+00 -0.00000000000E+00 -0.50895795908E+03  0.50895795908E+03  0.00000000000E+00 0. -1.
         25    1    1    2    0    0 -0.14761576777E+02  0.57388364043E+01 -0.32771707159E+03  0.34935557446E+03  0.12000000000E+03 0.  0.
         25    1    1    2    0    0  0.14761576777E+02 -0.57388364043E+01 -0.14892959031E+03  0.19191368180E+03  0.12000000000E+03 0.  0.
<mgrwt>
<rscale>  0 0.25647684E+03</rscale>
<asrwt>0</asrwt>
<pdfrwt beam="1">  1        2 0.78301220E-01 0.25647684E+03</pdfrwt>
<pdfrwt beam="2">  1       -2 0.49709691E-02 0.25647684E+03</pdfrwt>
<totfact> 0.11934579E+04</totfact>
</mgrwt>
</event>
<event>
 4    1  0.1759998E-004  0.2847650E+03  0.7818608E-02  0.1093114E+00
          1   -1    0    0  501    0  0.00000000000E+00  0.00000000000E+00  0.76615183731E+02  0.76615183731E+02  0.00000000000E+00 0.  1.
         -1   -1    0    0    0  501 -0.00000000000E+00 -0.00000000000E+00 -0.26460521031E+03  0.26460521031E+03  0.00000000000E+00 0.  1.
         25    1    1    2    0    0  0.21047728194E+02 -0.52446448521E+02 -0.15601705626E+03  0.20478026924E+03  0.12000000000E+03 0.  0.
         25    1    1    2    0    0 -0.21047728194E+02  0.52446448521E+02 -0.31972970312E+02  0.13644012480E+03  0.12000000000E+03 0.  0.
<mgrwt>
<rscale>  0 0.28476500E+03</rscale>
<asrwt>0</asrwt>
<pdfrwt beam="1">  1        1 0.11786951E-01 0.28476500E+03</pdfrwt>
<pdfrwt beam="2">  1       -1 0.40708495E-01 0.28476500E+03</pdfrwt>
<totfact> 0.30660747E+03</totfact>
</mgrwt>
</event>
<event>
 4    1  0.1759998E-004  0.3289271E+03  0.7818608E-02  0.1071613E+00
         -1   -1    0    0    0  501 -0.00000000000E+00  0.00000000000E+00  0.18434586520E+03  0.18434586520E+03  0.00000000000E+00 0.  1.
          1   -1    0    0  501    0  0.00000000000E+00 -0.00000000000E+00 -0.14672563171E+03  0.14672563171E+03  0.00000000000E+00 0.  1.
         25    1    1    2    0    0 -0.37339228152E+02 -0.29643843620E+01 -0.87924873336E+02  0.15340726477E+03  0.12000000000E+03 0.  0.
         25    1    1    2    0    0  0.37339228152E+02  0.29643843620E+01  0.12554510682E+03  0.17766423214E+03  0.12000000000E+03 0.  0.
<mgrwt>
<rscale>  0 0.32892713E+03</rscale>
<asrwt>0</asrwt>
<pdfrwt beam="1">  1        1 0.22573174E-01 0.32892713E+03</pdfrwt>
<pdfrwt beam="2">  1       -1 0.28360902E-01 0.32892713E+03</pdfrwt>
<totfact> 0.24596153E+03</totfact>
</mgrwt>
</event>
<event>
 4    1  0.1759998E-004  0.3777004E+03  0.7818608E-02  0.1051787E+00
          3   -1    0    0  501    0  0.00000000000E+00  0.00000000000E+00  0.37979018971E+02  0.37979018971E+02  0.00000000000E+00 0.  1.
         -3   -1    0    0    0  501 -0.00000000000E+00 -0.00000000000E+00 -0.93905542742E+03  0.93905542742E+03  0.00000000000E+00 0.  1.
         25    1    1    2    0    0  0.13573744205E+02  0.10674139107E+03 -0.19594645211E+03  0.25371831466E+03  0.12000000000E+03 0.  0.
         25    1    1    2    0    0 -0.13573744205E+02 -0.10674139107E+03 -0.70512995634E+03  0.72331613173E+03  0.12000000000E+03 0.  0.
<mgrwt>
<rscale>  0 0.37770043E+03</rscale>
<asrwt>0</asrwt>
<pdfrwt beam="1">  1        3 0.58429261E-02 0.37770043E+03</pdfrwt>
<pdfrwt beam="2">  1       -3 0.14447006E+00 0.37770043E+03</pdfrwt>
<totfact> 0.17225676E+02</totfact>
</mgrwt>
</event>
<event>
 4    1  0.1759998E-004  0.3132129E+03  0.7818608E-02  0.1078816E+00
         -1   -1    0    0    0  501 -0.00000000000E+00  0.00000000000E+00  0.23574857670E+03  0.23574857670E+03  0.00000000000E+00 0.  1.
          1   -1    0    0  501    0  0.00000000000E+00 -0.00000000000E+00 -0.10403277330E+03  0.10403277330E+03  0.00000000000E+00 0.  1.
         25    1    1    2    0    0 -0.70549798996E+02 -0.63067756692E+02  0.28739073863E+02  0.15550160912E+03  0.12000000000E+03 0.  0.
         25    1    1    2    0    0  0.70549798996E+02  0.63067756692E+02  0.10297672954E+03  0.18427974088E+03  0.12000000000E+03 0.  0.
<mgrwt>
<rscale>  0 0.31321289E+03</rscale>
<asrwt>0</asrwt>
<pdfrwt beam="1">  1        1 0.16005042E-01 0.31321289E+03</pdfrwt>
<pdfrwt beam="2">  1       -1 0.36269012E-01 0.31321289E+03</pdfrwt>
<totfact> 0.25138878E+03</totfact>
</mgrwt>
</event>
<event>
 4    1  0.1759998E-004  0.3980463E+03  0.7818608E-02  0.1044458E+00
          1   -1    0    0  501    0  0.00000000000E+00  0.00000000000E+00  0.96313393893E+02  0.96313393893E+02  0.00000000000E+00 0.  1.
         -1   -1    0    0    0  501 -0.00000000000E+00 -0.00000000000E+00 -0.41126391939E+03  0.41126391939E+03  0.00000000000E+00 0.  1.
         25    1    1    2    0    0 -0.12251538843E+03  0.10096043959E+03 -0.15405525887E+03  0.25166655230E+03  0.12000000000E+03 0.  0.
         25    1    1    2    0    0  0.12251538843E+03 -0.10096043959E+03 -0.16089526663E+03  0.25591076098E+03  0.12000000000E+03 0.  0.
<mgrwt>
<rscale>  0 0.39804635E+03</rscale>
<asrwt>0</asrwt>
<pdfrwt beam="1">  1        1 0.14817445E-01 0.39804635E+03</pdfrwt>
<pdfrwt beam="2">  1       -1 0.63271372E-01 0.39804635E+03</pdfrwt>
<totfact> 0.99621521E+02</totfact>
</mgrwt>
</event>
<event>
 4    1  0.1759998E-004  0.3514751E+03  0.7818608E-02  0.1062011E+00
          1   -1    0    0  501    0  0.00000000000E+00  0.00000000000E+00  0.42725705212E+02  0.42725705212E+02  0.00000000000E+00 0.  1.
         -1   -1    0    0    0  501 -0.00000000000E+00 -0.00000000000E+00 -0.72283625775E+03  0.72283625775E+03  0.00000000000E+00 0.  1.
         25    1    1    2    0    0  0.12496196889E+03 -0.34153077316E+01 -0.27630863941E+03  0.32614969294E+03  0.12000000000E+03 0.  0.
         25    1    1    2    0    0 -0.12496196889E+03  0.34153077316E+01 -0.40380191313E+03  0.43941227002E+03  0.12000000000E+03 0.  0.
<mgrwt>
<rscale>  0 0.35147511E+03</rscale>
<asrwt>0</asrwt>
<pdfrwt beam="1">  1        1 0.65731855E-02 0.35147511E+03</pdfrwt>
<pdfrwt beam="2">  1       -1 0.11120558E+00 0.35147511E+03</pdfrwt>
<totfact> 0.90342097E+02</totfact>
</mgrwt>
</event>
<event>
 4    1  0.1759998E-004  0.2453713E+03  0.7818608E-02  0.1116265E+00
          2   -1    0    0  501    0  0.00000000000E+00  0.00000000000E+00  0.14765835040E+04  0.14765835040E+04  0.00000000000E+00 0. -1.
         -2   -1    0    0    0  501 -0.00000000000E+00 -0.00000000000E+00 -0.10193648072E+02  0.10193648072E+02  0.00000000000E+00 0. -1.
         25    1    1    2    0    0 -0.36376534107E+01 -0.14347609728E+02  0.60715487961E+03  0.61907684036E+03  0.12000000000E+03 0.  0.
         25    1    1    2    0    0  0.36376534107E+01  0.14347609728E+02  0.85923497630E+03  0.86770031170E+03  0.12000000000E+03 0.  0.
<mgrwt>
<rscale>  0 0.24537133E+03</rscale>
<asrwt>0</asrwt>
<pdfrwt beam="1">  1        2 0.22716652E+00 0.24537133E+03</pdfrwt>
<pdfrwt beam="2">  1       -2 0.15682547E-02 0.24537133E+03</pdfrwt>
<totfact> 0.15458886E+04</totfact>
</mgrwt>
</event>
<event>
 4    1  0.1759998E-004  0.2726020E+03  0.7818608E-02  0.1099800E+00
         -2   -1    0    0    0  501 -0.00000000000E+00  0.00000000000E+00  0.15127473059E+02  0.15127473059E+02  0.00000000000E+00 0.  1.
          2   -1    0    0  501    0  0.00000000000E+00 -0.00000000000E+00 -0.12280945252E+04  0.12280945252E+04  0.00000000000E+00 0.  1.
         25    1    1    2    0    0  0.32931148859E+02  0.38940616422E+01 -0.35344999718E+03  0.37473527294E+03  0.12000000000E+03 0.  0.
         25    1    1    2    0    0 -0.32931148859E+02 -0.38940616422E+01 -0.85951705495E+03  0.86848672530E+03  0.12000000000E+03 0.  0.
<mgrwt>
<rscale>  0 0.27260203E+03</rscale>
<asrwt>0</asrwt>
<pdfrwt beam="1">  1        2 0.18893775E+00 0.27260203E+03</pdfrwt>
<pdfrwt beam="2">  1       -2 0.23273020E-02 0.27260203E+03</pdfrwt>
<totfact> 0.11883078E+04</totfact>
</mgrwt>
</event>
<event>
 4    1  0.1759998E-004  0.2766807E+03  0.7818608E-02  0.1097516E+00
          1   -1    0    0  501    0  0.00000000000E+00  0.00000000000E+00  0.54862548194E+02  0.54862548194E+02  0.00000000000E+00 0.  1.
         -1   -1    0    0    0  501 -0.00000000000E+00 -0.00000000000E+00 -0.34883626192E+03  0.34883626192E+03  0.00000000000E+00 0.  1.
         25    1    1    2    0    0  0.16296938473E+02 -0.25063464866E+02 -0.23745300720E+03  0.26772690956E+03  0.12000000000E+03 0.  0.
         25    1    1    2    0    0 -0.16296938473E+02  0.25063464866E+02 -0.56520706531E+02  0.13597190056E+03  0.12000000000E+03 0.  0.
<mgrwt>
<rscale>  0 0.27668066E+03</rscale>
<asrwt>0</asrwt>
<pdfrwt beam="1">  1        1 0.84403920E-02 0.27668066E+03</pdfrwt>
<pdfrwt beam="2">  1       -1 0.53667117E-01 0.27668066E+03</pdfrwt>
<totfact> 0.28976625E+03</totfact>
</mgrwt>
</event>
<event>
 4    1  0.1759998E-004  0.2712174E+03  0.7818608E-02  0.1100585E+00
         -1   -1    0    0    0  501 -0.00000000000E+00  0.00000000000E+00  0.10456677849E+03  0.10456677849E+03  0.00000000000E+00 0.  1.
          1   -1    0    0  501    0  0.00000000000E+00 -0.00000000000E+00 -0.17586579314E+03  0.17586579314E+03  0.00000000000E+00 0.  1.
         25    1    1    2    0    0 -0.35752904974E+02  0.17288751751E+02 -0.86436081014E+02  0.15312859711E+03  0.12000000000E+03 0.  0.
         25    1    1    2    0    0  0.35752904974E+02 -0.17288751751E+02  0.15137066360E+02  0.12730397452E+03  0.12000000000E+03 0.  0.
<mgrwt>
<rscale>  0 0.27121740E+03</rscale>
<asrwt>0</asrwt>
<pdfrwt beam="1">  1        1 0.27056276E-01 0.27121740E+03</pdfrwt>
<pdfrwt beam="2">  1       -1 0.16087197E-01 0.27121740E+03</pdfrwt>
<totfact> 0.49274431E+03</totfact>
</mgrwt>
</event>
<event>
 4    1  0.1759998E-004  0.2511386E+03  0.7818608E-02  0.1112587E+00
         -1   -1    0    0    0  501 -0.00000000000E+00  0.00000000000E+00  0.39607071920E+03  0.39607071920E+03  0.00000000000E+00 0. -1.
          1   -1    0    0  501    0  0.00000000000E+00 -0.00000000000E+00 -0.39810174866E+02  0.39810174866E+02  0.00000000000E+00 0. -1.
         25    1    1    2    0    0  0.33899956192E+02  0.14674812929E+02  0.18117994142E+03  0.22043304729E+03  0.12000000000E+03 0.  0.
         25    1    1    2    0    0 -0.33899956192E+02 -0.14674812929E+02  0.17508060291E+03  0.21544784678E+03  0.12000000000E+03 0.  0.
<mgrwt>
<rscale>  0 0.25113856E+03</rscale>
<asrwt>0</asrwt>
<pdfrwt beam="1">  1        1 0.61246426E-02 0.25113856E+03</pdfrwt>
<pdfrwt beam="2">  1       -1 0.60933954E-01 0.25113856E+03</pdfrwt>
<totfact> 0.35162567E+03</totfact>
</mgrwt>
</event>
<event>
 4    1  0.1759998E-004  0.2539571E+03  0.7818608E-02  0.1110829E+00
          1   -1    0    0  501    0  0.00000000000E+00  0.00000000000E+00  0.26947917251E+03  0.26947917251E+03  0.00000000000E+00 0.  1.
         -1   -1    0    0    0  501 -0.00000000000E+00 -0.00000000000E+00 -0.59832286212E+02  0.59832286212E+02  0.00000000000E+00 0.  1.
         25    1    1    2    0    0  0.38554400761E+02  0.14002226047E+02  0.96515234519E+02  0.15936654180E+03  0.12000000000E+03 0.  0.
         25    1    1    2    0    0 -0.38554400761E+02 -0.14002226047E+02  0.11313165178E+03  0.16994491692E+03  0.12000000000E+03 0.  0.
<mgrwt>
<rscale>  0 0.25395712E+03</rscale>
<asrwt>0</asrwt>
<pdfrwt beam="1">  1        1 0.41458334E-01 0.25395712E+03</pdfrwt>
<pdfrwt beam="2">  1       -1 0.92049672E-02 0.25395712E+03</pdfrwt>
<totfact> 0.68794262E+03</totfact>
</mgrwt>
</event>
<event>
 4    1  0.1759998E-004  0.2647214E+03  0.7818608E-02  0.1104339E+00
          1   -1    0    0  501    0  0.00000000000E+00  0.00000000000E+00  0.16431712361E+04  0.16431712361E+04  0.00000000000E+00 0. -1.
         -1   -1    0    0    0  501 -0.00000000000E+00 -0.00000000000E+00 -0.10661919393E+02  0.10661919393E+02  0.00000000000E+00 0. -1.
         25    1    1    2    0    0 -0.48118247844E+01  0.27276208523E+02  0.51325578757E+03  0.52782444874E+03  0.12000000000E+03 0.  0.
         25    1    1    2    0    0  0.48118247844E+01 -0.27276208523E+02  0.11192535291E+04  0.11260087068E+04  0.12000000000E+03 0.  0.
<mgrwt>
<rscale>  0 0.26472143E+03</rscale>
<asrwt>0</asrwt>
<pdfrwt beam="1">  1        1 0.25279537E+00 0.26472143E+03</pdfrwt>
<pdfrwt beam="2">  1       -1 0.16402966E-02 0.26472143E+03</pdfrwt>
<totfact> 0.52740780E+03</totfact>
</mgrwt>
</event>
<event>
 4    1  0.1759998E-004  0.2610754E+03  0.7818608E-02  0.1106499E+00
          4   -1    0    0  501    0  0.00000000000E+00  0.00000000000E+00  0.91680919989E+03  0.91680919989E+03  0.00000000000E+00 0.  1.
         -4   -1    0    0    0  501 -0.00000000000E+00 -0.00000000000E+00 -0.18586293998E+02  0.18586293998E+02  0.00000000000E+00 0.  1.
         25    1    1    2    0    0 -0.43307461171E+02 -0.16910485396E+02  0.37073082038E+03  0.39243195829E+03  0.12000000000E+03 0.  0.
         25    1    1    2    0    0  0.43307461171E+02  0.16910485396E+02  0.52749208551E+03  0.54296353560E+03  0.12000000000E+03 0.  0.
<mgrwt>
<rscale>  0 0.26107536E+03</rscale>
<asrwt>0</asrwt>
<pdfrwt beam="1">  1        4 0.14104753E+00 0.26107536E+03</pdfrwt>
<pdfrwt beam="2">  1       -4 0.28594306E-02 0.26107536E+03</pdfrwt>
<totfact> 0.40086467E+02</totfact>
</mgrwt>
</event>
<event>
 4    1  0.1759998E-004  0.2595973E+03  0.7818608E-02  0.1107385E+00
          2   -1    0    0  501    0  0.00000000000E+00  0.00000000000E+00  0.23585467644E+03  0.23585467644E+03  0.00000000000E+00 0. -1.
         -2   -1    0    0    0  501 -0.00000000000E+00 -0.00000000000E+00 -0.71432493216E+02  0.71432493216E+02  0.00000000000E+00 0. -1.
         25    1    1    2    0    0 -0.12942237775E+02  0.33578340813E+02  0.42022862952E+02  0.13213980286E+03  0.12000000000E+03 0.  0.
         25    1    1    2    0    0  0.12942237775E+02 -0.33578340813E+02  0.12239932027E+03  0.17514736679E+03  0.12000000000E+03 0.  0.
<mgrwt>
<rscale>  0 0.25959728E+03</rscale>
<asrwt>0</asrwt>
<pdfrwt beam="1">  1        2 0.36285334E-01 0.25959728E+03</pdfrwt>
<pdfrwt beam="2">  1       -2 0.10989614E-01 0.25959728E+03</pdfrwt>
<totfact> 0.80124591E+03</totfact>
</mgrwt>
</event>
<event>
 4    1  0.1759998E-004  0.2766791E+03  0.7818608E-02  0.1097517E+00
         -2   -1    0    0    0  501 -0.00000000000E+00  0.00000000000E+00  0.27404111638E+02  0.27404111638E+02  0.00000000000E+00 0. -1.
          2   -1    0    0  501    0  0.00000000000E+00 -0.00000000000E+00 -0.69835641065E+03  0.69835641065E+03  0.00000000000E+00 0. -1.
         25    1    1    2    0    0  0.62322278549E+02  0.16738111865E+02 -0.27265239954E+03  0.30480085591E+03  0.12000000000E+03 0.  0.
         25    1    1    2    0    0 -0.62322278549E+02 -0.16738111865E+02 -0.39829989948E+03  0.42095966638E+03  0.12000000000E+03 0.  0.
<mgrwt>
<rscale>  0 0.27667914E+03</rscale>
<asrwt>0</asrwt>
<pdfrwt beam="1">  1        2 0.10743943E+00 0.27667914E+03</pdfrwt>
<pdfrwt beam="2">  1       -2 0.42160177E-02 0.27667914E+03</pdfrwt>
<totfact> 0.10636407E+04</totfact>
</mgrwt>
</event>
<event>
 4    1  0.1759998E-004  0.3014261E+03  0.7818608E-02  0.1084530E+00
          2   -1    0    0  501    0  0.00000000000E+00  0.00000000000E+00  0.34366973902E+03  0.34366973902E+03  0.00000000000E+00 0.  1.
         -2   -1    0    0    0  501 -0.00000000000E+00 -0.00000000000E+00 -0.66093773868E+02  0.66093773868E+02  0.00000000000E+00 0.  1.
         25    1    1    2    0    0 -0.10657591546E+02 -0.99071908541E+01  0.16420206279E+02  0.12198917928E+03  0.12000000000E+03 0.  0.
         25    1    1    2    0    0  0.10657591546E+02  0.99071908541E+01  0.26115575887E+03  0.28777433360E+03  0.12000000000E+03 0.  0.
<mgrwt>
<rscale>  0 0.30142614E+03</rscale>
<asrwt>0</asrwt>
<pdfrwt beam="1">  1        2 0.52872267E-01 0.30142614E+03</pdfrwt>
<pdfrwt beam="2">  1       -2 0.10168273E-01 0.30142614E+03</pdfrwt>
<totfact> 0.60770686E+03</totfact>
</mgrwt>
</event>
<event>
 4    1  0.1759998E-004  0.3501690E+03  0.7818608E-02  0.1062546E+00
          1   -1    0    0  501    0  0.00000000000E+00  0.00000000000E+00  0.41030798106E+03  0.41030798106E+03  0.00000000000E+00 0. -1.
         -1   -1    0    0    0  501 -0.00000000000E+00 -0.00000000000E+00 -0.74711170021E+02  0.74711170021E+02  0.00000000000E+00 0. -1.
         25    1    1    2    0    0  0.68397150487E+02 -0.94693932692E+02  0.23855354330E+03  0.29146681476E+03  0.12000000000E+03 0.  0.
         25    1    1    2    0    0 -0.68397150487E+02  0.94693932692E+02  0.97043267741E+02  0.19355233633E+03  0.12000000000E+03 0.  0.
<mgrwt>
<rscale>  0 0.35016904E+03</rscale>
<asrwt>0</asrwt>
<pdfrwt beam="1">  1        1 0.63124304E-01 0.35016904E+03</pdfrwt>
<pdfrwt beam="2">  1       -1 0.11494026E-01 0.35016904E+03</pdfrwt>
<totfact> 0.28820952E+03</totfact>
</mgrwt>
</event>
<event>
 4    1  0.1759998E-004  0.2622249E+03  0.7818608E-02  0.1105814E+00
         -1   -1    0    0    0  501 -0.00000000000E+00  0.00000000000E+00  0.19804318253E+03  0.19804318253E+03  0.00000000000E+00 0.  1.
          1   -1    0    0  501    0  0.00000000000E+00 -0.00000000000E+00 -0.86801657902E+02  0.86801657902E+02  0.00000000000E+00 0.  1.
         25    1    1    2    0    0 -0.15758526694E+00 -0.44406216071E+02  0.86698849634E+02  0.15455946230E+03  0.12000000000E+03 0.  0.
         25    1    1    2    0    0  0.15758526694E+00  0.44406216071E+02  0.24542674994E+02  0.13028537813E+03  0.12000000000E+03 0.  0.
<mgrwt>
<rscale>  0 0.26222492E+03</rscale>
<asrwt>0</asrwt>
<pdfrwt beam="1">  1        1 0.13354101E-01 0.26222492E+03</pdfrwt>
<pdfrwt beam="2">  1       -1 0.30468182E-01 0.26222492E+03</pdfrwt>
<totfact> 0.42918198E+03</totfact>
</mgrwt>
</event>
<event>
 4    1  0.1759998E-004  0.3354099E+03  0.7818608E-02  0.1068768E+00
          2   -1    0    0  501    0  0.00000000000E+00  0.00000000000E+00  0.28965305966E+03  0.28965305966E+03  0.00000000000E+00 0.  1.
         -2   -1    0    0    0  501 -0.00000000000E+00 -0.00000000000E+00 -0.97098744082E+02  0.97098744082E+02  0.00000000000E+00 0.  1.
         25    1    1    2    0    0  0.49690542203E+02 -0.10446298175E+03  0.11764118497E+03  0.20401253134E+03  0.12000000000E+03 0.  0.
         25    1    1    2    0    0 -0.49690542203E+02  0.10446298175E+03  0.74913130605E+02  0.18273927240E+03  0.12000000000E+03 0.  0.
<mgrwt>
<rscale>  0 0.33540989E+03</rscale>
<asrwt>0</asrwt>
<pdfrwt beam="1">  1        2 0.44562009E-01 0.33540989E+03</pdfrwt>
<pdfrwt beam="2">  1       -2 0.14938268E-01 0.33540989E+03</pdfrwt>
<totfact> 0.39237698E+03</totfact>
</mgrwt>
</event>
<event>
 4    1  0.1759998E-004  0.2548292E+03  0.7818608E-02  0.1110290E+00
         -2   -1    0    0    0  501 -0.00000000000E+00  0.00000000000E+00  0.92047864864E+02  0.92047864864E+02  0.00000000000E+00 0.  1.
          2   -1    0    0  501    0  0.00000000000E+00 -0.00000000000E+00 -0.17637002581E+03  0.17637002581E+03  0.00000000000E+00 0.  1.
         25    1    1    2    0    0 -0.39099002225E+02  0.16657402719E+02 -0.36559288712E+02  0.13244916999E+03  0.12000000000E+03 0.  0.
         25    1    1    2    0    0  0.39099002225E+02 -0.16657402719E+02 -0.47762872238E+02  0.13596872069E+03  0.12000000000E+03 0.  0.
<mgrwt>
<rscale>  0 0.25482923E+03</rscale>
<asrwt>0</asrwt>
<pdfrwt beam="1">  1        2 0.27133850E-01 0.25482923E+03</pdfrwt>
<pdfrwt beam="2">  1       -2 0.14161210E-01 0.25482923E+03</pdfrwt>
<totfact> 0.72950851E+03</totfact>
</mgrwt>
</event>
<event>
 4    1  0.1759998E-004  0.2586679E+03  0.7818608E-02  0.1107946E+00
          2   -1    0    0  501    0  0.00000000000E+00  0.00000000000E+00  0.33094517480E+04  0.33094517480E+04  0.00000000000E+00 0. -1.
         -2   -1    0    0    0  501 -0.00000000000E+00 -0.00000000000E+00 -0.50543930911E+01  0.50543930911E+01  0.00000000000E+00 0. -1.
         25    1    1    2    0    0 -0.20052058138E+02 -0.26405830377E+02  0.21012136557E+04  0.21048986150E+04  0.12000000000E+03 0.  0.
         25    1    1    2    0    0  0.20052058138E+02  0.26405830377E+02  0.12031836993E+04  0.12096075261E+04  0.12000000000E+03 0.  0.
<mgrwt>
<rscale>  0 0.25866790E+03</rscale>
<asrwt>0</asrwt>
<pdfrwt beam="1">  1        2 0.50914469E+00 0.25866790E+03</pdfrwt>
<pdfrwt beam="2">  1       -2 0.77760158E-03 0.25866790E+03</pdfrwt>
<totfact> 0.41439107E+03</totfact>
</mgrwt>
</event>
<event>
 4    1  0.1759998E-004  0.2866198E+03  0.7818608E-02  0.1092127E+00
         -2   -1    0    0    0  501 -0.00000000000E+00  0.00000000000E+00  0.23800997248E+02  0.23800997248E+02  0.00000000000E+00 0.  1.
          2   -1    0    0  501    0  0.00000000000E+00 -0.00000000000E+00 -0.86289375162E+03  0.86289375162E+03  0.00000000000E+00 0.  1.
         25    1    1    2    0    0  0.58599111716E+02  0.39299089022E+02 -0.52488686418E+03  0.54303268270E+03  0.12000000000E+03 0.  0.
         25    1    1    2    0    0 -0.58599111716E+02 -0.39299089022E+02 -0.31420589019E+03  0.34366206617E+03  0.12000000000E+03 0.  0.
<mgrwt>
<rscale>  0 0.28661983E+03</rscale>
<asrwt>0</asrwt>
<pdfrwt beam="1">  1        2 0.13275288E+00 0.28661983E+03</pdfrwt>
<pdfrwt beam="2">  1       -2 0.36616920E-02 0.28661983E+03</pdfrwt>
<totfact> 0.10081189E+04</totfact>
</mgrwt>
</event>
<event>
 4    1  0.1759998E-004  0.2476229E+03  0.7818608E-02  0.1114816E+00
          2   -1    0    0  501    0  0.00000000000E+00  0.00000000000E+00  0.90475539192E+03  0.90475539192E+03  0.00000000000E+00 0.  1.
         -2   -1    0    0    0  501 -0.00000000000E+00 -0.00000000000E+00 -0.16943004604E+02  0.16943004604E+02  0.00000000000E+00 0.  1.
         25    1    1    2    0    0  0.30439185540E+02 -0.74562188355E+00  0.43841700736E+03  0.45556182052E+03  0.12000000000E+03 0.  0.
         25    1    1    2    0    0 -0.30439185540E+02  0.74562188355E+00  0.44939537996E+03  0.46613657601E+03  0.12000000000E+03 0.  0.
<mgrwt>
<rscale>  0 0.24762290E+03</rscale>
<asrwt>0</asrwt>
<pdfrwt beam="1">  1        2 0.13919310E+00 0.24762290E+03</pdfrwt>
<pdfrwt beam="2">  1       -2 0.26066168E-02 0.24762290E+03</pdfrwt>
<totfact> 0.15620551E+04</totfact>
</mgrwt>
</event>
<event>
 4    1  0.1759998E-004  0.2894892E+03  0.7818608E-02  0.1090616E+00
          2   -1    0    0  501    0  0.00000000000E+00  0.00000000000E+00  0.19442480972E+04  0.19442480972E+04  0.00000000000E+00 0.  1.
         -2   -1    0    0    0  501 -0.00000000000E+00 -0.00000000000E+00 -0.10775891326E+02  0.10775891326E+02  0.00000000000E+00 0.  1.
         25    1    1    2    0    0 -0.27555797783E+02 -0.57747444649E+02  0.13014817064E+04  0.13085674310E+04  0.12000000000E+03 0.  0.
         25    1    1    2    0    0  0.27555797783E+02  0.57747444649E+02  0.63199049946E+03  0.64645655752E+03  0.12000000000E+03 0.  0.
<mgrwt>
<rscale>  0 0.28948925E+03</rscale>
<asrwt>0</asrwt>
<pdfrwt beam="1">  1        2 0.29911481E+00 0.28948925E+03</pdfrwt>
<pdfrwt beam="2">  1       -2 0.16578310E-02 0.28948925E+03</pdfrwt>
<totfact> 0.81027088E+03</totfact>
</mgrwt>
</event>
<event>
 4    1  0.1759998E-004  0.2842061E+03  0.7818608E-02  0.1093414E+00
          1   -1    0    0  501    0  0.00000000000E+00  0.00000000000E+00  0.32928179315E+02  0.32928179315E+02  0.00000000000E+00 0. -1.
         -1   -1    0    0    0  501 -0.00000000000E+00 -0.00000000000E+00 -0.61325227205E+03  0.61325227205E+03  0.00000000000E+00 0. -1.
         25    1    1    2    0    0  0.65697814900E+02 -0.35501510910E+02 -0.25669090711E+03  0.29303034306E+03  0.12000000000E+03 0.  0.
         25    1    1    2    0    0 -0.65697814900E+02  0.35501510910E+02 -0.32363318562E+03  0.35315010830E+03  0.12000000000E+03 0.  0.
<mgrwt>
<rscale>  0 0.28420613E+03</rscale>
<asrwt>0</asrwt>
<pdfrwt beam="1">  1        1 0.50658738E-02 0.28420613E+03</pdfrwt>
<pdfrwt beam="2">  1       -1 0.94346503E-01 0.28420613E+03</pdfrwt>
<totfact> 0.18737223E+03</totfact>
</mgrwt>
</event>
<event>
 4    1  0.1759998E-004  0.2461170E+03  0.7818608E-02  0.1115784E+00
          4   -1    0    0  501    0  0.00000000000E+00  0.00000000000E+00  0.25804027488E+03  0.25804027488E+03  0.00000000000E+00 0. -1.
         -4   -1    0    0    0  501 -0.00000000000E+00 -0.00000000000E+00 -0.58686182305E+02  0.58686182305E+02  0.00000000000E+00 0. -1.
         25    1    1    2    0    0 -0.11764622037E+01  0.47110106556E+01  0.65150359512E+02  0.13663142768E+03  0.12000000000E+03 0.  0.
         25    1    1    2    0    0  0.11764622037E+01 -0.47110106556E+01  0.13420373306E+03  0.18009502950E+03  0.12000000000E+03 0.  0.
<mgrwt>
<rscale>  0 0.24611703E+03</rscale>
<asrwt>0</asrwt>
<pdfrwt beam="1">  1        4 0.39698503E-01 0.24611703E+03</pdfrwt>
<pdfrwt beam="2">  1       -4 0.90286435E-02 0.24611703E+03</pdfrwt>
<totfact> 0.10279163E+03</totfact>
</mgrwt>
</event>
<event>
 4    1  0.1759998E-004  0.3080001E+03  0.7818608E-02  0.1081308E+00
         -2   -1    0    0    0  501 -0.00000000000E+00  0.00000000000E+00  0.10219984413E+03  0.10219984413E+03  0.00000000000E+00 0.  1.
          2   -1    0    0  501    0  0.00000000000E+00 -0.00000000000E+00 -0.23205531667E+03  0.23205531667E+03  0.00000000000E+00 0.  1.
         25    1    1    2    0    0  0.35735795903E+02  0.61785096026E+02 -0.13543994966E+03  0.19452101471E+03  0.12000000000E+03 0.  0.
         25    1    1    2    0    0 -0.35735795903E+02 -0.61785096026E+02  0.55844771199E+01  0.13973414609E+03  0.12000000000E+03 0.  0.
<mgrwt>
<rscale>  0 0.30800011E+03</rscale>
<asrwt>0</asrwt>
<pdfrwt beam="1">  1        2 0.35700818E-01 0.30800011E+03</pdfrwt>
<pdfrwt beam="2">  1       -2 0.15723053E-01 0.30800011E+03</pdfrwt>
<totfact> 0.45731882E+03</totfact>
</mgrwt>
</event>
<event>
 4    1  0.1759998E-004  0.2734432E+03  0.7818608E-02  0.1099325E+00
          3   -1    0    0  501    0  0.00000000000E+00  0.00000000000E+00  0.21212866648E+02  0.21212866648E+02  0.00000000000E+00 0. -1.
         -3   -1    0    0    0  501 -0.00000000000E+00 -0.00000000000E+00 -0.88120114340E+03  0.88120114340E+03  0.00000000000E+00 0. -1.
         25    1    1    2    0    0  0.14950966984E+02  0.11545666538E+02 -0.63703898936E+03  0.64851793174E+03  0.12000000000E+03 0.  0.
         25    1    1    2    0    0 -0.14950966984E+02 -0.11545666538E+02 -0.22294928740E+03  0.25389607831E+03  0.12000000000E+03 0.  0.
<mgrwt>
<rscale>  0 0.27344325E+03</rscale>
<asrwt>0</asrwt>
<pdfrwt beam="1">  1        3 0.32635173E-02 0.27344325E+03</pdfrwt>
<pdfrwt beam="2">  1       -3 0.13556943E+00 0.27344325E+03</pdfrwt>
<totfact> 0.49827275E+02</totfact>
</mgrwt>
</event>
<event>
 4    1  0.1759998E-004  0.2777417E+03  0.7818608E-02  0.1096929E+00
          1   -1    0    0  501    0  0.00000000000E+00  0.00000000000E+00  0.49156716353E+03  0.49156716353E+03  0.00000000000E+00 0. -1.
         -1   -1    0    0    0  501 -0.00000000000E+00 -0.00000000000E+00 -0.39231896029E+02  0.39231896029E+02  0.00000000000E+00 0. -1.
         25    1    1    2    0    0  0.54651156993E+02  0.40699415838E+02  0.25589287246E+03  0.29073072350E+03  0.12000000000E+03 0.  0.
         25    1    1    2    0    0 -0.54651156993E+02 -0.40699415838E+02  0.19644239505E+03  0.24006833607E+03  0.12000000000E+03 0.  0.
<mgrwt>
<rscale>  0 0.27774169E+03</rscale>
<asrwt>0</asrwt>
<pdfrwt beam="1">  1        1 0.75625713E-01 0.27774169E+03</pdfrwt>
<pdfrwt beam="2">  1       -1 0.60356767E-02 0.27774169E+03</pdfrwt>
<totfact> 0.60905449E+03</totfact>
</mgrwt>
</event>
<event>
 4    1  0.1759998E-004  0.2496414E+03  0.7818608E-02  0.1113532E+00
         -2   -1    0    0    0  501 -0.00000000000E+00  0.00000000000E+00  0.31259400762E+02  0.31259400762E+02  0.00000000000E+00 0. -1.
          2   -1    0    0  501    0  0.00000000000E+00 -0.00000000000E+00 -0.49841670269E+03  0.49841670269E+03  0.00000000000E+00 0. -1.
         25    1    1    2    0    0  0.10746627255E+01 -0.31006271744E+02 -0.26488170698E+03  0.29244634120E+03  0.12000000000E+03 0.  0.
         25    1    1    2    0    0 -0.10746627255E+01  0.31006271744E+02 -0.20227559495E+03  0.23722976225E+03  0.12000000000E+03 0.  0.
<mgrwt>
<rscale>  0 0.24964140E+03</rscale>
<asrwt>0</asrwt>
<pdfrwt beam="1">  1        2 0.76679494E-01 0.24964140E+03</pdfrwt>
<pdfrwt beam="2">  1       -2 0.48091385E-02 0.24964140E+03</pdfrwt>
<totfact> 0.12829604E+04</totfact>
</mgrwt>
</event>
<event>
 4    1  0.1759998E-004  0.2744965E+03  0.7818608E-02  0.1098733E+00
          2   -1    0    0  501    0  0.00000000000E+00  0.00000000000E+00  0.14345117291E+03  0.14345117291E+03  0.00000000000E+00 0. -1.
         -2   -1    0    0    0  501 -0.00000000000E+00 -0.00000000000E+00 -0.13131359135E+03  0.13131359135E+03  0.00000000000E+00 0. -1.
         25    1    1    2    0    0 -0.32521688955E+02  0.76978494026E+01  0.63746023290E+02  0.13993024199E+03  0.12000000000E+03 0.  0.
         25    1    1    2    0    0  0.32521688955E+02 -0.76978494026E+01 -0.51608441726E+02  0.13483452227E+03  0.12000000000E+03 0.  0.
<mgrwt>
<rscale>  0 0.27449655E+03</rscale>
<asrwt>0</asrwt>
<pdfrwt beam="1">  1        2 0.22069411E-01 0.27449655E+03</pdfrwt>
<pdfrwt beam="2">  1       -2 0.20202091E-01 0.27449655E+03</pdfrwt>
<totfact> 0.50854682E+03</totfact>
</mgrwt>
</event>
<event>
 4    1  0.1759998E-004  0.4604844E+03  0.7818608E-02  0.1024641E+00
         -1   -1    0    0    0  501 -0.00000000000E+00  0.00000000000E+00  0.11609045499E+03  0.11609045499E+03  0.00000000000E+00 0.  1.
          1   -1    0    0  501    0  0.00000000000E+00 -0.00000000000E+00 -0.45663936936E+03  0.45663936936E+03  0.00000000000E+00 0.  1.
         25    1    1    2    0    0  0.17569081071E+03  0.39115965104E+02 -0.26831954124E+03  0.34466316297E+03  0.12000000000E+03 0.  0.
         25    1    1    2    0    0 -0.17569081071E+03 -0.39115965104E+02 -0.72229373127E+02  0.22806666139E+03  0.12000000000E+03 0.  0.
<mgrwt>
<rscale>  0 0.46048441E+03</rscale>
<asrwt>0</asrwt>
<pdfrwt beam="1">  1        1 0.70252210E-01 0.46048441E+03</pdfrwt>
<pdfrwt beam="2">  1       -1 0.17860070E-01 0.46048441E+03</pdfrwt>
<totfact> 0.12399136E+03</totfact>
</mgrwt>
</event>
<event>
 4    1  0.1759998E-004  0.2814475E+03  0.7818608E-02  0.1094901E+00
          2   -1    0    0  501    0  0.00000000000E+00  0.00000000000E+00  0.18353634393E+04  0.18353634393E+04  0.00000000000E+00 0. -1.
         -2   -1    0    0    0  501 -0.00000000000E+00 -0.00000000000E+00 -0.10789784699E+02  0.10789784699E+02  0.00000000000E+00 0. -1.
         25    1    1    2    0    0  0.99535657641E+01 -0.68981968237E+02  0.10655027481E+04  0.10745016015E+04  0.12000000000E+03 0.  0.
         25    1    1    2    0    0 -0.99535657641E+01  0.68981968237E+02  0.75907090652E+03  0.77165162252E+03  0.12000000000E+03 0.  0.
<mgrwt>
<rscale>  0 0.28144752E+03</rscale>
<asrwt>0</asrwt>
<pdfrwt beam="1">  1        2 0.28236336E+00 0.28144752E+03</pdfrwt>
<pdfrwt beam="2">  1       -2 0.16599683E-02 0.28144752E+03</pdfrwt>
<totfact> 0.92242766E+03</totfact>
</mgrwt>
</event>
<event>
 4    1  0.1759998E-004  0.2860012E+03  0.7818608E-02  0.1092456E+00
          1   -1    0    0  501    0  0.00000000000E+00  0.00000000000E+00  0.15007845145E+02  0.15007845145E+02  0.00000000000E+00 0.  1.
         -1   -1    0    0    0  501 -0.00000000000E+00 -0.00000000000E+00 -0.13625659297E+04  0.13625659297E+04  0.00000000000E+00 0.  1.
         25    1    1    2    0    0  0.54619925664E+02 -0.45428499864E+02 -0.52130318602E+03  0.53963329830E+03  0.12000000000E+03 0.  0.
         25    1    1    2    0    0 -0.54619925664E+02  0.45428499864E+02 -0.82625489857E+03  0.83794047658E+03  0.12000000000E+03 0.  0.
<mgrwt>
<rscale>  0 0.28600125E+03</rscale>
<asrwt>0</asrwt>
<pdfrwt beam="1">  1        1 0.23089002E-02 0.28600125E+03</pdfrwt>
<pdfrwt beam="2">  1       -1 0.20962544E+00 0.28600125E+03</pdfrwt>
<totfact> 0.71165563E+02</totfact>
</mgrwt>
</event>
<event>
 4    1  0.1759998E-004  0.3454431E+03  0.7818608E-02  0.1064501E+00
         -2   -1    0    0    0  501 -0.00000000000E+00  0.00000000000E+00  0.56848146085E+02  0.56848146085E+02  0.00000000000E+00 0.  1.
          2   -1    0    0  501    0  0.00000000000E+00 -0.00000000000E+00 -0.52477940971E+03  0.52477940971E+03  0.00000000000E+00 0.  1.
         25    1    1    2    0    0  0.11885102271E+02  0.89622108669E+02 -0.90510015762E+02  0.17540080094E+03  0.12000000000E+03 0.  0.
         25    1    1    2    0    0 -0.11885102271E+02 -0.89622108669E+02 -0.37742124786E+03  0.40622675485E+03  0.12000000000E+03 0.  0.
<mgrwt>
<rscale>  0 0.34544312E+03</rscale>
<asrwt>0</asrwt>
<pdfrwt beam="1">  1        2 0.80735291E-01 0.34544312E+03</pdfrwt>
<pdfrwt beam="2">  1       -2 0.87458689E-02 0.34544312E+03</pdfrwt>
<totfact> 0.48567393E+03</totfact>
</mgrwt>
</event>
<event>
 4    1  0.1759998E-004  0.2692360E+03  0.7818608E-02  0.1101718E+00
          1   -1    0    0  501    0  0.00000000000E+00  0.00000000000E+00  0.46221015730E+02  0.46221015730E+02  0.00000000000E+00 0.  1.
         -1   -1    0    0    0  501 -0.00000000000E+00 -0.00000000000E+00 -0.39207275426E+03  0.39207275426E+03  0.00000000000E+00 0.  1.
         25    1    1    2    0    0  0.33502846896E+02 -0.48241207214E+02 -0.19979123903E+03  0.24034598814E+03  0.12000000000E+03 0.  0.
         25    1    1    2    0    0 -0.33502846896E+02  0.48241207214E+02 -0.14606049950E+03  0.19794778185E+03  0.12000000000E+03 0.  0.
<mgrwt>
<rscale>  0 0.26923596E+03</rscale>
<asrwt>0</asrwt>
<pdfrwt beam="1">  1        1 0.71109258E-02 0.26923596E+03</pdfrwt>
<pdfrwt beam="2">  1       -1 0.60318883E-01 0.26923596E+03</pdfrwt>
<totfact> 0.29284840E+03</totfact>
</mgrwt>
</event>
<event>
 4    1  0.1759998E-004  0.4632888E+03  0.7818608E-02  0.1023832E+00
         -1   -1    0    0    0  501 -0.00000000000E+00  0.00000000000E+00  0.24411842974E+03  0.24411842974E+03  0.00000000000E+00 0.  1.
          1   -1    0    0  501    0  0.00000000000E+00 -0.00000000000E+00 -0.21980774588E+03  0.21980774588E+03  0.00000000000E+00 0.  1.
         25    1    1    2    0    0 -0.18198282658E+03  0.76239246215E+02  0.30317272208E+02  0.23291481023E+03  0.12000000000E+03 0.  0.
         25    1    1    2    0    0  0.18198282658E+03 -0.76239246215E+02 -0.60065883525E+01  0.23101136538E+03  0.12000000000E+03 0.  0.
<mgrwt>
<rscale>  0 0.46328877E+03</rscale>
<asrwt>0</asrwt>
<pdfrwt beam="1">  1        1 0.33816576E-01 0.46328877E+03</pdfrwt>
<pdfrwt beam="2">  1       -1 0.37556682E-01 0.46328877E+03</pdfrwt>
<totfact> 0.90151558E+02</totfact>
</mgrwt>
</event>
<event>
 4    1  0.1759998E-004  0.2514966E+03  0.7818608E-02  0.1112363E+00
          2   -1    0    0  501    0  0.00000000000E+00  0.00000000000E+00  0.11141488769E+04  0.11141488769E+04  0.00000000000E+00 0.  1.
         -2   -1    0    0    0  501 -0.00000000000E+00 -0.00000000000E+00 -0.14192572777E+02  0.14192572777E+02  0.00000000000E+00 0.  1.
         25    1    1    2    0    0 -0.29323921827E+02 -0.42320914828E+01  0.65373546021E+03  0.66531786007E+03  0.12000000000E+03 0.  0.
         25    1    1    2    0    0  0.29323921827E+02  0.42320914828E+01  0.44622084387E+03  0.46302358956E+03  0.12000000000E+03 0.  0.
<mgrwt>
<rscale>  0 0.25149663E+03</rscale>
<asrwt>0</asrwt>
<pdfrwt beam="1">  1        2 0.17140745E+00 0.25149663E+03</pdfrwt>
<pdfrwt beam="2">  1       -2 0.21834736E-02 0.25149663E+03</pdfrwt>
<totfact> 0.15130754E+04</totfact>
</mgrwt>
</event>
<event>
 4    1  0.1759998E-004  0.2493422E+03  0.7818608E-02  0.1113721E+00
          2   -1    0    0  501    0  0.00000000000E+00  0.00000000000E+00  0.19214859692E+02  0.19214859692E+02  0.00000000000E+00 0.  1.
         -2   -1    0    0    0  501 -0.00000000000E+00 -0.00000000000E+00 -0.80889881859E+03  0.80889881859E+03  0.00000000000E+00 0.  1.
         25    1    1    2    0    0 -0.12548895716E+02  0.13601240286E+02 -0.30088042864E+03  0.32445569938E+03  0.12000000000E+03 0.  0.
         25    1    1    2    0    0  0.12548895716E+02 -0.13601240286E+02 -0.48880353026E+03  0.50365797890E+03  0.12000000000E+03 0.  0.
<mgrwt>
<rscale>  0 0.24934215E+03</rscale>
<asrwt>0</asrwt>
<pdfrwt beam="1">  1        2 0.29561325E-02 0.24934215E+03</pdfrwt>
<pdfrwt beam="2">  1       -2 0.12444596E+00 0.24934215E+03</pdfrwt>
<totfact> 0.16164872E+03</totfact>
</mgrwt>
</event>
<event>
 4    1  0.1759998E-004  0.3143330E+03  0.7818608E-02  0.1078287E+00
          2   -1    0    0  501    0  0.00000000000E+00  0.00000000000E+00  0.75219500592E+03  0.75219500592E+03  0.00000000000E+00 0. -1.
         -2   -1    0    0    0  501 -0.00000000000E+00 -0.00000000000E+00 -0.32838970487E+02  0.32838970487E+02  0.00000000000E+00 0. -1.
         25    1    1    2    0    0 -0.68288518098E+01 -0.78037295460E+02  0.19850270913E+03  0.24482601625E+03  0.12000000000E+03 0.  0.
         25    1    1    2    0    0  0.68288518098E+01  0.78037295460E+02  0.52085332630E+03  0.54020796016E+03  0.12000000000E+03 0.  0.
<mgrwt>
<rscale>  0 0.31433301E+03</rscale>
<asrwt>0</asrwt>
<pdfrwt beam="1">  1        2 0.11572230E+00 0.31433301E+03</pdfrwt>
<pdfrwt beam="2">  1       -2 0.50521499E-02 0.31433301E+03</pdfrwt>
<totfact> 0.74056488E+03</totfact>
</mgrwt>
</event>
<event>
 4    1  0.1759998E-004  0.2870265E+03  0.7818608E-02  0.1091912E+00
          2   -1    0    0  501    0  0.00000000000E+00  0.00000000000E+00  0.20024208825E+04  0.20024208825E+04  0.00000000000E+00 0.  1.
         -2   -1    0    0    0  501 -0.00000000000E+00 -0.00000000000E+00 -0.10285577731E+02  0.10285577731E+02  0.00000000000E+00 0.  1.
         25    1    1    2    0    0  0.22437186668E+02 -0.49409264625E+01  0.46813126675E+03  0.48381269414E+03  0.12000000000E+03 0.  0.
         25    1    1    2    0    0 -0.22437186668E+02  0.49409264625E+01  0.15240040380E+04  0.15288937661E+04  0.12000000000E+03 0.  0.
<mgrwt>
<rscale>  0 0.28702652E+03</rscale>
<asrwt>0</asrwt>
<pdfrwt beam="1">  1        2 0.30806444E+00 0.28702652E+03</pdfrwt>
<pdfrwt beam="2">  1       -2 0.15823982E-02 0.28702652E+03</pdfrwt>
<totfact> 0.80841708E+03</totfact>
</mgrwt>
</event>
<event>
 4    1  0.1759998E-004  0.5720212E+03  0.7818608E-02  0.9965216E-01
         -2   -1    0    0    0  501 -0.00000000000E+00  0.00000000000E+00  0.25117813337E+02  0.25117813337E+02  0.00000000000E+00 0. -1.
          2   -1    0    0  501    0  0.00000000000E+00 -0.00000000000E+00 -0.32567346601E+04  0.32567346601E+04  0.00000000000E+00 0. -1.
         25    1    1    2    0    0  0.10333173152E+03  0.85834508506E+02 -0.34118608296E+03  0.38581466120E+03  0.12000000000E+03 0.  0.
         25    1    1    2    0    0 -0.10333173152E+03 -0.85834508506E+02 -0.28904307638E+04  0.28960378123E+04  0.12000000000E+03 0.  0.
<mgrwt>
<rscale>  0 0.57202116E+03</rscale>
<asrwt>0</asrwt>
<pdfrwt beam="1">  1        2 0.50103608E+00 0.57202116E+03</pdfrwt>
<pdfrwt beam="2">  1       -2 0.38642791E-02 0.57202116E+03</pdfrwt>
<totfact> 0.39839498E+02</totfact>
</mgrwt>
</event>
<event>
 4    1  0.1759998E-004  0.2788726E+03  0.7818608E-02  0.1096306E+00
          2   -1    0    0  501    0  0.00000000000E+00  0.00000000000E+00  0.63861470607E+03  0.63861470607E+03  0.00000000000E+00 0.  1.
         -2   -1    0    0    0  501 -0.00000000000E+00 -0.00000000000E+00 -0.30444766895E+02  0.30444766895E+02  0.00000000000E+00 0.  1.
         25    1    1    2    0    0  0.35381308487E+02  0.59168268134E+02  0.26324603985E+03  0.29740746198E+03  0.12000000000E+03 0.  0.
         25    1    1    2    0    0 -0.35381308487E+02 -0.59168268134E+02  0.34492389933E+03  0.37165201099E+03  0.12000000000E+03 0.  0.
<mgrwt>
<rscale>  0 0.27887256E+03</rscale>
<asrwt>0</asrwt>
<pdfrwt beam="1">  1        2 0.98248407E-01 0.27887256E+03</pdfrwt>
<pdfrwt beam="2">  1       -2 0.46838107E-02 0.27887256E+03</pdfrwt>
<totfact> 0.10099917E+04</totfact>
</mgrwt>
</event>
<event>
 4    1  0.1759998E-004  0.3798197E+03  0.7818608E-02  0.1051000E+00
          1   -1    0    0  501    0  0.00000000000E+00  0.00000000000E+00  0.83250879194E+03  0.83250879194E+03  0.00000000000E+00 0.  1.
         -1   -1    0    0    0  501 -0.00000000000E+00 -0.00000000000E+00 -0.43321776004E+02  0.43321776004E+02  0.00000000000E+00 0.  1.
         25    1    1    2    0    0  0.46914089619E+02 -0.12848731941E+03  0.51996036994E+03  0.55087994097E+03  0.12000000000E+03 0.  0.
         25    1    1    2    0    0 -0.46914089619E+02  0.12848731941E+03  0.26922664599E+03  0.32495062697E+03  0.12000000000E+03 0.  0.
<mgrwt>
<rscale>  0 0.37981974E+03</rscale>
<asrwt>0</asrwt>
<pdfrwt beam="1">  1        1 0.12807826E+00 0.37981974E+03</pdfrwt>
<pdfrwt beam="2">  1       -1 0.66648892E-02 0.37981974E+03</pdfrwt>
<totfact> 0.24722069E+03</totfact>
</mgrwt>
</event>
<event>
 4    1  0.1759998E-004  0.3475776E+03  0.7818608E-02  0.1063614E+00
          2   -1    0    0  501    0  0.00000000000E+00  0.00000000000E+00  0.51483189837E+03  0.51483189837E+03  0.00000000000E+00 0.  1.
         -2   -1    0    0    0  501 -0.00000000000E+00 -0.00000000000E+00 -0.58664862975E+02  0.58664862975E+02  0.00000000000E+00 0.  1.
         25    1    1    2    0    0  0.23207212351E+02 -0.11679945024E+03  0.16163497946E+03  0.23389431987E+03  0.12000000000E+03 0.  0.
         25    1    1    2    0    0 -0.23207212351E+02  0.11679945024E+03  0.29453205594E+03  0.33960244148E+03  0.12000000000E+03 0.  0.
<mgrwt>
<rscale>  0 0.34757758E+03</rscale>
<asrwt>0</asrwt>
<pdfrwt beam="1">  1        2 0.79204904E-01 0.34757758E+03</pdfrwt>
<pdfrwt beam="2">  1       -2 0.90253639E-02 0.34757758E+03</pdfrwt>
<totfact> 0.47228975E+03</totfact>
</mgrwt>
</event>
<event>
 4    1  0.1759998E-004  0.3154993E+03  0.7818608E-02  0.1077740E+00
          2   -1    0    0  501    0  0.00000000000E+00  0.00000000000E+00  0.19931038782E+03  0.19931038782E+03  0.00000000000E+00 0. -1.
         -2   -1    0    0    0  501 -0.00000000000E+00 -0.00000000000E+00 -0.12485524805E+03  0.12485524805E+03  0.00000000000E+00 0. -1.
         25    1    1    2    0    0  0.78797324494E+02  0.61912213298E+02  0.15606556334E+02  0.15711685175E+03  0.12000000000E+03 0.  0.
         25    1    1    2    0    0 -0.78797324494E+02 -0.61912213298E+02  0.58848583441E+02  0.16704878412E+03  0.12000000000E+03 0.  0.
<mgrwt>
<rscale>  0 0.31549927E+03</rscale>
<asrwt>0</asrwt>
<pdfrwt beam="1">  1        2 0.30663137E-01 0.31549927E+03</pdfrwt>
<pdfrwt beam="2">  1       -2 0.19208500E-01 0.31549927E+03</pdfrwt>
<totfact> 0.38568713E+03</totfact>
</mgrwt>
</event>
<event>
 4    1  0.1759998E-004  0.2549410E+03  0.7818608E-02  0.1110221E+00
          1   -1    0    0  501    0  0.00000000000E+00  0.00000000000E+00  0.74899563750E+03  0.74899563750E+03  0.00000000000E+00 0.  1.
         -1   -1    0    0    0  501 -0.00000000000E+00 -0.00000000000E+00 -0.21694022534E+02  0.21694022534E+02  0.00000000000E+00 0.  1.
         25    1    1    2    0    0 -0.20658216021E+02 -0.17554025244E+02  0.46454074462E+03  0.48055489708E+03  0.12000000000E+03 0.  0.
         25    1    1    2    0    0  0.20658216021E+02  0.17554025244E+02  0.26276087035E+03  0.29013476296E+03  0.12000000000E+03 0.  0.
<mgrwt>
<rscale>  0 0.25494100E+03</rscale>
<asrwt>0</asrwt>
<pdfrwt beam="1">  1        1 0.11523008E+00 0.25494100E+03</pdfrwt>
<pdfrwt beam="2">  1       -1 0.33375425E-02 0.25494100E+03</pdfrwt>
<totfact> 0.81613016E+03</totfact>
</mgrwt>
</event>
<event>
 4    1  0.1759998E-004  0.3194973E+03  0.7818608E-02  0.1075881E+00
          1   -1    0    0  501    0  0.00000000000E+00  0.00000000000E+00  0.14420646109E+04  0.14420646109E+04  0.00000000000E+00 0. -1.
         -1   -1    0    0    0  501 -0.00000000000E+00 -0.00000000000E+00 -0.17696590982E+02  0.17696590982E+02  0.00000000000E+00 0. -1.
         25    1    1    2    0    0  0.74572920444E+02  0.62932892214E+02  0.52954339432E+03  0.55166826613E+03  0.12000000000E+03 0.  0.
         25    1    1    2    0    0 -0.74572920444E+02 -0.62932892214E+02  0.89482462558E+03  0.90809293573E+03  0.12000000000E+03 0.  0.
<mgrwt>
<rscale>  0 0.31949728E+03</rscale>
<asrwt>0</asrwt>
<pdfrwt beam="1">  1        1 0.22185600E+00 0.31949728E+03</pdfrwt>
<pdfrwt beam="2">  1       -1 0.27225536E-02 0.31949728E+03</pdfrwt>
<totfact> 0.34102804E+03</totfact>
</mgrwt>
</event>
<event>
 4    1  0.1759998E-004  0.2414873E+03  0.7818608E-02  0.1118806E+00
          2   -1    0    0  501    0  0.00000000000E+00  0.00000000000E+00  0.20271614470E+04  0.20271614470E+04  0.00000000000E+00 0. -1.
         -2   -1    0    0    0  501 -0.00000000000E+00 -0.00000000000E+00 -0.71918460758E+01  0.71918460758E+01  0.00000000000E+00 0. -1.
         25    1    1    2    0    0 -0.82083444092E+01  0.10066336094E+02  0.10370541774E+04  0.10440546322E+04  0.12000000000E+03 0.  0.
         25    1    1    2    0    0  0.82083444092E+01 -0.10066336094E+02  0.98291542352E+03  0.99029866093E+03  0.12000000000E+03 0.  0.
<mgrwt>
<rscale>  0 0.24148733E+03</rscale>
<asrwt>0</asrwt>
<pdfrwt beam="1">  1        2 0.31187054E+00 0.24148733E+03</pdfrwt>
<pdfrwt beam="2">  1       -2 0.11064395E-02 0.24148733E+03</pdfrwt>
<totfact> 0.13188287E+04</totfact>
</mgrwt>
</event>
<event>
 4    1  0.1759998E-004  0.2436813E+03  0.7818608E-02  0.1117364E+00
         -1   -1    0    0    0  501 -0.00000000000E+00  0.00000000000E+00  0.83378923206E+01  0.83378923206E+01  0.00000000000E+00 0. -1.
          1   -1    0    0  501    0  0.00000000000E+00 -0.00000000000E+00 -0.17804437918E+04  0.17804437918E+04  0.00000000000E+00 0. -1.
         25    1    1    2    0    0  0.32139041326E+01  0.11624627114E+02 -0.75897524224E+03  0.76849780707E+03  0.12000000000E+03 0.  0.
         25    1    1    2    0    0 -0.32139041326E+01 -0.11624627114E+02 -0.10131306573E+04  0.10202838771E+04  0.12000000000E+03 0.  0.
<mgrwt>
<rscale>  0 0.24368134E+03</rscale>
<asrwt>0</asrwt>
<pdfrwt beam="1">  1        1 0.27391480E+00 0.24368134E+03</pdfrwt>
<pdfrwt beam="2">  1       -1 0.12827509E-02 0.24368134E+03</pdfrwt>
<totfact> 0.61300021E+03</totfact>
</mgrwt>
</event>
<event>
 4    1  0.1759998E-004  0.2906687E+03  0.7818608E-02  0.1090001E+00
          1   -1    0    0  501    0  0.00000000000E+00  0.00000000000E+00  0.54548257810E+03  0.54548257810E+03  0.00000000000E+00 0. -1.
         -1   -1    0    0    0  501 -0.00000000000E+00 -0.00000000000E+00 -0.38721822805E+02  0.38721822805E+02  0.00000000000E+00 0. -1.
         25    1    1    2    0    0 -0.52867837831E+01  0.56714203436E+02  0.13485588627E+03  0.18928962205E+03  0.12000000000E+03 0.  0.
         25    1    1    2    0    0  0.52867837831E+01 -0.56714203436E+02  0.37190486902E+03  0.39491477885E+03  0.12000000000E+03 0.  0.
<mgrwt>
<rscale>  0 0.29066874E+03</rscale>
<asrwt>0</asrwt>
<pdfrwt beam="1">  1        1 0.83920391E-01 0.29066874E+03</pdfrwt>
<pdfrwt beam="2">  1       -1 0.59572039E-02 0.29066874E+03</pdfrwt>
<totfact> 0.54098193E+03</totfact>
</mgrwt>
</event>
<event>
 4    1  0.1759998E-004  0.3355540E+03  0.7818608E-02  0.1068706E+00
          1   -1    0    0  501    0  0.00000000000E+00  0.00000000000E+00  0.18068619199E+03  0.18068619199E+03  0.00000000000E+00 0.  1.
         -1   -1    0    0    0  501 -0.00000000000E+00 -0.00000000000E+00 -0.15579008528E+03  0.15579008528E+03  0.00000000000E+00 0.  1.
         25    1    1    2    0    0  0.15962955782E+02  0.11202652005E+03 -0.18366855040E+02  0.16595812278E+03  0.12000000000E+03 0.  0.
         25    1    1    2    0    0 -0.15962955782E+02 -0.11202652005E+03  0.43262961758E+02  0.17051815449E+03  0.12000000000E+03 0.  0.
<mgrwt>
<rscale>  0 0.33555397E+03</rscale>
<asrwt>0</asrwt>
<pdfrwt beam="1">  1        1 0.27797876E-01 0.33555397E+03</pdfrwt>
<pdfrwt beam="2">  1       -1 0.23967705E-01 0.33555397E+03</pdfrwt>
<totfact> 0.25007232E+03</totfact>
</mgrwt>
</event>
<event>
 4    1  0.1759998E-004  0.2919535E+03  0.7818608E-02  0.1089334E+00
          2   -1    0    0  501    0  0.00000000000E+00  0.00000000000E+00  0.56919630337E+02  0.56919630337E+02  0.00000000000E+00 0.  1.
         -2   -1    0    0    0  501 -0.00000000000E+00 -0.00000000000E+00 -0.37437377739E+03  0.37437377739E+03  0.00000000000E+00 0.  1.
         25    1    1    2    0    0 -0.74218298886E+02 -0.20725642427E+02 -0.11268681471E+03  0.18175870365E+03  0.12000000000E+03 0.  0.
         25    1    1    2    0    0  0.74218298886E+02  0.20725642427E+02 -0.20476733234E+03  0.24953470407E+03  0.12000000000E+03 0.  0.
<mgrwt>
<rscale>  0 0.29195354E+03</rscale>
<asrwt>0</asrwt>
<pdfrwt beam="1">  1        2 0.87568662E-02 0.29195354E+03</pdfrwt>
<pdfrwt beam="2">  1       -2 0.57595966E-01 0.29195354E+03</pdfrwt>
<totfact> 0.21805630E+03</totfact>
</mgrwt>
</event>
<event>
 4    1  0.1759998E-004  0.2655620E+03  0.7818608E-02  0.1103847E+00
         -2   -1    0    0    0  501 -0.00000000000E+00  0.00000000000E+00  0.13681211041E+02  0.13681211041E+02  0.00000000000E+00 0. -1.
          2   -1    0    0  501    0  0.00000000000E+00 -0.00000000000E+00 -0.12886869142E+04  0.12886869142E+04  0.00000000000E+00 0. -1.
         25    1    1    2    0    0  0.95805357110E+01 -0.54541058462E+02 -0.57464416447E+03  0.58964602049E+03  0.12000000000E+03 0.  0.
         25    1    1    2    0    0 -0.95805357110E+01  0.54541058462E+02 -0.70036153867E+03  0.71272210473E+03  0.12000000000E+03 0.  0.
<mgrwt>
<rscale>  0 0.26556203E+03</rscale>
<asrwt>0</asrwt>
<pdfrwt beam="1">  1        2 0.19825963E+00 0.26556203E+03</pdfrwt>
<pdfrwt beam="2">  1       -2 0.21048006E-02 0.26556203E+03</pdfrwt>
<totfact> 0.12737482E+04</totfact>
</mgrwt>
</event>
<event>
 4    1  0.1759998E-004  0.2657340E+03  0.7818608E-02  0.1103746E+00
         -2   -1    0    0    0  501 -0.00000000000E+00  0.00000000000E+00  0.15592405949E+03  0.15592405949E+03  0.00000000000E+00 0. -1.
          2   -1    0    0  501    0  0.00000000000E+00 -0.00000000000E+00 -0.11321947456E+03  0.11321947456E+03  0.00000000000E+00 0. -1.
         25    1    1    2    0    0 -0.32477525999E+02 -0.30515055180E+02  0.57413639766E+02  0.14029356478E+03  0.12000000000E+03 0.  0.
         25    1    1    2    0    0  0.32477525999E+02  0.30515055180E+02 -0.14709054832E+02  0.12884996927E+03  0.12000000000E+03 0.  0.
<mgrwt>
<rscale>  0 0.26573400E+03</rscale>
<asrwt>0</asrwt>
<pdfrwt beam="1">  1        2 0.17418381E-01 0.26573400E+03</pdfrwt>
<pdfrwt beam="2">  1       -2 0.23988317E-01 0.26573400E+03</pdfrwt>
<totfact> 0.49492700E+03</totfact>
</mgrwt>
</event>
<event>
 4    1  0.1759998E-004  0.2676610E+03  0.7818608E-02  0.1102626E+00
         -1   -1    0    0    0  501 -0.00000000000E+00  0.00000000000E+00  0.16296351182E+03  0.16296351182E+03  0.00000000000E+00 0.  1.
          1   -1    0    0  501    0  0.00000000000E+00 -0.00000000000E+00 -0.10990559853E+03  0.10990559853E+03  0.00000000000E+00 0.  1.
         25    1    1    2    0    0 -0.37865276132E+02 -0.44388126560E+02  0.37050502220E+02  0.13848041244E+03  0.12000000000E+03 0.  0.
         25    1    1    2    0    0  0.37865276132E+02  0.44388126560E+02  0.16007411073E+02  0.13438869791E+03  0.12000000000E+03 0.  0.
<mgrwt>
<rscale>  0 0.26766100E+03</rscale>
<asrwt>0</asrwt>
<pdfrwt beam="1">  1        1 0.16908554E-01 0.26766100E+03</pdfrwt>
<pdfrwt beam="2">  1       -1 0.25071310E-01 0.26766100E+03</pdfrwt>
<totfact> 0.43754793E+03</totfact>
</mgrwt>
</event>
<event>
 4    1  0.1759998E-004  0.2954640E+03  0.7818608E-02  0.1087530E+00
          2   -1    0    0  501    0  0.00000000000E+00  0.00000000000E+00  0.38705407653E+03  0.38705407653E+03  0.00000000000E+00 0.  1.
         -2   -1    0    0    0  501 -0.00000000000E+00 -0.00000000000E+00 -0.56386793268E+02  0.56386793268E+02  0.00000000000E+00 0.  1.
         25    1    1    2    0    0 -0.74616515239E+02 -0.22458884135E+02  0.22053298758E+03  0.26288176893E+03  0.12000000000E+03 0.  0.
         25    1    1    2    0    0  0.74616515239E+02  0.22458884135E+02  0.11013429568E+03  0.18055910088E+03  0.12000000000E+03 0.  0.
<mgrwt>
<rscale>  0 0.29546396E+03</rscale>
<asrwt>0</asrwt>
<pdfrwt beam="1">  1        2 0.59546779E-01 0.29546396E+03</pdfrwt>
<pdfrwt beam="2">  1       -2 0.86748915E-02 0.29546396E+03</pdfrwt>
<totfact> 0.68668186E+03</totfact>
</mgrwt>
</event>
<event>
 4    1  0.1759998E-004  0.2809869E+03  0.7818608E-02  0.1095151E+00
          3   -1    0    0  501    0  0.00000000000E+00  0.00000000000E+00  0.16994027210E+03  0.16994027210E+03  0.00000000000E+00 0.  1.
         -3   -1    0    0    0  501 -0.00000000000E+00 -0.00000000000E+00 -0.11614912887E+03  0.11614912887E+03  0.00000000000E+00 0.  1.
         25    1    1    2    0    0 -0.20850596387E+02  0.60213447132E+02 -0.95028391916E+01  0.13620099316E+03  0.12000000000E+03 0.  0.
         25    1    1    2    0    0  0.20850596387E+02 -0.60213447132E+02  0.63293982419E+02  0.14988840781E+03  0.12000000000E+03 0.  0.
<mgrwt>
<rscale>  0 0.28098694E+03</rscale>
<asrwt>0</asrwt>
<pdfrwt beam="1">  1        3 0.26144657E-01 0.28098694E+03</pdfrwt>
<pdfrwt beam="2">  1       -3 0.17869097E-01 0.28098694E+03</pdfrwt>
<totfact> 0.96611371E+02</totfact>
</mgrwt>
</event>
<event>
 4    1  0.1759998E-004  0.3292707E+03  0.7818608E-02  0.1071460E+00
         -2   -1    0    0    0  501 -0.00000000000E+00  0.00000000000E+00  0.16312730972E+02  0.16312730972E+02  0.00000000000E+00 0. -1.
          2   -1    0    0  501    0  0.00000000000E+00 -0.00000000000E+00 -0.16615732166E+04  0.16615732166E+04  0.00000000000E+00 0. -1.
         25    1    1    2    0    0  0.10378286452E+03 -0.35274939975E+02 -0.95644549980E+03  0.97015627527E+03  0.12000000000E+03 0.  0.
         25    1    1    2    0    0 -0.10378286452E+03  0.35274939975E+02 -0.68881498586E+03  0.70772967234E+03  0.12000000000E+03 0.  0.
<mgrwt>
<rscale>  0 0.32927069E+03</rscale>
<asrwt>0</asrwt>
<pdfrwt beam="1">  1        2 0.25562662E+00 0.32927069E+03</pdfrwt>
<pdfrwt beam="2">  1       -2 0.25096512E-02 0.32927069E+03</pdfrwt>
<totfact> 0.61961933E+03</totfact>
</mgrwt>
</event>
<event>
 4    1  0.1759998E-004  0.2759010E+03  0.7818608E-02  0.1097949E+00
          3   -1    0    0  501    0  0.00000000000E+00  0.00000000000E+00  0.24064252102E+03  0.24064252102E+03  0.00000000000E+00 0. -1.
         -3   -1    0    0    0  501 -0.00000000000E+00 -0.00000000000E+00 -0.79081343663E+02  0.79081343663E+02  0.00000000000E+00 0. -1.
         25    1    1    2    0    0  0.14837674915E+02  0.57562582909E+02  0.11915758622E+03  0.17925439437E+03  0.12000000000E+03 0.  0.
         25    1    1    2    0    0 -0.14837674915E+02 -0.57562582909E+02  0.42403591137E+02  0.14046947031E+03  0.12000000000E+03 0.  0.
<mgrwt>
<rscale>  0 0.27590095E+03</rscale>
<asrwt>0</asrwt>
<pdfrwt beam="1">  1        3 0.37021926E-01 0.27590095E+03</pdfrwt>
<pdfrwt beam="2">  1       -3 0.12166361E-01 0.27590095E+03</pdfrwt>
<totfact> 0.97393835E+02</totfact>
</mgrwt>
</event>
<event>
 4    1  0.1759998E-004  0.4064112E+03  0.7818608E-02  0.1041582E+00
          2   -1    0    0  501    0  0.00000000000E+00  0.00000000000E+00  0.42817328641E+03  0.42817328641E+03  0.00000000000E+00 0. -1.
         -2   -1    0    0    0  501 -0.00000000000E+00 -0.00000000000E+00 -0.96438789433E+02  0.96438789433E+02  0.00000000000E+00 0. -1.
         25    1    1    2    0    0  0.33596927089E+02  0.13987468105E+03  0.26749857966E+03  0.32657184513E+03  0.12000000000E+03 0.  0.
         25    1    1    2    0    0 -0.33596927089E+02 -0.13987468105E+03  0.64235917324E+02  0.19804023072E+03  0.12000000000E+03 0.  0.
<mgrwt>
<rscale>  0 0.40641119E+03</rscale>
<asrwt>0</asrwt>
<pdfrwt beam="1">  1        2 0.65872812E-01 0.40641119E+03</pdfrwt>
<pdfrwt beam="2">  1       -2 0.14836737E-01 0.40641119E+03</pdfrwt>
<totfact> 0.25977159E+03</totfact>
</mgrwt>
</event>
<event>
 4    1  0.1759998E-004  0.2548603E+03  0.7818608E-02  0.1110271E+00
          2   -1    0    0  501    0  0.00000000000E+00  0.00000000000E+00  0.32658809010E+03  0.32658809010E+03  0.00000000000E+00 0. -1.
         -2   -1    0    0    0  501 -0.00000000000E+00 -0.00000000000E+00 -0.49721491141E+02  0.49721491141E+02  0.00000000000E+00 0. -1.
         25    1    1    2    0    0 -0.16903485346E+02  0.27368051586E+02  0.96573958309E+02  0.15735713358E+03  0.12000000000E+03 0.  0.
         25    1    1    2    0    0  0.16903485346E+02 -0.27368051586E+02  0.18029264065E+03  0.21895244766E+03  0.12000000000E+03 0.  0.
<mgrwt>
<rscale>  0 0.25486033E+03</rscale>
<asrwt>0</asrwt>
<pdfrwt beam="1">  1        2 0.50244320E-01 0.25486033E+03</pdfrwt>
<pdfrwt beam="2">  1       -2 0.76494604E-02 0.25486033E+03</pdfrwt>
<totfact> 0.99876873E+03</totfact>
</mgrwt>
</event>
<event>
 4    1  0.1759998E-004  0.3024851E+03  0.7818608E-02  0.1084005E+00
         -2   -1    0    0    0  501 -0.00000000000E+00  0.00000000000E+00  0.91146419163E+01  0.91146419163E+01  0.00000000000E+00 0. -1.
          2   -1    0    0  501    0  0.00000000000E+00 -0.00000000000E+00 -0.25096219196E+04  0.25096219196E+04  0.00000000000E+00 0. -1.
         25    1    1    2    0    0  0.62082084351E+02  0.17071416651E+02 -0.17980975906E+04  0.18032472275E+04  0.12000000000E+03 0.  0.
         25    1    1    2    0    0 -0.62082084351E+02 -0.17071416651E+02 -0.70240968711E+03  0.71548933396E+03  0.12000000000E+03 0.  0.
<mgrwt>
<rscale>  0 0.30248507E+03</rscale>
<asrwt>0</asrwt>
<pdfrwt beam="1">  1        2 0.38609622E+00 0.30248507E+03</pdfrwt>
<pdfrwt beam="2">  1       -2 0.14022506E-02 0.30248507E+03</pdfrwt>
<totfact> 0.51556955E+03</totfact>
</mgrwt>
</event>
<event>
 4    1  0.1759998E-004  0.3998894E+03  0.7818608E-02  0.1043818E+00
         -1   -1    0    0    0  501 -0.00000000000E+00  0.00000000000E+00  0.10349274650E+03  0.10349274650E+03  0.00000000000E+00 0.  1.
          1   -1    0    0  501    0  0.00000000000E+00 -0.00000000000E+00 -0.38628677529E+03  0.38628677529E+03  0.00000000000E+00 0.  1.
         25    1    1    2    0    0 -0.15809388138E+03 -0.77198958573E+01 -0.16944992127E+03  0.26108724201E+03  0.12000000000E+03 0.  0.
         25    1    1    2    0    0  0.15809388138E+03  0.77198958573E+01 -0.11334410752E+03  0.22869227978E+03  0.12000000000E+03 0.  0.
<mgrwt>
<rscale>  0 0.39988938E+03</rscale>
<asrwt>0</asrwt>
<pdfrwt beam="1">  1        1 0.59428735E-01 0.39988938E+03</pdfrwt>
<pdfrwt beam="2">  1       -1 0.15921961E-01 0.39988938E+03</pdfrwt>
<totfact> 0.18597855E+03</totfact>
</mgrwt>
</event>
<event>
 4    1  0.1759998E-004  0.2582399E+03  0.7818608E-02  0.1108205E+00
          1   -1    0    0  501    0  0.00000000000E+00  0.00000000000E+00  0.27798611271E+03  0.27798611271E+03  0.00000000000E+00 0.  1.
         -1   -1    0    0    0  501 -0.00000000000E+00 -0.00000000000E+00 -0.59974100611E+02  0.59974100611E+02  0.00000000000E+00 0.  1.
         25    1    1    2    0    0 -0.20494382243E+02  0.24428714565E+02  0.15537162682E+03  0.19888972879E+03  0.12000000000E+03 0.  0.
         25    1    1    2    0    0  0.20494382243E+02 -0.24428714565E+02  0.62640385279E+02  0.13907048453E+03  0.12000000000E+03 0.  0.
<mgrwt>
<rscale>  0 0.25823994E+03</rscale>
<asrwt>0</asrwt>
<pdfrwt beam="1">  1        1 0.42767094E-01 0.25823994E+03</pdfrwt>
<pdfrwt beam="2">  1       -1 0.92267848E-02 0.25823994E+03</pdfrwt>
<totfact> 0.65969666E+03</totfact>
</mgrwt>
</event>
<event>
 4    1  0.1759998E-004  0.2428532E+03  0.7818608E-02  0.1117907E+00
          1   -1    0    0  501    0  0.00000000000E+00  0.00000000000E+00  0.16579299615E+03  0.16579299615E+03  0.00000000000E+00 0. -1.
         -1   -1    0    0    0  501 -0.00000000000E+00 -0.00000000000E+00 -0.88932672896E+02  0.88932672896E+02  0.00000000000E+00 0. -1.
         25    1    1    2    0    0  0.62160030841E+01 -0.15691388597E+02  0.46524687934E+02  0.12980525782E+03  0.12000000000E+03 0.  0.
         25    1    1    2    0    0 -0.62160030841E+01  0.15691388597E+02  0.30335635320E+02  0.12492041123E+03  0.12000000000E+03 0.  0.
<mgrwt>
<rscale>  0 0.24285316E+03</rscale>
<asrwt>0</asrwt>
<pdfrwt beam="1">  1        1 0.25506615E-01 0.24285316E+03</pdfrwt>
<pdfrwt beam="2">  1       -1 0.13681950E-01 0.24285316E+03</pdfrwt>
<totfact> 0.68337873E+03</totfact>
</mgrwt>
</event>
<event>
 4    1  0.1759998E-004  0.3107062E+03  0.7818608E-02  0.1080008E+00
         -2   -1    0    0    0  501 -0.00000000000E+00  0.00000000000E+00  0.12975087488E+02  0.12975087488E+02  0.00000000000E+00 0. -1.
          2   -1    0    0  501    0  0.00000000000E+00 -0.00000000000E+00 -0.18600708466E+04  0.18600708466E+04  0.00000000000E+00 0. -1.
         25    1    1    2    0    0  0.70883447349E+02  0.30826013349E+02 -0.12931932653E+04  0.13010470889E+04  0.12000000000E+03 0.  0.
         25    1    1    2    0    0 -0.70883447349E+02 -0.30826013349E+02 -0.55390249387E+03  0.57199884521E+03  0.12000000000E+03 0.  0.
<mgrwt>
<rscale>  0 0.31070618E+03</rscale>
<asrwt>0</asrwt>
<pdfrwt beam="1">  1        2 0.28616468E+00 0.31070618E+03</pdfrwt>
<pdfrwt beam="2">  1       -2 0.19961678E-02 0.31070618E+03</pdfrwt>
<totfact> 0.68296908E+03</totfact>
</mgrwt>
</event>
<event>
 4    1  0.1759998E-004  0.3160297E+03  0.7818608E-02  0.1077491E+00
         -2   -1    0    0    0  501 -0.00000000000E+00  0.00000000000E+00  0.13923962950E+02  0.13923962950E+02  0.00000000000E+00 0.  1.
          2   -1    0    0  501    0  0.00000000000E+00 -0.00000000000E+00 -0.17932168463E+04  0.17932168463E+04  0.00000000000E+00 0.  1.
         25    1    1    2    0    0  0.26845433745E+02 -0.68060658442E+01 -0.32351857135E+03  0.34616652908E+03  0.12000000000E+03 0.  0.
         25    1    1    2    0    0 -0.26845433745E+02  0.68060658442E+01 -0.14557743120E+04  0.14609742802E+04  0.12000000000E+03 0.  0.
<mgrwt>
<rscale>  0 0.31602965E+03</rscale>
<asrwt>0</asrwt>
<pdfrwt beam="1">  1        2 0.27587923E+00 0.31602965E+03</pdfrwt>
<pdfrwt beam="2">  1       -2 0.21421503E-02 0.31602965E+03</pdfrwt>
<totfact> 0.66739681E+03</totfact>
</mgrwt>
</event>
<event>
 4    1  0.1759998E-004  0.3082144E+03  0.7818608E-02  0.1081205E+00
          4   -1    0    0  501    0  0.00000000000E+00  0.00000000000E+00  0.51521201590E+03  0.51521201590E+03  0.00000000000E+00 0. -1.
         -4   -1    0    0    0  501 -0.00000000000E+00 -0.00000000000E+00 -0.46095641831E+02  0.46095641831E+02  0.00000000000E+00 0. -1.
         25    1    1    2    0    0 -0.77315993924E+02 -0.53780446153E+02  0.19470310327E+03  0.24734469416E+03  0.12000000000E+03 0.  0.
         25    1    1    2    0    0  0.77315993924E+02  0.53780446153E+02  0.27441327080E+03  0.31396296357E+03  0.12000000000E+03 0.  0.
<mgrwt>
<rscale>  0 0.30821440E+03</rscale>
<asrwt>0</asrwt>
<pdfrwt beam="1">  1        4 0.79263383E-01 0.30821440E+03</pdfrwt>
<pdfrwt beam="2">  1       -4 0.70916375E-02 0.30821440E+03</pdfrwt>
<totfact> 0.37101456E+02</totfact>
</mgrwt>
</event>
<event>
 4    1  0.1759998E-004  0.2911591E+03  0.7818608E-02  0.1089745E+00
          3   -1    0    0  501    0  0.00000000000E+00  0.00000000000E+00  0.44034696826E+02  0.44034696826E+02  0.00000000000E+00 0.  1.
         -3   -1    0    0    0  501 -0.00000000000E+00 -0.00000000000E+00 -0.48128890124E+03  0.48128890124E+03  0.00000000000E+00 0.  1.
         25    1    1    2    0    0  0.29249789441E+02  0.68055063682E+02 -0.15341481763E+03  0.20838221648E+03  0.12000000000E+03 0.  0.
         25    1    1    2    0    0 -0.29249789441E+02 -0.68055063682E+02 -0.28383938679E+03  0.31694138159E+03  0.12000000000E+03 0.  0.
<mgrwt>
<rscale>  0 0.29115914E+03</rscale>
<asrwt>0</asrwt>
<pdfrwt beam="1">  1        3 0.67745689E-02 0.29115914E+03</pdfrwt>
<pdfrwt beam="2">  1       -3 0.74044445E-01 0.29115914E+03</pdfrwt>
<totfact> 0.62999003E+02</totfact>
</mgrwt>
</event>
<event>
 4    1  0.1759998E-004  0.3385917E+03  0.7818608E-02  0.1067397E+00
          2   -1    0    0  501    0  0.00000000000E+00  0.00000000000E+00  0.40065819679E+03  0.40065819679E+03  0.00000000000E+00 0.  1.
         -2   -1    0    0    0  501 -0.00000000000E+00 -0.00000000000E+00 -0.71534994692E+02  0.71534994692E+02  0.00000000000E+00 0.  1.
         25    1    1    2    0    0 -0.49186604757E+01  0.97588235841E+02  0.26030563780E+03  0.30283111145E+03  0.12000000000E+03 0.  0.
         25    1    1    2    0    0  0.49186604757E+01 -0.97588235841E+02  0.68817564303E+02  0.16936208003E+03  0.12000000000E+03 0.  0.
<mgrwt>
<rscale>  0 0.33859168E+03</rscale>
<asrwt>0</asrwt>
<pdfrwt beam="1">  1        2 0.61639721E-01 0.33859168E+03</pdfrwt>
<pdfrwt beam="2">  1       -2 0.11005384E-01 0.33859168E+03</pdfrwt>
<totfact> 0.45445634E+03</totfact>
</mgrwt>
</event>
<event>
 4    1  0.1759998E-004  0.2518308E+03  0.7818608E-02  0.1112153E+00
         -2   -1    0    0    0  501 -0.00000000000E+00  0.00000000000E+00  0.16734363197E+02  0.16734363197E+02  0.00000000000E+00 0.  1.
          2   -1    0    0  501    0  0.00000000000E+00 -0.00000000000E+00 -0.94743314610E+03  0.94743314610E+03  0.00000000000E+00 0.  1.
         25    1    1    2    0    0  0.10576883050E+02  0.34033470660E+02 -0.51736002658E+03  0.53228896727E+03  0.12000000000E+03 0.  0.
         25    1    1    2    0    0 -0.10576883050E+02 -0.34033470660E+02 -0.41333875633E+03  0.43187854202E+03  0.12000000000E+03 0.  0.
<mgrwt>
<rscale>  0 0.25183082E+03</rscale>
<asrwt>0</asrwt>
<pdfrwt beam="1">  1        2 0.14575900E+00 0.25183082E+03</pdfrwt>
<pdfrwt beam="2">  1       -2 0.25745164E-02 0.25183082E+03</pdfrwt>
<totfact> 0.14958439E+04</totfact>
</mgrwt>
</event>
<event>
 4    1  0.1759998E-004  0.5024145E+03  0.7818608E-02  0.1013151E+00
          1   -1    0    0  501    0  0.00000000000E+00  0.00000000000E+00  0.54903328255E+03  0.54903328255E+03  0.00000000000E+00 0. -1.
         -1   -1    0    0    0  501 -0.00000000000E+00 -0.00000000000E+00 -0.11493852065E+03  0.11493852065E+03  0.00000000000E+00 0. -1.
         25    1    1    2    0    0  0.15706259676E+02 -0.20955307165E+03  0.12794336221E+03  0.27373103654E+03  0.12000000000E+03 0.  0.
         25    1    1    2    0    0 -0.15706259676E+02  0.20955307165E+03  0.30615139969E+03  0.39024076666E+03  0.12000000000E+03 0.  0.
<mgrwt>
<rscale>  0 0.50241446E+03</rscale>
<asrwt>0</asrwt>
<pdfrwt beam="1">  1        1 0.84466657E-01 0.50241446E+03</pdfrwt>
<pdfrwt beam="2">  1       -1 0.17682850E-01 0.50241446E+03</pdfrwt>
<totfact> 0.98095149E+02</totfact>
</mgrwt>
</event>
<event>
 4    1  0.1759998E-004  0.3329603E+03  0.7818608E-02  0.1069834E+00
          2   -1    0    0  501    0  0.00000000000E+00  0.00000000000E+00  0.48935632004E+03  0.48935632004E+03  0.00000000000E+00 0. -1.
         -2   -1    0    0    0  501 -0.00000000000E+00 -0.00000000000E+00 -0.56636937097E+02  0.56636937097E+02  0.00000000000E+00 0. -1.
         25    1    1    2    0    0 -0.84410855801E+02 -0.54483305045E+02  0.30944023704E+03  0.34676632392E+03  0.12000000000E+03 0.  0.
         25    1    1    2    0    0  0.84410855801E+02  0.54483305045E+02  0.12327914591E+03  0.19922693322E+03  0.12000000000E+03 0.  0.
<mgrwt>
<rscale>  0 0.33296032E+03</rscale>
<asrwt>0</asrwt>
<pdfrwt beam="1">  1        2 0.75285585E-01 0.33296032E+03</pdfrwt>
<pdfrwt beam="2">  1       -2 0.87133752E-02 0.33296032E+03</pdfrwt>
<totfact> 0.52826774E+03</totfact>
</mgrwt>
</event>
<event>
 4    1  0.1759998E-004  0.2574767E+03  0.7818608E-02  0.1108669E+00
         -1   -1    0    0    0  501 -0.00000000000E+00  0.00000000000E+00  0.32318601303E+02  0.32318601303E+02  0.00000000000E+00 0.  1.
          1   -1    0    0  501    0  0.00000000000E+00 -0.00000000000E+00 -0.51281794626E+03  0.51281794626E+03  0.00000000000E+00 0.  1.
         25    1    1    2    0    0 -0.37773540503E+02 -0.25888142632E+02 -0.25877056303E+03  0.28889313003E+03  0.12000000000E+03 0.  0.
         25    1    1    2    0    0  0.37773540503E+02  0.25888142632E+02 -0.22172878193E+03  0.25624341753E+03  0.12000000000E+03 0.  0.
<mgrwt>
<rscale>  0 0.25747667E+03</rscale>
<asrwt>0</asrwt>
<pdfrwt beam="1">  1        1 0.78895070E-01 0.25747667E+03</pdfrwt>
<pdfrwt beam="2">  1       -1 0.49720924E-02 0.25747667E+03</pdfrwt>
<totfact> 0.76845510E+03</totfact>
</mgrwt>
</event>
<event>
 4    1  0.1759998E-004  0.3133237E+03  0.7818608E-02  0.1078764E+00
          2   -1    0    0  501    0  0.00000000000E+00  0.00000000000E+00  0.13760543312E+04  0.13760543312E+04  0.00000000000E+00 0.  1.
         -2   -1    0    0    0  501 -0.00000000000E+00 -0.00000000000E+00 -0.17835730635E+02  0.17835730635E+02  0.00000000000E+00 0.  1.
         25    1    1    2    0    0  0.66004068059E+01  0.57565004810E+02  0.10455727506E+04  0.10540302044E+04  0.12000000000E+03 0.  0.
         25    1    1    2    0    0 -0.66004068059E+01 -0.57565004810E+02  0.31264585004E+03  0.33985985744E+03  0.12000000000E+03 0.  0.
<mgrwt>
<rscale>  0 0.31332369E+03</rscale>
<asrwt>0</asrwt>
<pdfrwt beam="1">  1        2 0.21170058E+00 0.31332369E+03</pdfrwt>
<pdfrwt beam="2">  1       -2 0.27439596E-02 0.31332369E+03</pdfrwt>
<totfact> 0.77256351E+03</totfact>
</mgrwt>
</event>
<event>
 4    1  0.1759998E-004  0.2970844E+03  0.7818608E-02  0.1086707E+00
          1   -1    0    0  501    0  0.00000000000E+00  0.00000000000E+00  0.25978563123E+04  0.25978563123E+04  0.00000000000E+00 0.  1.
         -1   -1    0    0    0  501 -0.00000000000E+00 -0.00000000000E+00 -0.84934578980E+01  0.84934578980E+01  0.00000000000E+00 0.  1.
         25    1    1    2    0    0 -0.44896111651E+02 -0.43912045568E+01  0.19529466081E+04  0.19571498148E+04  0.12000000000E+03 0.  0.
         25    1    1    2    0    0  0.44896111651E+02  0.43912045568E+01  0.63641624627E+03  0.64919995536E+03  0.12000000000E+03 0.  0.
<mgrwt>
<rscale>  0 0.29708439E+03</rscale>
<asrwt>0</asrwt>
<pdfrwt beam="1">  1        1 0.39966957E+00 0.29708439E+03</pdfrwt>
<pdfrwt beam="2">  1       -1 0.13066879E-02 0.29708439E+03</pdfrwt>
<totfact> 0.17376444E+03</totfact>
</mgrwt>
</event>
<event>
 4    1  0.1759998E-004  0.3172423E+03  0.7818608E-02  0.1076926E+00
         -1   -1    0    0    0  501 -0.00000000000E+00  0.00000000000E+00  0.69283612807E+02  0.69283612807E+02  0.00000000000E+00 0.  1.
          1   -1    0    0  501    0  0.00000000000E+00 -0.00000000000E+00 -0.36315465664E+03  0.36315465664E+03  0.00000000000E+00 0.  1.
         25    1    1    2    0    0  0.46185854309E+02  0.43761982629E+02 -0.35256219898E+02  0.14032549770E+03  0.12000000000E+03 0.  0.
         25    1    1    2    0    0 -0.46185854309E+02 -0.43761982629E+02 -0.25861482394E+03  0.29211277176E+03  0.12000000000E+03 0.  0.
<mgrwt>
<rscale>  0 0.31724228E+03</rscale>
<asrwt>0</asrwt>
<pdfrwt beam="1">  1        1 0.55869946E-01 0.31724228E+03</pdfrwt>
<pdfrwt beam="2">  1       -1 0.10659018E-01 0.31724228E+03</pdfrwt>
<totfact> 0.37875730E+03</totfact>
</mgrwt>
</event>
<event>
 4    1  0.1759998E-004  0.3679626E+03  0.7818608E-02  0.1055475E+00
          2   -1    0    0  501    0  0.00000000000E+00  0.00000000000E+00  0.18137262276E+04  0.18137262276E+04  0.00000000000E+00 0.  1.
         -2   -1    0    0    0  501 -0.00000000000E+00 -0.00000000000E+00 -0.18662747052E+02  0.18662747052E+02  0.00000000000E+00 0.  1.
         25    1    1    2    0    0  0.12718192424E+03 -0.36550704415E+02  0.67831096129E+03  0.70143920339E+03  0.12000000000E+03 0.  0.
         25    1    1    2    0    0 -0.12718192424E+03  0.36550704415E+02  0.11167525192E+04  0.11309497712E+04  0.12000000000E+03 0.  0.
<mgrwt>
<rscale>  0 0.36796257E+03</rscale>
<asrwt>0</asrwt>
<pdfrwt beam="1">  1        2 0.27903467E+00 0.36796257E+03</pdfrwt>
<pdfrwt beam="2">  1       -2 0.28711933E-02 0.36796257E+03</pdfrwt>
<totfact> 0.42071996E+03</totfact>
</mgrwt>
</event>
<event>
 4    1  0.1759998E-004  0.2786782E+03  0.7818608E-02  0.1096413E+00
         -1   -1    0    0    0  501 -0.00000000000E+00  0.00000000000E+00  0.97302237539E+02  0.97302237539E+02  0.00000000000E+00 0. -1.
          1   -1    0    0  501    0  0.00000000000E+00 -0.00000000000E+00 -0.19953687926E+03  0.19953687926E+03  0.00000000000E+00 0. -1.
         25    1    1    2    0    0  0.22983718823E+02 -0.63834800404E+02 -0.29490166128E+02  0.14097092953E+03  0.12000000000E+03 0.  0.
         25    1    1    2    0    0 -0.22983718823E+02  0.63834800404E+02 -0.72744475590E+02  0.15586818727E+03  0.12000000000E+03 0.  0.
<mgrwt>
<rscale>  0 0.27867820E+03</rscale>
<asrwt>0</asrwt>
<pdfrwt beam="1">  1        1 0.30697981E-01 0.27867820E+03</pdfrwt>
<pdfrwt beam="2">  1       -1 0.14969575E-01 0.27867820E+03</pdfrwt>
<totfact> 0.47144856E+03</totfact>
</mgrwt>
</event>
<event>
 4    1  0.1759998E-004  0.3973130E+03  0.7818608E-02  0.1044714E+00
         -2   -1    0    0    0  501 -0.00000000000E+00  0.00000000000E+00  0.88871690617E+02  0.88871690617E+02  0.00000000000E+00 0.  1.
          2   -1    0    0  501    0  0.00000000000E+00 -0.00000000000E+00 -0.44406048178E+03  0.44406048178E+03  0.00000000000E+00 0.  1.
         25    1    1    2    0    0 -0.12331451406E+03  0.92772827073E+02 -0.22503955699E+03  0.29808735134E+03  0.12000000000E+03 0.  0.
         25    1    1    2    0    0  0.12331451406E+03 -0.92772827073E+02 -0.13014923418E+03  0.23484482106E+03  0.12000000000E+03 0.  0.
<mgrwt>
<rscale>  0 0.39731300E+03</rscale>
<asrwt>0</asrwt>
<pdfrwt beam="1">  1        2 0.68316997E-01 0.39731300E+03</pdfrwt>
<pdfrwt beam="2">  1       -2 0.13672568E-01 0.39731300E+03</pdfrwt>
<totfact> 0.28557639E+03</totfact>
</mgrwt>
</event>
<event>
 4    1  0.1759998E-004  0.2564595E+03  0.7818608E-02  0.1109289E+00
         -2   -1    0    0    0  501 -0.00000000000E+00  0.00000000000E+00  0.65978368542E+01  0.65978368542E+01  0.00000000000E+00 0.  1.
          2   -1    0    0  501    0  0.00000000000E+00 -0.00000000000E+00 -0.24921596906E+04  0.24921596906E+04  0.00000000000E+00 0.  1.
         25    1    1    2    0    0 -0.41642443230E+02  0.17085342386E+02 -0.12027728463E+04  0.12095819616E+04  0.12000000000E+03 0.  0.
         25    1    1    2    0    0  0.41642443230E+02 -0.17085342386E+02 -0.12827890075E+04  0.12891755659E+04  0.12000000000E+03 0.  0.
<mgrwt>
<rscale>  0 0.25645946E+03</rscale>
<asrwt>0</asrwt>
<pdfrwt beam="1">  1        2 0.38340987E+00 0.25645946E+03</pdfrwt>
<pdfrwt beam="2">  1       -2 0.10150500E-02 0.25645946E+03</pdfrwt>
<totfact> 0.84481105E+03</totfact>
</mgrwt>
</event>
<event>
 4    1  0.1759998E-004  0.2841985E+03  0.7818608E-02  0.1093418E+00
          1   -1    0    0  501    0  0.00000000000E+00  0.00000000000E+00  0.13585540284E+04  0.13585540284E+04  0.00000000000E+00 0.  1.
         -1   -1    0    0    0  501 -0.00000000000E+00 -0.00000000000E+00 -0.14863007211E+02  0.14863007211E+02  0.00000000000E+00 0.  1.
         25    1    1    2    0    0  0.13832547400E+02 -0.30446820495E+01  0.10332123093E+04  0.10402539525E+04  0.12000000000E+03 0.  0.
         25    1    1    2    0    0 -0.13832547400E+02  0.30446820495E+01  0.31047871185E+03  0.33316308314E+03  0.12000000000E+03 0.  0.
<mgrwt>
<rscale>  0 0.28419851E+03</rscale>
<asrwt>0</asrwt>
<pdfrwt beam="1">  1        1 0.20900821E+00 0.28419851E+03</pdfrwt>
<pdfrwt beam="2">  1       -1 0.22866176E-02 0.28419851E+03</pdfrwt>
<totfact> 0.50172067E+03</totfact>
</mgrwt>
</event>
<event>
 4    1  0.1759998E-004  0.3127144E+03  0.7818608E-02  0.1079052E+00
         -2   -1    0    0    0  501 -0.00000000000E+00  0.00000000000E+00  0.64983127799E+02  0.64983127799E+02  0.00000000000E+00 0.  1.
          2   -1    0    0  501    0  0.00000000000E+00 -0.00000000000E+00 -0.37621423374E+03  0.37621423374E+03  0.00000000000E+00 0.  1.
         25    1    1    2    0    0 -0.27503172664E+02  0.81645702100E+02 -0.22790262007E+03  0.27159169614E+03  0.12000000000E+03 0.  0.
         25    1    1    2    0    0  0.27503172664E+02 -0.81645702100E+02 -0.83328485874E+02  0.16960566540E+03  0.12000000000E+03 0.  0.
<mgrwt>
<rscale>  0 0.31271442E+03</rscale>
<asrwt>0</asrwt>
<pdfrwt beam="1">  1        2 0.57879113E-01 0.31271442E+03</pdfrwt>
<pdfrwt beam="2">  1       -2 0.99974043E-02 0.31271442E+03</pdfrwt>
<totfact> 0.56659026E+03</totfact>
</mgrwt>
</event>
<event>
 4    1  0.1759998E-004  0.2562158E+03  0.7818608E-02  0.1109438E+00
          2   -1    0    0  501    0  0.00000000000E+00  0.00000000000E+00  0.42055809753E+02  0.42055809753E+02  0.00000000000E+00 0. -1.
         -2   -1    0    0    0  501 -0.00000000000E+00 -0.00000000000E+00 -0.39023449923E+03  0.39023449923E+03  0.00000000000E+00 0. -1.
         25    1    1    2    0    0  0.22085260100E+02  0.38527503801E+02 -0.18469338815E+03  0.22468594725E+03  0.12000000000E+03 0.  0.
         25    1    1    2    0    0 -0.22085260100E+02 -0.38527503801E+02 -0.16348530133E+03  0.20760436174E+03  0.12000000000E+03 0.  0.
<mgrwt>
<rscale>  0 0.25621575E+03</rscale>
<asrwt>0</asrwt>
<pdfrwt beam="1">  1        2 0.64701245E-02 0.25621575E+03</pdfrwt>
<pdfrwt beam="2">  1       -2 0.60036077E-01 0.25621575E+03</pdfrwt>
<totfact> 0.29362017E+03</totfact>
</mgrwt>
</event>
<event>
 4    1  0.1759998E-004  0.4044659E+03  0.7818608E-02  0.1042244E+00
          1   -1    0    0  501    0  0.00000000000E+00  0.00000000000E+00  0.31337918491E+03  0.31337918491E+03  0.00000000000E+00 0.  1.
         -1   -1    0    0    0  501 -0.00000000000E+00 -0.00000000000E+00 -0.13050697676E+03  0.13050697676E+03  0.00000000000E+00 0.  1.
         25    1    1    2    0    0  0.50982141678E+02  0.15376892639E+03  0.10893051310E+03  0.22915042696E+03  0.12000000000E+03 0.  0.
         25    1    1    2    0    0 -0.50982141678E+02 -0.15376892639E+03  0.73941695041E+02  0.21473573471E+03  0.12000000000E+03 0.  0.
<mgrwt>
<rscale>  0 0.40446592E+03</rscale>
<asrwt>0</asrwt>
<pdfrwt beam="1">  1        1 0.48212182E-01 0.40446592E+03</pdfrwt>
<pdfrwt beam="2">  1       -1 0.20077997E-01 0.40446592E+03</pdfrwt>
<totfact> 0.16688343E+03</totfact>
</mgrwt>
</event>
<event>
 4    1  0.1759998E-004  0.3154694E+03  0.7818608E-02  0.1077754E+00
         -2   -1    0    0    0  501 -0.00000000000E+00  0.00000000000E+00  0.12522287839E+02  0.12522287839E+02  0.00000000000E+00 0. -1.
          2   -1    0    0  501    0  0.00000000000E+00 -0.00000000000E+00 -0.19868763953E+04  0.19868763953E+04  0.00000000000E+00 0. -1.
         25    1    1    2    0    0  0.31882600014E+02 -0.20245982792E+02 -0.15902342474E+04  0.15952026083E+04  0.12000000000E+03 0.  0.
         25    1    1    2    0    0 -0.31882600014E+02  0.20245982792E+02 -0.38411986009E+03  0.40419607484E+03  0.12000000000E+03 0.  0.
<mgrwt>
<rscale>  0 0.31546942E+03</rscale>
<asrwt>0</asrwt>
<pdfrwt beam="1">  1        2 0.30567306E+00 0.31546942E+03</pdfrwt>
<pdfrwt beam="2">  1       -2 0.19265073E-02 0.31546942E+03</pdfrwt>
<totfact> 0.61695870E+03</totfact>
</mgrwt>
</event>
<event>
 4    1  0.1759998E-004  0.2788416E+03  0.7818608E-02  0.1096323E+00
          2   -1    0    0  501    0  0.00000000000E+00  0.00000000000E+00  0.42287865610E+02  0.42287865610E+02  0.00000000000E+00 0.  1.
         -2   -1    0    0    0  501 -0.00000000000E+00 -0.00000000000E+00 -0.45966272206E+03  0.45966272206E+03  0.00000000000E+00 0.  1.
         25    1    1    2    0    0 -0.20109550578E+02 -0.22638194911E+02 -0.93124332905E+02  0.15488390256E+03  0.12000000000E+03 0.  0.
         25    1    1    2    0    0  0.20109550578E+02  0.22638194911E+02 -0.32425052354E+03  0.34706668511E+03  0.12000000000E+03 0.  0.
<mgrwt>
<rscale>  0 0.27884157E+03</rscale>
<asrwt>0</asrwt>
<pdfrwt beam="1">  1        2 0.65058254E-02 0.27884157E+03</pdfrwt>
<pdfrwt beam="2">  1       -2 0.70717342E-01 0.27884157E+03</pdfrwt>
<totfact> 0.20699471E+03</totfact>
</mgrwt>
</event>
<event>
 4    1  0.1759998E-004  0.3102951E+03  0.7818608E-02  0.1080205E+00
         -1   -1    0    0    0  501 -0.00000000000E+00  0.00000000000E+00  0.12274495458E+02  0.12274495458E+02  0.00000000000E+00 0. -1.
          1   -1    0    0  501    0  0.00000000000E+00 -0.00000000000E+00 -0.19610388750E+04  0.19610388750E+04  0.00000000000E+00 0. -1.
         25    1    1    2    0    0  0.35475709404E+02 -0.19167587995E+02 -0.40398174924E+03  0.42335230732E+03  0.12000000000E+03 0.  0.
         25    1    1    2    0    0 -0.35475709404E+02  0.19167587995E+02 -0.15447826303E+04  0.15499610632E+04  0.12000000000E+03 0.  0.
<mgrwt>
<rscale>  0 0.31029510E+03</rscale>
<asrwt>0</asrwt>
<pdfrwt beam="1">  1        1 0.30169814E+00 0.31029510E+03</pdfrwt>
<pdfrwt beam="2">  1       -1 0.18883848E-02 0.31029510E+03</pdfrwt>
<totfact> 0.26643572E+03</totfact>
</mgrwt>
</event>
<event>
 4    1  0.1759998E-004  0.2722436E+03  0.7818608E-02  0.1100002E+00
          1   -1    0    0  501    0  0.00000000000E+00  0.00000000000E+00  0.17733257584E+03  0.17733257584E+03  0.00000000000E+00 0.  1.
         -1   -1    0    0    0  501 -0.00000000000E+00 -0.00000000000E+00 -0.10448807947E+03  0.10448807947E+03  0.00000000000E+00 0.  1.
         25    1    1    2    0    0  0.60915861703E+02 -0.12466598813E+02  0.19635051114E+02  0.13657120313E+03  0.12000000000E+03 0.  0.
         25    1    1    2    0    0 -0.60915861703E+02  0.12466598813E+02  0.53209445259E+02  0.14524945218E+03  0.12000000000E+03 0.  0.
<mgrwt>
<rscale>  0 0.27224357E+03</rscale>
<asrwt>0</asrwt>
<pdfrwt beam="1">  1        1 0.27281935E-01 0.27224357E+03</pdfrwt>
<pdfrwt beam="2">  1       -1 0.16075089E-01 0.27224357E+03</pdfrwt>
<totfact> 0.48823210E+03</totfact>
</mgrwt>
</event>
<event>
 4    1  0.1759998E-004  0.2653660E+03  0.7818608E-02  0.1103961E+00
          2   -1    0    0  501    0  0.00000000000E+00  0.00000000000E+00  0.76565534262E+03  0.76565534262E+03  0.00000000000E+00 0.  1.
         -2   -1    0    0    0  501 -0.00000000000E+00 -0.00000000000E+00 -0.22993082997E+02  0.22993082997E+02  0.00000000000E+00 0.  1.
         25    1    1    2    0    0  0.40243144068E+02  0.38456905680E+02  0.40197696076E+03  0.42318308239E+03  0.12000000000E+03 0.  0.
         25    1    1    2    0    0 -0.40243144068E+02 -0.38456905680E+02  0.34068529886E+03  0.36546534322E+03  0.12000000000E+03 0.  0.
<mgrwt>
<rscale>  0 0.26536599E+03</rscale>
<asrwt>0</asrwt>
<pdfrwt beam="1">  1        2 0.11779311E+00 0.26536599E+03</pdfrwt>
<pdfrwt beam="2">  1       -2 0.35373980E-02 0.26536599E+03</pdfrwt>
<totfact> 0.12342098E+04</totfact>
</mgrwt>
</event>
<event>
 4    1  0.1759998E-004  0.2843619E+03  0.7818608E-02  0.1093330E+00
          1   -1    0    0  501    0  0.00000000000E+00  0.00000000000E+00  0.12556019745E+04  0.12556019745E+04  0.00000000000E+00 0.  1.
         -1   -1    0    0    0  501 -0.00000000000E+00 -0.00000000000E+00 -0.16100185777E+02  0.16100185777E+02  0.00000000000E+00 0.  1.
         25    1    1    2    0    0  0.73708651013E+02 -0.19380165943E+02  0.63147177566E+03  0.64727518068E+03  0.12000000000E+03 0.  0.
         25    1    1    2    0    0 -0.73708651013E+02  0.19380165943E+02  0.60803001307E+03  0.62442697961E+03  0.12000000000E+03 0.  0.
<mgrwt>
<rscale>  0 0.28436192E+03</rscale>
<asrwt>0</asrwt>
<pdfrwt beam="1">  1        1 0.19316946E+00 0.28436192E+03</pdfrwt>
<pdfrwt beam="2">  1       -1 0.24769526E-02 0.28436192E+03</pdfrwt>
<totfact> 0.52463064E+03</totfact>
</mgrwt>
</event>
<event>
 4    1  0.1759998E-004  0.2691329E+03  0.7818608E-02  0.1101777E+00
          3   -1    0    0  501    0  0.00000000000E+00  0.00000000000E+00  0.28022524975E+03  0.28022524975E+03  0.00000000000E+00 0.  1.
         -3   -1    0    0    0  501 -0.00000000000E+00 -0.00000000000E+00 -0.64619897650E+02  0.64619897650E+02  0.00000000000E+00 0.  1.
         25    1    1    2    0    0 -0.26459704051E+02  0.54734210743E+02  0.11227394671E+03  0.17521811800E+03  0.12000000000E+03 0.  0.
         25    1    1    2    0    0  0.26459704051E+02 -0.54734210743E+02  0.10333140538E+03  0.16962702940E+03  0.12000000000E+03 0.  0.
<mgrwt>
<rscale>  0 0.26913288E+03</rscale>
<asrwt>0</asrwt>
<pdfrwt beam="1">  1        3 0.43111576E-01 0.26913288E+03</pdfrwt>
<pdfrwt beam="2">  1       -3 0.99415228E-02 0.26913288E+03</pdfrwt>
<totfact> 0.10143834E+03</totfact>
</mgrwt>
</event>
<event>
 4    1  0.1759998E-004  0.2921336E+03  0.7818608E-02  0.1089240E+00
         -3   -1    0    0    0  501 -0.00000000000E+00  0.00000000000E+00  0.24946456488E+03  0.24946456488E+03  0.00000000000E+00 0.  1.
          3   -1    0    0  501    0  0.00000000000E+00 -0.00000000000E+00 -0.85525205504E+02  0.85525205504E+02  0.00000000000E+00 0.  1.
         25    1    1    2    0    0 -0.28691787228E+02 -0.60762514371E+01  0.17134886116E+03  0.21123582013E+03  0.12000000000E+03 0.  0.
         25    1    1    2    0    0  0.28691787228E+02  0.60762514371E+01 -0.74095017867E+01  0.12375395025E+03  0.12000000000E+03 0.  0.
<mgrwt>
<rscale>  0 0.29213359E+03</rscale>
<asrwt>0</asrwt>
<pdfrwt beam="1">  1        3 0.13157724E-01 0.29213359E+03</pdfrwt>
<pdfrwt beam="2">  1       -3 0.38379164E-01 0.29213359E+03</pdfrwt>
<totfact> 0.79949059E+02</totfact>
</mgrwt>
</event>
<event>
 4    1  0.1759998E-004  0.2731969E+03  0.7818608E-02  0.1099464E+00
          1   -1    0    0  501    0  0.00000000000E+00  0.00000000000E+00  0.14238456689E+04  0.14238456689E+04  0.00000000000E+00 0.  1.
         -1   -1    0    0    0  501 -0.00000000000E+00 -0.00000000000E+00 -0.13104742639E+02  0.13104742639E+02  0.00000000000E+00 0.  1.
         25    1    1    2    0    0 -0.11566128333E+02 -0.37183995239E+02  0.42991225133E+03  0.44804125778E+03  0.12000000000E+03 0.  0.
         25    1    1    2    0    0  0.11566128333E+02  0.37183995239E+02  0.98082867494E+03  0.98890915377E+03  0.12000000000E+03 0.  0.
<mgrwt>
<rscale>  0 0.27319686E+03</rscale>
<asrwt>0</asrwt>
<pdfrwt beam="1">  1        1 0.21905306E+00 0.27319686E+03</pdfrwt>
<pdfrwt beam="2">  1       -1 0.20161154E-02 0.27319686E+03</pdfrwt>
<totfact> 0.54506457E+03</totfact>
</mgrwt>
</event>
<event>
 4    1  0.1759998E-004  0.4260867E+03  0.7818608E-02  0.1035103E+00
          2   -1    0    0  501    0  0.00000000000E+00  0.00000000000E+00  0.15327661707E+03  0.15327661707E+03  0.00000000000E+00 0. -1.
         -2   -1    0    0    0  501 -0.00000000000E+00 -0.00000000000E+00 -0.29611473904E+03  0.29611473904E+03  0.00000000000E+00 0. -1.
         25    1    1    2    0    0 -0.74320355622E+02  0.15914548453E+03 -0.83748841337E+02  0.22861467348E+03  0.12000000000E+03 0.  0.
         25    1    1    2    0    0  0.74320355622E+02 -0.15914548453E+03 -0.59089280641E+02  0.22077668263E+03  0.12000000000E+03 0.  0.
<mgrwt>
<rscale>  0 0.42608668E+03</rscale>
<asrwt>0</asrwt>
<pdfrwt beam="1">  1        2 0.23581018E-01 0.42608668E+03</pdfrwt>
<pdfrwt beam="2">  1       -2 0.45556113E-01 0.42608668E+03</pdfrwt>
<totfact> 0.10705801E+03</totfact>
</mgrwt>
</event>
<event>
 4    1  0.1759998E-004  0.3360322E+03  0.7818608E-02  0.1068499E+00
          2   -1    0    0  501    0  0.00000000000E+00  0.00000000000E+00  0.30907373741E+04  0.30907373741E+04  0.00000000000E+00 0. -1.
         -2   -1    0    0    0  501 -0.00000000000E+00 -0.00000000000E+00 -0.91335510025E+01  0.91335510025E+01  0.00000000000E+00 0. -1.
         25    1    1    2    0    0 -0.71805597937E+02  0.30359908633E+02  0.72860839676E+03  0.74252808956E+03  0.12000000000E+03 0.  0.
         25    1    1    2    0    0  0.71805597937E+02 -0.30359908633E+02  0.23529954263E+04  0.23573428355E+04  0.12000000000E+03 0.  0.
<mgrwt>
<rscale>  0 0.33603219E+03</rscale>
<asrwt>0</asrwt>
<pdfrwt beam="1">  1        2 0.47549722E+00 0.33603219E+03</pdfrwt>
<pdfrwt beam="2">  1       -2 0.14051642E-02 0.33603219E+03</pdfrwt>
<totfact> 0.23706197E+03</totfact>
</mgrwt>
</event>
<event>
 4    1  0.1759998E-004  0.3289952E+03  0.7818608E-02  0.1071582E+00
         -2   -1    0    0    0  501 -0.00000000000E+00  0.00000000000E+00  0.20791961203E+03  0.20791961203E+03  0.00000000000E+00 0.  1.
          2   -1    0    0  501    0  0.00000000000E+00 -0.00000000000E+00 -0.13014383492E+03  0.13014383492E+03  0.00000000000E+00 0.  1.
         25    1    1    2    0    0  0.41219621522E+02 -0.67849093940E+02  0.12081569828E+03  0.18788025362E+03  0.12000000000E+03 0.  0.
         25    1    1    2    0    0 -0.41219621522E+02  0.67849093940E+02 -0.43039921172E+02  0.15018319334E+03  0.12000000000E+03 0.  0.
<mgrwt>
<rscale>  0 0.32899517E+03</rscale>
<asrwt>0</asrwt>
<pdfrwt beam="1">  1        2 0.20022128E-01 0.32899517E+03</pdfrwt>
<pdfrwt beam="2">  1       -2 0.31987633E-01 0.32899517E+03</pdfrwt>
<totfact> 0.25266969E+03</totfact>
</mgrwt>
</event>
<event>
 4    1  0.1759998E-004  0.2693777E+03  0.7818608E-02  0.1101636E+00
         -2   -1    0    0    0  501 -0.00000000000E+00  0.00000000000E+00  0.54870823370E+02  0.54870823370E+02  0.00000000000E+00 0. -1.
          2   -1    0    0  501    0  0.00000000000E+00 -0.00000000000E+00 -0.33061443229E+03  0.33061443229E+03  0.00000000000E+00 0. -1.
         25    1    1    2    0    0 -0.20540721691E+02  0.57582979405E+02 -0.14049699865E+03  0.19462047013E+03  0.12000000000E+03 0.  0.
         25    1    1    2    0    0  0.20540721691E+02 -0.57582979405E+02 -0.13524661027E+03  0.19086478553E+03  0.12000000000E+03 0.  0.
<mgrwt>
<rscale>  0 0.26937770E+03</rscale>
<asrwt>0</asrwt>
<pdfrwt beam="1">  1        2 0.50863758E-01 0.26937770E+03</pdfrwt>
<pdfrwt beam="2">  1       -2 0.84416652E-02 0.26937770E+03</pdfrwt>
<totfact> 0.84710994E+03</totfact>
</mgrwt>
</event>
<event>
 4    1  0.1759998E-004  0.3684344E+03  0.7818608E-02  0.1055293E+00
         -2   -1    0    0    0  501 -0.00000000000E+00  0.00000000000E+00  0.12605159696E+03  0.12605159696E+03  0.00000000000E+00 0. -1.
          2   -1    0    0  501    0  0.00000000000E+00 -0.00000000000E+00 -0.26922287939E+03  0.26922287939E+03  0.00000000000E+00 0. -1.
         25    1    1    2    0    0 -0.10984456047E+03  0.68540993726E+02 -0.15097529913E+02  0.17717683453E+03  0.12000000000E+03 0.  0.
         25    1    1    2    0    0  0.10984456047E+03 -0.68540993726E+02 -0.12807375251E+03  0.21809764182E+03  0.12000000000E+03 0.  0.
<mgrwt>
<rscale>  0 0.36843438E+03</rscale>
<asrwt>0</asrwt>
<pdfrwt beam="1">  1        2 0.41418904E-01 0.36843438E+03</pdfrwt>
<pdfrwt beam="2">  1       -2 0.19392554E-01 0.36843438E+03</pdfrwt>
<totfact> 0.27405026E+03</totfact>
</mgrwt>
</event>
<event>
 4    1  0.1759998E-004  0.2869557E+03  0.7818608E-02  0.1091949E+00
          1   -1    0    0  501    0  0.00000000000E+00  0.00000000000E+00  0.33741051468E+03  0.33741051468E+03  0.00000000000E+00 0. -1.
         -1   -1    0    0    0  501 -0.00000000000E+00 -0.00000000000E+00 -0.61011435913E+02  0.61011435913E+02  0.00000000000E+00 0. -1.
         25    1    1    2    0    0 -0.49703307672E+02  0.34850443418E+01  0.22269334499E+03  0.25782724881E+03  0.12000000000E+03 0.  0.
         25    1    1    2    0    0  0.49703307672E+02 -0.34850443418E+01  0.53705733773E+02  0.14059470178E+03  0.12000000000E+03 0.  0.
<mgrwt>
<rscale>  0 0.28695575E+03</rscale>
<asrwt>0</asrwt>
<pdfrwt beam="1">  1        1 0.51909309E-01 0.28695575E+03</pdfrwt>
<pdfrwt beam="2">  1       -1 0.93863749E-02 0.28695575E+03</pdfrwt>
<totfact> 0.50522061E+03</totfact>
</mgrwt>
</event>
<event>
 4    1  0.1759998E-004  0.2758302E+03  0.7818608E-02  0.1097988E+00
          1   -1    0    0  501    0  0.00000000000E+00  0.00000000000E+00  0.28219151179E+02  0.28219151179E+02  0.00000000000E+00 0. -1.
         -1   -1    0    0    0  501 -0.00000000000E+00 -0.00000000000E+00 -0.67403076303E+03  0.67403076303E+03  0.00000000000E+00 0. -1.
         25    1    1    2    0    0 -0.21335538442E+01  0.65812861489E+02 -0.36586309810E+03  0.39062986489E+03  0.12000000000E+03 0.  0.
         25    1    1    2    0    0  0.21335538442E+01 -0.65812861489E+02 -0.27994851376E+03  0.31162004933E+03  0.12000000000E+03 0.  0.
<mgrwt>
<rscale>  0 0.27583021E+03</rscale>
<asrwt>0</asrwt>
<pdfrwt beam="1">  1        1 0.43414077E-02 0.27583021E+03</pdfrwt>
<pdfrwt beam="2">  1       -1 0.10369704E+00 0.27583021E+03</pdfrwt>
<totfact> 0.18812957E+03</totfact>
</mgrwt>
</event>
<event>
 4    1  0.1759998E-004  0.3165661E+03  0.7818608E-02  0.1077241E+00
          3   -1    0    0  501    0  0.00000000000E+00  0.00000000000E+00  0.16898458052E+03  0.16898458052E+03  0.00000000000E+00 0.  1.
         -3   -1    0    0    0  501 -0.00000000000E+00 -0.00000000000E+00 -0.14825919284E+03  0.14825919284E+03  0.00000000000E+00 0.  1.
         25    1    1    2    0    0 -0.54335125489E+02 -0.71424463604E+02  0.61459668657E+02  0.16196002820E+03  0.12000000000E+03 0.  0.
         25    1    1    2    0    0  0.54335125489E+02  0.71424463604E+02 -0.40734280977E+02  0.15528374516E+03  0.12000000000E+03 0.  0.
<mgrwt>
<rscale>  0 0.31656606E+03</rscale>
<asrwt>0</asrwt>
<pdfrwt beam="1">  1        3 0.25997628E-01 0.31656606E+03</pdfrwt>
<pdfrwt beam="2">  1       -3 0.22809107E-01 0.31656606E+03</pdfrwt>
<totfact> 0.63880339E+02</totfact>
</mgrwt>
</event>
<event>
 4    1  0.1759998E-004  0.2702201E+03  0.7818608E-02  0.1101154E+00
         -4   -1    0    0    0  501 -0.00000000000E+00  0.00000000000E+00  0.41106859503E+02  0.41106859503E+02  0.00000000000E+00 0.  1.
          4   -1    0    0  501    0  0.00000000000E+00 -0.00000000000E+00 -0.44407975292E+03  0.44407975292E+03  0.00000000000E+00 0.  1.
         25    1    1    2    0    0  0.47061351920E+02 -0.77239491679E+01 -0.27286374288E+03  0.30187588909E+03  0.12000000000E+03 0.  0.
         25    1    1    2    0    0 -0.47061351920E+02  0.77239491679E+01 -0.13010915053E+03  0.18331072333E+03  0.12000000000E+03 0.  0.
<mgrwt>
<rscale>  0 0.27022009E+03</rscale>
<asrwt>0</asrwt>
<pdfrwt beam="1">  1        4 0.68319962E-01 0.27022009E+03</pdfrwt>
<pdfrwt beam="2">  1       -4 0.63241323E-02 0.27022009E+03</pdfrwt>
<totfact> 0.61180057E+02</totfact>
</mgrwt>
</event>
<event>
 4    1  0.1759998E-004  0.2646604E+03  0.7818608E-02  0.1104375E+00
         -2   -1    0    0    0  501 -0.00000000000E+00  0.00000000000E+00  0.85757648850E+01  0.85757648850E+01  0.00000000000E+00 0.  1.
          2   -1    0    0  501    0  0.00000000000E+00 -0.00000000000E+00 -0.20419505608E+04  0.20419505608E+04  0.00000000000E+00 0.  1.
         25    1    1    2    0    0  0.15143107908E+02  0.71404414390E+01 -0.60445193824E+03  0.61647582699E+03  0.12000000000E+03 0.  0.
         25    1    1    2    0    0 -0.15143107908E+02 -0.71404414390E+01 -0.14289228577E+04  0.14340504987E+04  0.12000000000E+03 0.  0.
<mgrwt>
<rscale>  0 0.26466045E+03</rscale>
<asrwt>0</asrwt>
<pdfrwt beam="1">  1        2 0.31414628E+00 0.26466045E+03</pdfrwt>
<pdfrwt beam="2">  1       -2 0.13193483E-02 0.26466045E+03</pdfrwt>
<totfact> 0.10044683E+04</totfact>
</mgrwt>
</event>
<event>
 4    1  0.1759998E-004  0.4434428E+03  0.7818608E-02  0.1029696E+00
         -2   -1    0    0    0  501 -0.00000000000E+00  0.00000000000E+00  0.70939675698E+02  0.70939675698E+02  0.00000000000E+00 0. -1.
          2   -1    0    0  501    0  0.00000000000E+00 -0.00000000000E+00 -0.69298856642E+03  0.69298856642E+03  0.00000000000E+00 0. -1.
         25    1    1    2    0    0 -0.13742610752E+03 -0.30036793740E+02 -0.10023040477E+03  0.21031946664E+03  0.12000000000E+03 0.  0.
         25    1    1    2    0    0  0.13742610752E+03  0.30036793740E+02 -0.52181848596E+03  0.55360877548E+03  0.12000000000E+03 0.  0.
<mgrwt>
<rscale>  0 0.44344282E+03</rscale>
<asrwt>0</asrwt>
<pdfrwt beam="1">  1        2 0.10661362E+00 0.44344282E+03</pdfrwt>
<pdfrwt beam="2">  1       -2 0.10913797E-01 0.44344282E+03</pdfrwt>
<totfact> 0.24606046E+03</totfact>
</mgrwt>
</event>
<event>
 4    1  0.1759998E-004  0.2531163E+03  0.7818608E-02  0.1111351E+00
         -2   -1    0    0    0  501 -0.00000000000E+00  0.00000000000E+00  0.33190000048E+02  0.33190000048E+02  0.00000000000E+00 0. -1.
          2   -1    0    0  501    0  0.00000000000E+00 -0.00000000000E+00 -0.48258415089E+03  0.48258415089E+03  0.00000000000E+00 0. -1.
         25    1    1    2    0    0 -0.36256179407E+02  0.15184001178E+02 -0.24197591619E+03  0.27294213389E+03  0.12000000000E+03 0.  0.
         25    1    1    2    0    0  0.36256179407E+02 -0.15184001178E+02 -0.20741823465E+03  0.24283201705E+03  0.12000000000E+03 0.  0.
<mgrwt>
<rscale>  0 0.25311632E+03</rscale>
<asrwt>0</asrwt>
<pdfrwt beam="1">  1        2 0.74243709E-01 0.25311632E+03</pdfrwt>
<pdfrwt beam="2">  1       -2 0.51061543E-02 0.25311632E+03</pdfrwt>
<totfact> 0.12151271E+04</totfact>
</mgrwt>
</event>
<event>
 4    1  0.1759998E-004  0.3004536E+03  0.7818608E-02  0.1085014E+00
         -2   -1    0    0    0  501 -0.00000000000E+00  0.00000000000E+00  0.56678867434E+03  0.56678867434E+03  0.00000000000E+00 0. -1.
          2   -1    0    0  501    0  0.00000000000E+00 -0.00000000000E+00 -0.39817459174E+02  0.39817459174E+02  0.00000000000E+00 0. -1.
         25    1    1    2    0    0 -0.70434035720E+02  0.51121101633E+02  0.31268237362E+03  0.34604130851E+03  0.12000000000E+03 0.  0.
         25    1    1    2    0    0  0.70434035720E+02 -0.51121101633E+02  0.21428884154E+03  0.26056482500E+03  0.12000000000E+03 0.  0.
<mgrwt>
<rscale>  0 0.30045356E+03</rscale>
<asrwt>0</asrwt>
<pdfrwt beam="1">  1        2 0.61257634E-02 0.30045356E+03</pdfrwt>
<pdfrwt beam="2">  1       -2 0.87198252E-01 0.30045356E+03</pdfrwt>
<totfact> 0.14146196E+03</totfact>
</mgrwt>
</event>
<event>
 4    1  0.1759998E-004  0.2581025E+03  0.7818608E-02  0.1108289E+00
          1   -1    0    0  501    0  0.00000000000E+00  0.00000000000E+00  0.59255224197E+03  0.59255224197E+03  0.00000000000E+00 0.  1.
         -1   -1    0    0    0  501 -0.00000000000E+00 -0.00000000000E+00 -0.28105909002E+02  0.28105909002E+02  0.00000000000E+00 0.  1.
         25    1    1    2    0    0  0.28238279193E+02  0.36084148529E+02  0.25230877641E+03  0.28312397433E+03  0.12000000000E+03 0.  0.
         25    1    1    2    0    0 -0.28238279193E+02 -0.36084148529E+02  0.31213755655E+03  0.33753417663E+03  0.12000000000E+03 0.  0.
<mgrwt>
<rscale>  0 0.25810246E+03</rscale>
<asrwt>0</asrwt>
<pdfrwt beam="1">  1        1 0.91161874E-01 0.25810246E+03</pdfrwt>
<pdfrwt beam="2">  1       -1 0.43239864E-02 0.25810246E+03</pdfrwt>
<totfact> 0.77814180E+03</totfact>
</mgrwt>
</event>
<event>
 4    1  0.1759998E-004  0.4390635E+03  0.7818608E-02  0.1031035E+00
          2   -1    0    0  501    0  0.00000000000E+00  0.00000000000E+00  0.81408109548E+03  0.81408109548E+03  0.00000000000E+00 0.  1.
         -2   -1    0    0    0  501 -0.00000000000E+00 -0.00000000000E+00 -0.59200711536E+02  0.59200711536E+02  0.00000000000E+00 0.  1.
         25    1    1    2    0    0 -0.11643002501E+03  0.13846389073E+03  0.44237861178E+03  0.49277483288E+03  0.12000000000E+03 0.  0.
         25    1    1    2    0    0  0.11643002501E+03 -0.13846389073E+03  0.31250177217E+03  0.38050697414E+03  0.12000000000E+03 0.  0.
<mgrwt>
<rscale>  0 0.43906346E+03</rscale>
<asrwt>0</asrwt>
<pdfrwt beam="1">  1        2 0.12524324E+00 0.43906346E+03</pdfrwt>
<pdfrwt beam="2">  1       -2 0.91078024E-02 0.43906346E+03</pdfrwt>
<totfact> 0.26833913E+03</totfact>
</mgrwt>
</event>
<event>
 4    1  0.1759998E-004  0.3091448E+03  0.7818608E-02  0.1080757E+00
          1   -1    0    0  501    0  0.00000000000E+00  0.00000000000E+00  0.23395856506E+03  0.23395856506E+03  0.00000000000E+00 0.  1.
         -1   -1    0    0    0  501 -0.00000000000E+00 -0.00000000000E+00 -0.10212332701E+03  0.10212332701E+03  0.00000000000E+00 0.  1.
         25    1    1    2    0    0 -0.31470494784E+02  0.33929765691E+02  0.15912634130E+03  0.20460404086E+03  0.12000000000E+03 0.  0.
         25    1    1    2    0    0  0.31470494784E+02 -0.33929765691E+02 -0.27291103246E+02  0.13147785121E+03  0.12000000000E+03 0.  0.
<mgrwt>
<rscale>  0 0.30914480E+03</rscale>
<asrwt>0</asrwt>
<pdfrwt beam="1">  1        1 0.35993625E-01 0.30914480E+03</pdfrwt>
<pdfrwt beam="2">  1       -1 0.15711281E-01 0.30914480E+03</pdfrwt>
<totfact> 0.35811112E+03</totfact>
</mgrwt>
</event>
<event>
 4    1  0.1759998E-004  0.3161043E+03  0.7818608E-02  0.1077456E+00
         -2   -1    0    0    0  501 -0.00000000000E+00  0.00000000000E+00  0.99604689394E+01  0.99604689394E+01  0.00000000000E+00 0.  1.
          2   -1    0    0  501    0  0.00000000000E+00 -0.00000000000E+00 -0.25079620320E+04  0.25079620320E+04  0.00000000000E+00 0.  1.
         25    1    1    2    0    0 -0.60503407538E+02 -0.77614917427E+02 -0.14873990089E+04  0.14954733530E+04  0.12000000000E+03 0.  0.
         25    1    1    2    0    0  0.60503407538E+02  0.77614917427E+02 -0.10106025541E+04  0.10224491479E+04  0.12000000000E+03 0.  0.
<mgrwt>
<rscale>  0 0.31610427E+03</rscale>
<asrwt>0</asrwt>
<pdfrwt beam="1">  1        2 0.38584057E+00 0.31610427E+03</pdfrwt>
<pdfrwt beam="2">  1       -2 0.15323788E-02 0.31610427E+03</pdfrwt>
<totfact> 0.45332475E+03</totfact>
</mgrwt>
</event>
<event>
 4    1  0.1759998E-004  0.3269753E+03  0.7818608E-02  0.1072483E+00
          2   -1    0    0  501    0  0.00000000000E+00  0.00000000000E+00  0.16912937934E+04  0.16912937934E+04  0.00000000000E+00 0.  1.
         -2   -1    0    0    0  501 -0.00000000000E+00 -0.00000000000E+00 -0.15803413333E+02  0.15803413333E+02  0.00000000000E+00 0.  1.
         25    1    1    2    0    0 -0.73156192275E+02 -0.50918181687E+01  0.12730064821E+04  0.12807510526E+04  0.12000000000E+03 0.  0.
         25    1    1    2    0    0  0.73156192275E+02  0.50918181687E+01  0.40248389791E+03  0.42634615415E+03  0.12000000000E+03 0.  0.
<mgrwt>
<rscale>  0 0.32697532E+03</rscale>
<asrwt>0</asrwt>
<pdfrwt beam="1">  1        2 0.26019890E+00 0.32697532E+03</pdfrwt>
<pdfrwt beam="2">  1       -2 0.24312957E-02 0.32697532E+03</pdfrwt>
<totfact> 0.62634836E+03</totfact>
</mgrwt>
</event>
<event>
 4    1  0.1759998E-004  0.3143712E+03  0.7818608E-02  0.1078269E+00
          1   -1    0    0  501    0  0.00000000000E+00  0.00000000000E+00  0.88171512108E+02  0.88171512108E+02  0.00000000000E+00 0.  1.
         -1   -1    0    0    0  501 -0.00000000000E+00 -0.00000000000E+00 -0.28021874895E+03  0.28021874895E+03  0.00000000000E+00 0.  1.
         25    1    1    2    0    0  0.19358709197E+02  0.90833715795E+02 -0.47967251404E+02  0.15914264279E+03  0.12000000000E+03 0.  0.
         25    1    1    2    0    0 -0.19358709197E+02 -0.90833715795E+02 -0.14407998543E+03  0.20924761827E+03  0.12000000000E+03 0.  0.
<mgrwt>
<rscale>  0 0.31437119E+03</rscale>
<asrwt>0</asrwt>
<pdfrwt beam="1">  1        1 0.13564848E-01 0.31437119E+03</pdfrwt>
<pdfrwt beam="2">  1       -1 0.43110577E-01 0.31437119E+03</pdfrwt>
<totfact> 0.22997321E+03</totfact>
</mgrwt>
</event>
<event>
 4    1  0.1759998E-004  0.2722771E+03  0.7818608E-02  0.1099983E+00
         -2   -1    0    0    0  501 -0.00000000000E+00  0.00000000000E+00  0.79541788359E+02  0.79541788359E+02  0.00000000000E+00 0. -1.
          2   -1    0    0  501    0  0.00000000000E+00 -0.00000000000E+00 -0.23300589595E+03  0.23300589595E+03  0.00000000000E+00 0. -1.
         25    1    1    2    0    0 -0.50275929570E+02 -0.12665456152E+02 -0.33087239301E+02  0.13484379214E+03  0.12000000000E+03 0.  0.
         25    1    1    2    0    0  0.50275929570E+02  0.12665456152E+02 -0.12037686829E+03  0.17770389217E+03  0.12000000000E+03 0.  0.
<mgrwt>
<rscale>  0 0.27227711E+03</rscale>
<asrwt>0</asrwt>
<pdfrwt beam="1">  1        2 0.35847061E-01 0.27227711E+03</pdfrwt>
<pdfrwt beam="2">  1       -2 0.12237198E-01 0.27227711E+03</pdfrwt>
<totfact> 0.68420102E+03</totfact>
</mgrwt>
</event>
<event>
 4    1  0.1759998E-004  0.2880814E+03  0.7818608E-02  0.1091355E+00
          3   -1    0    0  501    0  0.00000000000E+00  0.00000000000E+00  0.31676609722E+03  0.31676609722E+03  0.00000000000E+00 0.  1.
         -3   -1    0    0    0  501 -0.00000000000E+00 -0.00000000000E+00 -0.65498580583E+02  0.65498580583E+02  0.00000000000E+00 0.  1.
         25    1    1    2    0    0 -0.33566603631E+02  0.49230314114E+02  0.55451826646E+02  0.14500084753E+03  0.12000000000E+03 0.  0.
         25    1    1    2    0    0  0.33566603631E+02 -0.49230314114E+02  0.19581568999E+03  0.23726383027E+03  0.12000000000E+03 0.  0.
<mgrwt>
<rscale>  0 0.28808145E+03</rscale>
<asrwt>0</asrwt>
<pdfrwt beam="1">  1        3 0.48733245E-01 0.28808145E+03</pdfrwt>
<pdfrwt beam="2">  1       -3 0.10076705E-01 0.28808145E+03</pdfrwt>
<totfact> 0.78275611E+02</totfact>
</mgrwt>
</event>
<event>
 4    1  0.1759998E-004  0.2574266E+03  0.7818608E-02  0.1108699E+00
          1   -1    0    0  501    0  0.00000000000E+00  0.00000000000E+00  0.31515583649E+03  0.31515583649E+03  0.00000000000E+00 0. -1.
         -1   -1    0    0    0  501 -0.00000000000E+00 -0.00000000000E+00 -0.52568002343E+02  0.52568002343E+02  0.00000000000E+00 0. -1.
         25    1    1    2    0    0  0.29685398583E+01 -0.10975059741E+02  0.66809566293E+02  0.13781430373E+03  0.12000000000E+03 0.  0.
         25    1    1    2    0    0 -0.29685398583E+01  0.10975059741E+02  0.19577826785E+03  0.22990953510E+03  0.12000000000E+03 0.  0.
<mgrwt>
<rscale>  0 0.25742659E+03</rscale>
<asrwt>0</asrwt>
<pdfrwt beam="1">  1        1 0.48485512E-01 0.25742659E+03</pdfrwt>
<pdfrwt beam="2">  1       -1 0.80873852E-02 0.25742659E+03</pdfrwt>
<totfact> 0.68950376E+03</totfact>
</mgrwt>
</event>
<event>
 4    1  0.1759998E-004  0.2650426E+03  0.7818608E-02  0.1104151E+00
         -2   -1    0    0    0  501 -0.00000000000E+00  0.00000000000E+00  0.18864806947E+02  0.18864806947E+02  0.00000000000E+00 0. -1.
          2   -1    0    0  501    0  0.00000000000E+00 -0.00000000000E+00 -0.93093459169E+03  0.93093459169E+03  0.00000000000E+00 0. -1.
         25    1    1    2    0    0  0.27421561506E+02 -0.45596290561E+02 -0.52122612415E+03  0.53750128953E+03  0.12000000000E+03 0.  0.
         25    1    1    2    0    0 -0.27421561506E+02  0.45596290561E+02 -0.39084366059E+03  0.41229810911E+03  0.12000000000E+03 0.  0.
<mgrwt>
<rscale>  0 0.26504265E+03</rscale>
<asrwt>0</asrwt>
<pdfrwt beam="1">  1        2 0.14322071E+00 0.26504265E+03</pdfrwt>
<pdfrwt beam="2">  1       -2 0.29022779E-02 0.26504265E+03</pdfrwt>
<totfact> 0.12853470E+04</totfact>
</mgrwt>
</event>
<event>
 4    1  0.1759998E-004  0.3232623E+03  0.7818608E-02  0.1074158E+00
          2   -1    0    0  501    0  0.00000000000E+00  0.00000000000E+00  0.52293335877E+03  0.52293335877E+03  0.00000000000E+00 0. -1.
         -2   -1    0    0    0  501 -0.00000000000E+00 -0.00000000000E+00 -0.49957841083E+02  0.49957841083E+02  0.00000000000E+00 0. -1.
         25    1    1    2    0    0  0.10145823528E+02  0.10237961242E+02  0.42667629965E+03  0.44346411159E+03  0.12000000000E+03 0.  0.
         25    1    1    2    0    0 -0.10145823528E+02 -0.10237961242E+02  0.46299218038E+02  0.12942708826E+03  0.12000000000E+03 0.  0.
<mgrwt>
<rscale>  0 0.32326226E+03</rscale>
<asrwt>0</asrwt>
<pdfrwt beam="1">  1        2 0.80451282E-01 0.32326226E+03</pdfrwt>
<pdfrwt beam="2">  1       -2 0.76858221E-02 0.32326226E+03</pdfrwt>
<totfact> 0.59657094E+03</totfact>
</mgrwt>
</event>
<event>
 4    1  0.1759998E-004  0.2892224E+03  0.7818608E-02  0.1090756E+00
         -2   -1    0    0    0  501 -0.00000000000E+00  0.00000000000E+00  0.92374865529E+02  0.92374865529E+02  0.00000000000E+00 0. -1.
          2   -1    0    0  501    0  0.00000000000E+00 -0.00000000000E+00 -0.22638627312E+03  0.22638627312E+03  0.00000000000E+00 0. -1.
         25    1    1    2    0    0  0.27900028034E+02 -0.71230971179E+02 -0.38688457260E+02  0.14747562356E+03  0.12000000000E+03 0.  0.
         25    1    1    2    0    0 -0.27900028034E+02  0.71230971179E+02 -0.95322950331E+02  0.17128551509E+03  0.12000000000E+03 0.  0.
<mgrwt>
<rscale>  0 0.28922242E+03</rscale>
<asrwt>0</asrwt>
<pdfrwt beam="1">  1        2 0.34828657E-01 0.28922242E+03</pdfrwt>
<pdfrwt beam="2">  1       -2 0.14211518E-01 0.28922242E+03</pdfrwt>
<totfact> 0.55430225E+03</totfact>
</mgrwt>
</event>
<event>
 4    1  0.1759998E-004  0.2532654E+03  0.7818608E-02  0.1111258E+00
         -2   -1    0    0    0  501 -0.00000000000E+00  0.00000000000E+00  0.60327993858E+02  0.60327993858E+02  0.00000000000E+00 0. -1.
          2   -1    0    0  501    0  0.00000000000E+00 -0.00000000000E+00 -0.26581104214E+03  0.26581104214E+03  0.00000000000E+00 0. -1.
         25    1    1    2    0    0  0.11874102595E+02  0.21327499742E+02 -0.14426956982E+03  0.18923415477E+03  0.12000000000E+03 0.  0.
         25    1    1    2    0    0 -0.11874102595E+02 -0.21327499742E+02 -0.61213478469E+02  0.13690488123E+03  0.12000000000E+03 0.  0.
<mgrwt>
<rscale>  0 0.25326545E+03</rscale>
<asrwt>0</asrwt>
<pdfrwt beam="1">  1        2 0.40894006E-01 0.25326545E+03</pdfrwt>
<pdfrwt beam="2">  1       -2 0.92812300E-02 0.25326545E+03</pdfrwt>
<totfact> 0.92015729E+03</totfact>
</mgrwt>
</event>
<event>
 4    1  0.1759998E-004  0.3742905E+03  0.7818608E-02  0.1053064E+00
         -1   -1    0    0    0  501 -0.00000000000E+00  0.00000000000E+00  0.29085463996E+02  0.29085463996E+02  0.00000000000E+00 0. -1.
          1   -1    0    0  501    0  0.00000000000E+00 -0.00000000000E+00 -0.12041527385E+04  0.12041527385E+04  0.00000000000E+00 0. -1.
         25    1    1    2    0    0  0.13742699940E+01  0.98807478320E+02 -0.93087316009E+03  0.94376355438E+03  0.12000000000E+03 0.  0.
         25    1    1    2    0    0 -0.13742699940E+01 -0.98807478320E+02 -0.24419411441E+03  0.28947464812E+03  0.12000000000E+03 0.  0.
<mgrwt>
<rscale>  0 0.37429048E+03</rscale>
<asrwt>0</asrwt>
<pdfrwt beam="1">  1        1 0.18525425E+00 0.37429048E+03</pdfrwt>
<pdfrwt beam="2">  1       -1 0.44746871E-02 0.37429048E+03</pdfrwt>
<totfact> 0.23673408E+03</totfact>
</mgrwt>
</event>
<event>
 4    1  0.1759998E-004  0.4364423E+03  0.7818608E-02  0.1031844E+00
         -2   -1    0    0    0  501 -0.00000000000E+00  0.00000000000E+00  0.21233714912E+02  0.21233714912E+02  0.00000000000E+00 0. -1.
          2   -1    0    0  501    0  0.00000000000E+00 -0.00000000000E+00 -0.22426820868E+04  0.22426820868E+04  0.00000000000E+00 0. -1.
         25    1    1    2    0    0  0.76173012188E+02  0.14311421779E+03 -0.67870550659E+03  0.70804319910E+03  0.12000000000E+03 0.  0.
         25    1    1    2    0    0 -0.76173012188E+02 -0.14311421779E+03 -0.15427428653E+04  0.15558726026E+04  0.12000000000E+03 0.  0.
<mgrwt>
<rscale>  0 0.43644231E+03</rscale>
<asrwt>0</asrwt>
<pdfrwt beam="1">  1        2 0.34502811E+00 0.43644231E+03</pdfrwt>
<pdfrwt beam="2">  1       -2 0.32667244E-02 0.43644231E+03</pdfrwt>
<totfact> 0.20357440E+03</totfact>
</mgrwt>
</event>
<event>
 4    1  0.1759998E-004  0.2706080E+03  0.7818608E-02  0.1100932E+00
          1   -1    0    0  501    0  0.00000000000E+00  0.00000000000E+00  0.13803713577E+03  0.13803713577E+03  0.00000000000E+00 0. -1.
         -1   -1    0    0    0  501 -0.00000000000E+00 -0.00000000000E+00 -0.13262501685E+03  0.13262501685E+03  0.00000000000E+00 0. -1.
         25    1    1    2    0    0  0.26154092046E+02  0.23803689832E+02 -0.48845738475E+02  0.13430025446E+03  0.12000000000E+03 0.  0.
         25    1    1    2    0    0 -0.26154092046E+02 -0.23803689832E+02  0.54257857396E+02  0.13636189816E+03  0.12000000000E+03 0.  0.
<mgrwt>
<rscale>  0 0.27060804E+03</rscale>
<asrwt>0</asrwt>
<pdfrwt beam="1">  1        1 0.21236483E-01 0.27060804E+03</pdfrwt>
<pdfrwt beam="2">  1       -1 0.20403849E-01 0.27060804E+03</pdfrwt>
<totfact> 0.45754666E+03</totfact>
</mgrwt>
</event>
<event>
 4    1  0.1759998E-004  0.2582858E+03  0.7818608E-02  0.1108178E+00
         -4   -1    0    0    0  501 -0.00000000000E+00  0.00000000000E+00  0.38619460962E+03  0.38619460962E+03  0.00000000000E+00 0.  1.
          4   -1    0    0  501    0  0.00000000000E+00 -0.00000000000E+00 -0.43185208528E+02  0.43185208528E+02  0.00000000000E+00 0.  1.
         25    1    1    2    0    0 -0.43685949737E+02 -0.40964299890E+01  0.20272334729E+03  0.23962887656E+03  0.12000000000E+03 0.  0.
         25    1    1    2    0    0  0.43685949737E+02  0.40964299890E+01  0.14028605380E+03  0.18975094159E+03  0.12000000000E+03 0.  0.
<mgrwt>
<rscale>  0 0.25828585E+03</rscale>
<asrwt>0</asrwt>
<pdfrwt beam="1">  1        4 0.66438785E-02 0.25828585E+03</pdfrwt>
<pdfrwt beam="2">  1       -4 0.59414553E-01 0.25828585E+03</pdfrwt>
<totfact> 0.75608879E+02</totfact>
</mgrwt>
</event>
<event>
 4    1  0.1759998E-004  0.2677056E+03  0.7818608E-02  0.1102600E+00
         -1   -1    0    0    0  501 -0.00000000000E+00  0.00000000000E+00  0.65560948228E+02  0.65560948228E+02  0.00000000000E+00 0.  1.
          1   -1    0    0  501    0  0.00000000000E+00 -0.00000000000E+00 -0.27328125801E+03  0.27328125801E+03  0.00000000000E+00 0.  1.
         25    1    1    2    0    0  0.18659697045E+02  0.55155368766E+02 -0.11808364715E+03  0.17814052521E+03  0.12000000000E+03 0.  0.
         25    1    1    2    0    0 -0.18659697045E+02 -0.55155368766E+02 -0.89636662628E+02  0.16070168103E+03  0.12000000000E+03 0.  0.
<mgrwt>
<rscale>  0 0.26770565E+03</rscale>
<asrwt>0</asrwt>
<pdfrwt beam="1">  1        1 0.42043270E-01 0.26770565E+03</pdfrwt>
<pdfrwt beam="2">  1       -1 0.10086300E-01 0.26770565E+03</pdfrwt>
<totfact> 0.58829731E+03</totfact>
</mgrwt>
</event>
<event>
 4    1  0.1759998E-004  0.3462940E+03  0.7818608E-02  0.1064146E+00
          4   -1    0    0  501    0  0.00000000000E+00  0.00000000000E+00  0.11550548008E+03  0.11550548008E+03  0.00000000000E+00 0.  1.
         -4   -1    0    0    0  501 -0.00000000000E+00 -0.00000000000E+00 -0.25955375248E+03  0.25955375248E+03  0.00000000000E+00 0.  1.
         25    1    1    2    0    0 -0.25805903571E+02  0.95641895624E+02 -0.15426988704E+03  0.21911758238E+03  0.12000000000E+03 0.  0.
         25    1    1    2    0    0  0.25805903571E+02 -0.95641895624E+02  0.10221614646E+02  0.15594165019E+03  0.12000000000E+03 0.  0.
<mgrwt>
<rscale>  0 0.34629398E+03</rscale>
<asrwt>0</asrwt>
<pdfrwt beam="1">  1        4 0.17770074E-01 0.34629398E+03</pdfrwt>
<pdfrwt beam="2">  1       -4 0.39931346E-01 0.34629398E+03</pdfrwt>
<totfact> 0.32741603E+02</totfact>
</mgrwt>
</event>
<event>
 4    1  0.1759998E-004  0.2741195E+03  0.7818608E-02  0.1098945E+00
         -1   -1    0    0    0  501 -0.00000000000E+00  0.00000000000E+00  0.12989031128E+02  0.12989031128E+02  0.00000000000E+00 0.  1.
          1   -1    0    0  501    0  0.00000000000E+00 -0.00000000000E+00 -0.14462488051E+04  0.14462488051E+04  0.00000000000E+00 0.  1.
         25    1    1    2    0    0  0.18873137925E+02  0.42755878522E+02 -0.96638080906E+03  0.97492365271E+03  0.12000000000E+03 0.  0.
         25    1    1    2    0    0 -0.18873137925E+02 -0.42755878522E+02 -0.46687896488E+03  0.48431418349E+03  0.12000000000E+03 0.  0.
<mgrwt>
<rscale>  0 0.27411947E+03</rscale>
<asrwt>0</asrwt>
<pdfrwt beam="1">  1        1 0.22249988E+00 0.27411947E+03</pdfrwt>
<pdfrwt beam="2">  1       -1 0.19983119E-02 0.27411947E+03</pdfrwt>
<totfact> 0.53348738E+03</totfact>
</mgrwt>
</event>
<event>
 4    1  0.1759998E-004  0.2538788E+03  0.7818608E-02  0.1110878E+00
         -2   -1    0    0    0  501 -0.00000000000E+00  0.00000000000E+00  0.80652406061E+01  0.80652406061E+01  0.00000000000E+00 0. -1.
          2   -1    0    0  501    0  0.00000000000E+00 -0.00000000000E+00 -0.19979083868E+04  0.19979083868E+04  0.00000000000E+00 0. -1.
         25    1    1    2    0    0 -0.22406909723E+02  0.26667670536E+02 -0.81817634327E+03  0.82766283168E+03  0.12000000000E+03 0.  0.
         25    1    1    2    0    0  0.22406909723E+02 -0.26667670536E+02 -0.11716668030E+04  0.11783107958E+04  0.12000000000E+03 0.  0.
<mgrwt>
<rscale>  0 0.25387880E+03</rscale>
<asrwt>0</asrwt>
<pdfrwt beam="1">  1        2 0.30737110E+00 0.25387880E+03</pdfrwt>
<pdfrwt beam="2">  1       -2 0.12408039E-02 0.25387880E+03</pdfrwt>
<totfact> 0.11578006E+04</totfact>
</mgrwt>
</event>
<event>
 4    1  0.1759998E-004  0.3687181E+03  0.7818608E-02  0.1055184E+00
         -1   -1    0    0    0  501 -0.00000000000E+00  0.00000000000E+00  0.54486504903E+02  0.54486504903E+02  0.00000000000E+00 0. -1.
          1   -1    0    0  501    0  0.00000000000E+00 -0.00000000000E+00 -0.62379238634E+03  0.62379238634E+03  0.00000000000E+00 0. -1.
         25    1    1    2    0    0 -0.91122991049E+02 -0.59255296517E+02 -0.44684405170E+03  0.47527275979E+03  0.12000000000E+03 0.  0.
         25    1    1    2    0    0  0.91122991049E+02  0.59255296517E+02 -0.12246182973E+03  0.20300613145E+03  0.12000000000E+03 0.  0.
<mgrwt>
<rscale>  0 0.36871814E+03</rscale>
<asrwt>0</asrwt>
<pdfrwt beam="1">  1        1 0.95968061E-01 0.36871814E+03</pdfrwt>
<pdfrwt beam="2">  1       -1 0.83825391E-02 0.36871814E+03</pdfrwt>
<totfact> 0.26768800E+03</totfact>
</mgrwt>
</event>
<event>
 4    1  0.1759998E-004  0.3069389E+03  0.7818608E-02  0.1081822E+00
          1   -1    0    0  501    0  0.00000000000E+00  0.00000000000E+00  0.14941612430E+03  0.14941612430E+03  0.00000000000E+00 0. -1.
         -1   -1    0    0    0  501 -0.00000000000E+00 -0.00000000000E+00 -0.15763268754E+03  0.15763268754E+03  0.00000000000E+00 0. -1.
         25    1    1    2    0    0 -0.56113015230E+02  0.58162533628E+02  0.47108833417E+02  0.15215384643E+03  0.12000000000E+03 0.  0.
         25    1    1    2    0    0  0.56113015230E+02 -0.58162533628E+02 -0.55325396660E+02  0.15489496542E+03  0.12000000000E+03 0.  0.
<mgrwt>
<rscale>  0 0.30693886E+03</rscale>
<asrwt>0</asrwt>
<pdfrwt beam="1">  1        1 0.22987096E-01 0.30693886E+03</pdfrwt>
<pdfrwt beam="2">  1       -1 0.24251183E-01 0.30693886E+03</pdfrwt>
<totfact> 0.31211163E+03</totfact>
</mgrwt>
</event>
<event>
 4    1  0.1759998E-004  0.3004225E+03  0.7818608E-02  0.1085030E+00
          3   -1    0    0  501    0  0.00000000000E+00  0.00000000000E+00  0.39821741280E+02  0.39821741280E+02  0.00000000000E+00 0. -1.
         -3   -1    0    0    0  501 -0.00000000000E+00 -0.00000000000E+00 -0.56661056033E+03  0.56661056033E+03  0.00000000000E+00 0. -1.
         25    1    1    2    0    0 -0.86682144768E+02  0.13747959248E+02 -0.22007120433E+03  0.26558263419E+03  0.12000000000E+03 0.  0.
         25    1    1    2    0    0  0.86682144768E+02 -0.13747959248E+02 -0.30671761471E+03  0.34084966742E+03  0.12000000000E+03 0.  0.
<mgrwt>
<rscale>  0 0.30042250E+03</rscale>
<asrwt>0</asrwt>
<pdfrwt beam="1">  1        3 0.61264218E-02 0.30042250E+03</pdfrwt>
<pdfrwt beam="2">  1       -3 0.87170855E-01 0.30042250E+03</pdfrwt>
<totfact> 0.51939349E+02</totfact>
</mgrwt>
</event>
<event>
 4    1  0.1759998E-004  0.2538161E+03  0.7818608E-02  0.1110917E+00
         -2   -1    0    0    0  501 -0.00000000000E+00  0.00000000000E+00  0.11306006626E+02  0.11306006626E+02  0.00000000000E+00 0. -1.
          2   -1    0    0  501    0  0.00000000000E+00 -0.00000000000E+00 -0.14245222908E+04  0.14245222908E+04  0.00000000000E+00 0. -1.
         25    1    1    2    0    0  0.14967772573E+02 -0.35803697932E+02 -0.62666274599E+03  0.63922776552E+03  0.12000000000E+03 0.  0.
         25    1    1    2    0    0 -0.14967772573E+02  0.35803697932E+02 -0.78655353818E+03  0.79660053190E+03  0.12000000000E+03 0.  0.
<mgrwt>
<rscale>  0 0.25381614E+03</rscale>
<asrwt>0</asrwt>
<pdfrwt beam="1">  1        2 0.21915728E+00 0.25381614E+03</pdfrwt>
<pdfrwt beam="2">  1       -2 0.17393856E-02 0.25381614E+03</pdfrwt>
<totfact> 0.14185333E+04</totfact>
</mgrwt>
</event>
<event>
 4    1  0.1759998E-004  0.3129521E+03  0.7818608E-02  0.1078939E+00
         -2   -1    0    0    0  501 -0.00000000000E+00  0.00000000000E+00  0.33904629438E+03  0.33904629438E+03  0.00000000000E+00 0. -1.
          2   -1    0    0  501    0  0.00000000000E+00 -0.00000000000E+00 -0.72216559571E+02  0.72216559571E+02  0.00000000000E+00 0. -1.
         25    1    1    2    0    0 -0.23699938825E+01 -0.99629548575E+02  0.11715491040E+03  0.19508187218E+03  0.12000000000E+03 0.  0.
         25    1    1    2    0    0  0.23699938825E+01  0.99629548575E+02  0.14967482441E+03  0.21618098178E+03  0.12000000000E+03 0.  0.
<mgrwt>
<rscale>  0 0.31295212E+03</rscale>
<asrwt>0</asrwt>
<pdfrwt beam="1">  1        2 0.11110240E-01 0.31295212E+03</pdfrwt>
<pdfrwt beam="2">  1       -2 0.52160967E-01 0.31295212E+03</pdfrwt>
<totfact> 0.19858328E+03</totfact>
</mgrwt>
</event>
<event>
 4    1  0.1759998E-004  0.3594483E+03  0.7818608E-02  0.1058803E+00
         -1   -1    0    0    0  501 -0.00000000000E+00  0.00000000000E+00  0.12806705450E+03  0.12806705450E+03  0.00000000000E+00 0.  1.
          1   -1    0    0  501    0  0.00000000000E+00 -0.00000000000E+00 -0.25221759073E+03  0.25221759073E+03  0.00000000000E+00 0.  1.
         25    1    1    2    0    0  0.27920759975E+02  0.12629298277E+03 -0.25867453163E+02  0.17832165171E+03  0.12000000000E+03 0.  0.
         25    1    1    2    0    0 -0.27920759975E+02 -0.12629298277E+03 -0.98283083063E+02  0.20196299352E+03  0.12000000000E+03 0.  0.
<mgrwt>
<rscale>  0 0.35944827E+03</rscale>
<asrwt>0</asrwt>
<pdfrwt beam="1">  1        1 0.38802706E-01 0.35944827E+03</pdfrwt>
<pdfrwt beam="2">  1       -1 0.19702624E-01 0.35944827E+03</pdfrwt>
<totfact> 0.22651855E+03</totfact>
</mgrwt>
</event>
<event>
 4    1  0.1759998E-004  0.3465445E+03  0.7818608E-02  0.1064042E+00
         -2   -1    0    0    0  501 -0.00000000000E+00  0.00000000000E+00  0.26428502798E+02  0.26428502798E+02  0.00000000000E+00 0. -1.
          2   -1    0    0  501    0  0.00000000000E+00 -0.00000000000E+00 -0.11360186550E+04  0.11360186550E+04  0.00000000000E+00 0. -1.
         25    1    1    2    0    0  0.44949622454E+02 -0.11447573684E+03 -0.47993046964E+03  0.50976310044E+03  0.12000000000E+03 0.  0.
         25    1    1    2    0    0 -0.44949622454E+02  0.11447573684E+03 -0.62965968260E+03  0.65268405739E+03  0.12000000000E+03 0.  0.
<mgrwt>
<rscale>  0 0.34654450E+03</rscale>
<asrwt>0</asrwt>
<pdfrwt beam="1">  1        2 0.17477207E+00 0.34654450E+03</pdfrwt>
<pdfrwt beam="2">  1       -2 0.40659241E-02 0.34654450E+03</pdfrwt>
<totfact> 0.58566063E+03</totfact>
</mgrwt>
</event>
<event>
 4    1  0.1759998E-004  0.2938300E+03  0.7818608E-02  0.1088366E+00
         -2   -1    0    0    0  501 -0.00000000000E+00  0.00000000000E+00  0.58679731113E+02  0.58679731113E+02  0.00000000000E+00 0.  1.
          2   -1    0    0  501    0  0.00000000000E+00 -0.00000000000E+00 -0.36782757334E+03  0.36782757334E+03  0.00000000000E+00 0.  1.
         25    1    1    2    0    0  0.46208263111E+02 -0.55041290106E+02 -0.21980102717E+03  0.26053260591E+03  0.12000000000E+03 0.  0.
         25    1    1    2    0    0 -0.46208263111E+02  0.55041290106E+02 -0.89346815057E+02  0.16597469854E+03  0.12000000000E+03 0.  0.
<mgrwt>
<rscale>  0 0.29383004E+03</rscale>
<asrwt>0</asrwt>
<pdfrwt beam="1">  1        2 0.56588858E-01 0.29383004E+03</pdfrwt>
<pdfrwt beam="2">  1       -2 0.90276509E-02 0.29383004E+03</pdfrwt>
<totfact> 0.68139551E+03</totfact>
</mgrwt>
</event>
<event>
 4    1  0.1759998E-004  0.2862740E+03  0.7818608E-02  0.1092311E+00
          1   -1    0    0  501    0  0.00000000000E+00  0.00000000000E+00  0.16022143525E+03  0.16022143525E+03  0.00000000000E+00 0. -1.
         -1   -1    0    0    0  501 -0.00000000000E+00 -0.00000000000E+00 -0.12787425560E+03  0.12787425560E+03  0.00000000000E+00 0. -1.
         25    1    1    2    0    0  0.74294994887E+02  0.20256969532E+02  0.28827613426E+02  0.14546863021E+03  0.12000000000E+03 0.  0.
         25    1    1    2    0    0 -0.74294994887E+02 -0.20256969532E+02  0.35195662216E+01  0.14262706064E+03  0.12000000000E+03 0.  0.
<mgrwt>
<rscale>  0 0.28627397E+03</rscale>
<asrwt>0</asrwt>
<pdfrwt beam="1">  1        1 0.24649452E-01 0.28627397E+03</pdfrwt>
<pdfrwt beam="2">  1       -1 0.19672962E-01 0.28627397E+03</pdfrwt>
<totfact> 0.40190509E+03</totfact>
</mgrwt>
</event>
<event>
 4    1  0.1759998E-004  0.3113147E+03  0.7818608E-02  0.1079717E+00
          1   -1    0    0  501    0  0.00000000000E+00  0.00000000000E+00  0.23707325906E+02  0.23707325906E+02  0.00000000000E+00 0. -1.
         -1   -1    0    0    0  501 -0.00000000000E+00 -0.00000000000E+00 -0.10220133917E+04  0.10220133917E+04  0.00000000000E+00 0. -1.
         25    1    1    2    0    0 -0.61530401963E+02  0.53608413639E+02 -0.68825732613E+03  0.70339036057E+03  0.12000000000E+03 0.  0.
         25    1    1    2    0    0  0.61530401963E+02 -0.53608413639E+02 -0.31004873967E+03  0.34233035704E+03  0.12000000000E+03 0.  0.
<mgrwt>
<rscale>  0 0.31131466E+03</rscale>
<asrwt>0</asrwt>
<pdfrwt beam="1">  1        1 0.36472805E-02 0.31131466E+03</pdfrwt>
<pdfrwt beam="2">  1       -1 0.15723285E+00 0.31131466E+03</pdfrwt>
<totfact> 0.86472974E+02</totfact>
</mgrwt>
</event>
<event>
 4    1  0.1759998E-004  0.3250695E+03  0.7818608E-02  0.1073340E+00
          2   -1    0    0  501    0  0.00000000000E+00  0.00000000000E+00  0.22830871890E+04  0.22830871890E+04  0.00000000000E+00 0. -1.
         -2   -1    0    0    0  501 -0.00000000000E+00 -0.00000000000E+00 -0.11570975464E+02  0.11570975464E+02  0.00000000000E+00 0. -1.
         25    1    1    2    0    0  0.75817619327E+01 -0.10379080249E+03  0.89250161594E+03  0.90652586740E+03  0.12000000000E+03 0.  0.
         25    1    1    2    0    0 -0.75817619327E+01  0.10379080249E+03  0.13790145976E+04  0.13881322971E+04  0.12000000000E+03 0.  0.
<mgrwt>
<rscale>  0 0.32506951E+03</rscale>
<asrwt>0</asrwt>
<pdfrwt beam="1">  1        2 0.35124382E+00 0.32506951E+03</pdfrwt>
<pdfrwt beam="2">  1       -2 0.17801519E-02 0.32506951E+03</pdfrwt>
<totfact> 0.48187114E+03</totfact>
</mgrwt>
</event>
<event>
 4    1  0.1759998E-004  0.2900686E+03  0.7818608E-02  0.1090313E+00
         -1   -1    0    0    0  501 -0.00000000000E+00  0.00000000000E+00  0.10031643659E+03  0.10031643659E+03  0.00000000000E+00 0. -1.
          1   -1    0    0  501    0  0.00000000000E+00 -0.00000000000E+00 -0.20968593313E+03  0.20968593313E+03  0.00000000000E+00 0. -1.
         25    1    1    2    0    0  0.71544449255E+02 -0.36494560143E+02 -0.40168839357E+02  0.14987994127E+03  0.12000000000E+03 0.  0.
         25    1    1    2    0    0 -0.71544449255E+02  0.36494560143E+02 -0.69200657188E+02  0.16012242846E+03  0.12000000000E+03 0.  0.
<mgrwt>
<rscale>  0 0.29006858E+03</rscale>
<asrwt>0</asrwt>
<pdfrwt beam="1">  1        1 0.32259374E-01 0.29006858E+03</pdfrwt>
<pdfrwt beam="2">  1       -1 0.15433298E-01 0.29006858E+03</pdfrwt>
<totfact> 0.42236082E+03</totfact>
</mgrwt>
</event>
<event>
 4    1  0.1759998E-004  0.2467424E+03  0.7818608E-02  0.1115381E+00
         -2   -1    0    0    0  501 -0.00000000000E+00  0.00000000000E+00  0.93896795091E+01  0.93896795091E+01  0.00000000000E+00 0.  1.
          2   -1    0    0  501    0  0.00000000000E+00 -0.00000000000E+00 -0.16209773870E+04  0.16209773870E+04  0.00000000000E+00 0.  1.
         25    1    1    2    0    0 -0.23739323311E+02 -0.89611773632E+01 -0.71798529146E+03  0.72838639260E+03  0.12000000000E+03 0.  0.
         25    1    1    2    0    0  0.23739323311E+02  0.89611773632E+01 -0.89360241607E+03  0.90198067395E+03  0.12000000000E+03 0.  0.
<mgrwt>
<rscale>  0 0.24674244E+03</rscale>
<asrwt>0</asrwt>
<pdfrwt beam="1">  1        2 0.24938101E+00 0.24674244E+03</pdfrwt>
<pdfrwt beam="2">  1       -2 0.14445668E-02 0.24674244E+03</pdfrwt>
<totfact> 0.14611961E+04</totfact>
</mgrwt>
</event>
<event>
 4    1  0.1759998E-004  0.3899138E+03  0.7818608E-02  0.1047329E+00
          2   -1    0    0  501    0  0.00000000000E+00  0.00000000000E+00  0.41995848452E+03  0.41995848452E+03  0.00000000000E+00 0. -1.
         -2   -1    0    0    0  501 -0.00000000000E+00 -0.00000000000E+00 -0.90504625047E+02  0.90504625047E+02  0.00000000000E+00 0. -1.
         25    1    1    2    0    0 -0.94581680446E+01 -0.14603444005E+03  0.10342382200E+03  0.21566641274E+03  0.12000000000E+03 0.  0.
         25    1    1    2    0    0  0.94581680446E+01  0.14603444005E+03  0.22603003747E+03  0.29479669683E+03  0.12000000000E+03 0.  0.
<mgrwt>
<rscale>  0 0.38991376E+03</rscale>
<asrwt>0</asrwt>
<pdfrwt beam="1">  1        2 0.64608997E-01 0.38991376E+03</pdfrwt>
<pdfrwt beam="2">  1       -2 0.13923789E-01 0.38991376E+03</pdfrwt>
<totfact> 0.29475159E+03</totfact>
</mgrwt>
</event>
<event>
 4    1  0.1759998E-004  0.2902962E+03  0.7818608E-02  0.1090195E+00
         -2   -1    0    0    0  501 -0.00000000000E+00  0.00000000000E+00  0.12664534255E+03  0.12664534255E+03  0.00000000000E+00 0. -1.
          2   -1    0    0  501    0  0.00000000000E+00 -0.00000000000E+00 -0.16635410386E+03  0.16635410386E+03  0.00000000000E+00 0. -1.
         25    1    1    2    0    0 -0.77072322476E+02 -0.11215244849E+00 -0.47083684008E+02  0.15018997560E+03  0.12000000000E+03 0.  0.
         25    1    1    2    0    0  0.77072322476E+02  0.11215244849E+00  0.73749226979E+01  0.14280947082E+03  0.12000000000E+03 0.  0.
<mgrwt>
<rscale>  0 0.29029621E+03</rscale>
<asrwt>0</asrwt>
<pdfrwt beam="1">  1        2 0.25592939E-01 0.29029621E+03</pdfrwt>
<pdfrwt beam="2">  1       -2 0.19483899E-01 0.29029621E+03</pdfrwt>
<totfact> 0.45883710E+03</totfact>
</mgrwt>
</event>
<event>
 4    1  0.1759998E-004  0.4219371E+03  0.7818608E-02  0.1036438E+00
          2   -1    0    0  501    0  0.00000000000E+00  0.00000000000E+00  0.22846891318E+04  0.22846891318E+04  0.00000000000E+00 0. -1.
         -2   -1    0    0    0  501 -0.00000000000E+00 -0.00000000000E+00 -0.19480870744E+02  0.19480870744E+02  0.00000000000E+00 0. -1.
         25    1    1    2    0    0 -0.26156165398E+02 -0.14742457611E+03  0.16114747342E+04  0.16228582716E+04  0.12000000000E+03 0.  0.
         25    1    1    2    0    0  0.26156165398E+02  0.14742457611E+03  0.65373352686E+03  0.68131173098E+03  0.12000000000E+03 0.  0.
<mgrwt>
<rscale>  0 0.42193712E+03</rscale>
<asrwt>0</asrwt>
<pdfrwt beam="1">  1        2 0.35149042E+00 0.42193712E+03</pdfrwt>
<pdfrwt beam="2">  1       -2 0.29970588E-02 0.42193712E+03</pdfrwt>
<totfact> 0.22018365E+03</totfact>
</mgrwt>
</event>
<event>
 4    1  0.1759998E-004  0.3206609E+03  0.7818608E-02  0.1075346E+00
          2   -1    0    0  501    0  0.00000000000E+00  0.00000000000E+00  0.25999085782E+04  0.25999085782E+04  0.00000000000E+00 0. -1.
         -2   -1    0    0    0  501 -0.00000000000E+00 -0.00000000000E+00 -0.98872137446E+01  0.98872137446E+01  0.00000000000E+00 0. -1.
         25    1    1    2    0    0 -0.84507005492E+02  0.57241546184E+02  0.15375174069E+04  0.15455671467E+04  0.12000000000E+03 0.  0.
         25    1    1    2    0    0  0.84507005492E+02 -0.57241546184E+02  0.10525039576E+04  0.10642286452E+04  0.12000000000E+03 0.  0.
<mgrwt>
<rscale>  0 0.32066089E+03</rscale>
<asrwt>0</asrwt>
<pdfrwt beam="1">  1        2 0.39998539E+00 0.32066089E+03</pdfrwt>
<pdfrwt beam="2">  1       -2 0.15211119E-02 0.32066089E+03</pdfrwt>
<totfact> 0.40739175E+03</totfact>
</mgrwt>
</event>
<event>
 4    1  0.1759998E-004  0.3689174E+03  0.7818608E-02  0.1055108E+00
          2   -1    0    0  501    0  0.00000000000E+00  0.00000000000E+00  0.19627501526E+03  0.19627501526E+03  0.00000000000E+00 0. -1.
         -2   -1    0    0    0  501 -0.00000000000E+00 -0.00000000000E+00 -0.17335378765E+03  0.17335378765E+03  0.00000000000E+00 0. -1.
         25    1    1    2    0    0 -0.20879118317E+02  0.13426981133E+03  0.45595319069E+02  0.18693114491E+03  0.12000000000E+03 0.  0.
         25    1    1    2    0    0  0.20879118317E+02 -0.13426981133E+03 -0.22674091459E+02  0.18269765800E+03  0.12000000000E+03 0.  0.
<mgrwt>
<rscale>  0 0.36891743E+03</rscale>
<asrwt>0</asrwt>
<pdfrwt beam="1">  1        2 0.30196156E-01 0.36891743E+03</pdfrwt>
<pdfrwt beam="2">  1       -2 0.26669813E-01 0.36891743E+03</pdfrwt>
<totfact> 0.22166084E+03</totfact>
</mgrwt>
</event>
<event>
 4    1  0.1759998E-004  0.3235028E+03  0.7818608E-02  0.1074048E+00
          2   -1    0    0  501    0  0.00000000000E+00  0.00000000000E+00  0.17531532226E+04  0.17531532226E+04  0.00000000000E+00 0.  1.
         -2   -1    0    0    0  501 -0.00000000000E+00 -0.00000000000E+00 -0.14923686497E+02  0.14923686497E+02  0.00000000000E+00 0.  1.
         25    1    1    2    0    0 -0.23406643919E+02 -0.96725053209E+02  0.11048194516E+04  0.11157641452E+04  0.12000000000E+03 0.  0.
         25    1    1    2    0    0  0.23406643919E+02  0.96725053209E+02  0.63341008446E+03  0.65231276394E+03  0.12000000000E+03 0.  0.
<mgrwt>
<rscale>  0 0.32350276E+03</rscale>
<asrwt>0</asrwt>
<pdfrwt beam="1">  1        2 0.26971572E+00 0.32350276E+03</pdfrwt>
<pdfrwt beam="2">  1       -2 0.22959532E-02 0.32350276E+03</pdfrwt>
<totfact> 0.63236747E+03</totfact>
</mgrwt>
</event>
<event>
 4    1  0.1759998E-004  0.2479557E+03  0.7818608E-02  0.1114604E+00
          2   -1    0    0  501    0  0.00000000000E+00  0.00000000000E+00  0.17180986131E+04  0.17180986131E+04  0.00000000000E+00 0.  1.
         -2   -1    0    0    0  501 -0.00000000000E+00 -0.00000000000E+00 -0.89462277885E+01  0.89462277885E+01  0.00000000000E+00 0.  1.
         25    1    1    2    0    0 -0.44465386441E+01 -0.27932977712E+01  0.64069691337E+03  0.65185896405E+03  0.12000000000E+03 0.  0.
         25    1    1    2    0    0  0.44465386441E+01  0.27932977712E+01  0.10684554720E+04  0.10751858769E+04  0.12000000000E+03 0.  0.
<mgrwt>
<rscale>  0 0.24795565E+03</rscale>
<asrwt>0</asrwt>
<pdfrwt beam="1">  1        2 0.26432260E+00 0.24795565E+03</pdfrwt>
<pdfrwt beam="2">  1       -2 0.13763441E-02 0.24795565E+03</pdfrwt>
<totfact> 0.13942799E+04</totfact>
</mgrwt>
</event>
<event>
 4    1  0.1759998E-004  0.2945826E+03  0.7818608E-02  0.1087981E+00
         -2   -1    0    0    0  501 -0.00000000000E+00  0.00000000000E+00  0.76255661132E+01  0.76255661132E+01  0.00000000000E+00 0. -1.
          2   -1    0    0  501    0  0.00000000000E+00 -0.00000000000E+00 -0.28449987913E+04  0.28449987913E+04  0.00000000000E+00 0. -1.
         25    1    1    2    0    0 -0.69345614791E+02  0.41710265916E+02 -0.16832045772E+04  0.16894159373E+04  0.12000000000E+03 0.  0.
         25    1    1    2    0    0  0.69345614791E+02 -0.41710265916E+02 -0.11541686480E+04  0.11632084201E+04  0.12000000000E+03 0.  0.
<mgrwt>
<rscale>  0 0.29458260E+03</rscale>
<asrwt>0</asrwt>
<pdfrwt beam="1">  1        2 0.43769221E+00 0.29458260E+03</pdfrwt>
<pdfrwt beam="2">  1       -2 0.11731638E-02 0.29458260E+03</pdfrwt>
<totfact> 0.43327140E+03</totfact>
</mgrwt>
</event>
<event>
 4    1  0.1759998E-004  0.2909387E+03  0.7818608E-02  0.1089860E+00
         -1   -1    0    0    0  501 -0.00000000000E+00  0.00000000000E+00  0.60236035731E+02  0.60236035731E+02  0.00000000000E+00 0.  1.
          1   -1    0    0  501    0  0.00000000000E+00 -0.00000000000E+00 -0.35130682790E+03  0.35130682790E+03  0.00000000000E+00 0.  1.
         25    1    1    2    0    0 -0.23654432982E+02  0.55575117146E+01 -0.34416405562E+02  0.12718060822E+03  0.12000000000E+03 0.  0.
         25    1    1    2    0    0  0.23654432982E+02 -0.55575117146E+01 -0.25665438660E+03  0.28436225540E+03  0.12000000000E+03 0.  0.
<mgrwt>
<rscale>  0 0.29093869E+03</rscale>
<asrwt>0</asrwt>
<pdfrwt beam="1">  1        1 0.54047204E-01 0.29093869E+03</pdfrwt>
<pdfrwt beam="2">  1       -1 0.92670824E-02 0.29093869E+03</pdfrwt>
<totfact> 0.48973968E+03</totfact>
</mgrwt>
</event>
<event>
 4    1  0.1759998E-004  0.2713466E+03  0.7818608E-02  0.1100511E+00
         -2   -1    0    0    0  501 -0.00000000000E+00  0.00000000000E+00  0.17618966024E+02  0.17618966024E+02  0.00000000000E+00 0. -1.
          2   -1    0    0  501    0  0.00000000000E+00 -0.00000000000E+00 -0.10447406948E+04  0.10447406948E+04  0.00000000000E+00 0. -1.
         25    1    1    2    0    0  0.56296789704E+01 -0.39764232743E+02 -0.70513732081E+03  0.71640179278E+03  0.12000000000E+03 0.  0.
         25    1    1    2    0    0 -0.56296789704E+01  0.39764232743E+02 -0.32198440793E+03  0.34595786802E+03  0.12000000000E+03 0.  0.
<mgrwt>
<rscale>  0 0.27134665E+03</rscale>
<asrwt>0</asrwt>
<pdfrwt beam="1">  1        2 0.16072940E+00 0.27134665E+03</pdfrwt>
<pdfrwt beam="2">  1       -2 0.27106092E-02 0.27134665E+03</pdfrwt>
<totfact> 0.12114173E+04</totfact>
</mgrwt>
</event>
<event>
 4    1  0.1759998E-004  0.2666682E+03  0.7818608E-02  0.1103202E+00
         -2   -1    0    0    0  501 -0.00000000000E+00  0.00000000000E+00  0.14011671165E+04  0.14011671165E+04  0.00000000000E+00 0.  1.
          2   -1    0    0  501    0  0.00000000000E+00 -0.00000000000E+00 -0.12687977607E+02  0.12687977607E+02  0.00000000000E+00 0.  1.
         25    1    1    2    0    0 -0.41443593442E+02  0.11971514868E+02  0.48773047707E+03  0.50412489213E+03  0.12000000000E+03 0.  0.
         25    1    1    2    0    0  0.41443593442E+02 -0.11971514868E+02  0.90074866179E+03  0.90973020194E+03  0.12000000000E+03 0.  0.
<mgrwt>
<rscale>  0 0.26666816E+03</rscale>
<asrwt>0</asrwt>
<pdfrwt beam="1">  1        2 0.19519977E-02 0.26666816E+03</pdfrwt>
<pdfrwt beam="2">  1       -2 0.21556405E+00 0.26666816E+03</pdfrwt>
<totfact> 0.65297471E+02</totfact>
</mgrwt>
</event>
<event>
 4    1  0.1759998E-004  0.2788611E+03  0.7818608E-02  0.1096313E+00
         -2   -1    0    0    0  501 -0.00000000000E+00  0.00000000000E+00  0.17402419202E+02  0.17402419202E+02  0.00000000000E+00 0. -1.
          2   -1    0    0  501    0  0.00000000000E+00 -0.00000000000E+00 -0.11171363940E+04  0.11171363940E+04  0.00000000000E+00 0. -1.
         25    1    1    2    0    0  0.46765072347E+01  0.70835209335E+02 -0.54508894227E+03  0.56263794005E+03  0.12000000000E+03 0.  0.
         25    1    1    2    0    0 -0.46765072347E+01 -0.70835209335E+02 -0.55464503255E+03  0.57190087318E+03  0.12000000000E+03 0.  0.
<mgrwt>
<rscale>  0 0.27886108E+03</rscale>
<asrwt>0</asrwt>
<pdfrwt beam="1">  1        2 0.17186715E+00 0.27886108E+03</pdfrwt>
<pdfrwt beam="2">  1       -2 0.26772951E-02 0.27886108E+03</pdfrwt>
<totfact> 0.11188476E+04</totfact>
</mgrwt>
</event>
<event>
 4    1  0.1759998E-004  0.2790973E+03  0.7818608E-02  0.1096183E+00
          2   -1    0    0  501    0  0.00000000000E+00  0.00000000000E+00  0.54994137465E+03  0.54994137465E+03  0.00000000000E+00 0. -1.
         -2   -1    0    0    0  501 -0.00000000000E+00 -0.00000000000E+00 -0.35410729134E+02  0.35410729134E+02  0.00000000000E+00 0. -1.
         25    1    1    2    0    0 -0.56122881673E+02  0.14968452918E+02  0.17079141709E+03  0.21666458082E+03  0.12000000000E+03 0.  0.
         25    1    1    2    0    0  0.56122881673E+02 -0.14968452918E+02  0.34373922843E+03  0.36868752297E+03  0.12000000000E+03 0.  0.
<mgrwt>
<rscale>  0 0.27909730E+03</rscale>
<asrwt>0</asrwt>
<pdfrwt beam="1">  1        2 0.84606359E-01 0.27909730E+03</pdfrwt>
<pdfrwt beam="2">  1       -2 0.54478049E-02 0.27909730E+03</pdfrwt>
<totfact> 0.95450045E+03</totfact>
</mgrwt>
</event>
<event>
 4    1  0.1759998E-004  0.2724836E+03  0.7818608E-02  0.1099867E+00
          2   -1    0    0  501    0  0.00000000000E+00  0.00000000000E+00  0.18362999807E+04  0.18362999807E+04  0.00000000000E+00 0.  1.
         -2   -1    0    0    0  501 -0.00000000000E+00 -0.00000000000E+00 -0.10108276263E+02  0.10108276263E+02  0.00000000000E+00 0.  1.
         25    1    1    2    0    0  0.47975981557E+02  0.27330467650E+02  0.68701190580E+03  0.69959560317E+03  0.12000000000E+03 0.  0.
         25    1    1    2    0    0 -0.47975981557E+02 -0.27330467650E+02  0.11391797987E+04  0.11468126538E+04  0.12000000000E+03 0.  0.
<mgrwt>
<rscale>  0 0.27248360E+03</rscale>
<asrwt>0</asrwt>
<pdfrwt beam="1">  1        2 0.28250742E+00 0.27248360E+03</pdfrwt>
<pdfrwt beam="2">  1       -2 0.15551209E-02 0.27248360E+03</pdfrwt>
<totfact> 0.10133792E+04</totfact>
</mgrwt>
</event>
<event>
 4    1  0.1759998E-004  0.2563401E+03  0.7818608E-02  0.1109362E+00
         -2   -1    0    0    0  501 -0.00000000000E+00  0.00000000000E+00  0.30663624186E+03  0.30663624186E+03  0.00000000000E+00 0. -1.
          2   -1    0    0  501    0  0.00000000000E+00 -0.00000000000E+00 -0.53573461410E+02  0.53573461410E+02  0.00000000000E+00 0. -1.
         25    1    1    2    0    0 -0.12660767090E+02 -0.43146253154E+02  0.12318515399E+03  0.17775397702E+03  0.12000000000E+03 0.  0.
         25    1    1    2    0    0  0.12660767090E+02  0.43146253154E+02  0.12987762646E+03  0.18245572624E+03  0.12000000000E+03 0.  0.
<mgrwt>
<rscale>  0 0.25634012E+03</rscale>
<asrwt>0</asrwt>
<pdfrwt beam="1">  1        2 0.82420711E-02 0.25634012E+03</pdfrwt>
<pdfrwt beam="2">  1       -2 0.47174806E-01 0.25634012E+03</pdfrwt>
<totfact> 0.35042118E+03</totfact>
</mgrwt>
</event>
<event>
 4    1  0.1759998E-004  0.3613874E+03  0.7818608E-02  0.1058036E+00
          2   -1    0    0  501    0  0.00000000000E+00  0.00000000000E+00  0.10357878754E+04  0.10357878754E+04  0.00000000000E+00 0.  1.
         -2   -1    0    0    0  501 -0.00000000000E+00 -0.00000000000E+00 -0.31522103483E+02  0.31522103483E+02  0.00000000000E+00 0.  1.
         25    1    1    2    0    0 -0.51617866120E+02  0.20855176321E+02  0.13860615165E+03  0.19160116847E+03  0.12000000000E+03 0.  0.
         25    1    1    2    0    0  0.51617866120E+02 -0.20855176321E+02  0.86565962030E+03  0.87570881045E+03  0.12000000000E+03 0.  0.
<mgrwt>
<rscale>  0 0.36138740E+03</rscale>
<asrwt>0</asrwt>
<pdfrwt beam="1">  1        2 0.15935195E+00 0.36138740E+03</pdfrwt>
<pdfrwt beam="2">  1       -2 0.48495552E-02 0.36138740E+03</pdfrwt>
<totfact> 0.51431071E+03</totfact>
</mgrwt>
</event>
<event>
 4    1  0.1759998E-004  0.2424504E+03  0.7818608E-02  0.1118171E+00
         -2   -1    0    0    0  501 -0.00000000000E+00  0.00000000000E+00  0.36344474392E+03  0.36344474392E+03  0.00000000000E+00 0. -1.
          2   -1    0    0  501    0  0.00000000000E+00 -0.00000000000E+00 -0.40434071996E+02  0.40434071996E+02  0.00000000000E+00 0. -1.
         25    1    1    2    0    0 -0.10498455149E+02  0.79741154015E+01  0.14312484802E+03  0.18723922185E+03  0.12000000000E+03 0.  0.
         25    1    1    2    0    0  0.10498455149E+02 -0.79741154015E+01  0.17988582390E+03  0.21663959406E+03  0.12000000000E+03 0.  0.
<mgrwt>
<rscale>  0 0.24245042E+03</rscale>
<asrwt>0</asrwt>
<pdfrwt beam="1">  1        2 0.62206267E-02 0.24245042E+03</pdfrwt>
<pdfrwt beam="2">  1       -2 0.55914574E-01 0.24245042E+03</pdfrwt>
<totfact> 0.35681441E+03</totfact>
</mgrwt>
</event>
<event>
 4    1  0.1759998E-004  0.2650649E+03  0.7818608E-02  0.1104138E+00
          2   -1    0    0  501    0  0.00000000000E+00  0.00000000000E+00  0.89588574492E+03  0.89588574492E+03  0.00000000000E+00 0. -1.
         -2   -1    0    0    0  501 -0.00000000000E+00 -0.00000000000E+00 -0.19606120666E+02  0.19606120666E+02  0.00000000000E+00 0. -1.
         25    1    1    2    0    0 -0.19920725609E+02  0.49350236177E+02  0.50112511812E+03  0.51803345947E+03  0.12000000000E+03 0.  0.
         25    1    1    2    0    0  0.19920725609E+02 -0.49350236177E+02  0.37515450613E+03  0.39745840612E+03  0.12000000000E+03 0.  0.
<mgrwt>
<rscale>  0 0.26506485E+03</rscale>
<asrwt>0</asrwt>
<pdfrwt beam="1">  1        2 0.13782854E+00 0.26506485E+03</pdfrwt>
<pdfrwt beam="2">  1       -2 0.30163269E-02 0.26506485E+03</pdfrwt>
<totfact> 0.12781334E+04</totfact>
</mgrwt>
</event>
<event>
 4    1  0.1759998E-004  0.3420120E+03  0.7818608E-02  0.1065942E+00
         -2   -1    0    0    0  501 -0.00000000000E+00  0.00000000000E+00  0.17212098741E+02  0.17212098741E+02  0.00000000000E+00 0.  1.
          2   -1    0    0  501    0  0.00000000000E+00 -0.00000000000E+00 -0.16989824233E+04  0.16989824233E+04  0.00000000000E+00 0.  1.
         25    1    1    2    0    0 -0.66176992903E+02 -0.10197881682E+03 -0.88102230541E+03  0.89742931538E+03  0.12000000000E+03 0.  0.
         25    1    1    2    0    0  0.66176992903E+02  0.10197881682E+03 -0.80074801913E+03  0.81876520665E+03  0.12000000000E+03 0.  0.
<mgrwt>
<rscale>  0 0.34201201E+03</rscale>
<asrwt>0</asrwt>
<pdfrwt beam="1">  1        2 0.26138193E+00 0.34201201E+03</pdfrwt>
<pdfrwt beam="2">  1       -2 0.26480150E-02 0.34201201E+03</pdfrwt>
<totfact> 0.54646130E+03</totfact>
</mgrwt>
</event>
<event>
 4    1  0.1759998E-004  0.2511939E+03  0.7818608E-02  0.1112553E+00
          4   -1    0    0  501    0  0.00000000000E+00  0.00000000000E+00  0.18728835351E+03  0.18728835351E+03  0.00000000000E+00 0.  1.
         -4   -1    0    0    0  501 -0.00000000000E+00 -0.00000000000E+00 -0.84226262508E+02  0.84226262508E+02  0.00000000000E+00 0.  1.
         25    1    1    2    0    0  0.18748419904E+02 -0.21648941370E+02  0.26080167246E+02  0.12609660993E+03  0.12000000000E+03 0.  0.
         25    1    1    2    0    0 -0.18748419904E+02  0.21648941370E+02  0.76981923761E+02  0.14541800610E+03  0.12000000000E+03 0.  0.
<mgrwt>
<rscale>  0 0.25119393E+03</rscale>
<asrwt>0</asrwt>
<pdfrwt beam="1">  1        4 0.28813593E-01 0.25119393E+03</pdfrwt>
<pdfrwt beam="2">  1       -4 0.12957887E-01 0.25119393E+03</pdfrwt>
<totfact> 0.10344770E+03</totfact>
</mgrwt>
</event>
<event>
 4    1  0.1759998E-004  0.3059411E+03  0.7818608E-02  0.1082308E+00
         -2   -1    0    0    0  501 -0.00000000000E+00  0.00000000000E+00  0.17158021165E+02  0.17158021165E+02  0.00000000000E+00 0.  1.
          2   -1    0    0  501    0  0.00000000000E+00 -0.00000000000E+00 -0.13637926455E+04  0.13637926455E+04  0.00000000000E+00 0.  1.
         25    1    1    2    0    0  0.42153217459E+01  0.43182830789E+02 -0.29251214668E+03  0.31913301579E+03  0.12000000000E+03 0.  0.
         25    1    1    2    0    0 -0.42153217459E+01 -0.43182830789E+02 -0.10541224777E+04  0.10618176509E+04  0.12000000000E+03 0.  0.
<mgrwt>
<rscale>  0 0.30594106E+03</rscale>
<asrwt>0</asrwt>
<pdfrwt beam="1">  1        2 0.20981415E+00 0.30594106E+03</pdfrwt>
<pdfrwt beam="2">  1       -2 0.26396968E-02 0.30594106E+03</pdfrwt>
<totfact> 0.83088873E+03</totfact>
</mgrwt>
</event>
<event>
 4    1  0.1759998E-004  0.2573688E+03  0.7818608E-02  0.1108734E+00
          1   -1    0    0  501    0  0.00000000000E+00  0.00000000000E+00  0.44484474186E+03  0.44484474186E+03  0.00000000000E+00 0. -1.
         -1   -1    0    0    0  501 -0.00000000000E+00 -0.00000000000E+00 -0.37225752470E+02  0.37225752470E+02  0.00000000000E+00 0. -1.
         25    1    1    2    0    0 -0.34505596078E+02 -0.30458194497E+02  0.21585299759E+03  0.25121873803E+03  0.12000000000E+03 0.  0.
         25    1    1    2    0    0  0.34505596078E+02  0.30458194497E+02  0.19176599181E+03  0.23085175630E+03  0.12000000000E+03 0.  0.
<mgrwt>
<rscale>  0 0.25736884E+03</rscale>
<asrwt>0</asrwt>
<pdfrwt beam="1">  1        1 0.68437649E-01 0.25736884E+03</pdfrwt>
<pdfrwt beam="2">  1       -1 0.57270391E-02 0.25736884E+03</pdfrwt>
<totfact> 0.74948110E+03</totfact>
</mgrwt>
</event>
<event>
 4    1  0.1759998E-004  0.2876094E+03  0.7818608E-02  0.1091604E+00
          2   -1    0    0  501    0  0.00000000000E+00  0.00000000000E+00  0.27611400881E+04  0.27611400881E+04  0.00000000000E+00 0.  1.
         -2   -1    0    0    0  501 -0.00000000000E+00 -0.00000000000E+00 -0.74895825262E+01  0.74895825262E+01  0.00000000000E+00 0.  1.
         25    1    1    2    0    0 -0.23128162548E+02 -0.24697073064E+02  0.68701589971E+03  0.69823756972E+03  0.12000000000E+03 0.  0.
         25    1    1    2    0    0  0.23128162548E+02  0.24697073064E+02  0.20666346058E+04  0.20703921009E+04  0.12000000000E+03 0.  0.
<mgrwt>
<rscale>  0 0.28760936E+03</rscale>
<asrwt>0</asrwt>
<pdfrwt beam="1">  1        2 0.42478997E+00 0.28760936E+03</pdfrwt>
<pdfrwt beam="2">  1       -2 0.11522457E-02 0.28760936E+03</pdfrwt>
<totfact> 0.49709182E+03</totfact>
</mgrwt>
</event>
<event>
 4    1  0.1759998E-004  0.2630589E+03  0.7818608E-02  0.1105319E+00
          1   -1    0    0  501    0  0.00000000000E+00  0.00000000000E+00  0.64131665186E+03  0.64131665186E+03  0.00000000000E+00 0.  1.
         -1   -1    0    0    0  501 -0.00000000000E+00 -0.00000000000E+00 -0.26975741559E+02  0.26975741559E+02  0.00000000000E+00 0.  1.
         25    1    1    2    0    0 -0.45564138443E+02  0.28121059763E+02  0.29255282239E+03  0.32070865065E+03  0.12000000000E+03 0.  0.
         25    1    1    2    0    0  0.45564138443E+02 -0.28121059763E+02  0.32178808791E+03  0.34758374277E+03  0.12000000000E+03 0.  0.
<mgrwt>
<rscale>  0 0.26305887E+03</rscale>
<asrwt>0</asrwt>
<pdfrwt beam="1">  1        1 0.98664089E-01 0.26305887E+03</pdfrwt>
<pdfrwt beam="2">  1       -1 0.41501146E-02 0.26305887E+03</pdfrwt>
<totfact> 0.74106537E+03</totfact>
</mgrwt>
</event>
<event>
 4    1  0.1759998E-004  0.5381647E+03  0.7818608E-02  0.1004271E+00
          2   -1    0    0  501    0  0.00000000000E+00  0.00000000000E+00  0.99829652558E+02  0.99829652558E+02  0.00000000000E+00 0. -1.
         -2   -1    0    0    0  501 -0.00000000000E+00 -0.00000000000E+00 -0.72528873433E+03  0.72528873433E+03  0.00000000000E+00 0. -1.
         25    1    1    2    0    0  0.11882387142E+03  0.14645377482E+03 -0.54239108148E+03  0.58664802552E+03  0.12000000000E+03 0.  0.
         25    1    1    2    0    0 -0.11882387142E+03 -0.14645377482E+03 -0.83068000292E+02  0.23847036137E+03  0.12000000000E+03 0.  0.
<mgrwt>
<rscale>  0 0.53816474E+03</rscale>
<asrwt>0</asrwt>
<pdfrwt beam="1">  1        2 0.15358408E-01 0.53816474E+03</pdfrwt>
<pdfrwt beam="2">  1       -2 0.11158288E+00 0.53816474E+03</pdfrwt>
<totfact> 0.25054601E+02</totfact>
</mgrwt>
</event>
<event>
 4    1  0.1759998E-004  0.2663767E+03  0.7818608E-02  0.1103371E+00
          2   -1    0    0  501    0  0.00000000000E+00  0.00000000000E+00  0.25587381055E+03  0.25587381055E+03  0.00000000000E+00 0. -1.
         -2   -1    0    0    0  501 -0.00000000000E+00 -0.00000000000E+00 -0.69327683106E+02  0.69327683106E+02  0.00000000000E+00 0. -1.
         25    1    1    2    0    0  0.50431206989E+02 -0.27572718357E+02  0.85991225250E+02  0.15842364803E+03  0.12000000000E+03 0.  0.
         25    1    1    2    0    0 -0.50431206989E+02  0.27572718357E+02  0.10055490220E+03  0.16677784563E+03  0.12000000000E+03 0.  0.
<mgrwt>
<rscale>  0 0.26637671E+03</rscale>
<asrwt>0</asrwt>
<pdfrwt beam="1">  1        2 0.39365201E-01 0.26637671E+03</pdfrwt>
<pdfrwt beam="2">  1       -2 0.10665798E-01 0.26637671E+03</pdfrwt>
<totfact> 0.77047330E+03</totfact>
</mgrwt>
</event>
<event>
 4    1  0.1759998E-004  0.2541375E+03  0.7818608E-02  0.1110718E+00
         -2   -1    0    0    0  501 -0.00000000000E+00  0.00000000000E+00  0.27268420004E+03  0.27268420004E+03  0.00000000000E+00 0. -1.
          2   -1    0    0  501    0  0.00000000000E+00 -0.00000000000E+00 -0.59213068711E+02  0.59213068711E+02  0.00000000000E+00 0. -1.
         25    1    1    2    0    0 -0.12832461806E+02 -0.89731309356E+01  0.15733732689E+03  0.19849489562E+03  0.12000000000E+03 0.  0.
         25    1    1    2    0    0  0.12832461806E+02  0.89731309356E+01  0.56133804433E+02  0.13340237312E+03  0.12000000000E+03 0.  0.
<mgrwt>
<rscale>  0 0.25413751E+03</rscale>
<asrwt>0</asrwt>
<pdfrwt beam="1">  1        2 0.91097030E-02 0.25413751E+03</pdfrwt>
<pdfrwt beam="2">  1       -2 0.41951415E-01 0.25413751E+03</pdfrwt>
<totfact> 0.38810669E+03</totfact>
</mgrwt>
</event>
<event>
 4    1  0.1759998E-004  0.2556543E+03  0.7818608E-02  0.1109783E+00
         -1   -1    0    0    0  501 -0.00000000000E+00  0.00000000000E+00  0.18212822323E+02  0.18212822323E+02  0.00000000000E+00 0.  1.
          1   -1    0    0  501    0  0.00000000000E+00 -0.00000000000E+00 -0.89715790399E+03  0.89715790399E+03  0.00000000000E+00 0.  1.
         25    1    1    2    0    0 -0.58210635375E+00 -0.17928591876E+02 -0.58349618092E+03  0.59597782375E+03  0.12000000000E+03 0.  0.
         25    1    1    2    0    0  0.58210635375E+00  0.17928591876E+02 -0.29544890074E+03  0.31939290256E+03  0.12000000000E+03 0.  0.
<mgrwt>
<rscale>  0 0.25565428E+03</rscale>
<asrwt>0</asrwt>
<pdfrwt beam="1">  1        1 0.13802429E+00 0.25565428E+03</pdfrwt>
<pdfrwt beam="2">  1       -1 0.28019727E-02 0.25565428E+03</pdfrwt>
<totfact> 0.79780076E+03</totfact>
</mgrwt>
</event>
<event>
 4    1  0.1759998E-004  0.2446446E+03  0.7818608E-02  0.1116737E+00
         -4   -1    0    0    0  501 -0.00000000000E+00  0.00000000000E+00  0.18377924929E+03  0.18377924929E+03  0.00000000000E+00 0. -1.
          4   -1    0    0  501    0  0.00000000000E+00 -0.00000000000E+00 -0.81416971833E+02  0.81416971833E+02  0.00000000000E+00 0. -1.
         25    1    1    2    0    0 -0.10057259641E+02 -0.21222070574E+02  0.54812997054E+02  0.13399996044E+03  0.12000000000E+03 0.  0.
         25    1    1    2    0    0  0.10057259641E+02  0.21222070574E+02  0.47549280399E+02  0.13119626068E+03  0.12000000000E+03 0.  0.
<mgrwt>
<rscale>  0 0.24464464E+03</rscale>
<asrwt>0</asrwt>
<pdfrwt beam="1">  1        4 0.12525688E-01 0.24464464E+03</pdfrwt>
<pdfrwt beam="2">  1       -4 0.28273731E-01 0.24464464E+03</pdfrwt>
<totfact> 0.11325604E+03</totfact>
</mgrwt>
</event>
<event>
 4    1  0.1759998E-004  0.2466147E+03  0.7818608E-02  0.1115463E+00
          2   -1    0    0  501    0  0.00000000000E+00  0.00000000000E+00  0.30060899733E+04  0.30060899733E+04  0.00000000000E+00 0.  1.
         -2   -1    0    0    0  501 -0.00000000000E+00 -0.00000000000E+00 -0.50579680940E+01  0.50579680940E+01  0.00000000000E+00 0.  1.
         25    1    1    2    0    0  0.22619101090E+02  0.19162669709E+01  0.12927995706E+04  0.12985553610E+04  0.12000000000E+03 0.  0.
         25    1    1    2    0    0 -0.22619101090E+02 -0.19162669709E+01  0.17082324346E+04  0.17125925804E+04  0.12000000000E+03 0.  0.
<mgrwt>
<rscale>  0 0.24661474E+03</rscale>
<asrwt>0</asrwt>
<pdfrwt beam="1">  1        2 0.46247395E+00 0.24661474E+03</pdfrwt>
<pdfrwt beam="2">  1       -2 0.77815134E-03 0.24661474E+03</pdfrwt>
<totfact> 0.63467267E+03</totfact>
</mgrwt>
</event>
<event>
 4    1  0.1759998E-004  0.2654773E+03  0.7818608E-02  0.1103896E+00
         -2   -1    0    0    0  501 -0.00000000000E+00  0.00000000000E+00  0.12311536236E+03  0.12311536236E+03  0.00000000000E+00 0. -1.
          2   -1    0    0  501    0  0.00000000000E+00 -0.00000000000E+00 -0.14311416084E+03  0.14311416084E+03  0.00000000000E+00 0. -1.
         25    1    1    2    0    0  0.28297042723E+02  0.20235300673E+02  0.34953515451E+02  0.12973795999E+03  0.12000000000E+03 0.  0.
         25    1    1    2    0    0 -0.28297042723E+02 -0.20235300673E+02 -0.54952313929E+02  0.13649156321E+03  0.12000000000E+03 0.  0.
<mgrwt>
<rscale>  0 0.26547732E+03</rscale>
<asrwt>0</asrwt>
<pdfrwt beam="1">  1        2 0.22017563E-01 0.26547732E+03</pdfrwt>
<pdfrwt beam="2">  1       -2 0.18940825E-01 0.26547732E+03</pdfrwt>
<totfact> 0.56845957E+03</totfact>
</mgrwt>
</event>
<event>
 4    1  0.1759998E-004  0.3158233E+03  0.7818608E-02  0.1077588E+00
          2   -1    0    0  501    0  0.00000000000E+00  0.00000000000E+00  0.12536454314E+04  0.12536454314E+04  0.00000000000E+00 0.  1.
         -2   -1    0    0    0  501 -0.00000000000E+00 -0.00000000000E+00 -0.19890864236E+02  0.19890864236E+02  0.00000000000E+00 0.  1.
         25    1    1    2    0    0 -0.19514171309E+02 -0.10039742402E+03  0.58180544490E+03  0.60279185574E+03  0.12000000000E+03 0.  0.
         25    1    1    2    0    0  0.19514171309E+02  0.10039742402E+03  0.65194912227E+03  0.67074443990E+03  0.12000000000E+03 0.  0.
<mgrwt>
<rscale>  0 0.31582331E+03</rscale>
<asrwt>0</asrwt>
<pdfrwt beam="1">  1        2 0.19286847E+00 0.31582331E+03</pdfrwt>
<pdfrwt beam="2">  1       -2 0.30601339E-02 0.31582331E+03</pdfrwt>
<totfact> 0.76787144E+03</totfact>
</mgrwt>
</event>
<event>
 4    1  0.1759998E-004  0.3815721E+03  0.7818608E-02  0.1050354E+00
          2   -1    0    0  501    0  0.00000000000E+00  0.00000000000E+00  0.15881480732E+04  0.15881480732E+04  0.00000000000E+00 0.  1.
         -2   -1    0    0    0  501 -0.00000000000E+00 -0.00000000000E+00 -0.22919347174E+02  0.22919347174E+02  0.00000000000E+00 0.  1.
         25    1    1    2    0    0  0.10977616683E+03  0.63205734662E+02  0.45683397572E+03  0.48902254863E+03  0.12000000000E+03 0.  0.
         25    1    1    2    0    0 -0.10977616683E+03 -0.63205734662E+02  0.11083947503E+04  0.11220448718E+04  0.12000000000E+03 0.  0.
<mgrwt>
<rscale>  0 0.38157210E+03</rscale>
<asrwt>0</asrwt>
<pdfrwt beam="1">  1        2 0.24433039E+00 0.38157210E+03</pdfrwt>
<pdfrwt beam="2">  1       -2 0.35260547E-02 0.38157210E+03</pdfrwt>
<totfact> 0.40739196E+03</totfact>
</mgrwt>
</event>
<event>
 4    1  0.1759998E-004  0.2580859E+03  0.7818608E-02  0.1108299E+00
         -2   -1    0    0    0  501 -0.00000000000E+00  0.00000000000E+00  0.14308185951E+02  0.14308185951E+02  0.00000000000E+00 0. -1.
          2   -1    0    0  501    0  0.00000000000E+00 -0.00000000000E+00 -0.11638149348E+04  0.11638149348E+04  0.00000000000E+00 0. -1.
         25    1    1    2    0    0  0.37415641677E+02  0.26228210480E+02 -0.51625358408E+03  0.53198271809E+03  0.12000000000E+03 0.  0.
         25    1    1    2    0    0 -0.37415641677E+02 -0.26228210480E+02 -0.63325316478E+03  0.64614040268E+03  0.12000000000E+03 0.  0.
<mgrwt>
<rscale>  0 0.25808588E+03</rscale>
<asrwt>0</asrwt>
<pdfrwt beam="1">  1        2 0.17904849E+00 0.25808588E+03</pdfrwt>
<pdfrwt beam="2">  1       -2 0.22012590E-02 0.25808588E+03</pdfrwt>
<totfact> 0.14008214E+04</totfact>
</mgrwt>
</event>
<event>
 4    1  0.1759998E-004  0.3155383E+03  0.7818608E-02  0.1077721E+00
          3   -1    0    0  501    0  0.00000000000E+00  0.00000000000E+00  0.30013143731E+02  0.30013143731E+02  0.00000000000E+00 0. -1.
         -3   -1    0    0    0  501 -0.00000000000E+00 -0.00000000000E+00 -0.82933994303E+03  0.82933994303E+03  0.00000000000E+00 0. -1.
         25    1    1    2    0    0  0.29369449366E+02  0.88064831764E+02 -0.51753315531E+03  0.53931303155E+03  0.12000000000E+03 0.  0.
         25    1    1    2    0    0 -0.29369449366E+02 -0.88064831764E+02 -0.28179364398E+03  0.32004005521E+03  0.12000000000E+03 0.  0.
<mgrwt>
<rscale>  0 0.31553826E+03</rscale>
<asrwt>0</asrwt>
<pdfrwt beam="1">  1        3 0.46174066E-02 0.31553826E+03</pdfrwt>
<pdfrwt beam="2">  1       -3 0.12759076E+00 0.31553826E+03</pdfrwt>
<totfact> 0.33800194E+02</totfact>
</mgrwt>
</event>
<event>
 4    1  0.1759998E-004  0.3092923E+03  0.7818608E-02  0.1080686E+00
         -1   -1    0    0    0  501 -0.00000000000E+00  0.00000000000E+00  0.17028971947E+03  0.17028971947E+03  0.00000000000E+00 0. -1.
          1   -1    0    0  501    0  0.00000000000E+00 -0.00000000000E+00 -0.14043962765E+03  0.14043962765E+03  0.00000000000E+00 0. -1.
         25    1    1    2    0    0  0.33662706533E+02  0.34810242802E+02  0.99997265688E+02  0.16353710270E+03  0.12000000000E+03 0.  0.
         25    1    1    2    0    0 -0.33662706533E+02 -0.34810242802E+02 -0.70147173862E+02  0.14719224442E+03  0.12000000000E+03 0.  0.
<mgrwt>
<rscale>  0 0.30929226E+03</rscale>
<asrwt>0</asrwt>
<pdfrwt beam="1">  1        1 0.21606096E-01 0.30929226E+03</pdfrwt>
<pdfrwt beam="2">  1       -1 0.26198419E-01 0.30929226E+03</pdfrwt>
<totfact> 0.29712967E+03</totfact>
</mgrwt>
</event>
<event>
 4    1  0.1759998E-004  0.3412749E+03  0.7818608E-02  0.1066254E+00
         -1   -1    0    0    0  501 -0.00000000000E+00  0.00000000000E+00  0.19518127210E+02  0.19518127210E+02  0.00000000000E+00 0.  1.
          1   -1    0    0  501    0  0.00000000000E+00 -0.00000000000E+00 -0.14917998697E+04  0.14917998697E+04  0.00000000000E+00 0.  1.
         25    1    1    2    0    0  0.63706581692E+02 -0.98629924658E+02 -0.87124474528E+03  0.88727323681E+03  0.12000000000E+03 0.  0.
         25    1    1    2    0    0 -0.63706581692E+02  0.98629924658E+02 -0.60103699724E+03  0.62404476013E+03  0.12000000000E+03 0.  0.
<mgrwt>
<rscale>  0 0.34127490E+03</rscale>
<asrwt>0</asrwt>
<pdfrwt beam="1">  1        1 0.22950787E+00 0.34127490E+03</pdfrwt>
<pdfrwt beam="2">  1       -1 0.30027862E-02 0.34127490E+03</pdfrwt>
<totfact> 0.27311723E+03</totfact>
</mgrwt>
</event>
<event>
 4    1  0.1759998E-004  0.2967435E+03  0.7818608E-02  0.1086880E+00
         -1   -1    0    0    0  501 -0.00000000000E+00  0.00000000000E+00  0.48586948821E+02  0.48586948821E+02  0.00000000000E+00 0. -1.
          1   -1    0    0  501    0  0.00000000000E+00 -0.00000000000E+00 -0.45308825748E+03  0.45308825748E+03  0.00000000000E+00 0. -1.
         25    1    1    2    0    0  0.32226584042E+02 -0.72492379157E+02 -0.14081690137E+03  0.20130349591E+03  0.12000000000E+03 0.  0.
         25    1    1    2    0    0 -0.32226584042E+02  0.72492379157E+02 -0.26368440729E+03  0.30037171039E+03  0.12000000000E+03 0.  0.
<mgrwt>
<rscale>  0 0.29674350E+03</rscale>
<asrwt>0</asrwt>
<pdfrwt beam="1">  1        1 0.69705885E-01 0.29674350E+03</pdfrwt>
<pdfrwt beam="2">  1       -1 0.74749153E-02 0.29674350E+03</pdfrwt>
<totfact> 0.49100445E+03</totfact>
</mgrwt>
</event>
<event>
 4    1  0.1759998E-004  0.2468164E+03  0.7818608E-02  0.1115333E+00
          1   -1    0    0  501    0  0.00000000000E+00  0.00000000000E+00  0.66798647752E+03  0.66798647752E+03  0.00000000000E+00 0. -1.
         -1   -1    0    0    0  501 -0.00000000000E+00 -0.00000000000E+00 -0.22799246120E+02  0.22799246120E+02  0.00000000000E+00 0. -1.
         25    1    1    2    0    0  0.15405211330E+02 -0.14615917065E+02  0.37705441112E+03  0.39625872169E+03  0.12000000000E+03 0.  0.
         25    1    1    2    0    0 -0.15405211330E+02  0.14615917065E+02  0.26813282027E+03  0.29452700195E+03  0.12000000000E+03 0.  0.
<mgrwt>
<rscale>  0 0.24681643E+03</rscale>
<asrwt>0</asrwt>
<pdfrwt beam="1">  1        1 0.10276714E+00 0.24681643E+03</pdfrwt>
<pdfrwt beam="2">  1       -1 0.35075768E-02 0.24681643E+03</pdfrwt>
<totfact> 0.89542245E+03</totfact>
</mgrwt>
</event>
<event>
 4    1  0.1759998E-004  0.2862045E+03  0.7818608E-02  0.1092348E+00
          2   -1    0    0  501    0  0.00000000000E+00  0.00000000000E+00  0.42913617826E+03  0.42913617826E+03  0.00000000000E+00 0.  1.
         -2   -1    0    0    0  501 -0.00000000000E+00 -0.00000000000E+00 -0.47719718778E+02  0.47719718778E+02  0.00000000000E+00 0.  1.
         25    1    1    2    0    0 -0.31550531882E+02 -0.90904413069E+01  0.72892379879E+02  0.14419213304E+03  0.12000000000E+03 0.  0.
         25    1    1    2    0    0  0.31550531882E+02  0.90904413069E+01  0.30852407961E+03  0.33266376400E+03  0.12000000000E+03 0.  0.
<mgrwt>
<rscale>  0 0.28620453E+03</rscale>
<asrwt>0</asrwt>
<pdfrwt beam="1">  1        2 0.66020948E-01 0.28620453E+03</pdfrwt>
<pdfrwt beam="2">  1       -2 0.73414955E-02 0.28620453E+03</pdfrwt>
<totfact> 0.79574578E+03</totfact>
</mgrwt>
</event>
<event>
 4    1  0.1759998E-004  0.2685995E+03  0.7818608E-02  0.1102084E+00
         -2   -1    0    0    0  501 -0.00000000000E+00  0.00000000000E+00  0.12861429234E+02  0.12861429234E+02  0.00000000000E+00 0.  1.
          2   -1    0    0  501    0  0.00000000000E+00 -0.00000000000E+00 -0.14023652657E+04  0.14023652657E+04  0.00000000000E+00 0.  1.
         25    1    1    2    0    0  0.18439226375E+02 -0.20574717472E+02 -0.41233155116E+03  0.43032619273E+03  0.12000000000E+03 0.  0.
         25    1    1    2    0    0 -0.18439226375E+02  0.20574717472E+02 -0.97717228526E+03  0.98490050216E+03  0.12000000000E+03 0.  0.
<mgrwt>
<rscale>  0 0.26859949E+03</rscale>
<asrwt>0</asrwt>
<pdfrwt beam="1">  1        2 0.21574841E+00 0.26859949E+03</pdfrwt>
<pdfrwt beam="2">  1       -2 0.19786822E-02 0.26859949E+03</pdfrwt>
<totfact> 0.12088916E+04</totfact>
</mgrwt>
</event>
<event>
 4    1  0.1759998E-004  0.2447736E+03  0.7818608E-02  0.1116653E+00
         -2   -1    0    0    0  501 -0.00000000000E+00  0.00000000000E+00  0.12557826719E+02  0.12557826719E+02  0.00000000000E+00 0.  1.
          2   -1    0    0  501    0  0.00000000000E+00 -0.00000000000E+00 -0.11927640257E+04  0.11927640257E+04  0.00000000000E+00 0.  1.
         25    1    1    2    0    0  0.13920397396E+02 -0.11514515850E+02 -0.66829804848E+03  0.67922650356E+03  0.12000000000E+03 0.  0.
         25    1    1    2    0    0 -0.13920397396E+02  0.11514515850E+02 -0.51190815049E+03  0.52609534885E+03  0.12000000000E+03 0.  0.
<mgrwt>
<rscale>  0 0.24477356E+03</rscale>
<asrwt>0</asrwt>
<pdfrwt beam="1">  1        2 0.18350210E+00 0.24477356E+03</pdfrwt>
<pdfrwt beam="2">  1       -2 0.19319740E-02 0.24477356E+03</pdfrwt>
<totfact> 0.16304852E+04</totfact>
</mgrwt>
</event>
<event>
 4    1  0.1759998E-004  0.2599347E+03  0.7818608E-02  0.1107182E+00
          1   -1    0    0  501    0  0.00000000000E+00  0.00000000000E+00  0.19479900159E+04  0.19479900159E+04  0.00000000000E+00 0. -1.
         -1   -1    0    0    0  501 -0.00000000000E+00 -0.00000000000E+00 -0.86712546268E+01  0.86712546268E+01  0.00000000000E+00 0. -1.
         25    1    1    2    0    0  0.27845348379E+02 -0.39999781907E+02  0.10507930360E+04  0.10587451773E+04  0.12000000000E+03 0.  0.
         25    1    1    2    0    0 -0.27845348379E+02  0.39999781907E+02  0.88852572531E+03  0.89791609325E+03  0.12000000000E+03 0.  0.
<mgrwt>
<rscale>  0 0.25993474E+03</rscale>
<asrwt>0</asrwt>
<pdfrwt beam="1">  1        1 0.29969042E+00 0.25993474E+03</pdfrwt>
<pdfrwt beam="2">  1       -1 0.13340407E-02 0.25993474E+03</pdfrwt>
<totfact> 0.45132187E+03</totfact>
</mgrwt>
</event>
<event>
 4    1  0.1759998E-004  0.3341028E+03  0.7818608E-02  0.1069336E+00
         -2   -1    0    0    0  501 -0.00000000000E+00  0.00000000000E+00  0.12651308708E+02  0.12651308708E+02  0.00000000000E+00 0. -1.
          2   -1    0    0  501    0  0.00000000000E+00 -0.00000000000E+00 -0.22057926566E+04  0.22057926566E+04  0.00000000000E+00 0. -1.
         25    1    1    2    0    0 -0.11518086750E+03 -0.15241880312E+02 -0.10787330308E+04  0.10915877880E+04  0.12000000000E+03 0.  0.
         25    1    1    2    0    0  0.11518086750E+03  0.15241880312E+02 -0.11144083171E+04  0.11268561773E+04  0.12000000000E+03 0.  0.
<mgrwt>
<rscale>  0 0.33410276E+03</rscale>
<asrwt>0</asrwt>
<pdfrwt beam="1">  1        2 0.33935253E+00 0.33410276E+03</pdfrwt>
<pdfrwt beam="2">  1       -2 0.19463562E-02 0.33410276E+03</pdfrwt>
<totfact> 0.46460836E+03</totfact>
</mgrwt>
</event>
<event>
 4    1  0.1759998E-004  0.2807393E+03  0.7818608E-02  0.1095286E+00
          1   -1    0    0  501    0  0.00000000000E+00  0.00000000000E+00  0.16732136737E+03  0.16732136737E+03  0.00000000000E+00 0.  1.
         -1   -1    0    0    0  501 -0.00000000000E+00 -0.00000000000E+00 -0.11775922120E+03  0.11775922120E+03  0.00000000000E+00 0.  1.
         25    1    1    2    0    0 -0.41406629059E+02  0.88028640228E+01 -0.35394348809E+02  0.13207861020E+03  0.12000000000E+03 0.  0.
         25    1    1    2    0    0  0.41406629059E+02 -0.88028640228E+01  0.84956494979E+02  0.15300197837E+03  0.12000000000E+03 0.  0.
<mgrwt>
<rscale>  0 0.28073927E+03</rscale>
<asrwt>0</asrwt>
<pdfrwt beam="1">  1        1 0.25741749E-01 0.28073927E+03</pdfrwt>
<pdfrwt beam="2">  1       -1 0.18116803E-01 0.28073927E+03</pdfrwt>
<totfact> 0.43434416E+03</totfact>
</mgrwt>
</event>
<event>
 4    1  0.1759998E-004  0.2531994E+03  0.7818608E-02  0.1111299E+00
         -2   -1    0    0    0  501 -0.00000000000E+00  0.00000000000E+00  0.11255755700E+02  0.11255755700E+02  0.00000000000E+00 0.  1.
          2   -1    0    0  501    0  0.00000000000E+00 -0.00000000000E+00 -0.14239372480E+04  0.14239372480E+04  0.00000000000E+00 0.  1.
         25    1    1    2    0    0  0.10881093913E+02  0.36054892034E+02 -0.78831214035E+03  0.79828214565E+03  0.12000000000E+03 0.  0.
         25    1    1    2    0    0 -0.10881093913E+02 -0.36054892034E+02 -0.62436935199E+03  0.63691085809E+03  0.12000000000E+03 0.  0.
<mgrwt>
<rscale>  0 0.25319945E+03</rscale>
<asrwt>0</asrwt>
<pdfrwt beam="1">  1        2 0.21906730E+00 0.25319945E+03</pdfrwt>
<pdfrwt beam="2">  1       -2 0.17316545E-02 0.25319945E+03</pdfrwt>
<totfact> 0.14287452E+04</totfact>
</mgrwt>
</event>
<event>
 4    1  0.1759998E-004  0.2690048E+03  0.7818608E-02  0.1101851E+00
         -1   -1    0    0    0  501 -0.00000000000E+00  0.00000000000E+00  0.24336304701E+03  0.24336304701E+03  0.00000000000E+00 0. -1.
          1   -1    0    0  501    0  0.00000000000E+00 -0.00000000000E+00 -0.74337061627E+02  0.74337061627E+02  0.00000000000E+00 0. -1.
         25    1    1    2    0    0 -0.40121126401E+02 -0.45388812045E+02  0.79095110517E+02  0.15596757852E+03  0.12000000000E+03 0.  0.
         25    1    1    2    0    0  0.40121126401E+02  0.45388812045E+02  0.89930874863E+02  0.16173253011E+03  0.12000000000E+03 0.  0.
<mgrwt>
<rscale>  0 0.26900479E+03</rscale>
<asrwt>0</asrwt>
<pdfrwt beam="1">  1        1 0.11436471E-01 0.26900479E+03</pdfrwt>
<pdfrwt beam="2">  1       -1 0.37440468E-01 0.26900479E+03</pdfrwt>
<totfact> 0.36953688E+03</totfact>
</mgrwt>
</event>
<event>
 4    1  0.1759998E-004  0.5178350E+03  0.7818608E-02  0.1009226E+00
         -2   -1    0    0    0  501 -0.00000000000E+00  0.00000000000E+00  0.59872761215E+02  0.59872761215E+02  0.00000000000E+00 0.  1.
          2   -1    0    0  501    0  0.00000000000E+00 -0.00000000000E+00 -0.11196791438E+04  0.11196791438E+04  0.00000000000E+00 0.  1.
         25    1    1    2    0    0  0.18196230402E+03 -0.13655419370E+02 -0.84669289060E+03  0.87440585632E+03  0.12000000000E+03 0.  0.
         25    1    1    2    0    0 -0.18196230402E+03  0.13655419370E+02 -0.21311349194E+03  0.30514604865E+03  0.12000000000E+03 0.  0.
<mgrwt>
<rscale>  0 0.51783504E+03</rscale>
<asrwt>0</asrwt>
<pdfrwt beam="1">  1        2 0.17225833E+00 0.51783504E+03</pdfrwt>
<pdfrwt beam="2">  1       -2 0.92111942E-02 0.51783504E+03</pdfrwt>
<totfact> 0.16775196E+03</totfact>
</mgrwt>
</event>
<event>
 4    1  0.1759998E-004  0.3264516E+03  0.7818608E-02  0.1072718E+00
          2   -1    0    0  501    0  0.00000000000E+00  0.00000000000E+00  0.49588405464E+03  0.49588405464E+03  0.00000000000E+00 0. -1.
         -2   -1    0    0    0  501 -0.00000000000E+00 -0.00000000000E+00 -0.53727596182E+02  0.53727596182E+02  0.00000000000E+00 0. -1.
         25    1    1    2    0    0 -0.77649544667E+02 -0.20465779937E+02  0.92921967299E+02  0.17170553847E+03  0.12000000000E+03 0.  0.
         25    1    1    2    0    0  0.77649544667E+02  0.20465779937E+02  0.34923449116E+03  0.37790611235E+03  0.12000000000E+03 0.  0.
<mgrwt>
<rscale>  0 0.32645158E+03</rscale>
<asrwt>0</asrwt>
<pdfrwt beam="1">  1        2 0.76289851E-01 0.32645158E+03</pdfrwt>
<pdfrwt beam="2">  1       -2 0.82657844E-02 0.32645158E+03</pdfrwt>
<totfact> 0.56528665E+03</totfact>
</mgrwt>
</event>
<event>
 4    1  0.1759998E-004  0.3284813E+03  0.7818608E-02  0.1071811E+00
         -1   -1    0    0    0  501 -0.00000000000E+00  0.00000000000E+00  0.37827815972E+02  0.37827815972E+02  0.00000000000E+00 0. -1.
          1   -1    0    0  501    0  0.00000000000E+00 -0.00000000000E+00 -0.71309920806E+03  0.71309920806E+03  0.00000000000E+00 0. -1.
         25    1    1    2    0    0 -0.10430057434E+03  0.26738193920E+02 -0.40925334572E+03  0.43986570883E+03  0.12000000000E+03 0.  0.
         25    1    1    2    0    0  0.10430057434E+03 -0.26738193920E+02 -0.26601804636E+03  0.31106131520E+03  0.12000000000E+03 0.  0.
<mgrwt>
<rscale>  0 0.32848127E+03</rscale>
<asrwt>0</asrwt>
<pdfrwt beam="1">  1        1 0.10970757E+00 0.32848127E+03</pdfrwt>
<pdfrwt beam="2">  1       -1 0.58196638E-02 0.32848127E+03</pdfrwt>
<totfact> 0.38466405E+03</totfact>
</mgrwt>
</event>
<event>
 4    1  0.1759998E-004  0.2509787E+03  0.7818608E-02  0.1112688E+00
          1   -1    0    0  501    0  0.00000000000E+00  0.00000000000E+00  0.39694986933E+03  0.39694986933E+03  0.00000000000E+00 0.  1.
         -1   -1    0    0    0  501 -0.00000000000E+00 -0.00000000000E+00 -0.39671434545E+02  0.39671434545E+02  0.00000000000E+00 0.  1.
         25    1    1    2    0    0 -0.24286619466E+02  0.38003488753E+01  0.13120991162E+03  0.17950020458E+03  0.12000000000E+03 0.  0.
         25    1    1    2    0    0  0.24286619466E+02 -0.38003488753E+01  0.22606852317E+03  0.25712109930E+03  0.12000000000E+03 0.  0.
<mgrwt>
<rscale>  0 0.25097865E+03</rscale>
<asrwt>0</asrwt>
<pdfrwt beam="1">  1        1 0.61069208E-01 0.25097865E+03</pdfrwt>
<pdfrwt beam="2">  1       -1 0.61032979E-02 0.25097865E+03</pdfrwt>
<totfact> 0.78792828E+03</totfact>
</mgrwt>
</event>
<event>
 4    1  0.1759998E-004  0.2463774E+03  0.7818608E-02  0.1115616E+00
          1   -1    0    0  501    0  0.00000000000E+00  0.00000000000E+00  0.42794318007E+03  0.42794318007E+03  0.00000000000E+00 0. -1.
         -1   -1    0    0    0  501 -0.00000000000E+00 -0.00000000000E+00 -0.35461390995E+02  0.35461390995E+02  0.00000000000E+00 0. -1.
         25    1    1    2    0    0  0.18146551702E+02  0.14952384595E+02  0.16817935398E+03  0.20793548578E+03  0.12000000000E+03 0.  0.
         25    1    1    2    0    0 -0.18146551702E+02 -0.14952384595E+02  0.22430243510E+03  0.25546908528E+03  0.12000000000E+03 0.  0.
<mgrwt>
<rscale>  0 0.24637744E+03</rscale>
<asrwt>0</asrwt>
<pdfrwt beam="1">  1        1 0.65837409E-01 0.24637744E+03</pdfrwt>
<pdfrwt beam="2">  1       -1 0.54555989E-02 0.24637744E+03</pdfrwt>
<totfact> 0.84618100E+03</totfact>
</mgrwt>
</event>
<event>
 4    1  0.1759998E-004  0.3337866E+03  0.7818608E-02  0.1069474E+00
          2   -1    0    0  501    0  0.00000000000E+00  0.00000000000E+00  0.45078458617E+03  0.45078458617E+03  0.00000000000E+00 0.  1.
         -2   -1    0    0    0  501 -0.00000000000E+00 -0.00000000000E+00 -0.61788673495E+02  0.61788673495E+02  0.00000000000E+00 0.  1.
         25    1    1    2    0    0  0.96595131211E+02 -0.53802556992E+02  0.14068405263E+03  0.21544683144E+03  0.12000000000E+03 0.  0.
         25    1    1    2    0    0 -0.96595131211E+02  0.53802556992E+02  0.24831186004E+03  0.29712642823E+03  0.12000000000E+03 0.  0.
<mgrwt>
<rscale>  0 0.33378665E+03</rscale>
<asrwt>0</asrwt>
<pdfrwt beam="1">  1        2 0.69351473E-01 0.33378665E+03</pdfrwt>
<pdfrwt beam="2">  1       -2 0.95059501E-02 0.33378665E+03</pdfrwt>
<totfact> 0.50435179E+03</totfact>
</mgrwt>
</event>
<event>
 4    1  0.1759998E-004  0.2909460E+03  0.7818608E-02  0.1089856E+00
         -2   -1    0    0    0  501 -0.00000000000E+00  0.00000000000E+00  0.81435706200E+02  0.81435706200E+02  0.00000000000E+00 0. -1.
          2   -1    0    0  501    0  0.00000000000E+00 -0.00000000000E+00 -0.25986620720E+03  0.25986620720E+03  0.00000000000E+00 0. -1.
         25    1    1    2    0    0  0.10240637993E+01 -0.77047339765E+02 -0.12291026828E+03  0.18826650079E+03  0.12000000000E+03 0.  0.
         25    1    1    2    0    0 -0.10240637993E+01  0.77047339765E+02 -0.55520232720E+02  0.15303541261E+03  0.12000000000E+03 0.  0.
<mgrwt>
<rscale>  0 0.29094596E+03</rscale>
<asrwt>0</asrwt>
<pdfrwt beam="1">  1        2 0.39979416E-01 0.29094596E+03</pdfrwt>
<pdfrwt beam="2">  1       -2 0.12528570E-01 0.29094596E+03</pdfrwt>
<totfact> 0.58659149E+03</totfact>
</mgrwt>
</event>
<event>
 4    1  0.1759998E-004  0.2913648E+03  0.7818608E-02  0.1089639E+00
         -1   -1    0    0    0  501 -0.00000000000E+00  0.00000000000E+00  0.24508476759E+02  0.24508476759E+02  0.00000000000E+00 0. -1.
          1   -1    0    0  501    0  0.00000000000E+00 -0.00000000000E+00 -0.86596011585E+03  0.86596011585E+03  0.00000000000E+00 0. -1.
         25    1    1    2    0    0  0.52924668532E+02  0.59236781189E+02 -0.35148107047E+03  0.37980121075E+03  0.12000000000E+03 0.  0.
         25    1    1    2    0    0 -0.52924668532E+02 -0.59236781189E+02 -0.48997056862E+03  0.51066738186E+03  0.12000000000E+03 0.  0.
<mgrwt>
<rscale>  0 0.29136481E+03</rscale>
<asrwt>0</asrwt>
<pdfrwt beam="1">  1        1 0.13322463E+00 0.29136481E+03</pdfrwt>
<pdfrwt beam="2">  1       -1 0.37705350E-02 0.29136481E+03</pdfrwt>
<totfact> 0.54623933E+03</totfact>
</mgrwt>
</event>
<event>
 4    1  0.1759998E-004  0.2687904E+03  0.7818608E-02  0.1101974E+00
          2   -1    0    0  501    0  0.00000000000E+00  0.00000000000E+00  0.35415620579E+03  0.35415620579E+03  0.00000000000E+00 0. -1.
         -2   -1    0    0    0  501 -0.00000000000E+00 -0.00000000000E+00 -0.51000299064E+02  0.51000299064E+02  0.00000000000E+00 0. -1.
         25    1    1    2    0    0 -0.34296783460E+02 -0.41952661959E+02  0.19218586861E+03  0.23296287965E+03  0.12000000000E+03 0.  0.
         25    1    1    2    0    0  0.34296783460E+02  0.41952661959E+02  0.11097003811E+03  0.17219362520E+03  0.12000000000E+03 0.  0.
<mgrwt>
<rscale>  0 0.26879042E+03</rscale>
<asrwt>0</asrwt>
<pdfrwt beam="1">  1        2 0.54485569E-01 0.26879042E+03</pdfrwt>
<pdfrwt beam="2">  1       -2 0.78462001E-02 0.26879042E+03</pdfrwt>
<totfact> 0.88180959E+03</totfact>
</mgrwt>
</event>
<event>
 4    1  0.1759998E-004  0.2816662E+03  0.7818608E-02  0.1094782E+00
         -2   -1    0    0    0  501 -0.00000000000E+00  0.00000000000E+00  0.23788666922E+02  0.23788666922E+02  0.00000000000E+00 0.  1.
          2   -1    0    0  501    0  0.00000000000E+00 -0.00000000000E+00 -0.83375648573E+03  0.83375648573E+03  0.00000000000E+00 0.  1.
         25    1    1    2    0    0  0.50809102187E+02 -0.40001944513E+02 -0.29724682025E+03  0.32701283244E+03  0.12000000000E+03 0.  0.
         25    1    1    2    0    0 -0.50809102187E+02  0.40001944513E+02 -0.51272099856E+03  0.53053232021E+03  0.12000000000E+03 0.  0.
<mgrwt>
<rscale>  0 0.28166615E+03</rscale>
<asrwt>0</asrwt>
<pdfrwt beam="1">  1        2 0.12827020E+00 0.28166615E+03</pdfrwt>
<pdfrwt beam="2">  1       -2 0.36597958E-02 0.28166615E+03</pdfrwt>
<totfact> 0.10546269E+04</totfact>
</mgrwt>
</event>
<event>
 4    1  0.1759998E-004  0.3162781E+03  0.7818608E-02  0.1077375E+00
          3   -1    0    0  501    0  0.00000000000E+00  0.00000000000E+00  0.74665507456E+02  0.74665507456E+02  0.00000000000E+00 0.  1.
         -3   -1    0    0    0  501 -0.00000000000E+00 -0.00000000000E+00 -0.33493330663E+03  0.33493330663E+03  0.00000000000E+00 0.  1.
         25    1    1    2    0    0 -0.45897519735E+02  0.22036101505E+02 -0.14186031326E+02  0.13112366519E+03  0.12000000000E+03 0.  0.
         25    1    1    2    0    0  0.45897519735E+02 -0.22036101505E+02 -0.24608176785E+03  0.27847514890E+03  0.12000000000E+03 0.  0.
<mgrwt>
<rscale>  0 0.31627814E+03</rscale>
<asrwt>0</asrwt>
<pdfrwt beam="1">  1        3 0.11487001E-01 0.31627814E+03</pdfrwt>
<pdfrwt beam="2">  1       -3 0.51528201E-01 0.31627814E+03</pdfrwt>
<totfact> 0.56562329E+02</totfact>
</mgrwt>
</event>
<event>
 4    1  0.1759998E-004  0.3032231E+03  0.7818608E-02  0.1083640E+00
         -2   -1    0    0    0  501 -0.00000000000E+00  0.00000000000E+00  0.11630876128E+02  0.11630876128E+02  0.00000000000E+00 0.  1.
          2   -1    0    0  501    0  0.00000000000E+00 -0.00000000000E+00 -0.19762970394E+04  0.19762970394E+04  0.00000000000E+00 0.  1.
         25    1    1    2    0    0  0.89469203940E+01  0.34933533881E+02 -0.15419269752E+04  0.15470097595E+04  0.12000000000E+03 0.  0.
         25    1    1    2    0    0 -0.89469203940E+01 -0.34933533881E+02 -0.42273918807E+03  0.44091815602E+03  0.12000000000E+03 0.  0.
<mgrwt>
<rscale>  0 0.30322313E+03</rscale>
<asrwt>0</asrwt>
<pdfrwt beam="1">  1        2 0.30404592E+00 0.30322313E+03</pdfrwt>
<pdfrwt beam="2">  1       -2 0.17893643E-02 0.30322313E+03</pdfrwt>
<totfact> 0.69678672E+03</totfact>
</mgrwt>
</event>
<event>
 4    1  0.1759998E-004  0.2706960E+03  0.7818608E-02  0.1100882E+00
         -2   -1    0    0    0  501 -0.00000000000E+00  0.00000000000E+00  0.11957999026E+02  0.11957999026E+02  0.00000000000E+00 0.  1.
          2   -1    0    0  501    0  0.00000000000E+00 -0.00000000000E+00 -0.15319517982E+04  0.15319517982E+04  0.00000000000E+00 0.  1.
         25    1    1    2    0    0 -0.55807993035E+02 -0.16052040840E+02 -0.62661854657E+03  0.64064264845E+03  0.12000000000E+03 0.  0.
         25    1    1    2    0    0  0.55807993035E+02  0.16052040840E+02 -0.89337525260E+03  0.90326714878E+03  0.12000000000E+03 0.  0.
<mgrwt>
<rscale>  0 0.27069598E+03</rscale>
<asrwt>0</asrwt>
<pdfrwt beam="1">  1        2 0.23568485E+00 0.27069598E+03</pdfrwt>
<pdfrwt beam="2">  1       -2 0.18396925E-02 0.27069598E+03</pdfrwt>
<totfact> 0.11462999E+04</totfact>
</mgrwt>
</event>
<event>
 4    1  0.1759998E-004  0.3022837E+03  0.7818608E-02  0.1084105E+00
          1   -1    0    0  501    0  0.00000000000E+00  0.00000000000E+00  0.33857195446E+02  0.33857195446E+02  0.00000000000E+00 0.  1.
         -1   -1    0    0    0  501 -0.00000000000E+00 -0.00000000000E+00 -0.67471204021E+03  0.67471204021E+03  0.00000000000E+00 0.  1.
         25    1    1    2    0    0 -0.49790725390E+02 -0.30367229496E+01 -0.13953207458E+03  0.19067652676E+03  0.12000000000E+03 0.  0.
         25    1    1    2    0    0  0.49790725390E+02  0.30367229496E+01 -0.50132277019E+03  0.51789270890E+03  0.12000000000E+03 0.  0.
<mgrwt>
<rscale>  0 0.30228369E+03</rscale>
<asrwt>0</asrwt>
<pdfrwt beam="1">  1        1 0.52087992E-02 0.30228369E+03</pdfrwt>
<pdfrwt beam="2">  1       -1 0.10380185E+00 0.30228369E+03</pdfrwt>
<totfact> 0.14590925E+03</totfact>
</mgrwt>
</event>
<event>
 4    1  0.1759998E-004  0.3218444E+03  0.7818608E-02  0.1074804E+00
         -2   -1    0    0    0  501 -0.00000000000E+00  0.00000000000E+00  0.19583021667E+02  0.19583021667E+02  0.00000000000E+00 0. -1.
          2   -1    0    0  501    0  0.00000000000E+00 -0.00000000000E+00 -0.13223676459E+04  0.13223676459E+04  0.00000000000E+00 0. -1.
         25    1    1    2    0    0  0.10155690257E+03 -0.31551986857E+02 -0.70835256765E+03  0.72627315276E+03  0.12000000000E+03 0.  0.
         25    1    1    2    0    0 -0.10155690257E+03  0.31551986857E+02 -0.59443205655E+03  0.61567751477E+03  0.12000000000E+03 0.  0.
<mgrwt>
<rscale>  0 0.32184440E+03</rscale>
<asrwt>0</asrwt>
<pdfrwt beam="1">  1        2 0.20344126E+00 0.32184440E+03</pdfrwt>
<pdfrwt beam="2">  1       -2 0.30127713E-02 0.32184440E+03</pdfrwt>
<totfact> 0.71966464E+03</totfact>
</mgrwt>
</event>
<event>
 4    1  0.1759998E-004  0.2526363E+03  0.7818608E-02  0.1111650E+00
          2   -1    0    0  501    0  0.00000000000E+00  0.00000000000E+00  0.14806344416E+04  0.14806344416E+04  0.00000000000E+00 0.  1.
         -2   -1    0    0    0  501 -0.00000000000E+00 -0.00000000000E+00 -0.10776645949E+02  0.10776645949E+02  0.00000000000E+00 0.  1.
         25    1    1    2    0    0  0.34506612565E+02 -0.62685796181E+01  0.62829595844E+03  0.64061362208E+03  0.12000000000E+03 0.  0.
         25    1    1    2    0    0 -0.34506612565E+02  0.62685796181E+01  0.84156183718E+03  0.85079746544E+03  0.12000000000E+03 0.  0.
<mgrwt>
<rscale>  0 0.25263629E+03</rscale>
<asrwt>0</asrwt>
<pdfrwt beam="1">  1        2 0.22778975E+00 0.25263629E+03</pdfrwt>
<pdfrwt beam="2">  1       -2 0.16579467E-02 0.25263629E+03</pdfrwt>
<totfact> 0.14194323E+04</totfact>
</mgrwt>
</event>
<event>
 4    1  0.1759998E-004  0.3180544E+03  0.7818608E-02  0.1076548E+00
          2   -1    0    0  501    0  0.00000000000E+00  0.00000000000E+00  0.14244595363E+04  0.14244595363E+04  0.00000000000E+00 0.  1.
         -2   -1    0    0    0  501 -0.00000000000E+00 -0.00000000000E+00 -0.17753856124E+02  0.17753856124E+02  0.00000000000E+00 0.  1.
         25    1    1    2    0    0  0.84769895517E+02  0.20438277440E+01  0.97915764244E+03  0.99012110429E+03  0.12000000000E+03 0.  0.
         25    1    1    2    0    0 -0.84769895517E+02 -0.20438277440E+01  0.42754803779E+03  0.45209228818E+03  0.12000000000E+03 0.  0.
<mgrwt>
<rscale>  0 0.31805440E+03</rscale>
<asrwt>0</asrwt>
<pdfrwt beam="1">  1        2 0.21914753E+00 0.31805440E+03</pdfrwt>
<pdfrwt beam="2">  1       -2 0.27313636E-02 0.31805440E+03</pdfrwt>
<totfact> 0.73207568E+03</totfact>
</mgrwt>
</event>
<event>
 4    1  0.1759998E-004  0.2501165E+03  0.7818608E-02  0.1113231E+00
         -2   -1    0    0    0  501 -0.00000000000E+00  0.00000000000E+00  0.68682742791E+02  0.68682742791E+02  0.00000000000E+00 0. -1.
          2   -1    0    0  501    0  0.00000000000E+00 -0.00000000000E+00 -0.22770736188E+03  0.22770736188E+03  0.00000000000E+00 0. -1.
         25    1    1    2    0    0 -0.85203759082E+00  0.11521848771E+02 -0.11892318089E+03  0.16934049108E+03  0.12000000000E+03 0.  0.
         25    1    1    2    0    0  0.85203759082E+00 -0.11521848771E+02 -0.40101438199E+02  0.12704961359E+03  0.12000000000E+03 0.  0.
<mgrwt>
<rscale>  0 0.25011650E+03</rscale>
<asrwt>0</asrwt>
<pdfrwt beam="1">  1        2 0.35031901E-01 0.25011650E+03</pdfrwt>
<pdfrwt beam="2">  1       -2 0.10566576E-01 0.25011650E+03</pdfrwt>
<totfact> 0.88475625E+03</totfact>
</mgrwt>
</event>
<event>
 4    1  0.1759998E-004  0.2757238E+03  0.7818608E-02  0.1098048E+00
          2   -1    0    0  501    0  0.00000000000E+00  0.00000000000E+00  0.10942823308E+04  0.10942823308E+04  0.00000000000E+00 0. -1.
         -2   -1    0    0    0  501 -0.00000000000E+00 -0.00000000000E+00 -0.17368374360E+02  0.17368374360E+02  0.00000000000E+00 0. -1.
         25    1    1    2    0    0  0.17090985767E+02  0.42283111113E+02  0.33582604187E+03  0.35952620722E+03  0.12000000000E+03 0.  0.
         25    1    1    2    0    0 -0.17090985767E+02 -0.42283111113E+02  0.74108791455E+03  0.75212449793E+03  0.12000000000E+03 0.  0.
<mgrwt>
<rscale>  0 0.27572381E+03</rscale>
<asrwt>0</asrwt>
<pdfrwt beam="1">  1        2 0.16835107E+00 0.27572381E+03</pdfrwt>
<pdfrwt beam="2">  1       -2 0.26720585E-02 0.27572381E+03</pdfrwt>
<totfact> 0.11568871E+04</totfact>
</mgrwt>
</event>
<event>
 4    1  0.1759998E-004  0.4562005E+03  0.7818608E-02  0.1025889E+00
         -2   -1    0    0    0  501 -0.00000000000E+00  0.00000000000E+00  0.66683763306E+02  0.66683763306E+02  0.00000000000E+00 0. -1.
          2   -1    0    0  501    0  0.00000000000E+00 -0.00000000000E+00 -0.78024565742E+03  0.78024565742E+03  0.00000000000E+00 0. -1.
         25    1    1    2    0    0  0.15532213580E+03 -0.11567431115E+03 -0.33609095367E+03  0.40603280812E+03  0.12000000000E+03 0.  0.
         25    1    1    2    0    0 -0.15532213580E+03  0.11567431115E+03 -0.37747094045E+03  0.44089661261E+03  0.12000000000E+03 0.  0.
<mgrwt>
<rscale>  0 0.45620047E+03</rscale>
<asrwt>0</asrwt>
<pdfrwt beam="1">  1        2 0.12003779E+00 0.45620047E+03</pdfrwt>
<pdfrwt beam="2">  1       -2 0.10259040E-01 0.45620047E+03</pdfrwt>
<totfact> 0.23423965E+03</totfact>
</mgrwt>
</event>
<event>
 4    1  0.1759998E-004  0.2807492E+03  0.7818608E-02  0.1095280E+00
          1   -1    0    0  501    0  0.00000000000E+00  0.00000000000E+00  0.64582176030E+03  0.64582176030E+03  0.00000000000E+00 0. -1.
         -1   -1    0    0    0  501 -0.00000000000E+00 -0.00000000000E+00 -0.30511559497E+02  0.30511559497E+02  0.00000000000E+00 0. -1.
         25    1    1    2    0    0  0.72576690755E+02  0.53833026648E+01  0.31474971508E+03  0.34462115306E+03  0.12000000000E+03 0.  0.
         25    1    1    2    0    0 -0.72576690755E+02 -0.53833026648E+01  0.30056048572E+03  0.33171216674E+03  0.12000000000E+03 0.  0.
<mgrwt>
<rscale>  0 0.28074921E+03</rscale>
<asrwt>0</asrwt>
<pdfrwt beam="1">  1        1 0.99357184E-01 0.28074921E+03</pdfrwt>
<pdfrwt beam="2">  1       -1 0.46940866E-02 0.28074921E+03</pdfrwt>
<totfact> 0.61177116E+03</totfact>
</mgrwt>
</event>
<event>
 4    1  0.1759998E-004  0.2546818E+03  0.7818608E-02  0.1110381E+00
         -2   -1    0    0    0  501 -0.00000000000E+00  0.00000000000E+00  0.23575038836E+02  0.23575038836E+02  0.00000000000E+00 0. -1.
          2   -1    0    0  501    0  0.00000000000E+00 -0.00000000000E+00 -0.68783373317E+03  0.68783373317E+03  0.00000000000E+00 0. -1.
         25    1    1    2    0    0 -0.22373260038E+01  0.38677907170E+02 -0.28257474105E+03  0.30943411320E+03  0.12000000000E+03 0.  0.
         25    1    1    2    0    0  0.22373260038E+01 -0.38677907170E+02 -0.38168395328E+03  0.40197465881E+03  0.12000000000E+03 0.  0.
<mgrwt>
<rscale>  0 0.25468182E+03</rscale>
<asrwt>0</asrwt>
<pdfrwt beam="1">  1        2 0.10582058E+00 0.25468182E+03</pdfrwt>
<pdfrwt beam="2">  1       -2 0.36269288E-02 0.25468182E+03</pdfrwt>
<totfact> 0.13536136E+04</totfact>
</mgrwt>
</event>
<event>
 4    1  0.1759998E-004  0.3238702E+03  0.7818608E-02  0.1073882E+00
         -2   -1    0    0    0  501 -0.00000000000E+00  0.00000000000E+00  0.20596134558E+02  0.20596134558E+02  0.00000000000E+00 0. -1.
          2   -1    0    0  501    0  0.00000000000E+00 -0.00000000000E+00 -0.12731991136E+04  0.12731991136E+04  0.00000000000E+00 0. -1.
         25    1    1    2    0    0 -0.76691388614E+02 -0.58778998321E+02 -0.42710413317E+03  0.45404237721E+03  0.12000000000E+03 0.  0.
         25    1    1    2    0    0  0.76691388614E+02  0.58778998321E+02 -0.82549884587E+03  0.83975287095E+03  0.12000000000E+03 0.  0.
<mgrwt>
<rscale>  0 0.32387022E+03</rscale>
<asrwt>0</asrwt>
<pdfrwt beam="1">  1        2 0.19587677E+00 0.32387022E+03</pdfrwt>
<pdfrwt beam="2">  1       -2 0.31686364E-02 0.32387022E+03</pdfrwt>
<totfact> 0.71090666E+03</totfact>
</mgrwt>
</event>
<event>
 4    1  0.1759998E-004  0.2510348E+03  0.7818608E-02  0.1112653E+00
         -1   -1    0    0    0  501 -0.00000000000E+00  0.00000000000E+00  0.12457546842E+03  0.12457546842E+03  0.00000000000E+00 0. -1.
          1   -1    0    0  501    0  0.00000000000E+00 -0.00000000000E+00 -0.12646641984E+03  0.12646641984E+03  0.00000000000E+00 0. -1.
         25    1    1    2    0    0  0.27048689961E+02  0.24886754666E+02 -0.28511281292E+01  0.12553529830E+03  0.12000000000E+03 0.  0.
         25    1    1    2    0    0 -0.27048689961E+02 -0.24886754666E+02  0.96017670475E+00  0.12550658997E+03  0.12000000000E+03 0.  0.
<mgrwt>
<rscale>  0 0.25103477E+03</rscale>
<asrwt>0</asrwt>
<pdfrwt beam="1">  1        1 0.19456372E-01 0.25103477E+03</pdfrwt>
<pdfrwt beam="2">  1       -1 0.19165457E-01 0.25103477E+03</pdfrwt>
<totfact> 0.56532180E+03</totfact>
</mgrwt>
</event>
<event>
 4    1  0.1759998E-004  0.3569047E+03  0.7818608E-02  0.1059816E+00
         -2   -1    0    0    0  501 -0.00000000000E+00  0.00000000000E+00  0.22397791005E+02  0.22397791005E+02  0.00000000000E+00 0.  1.
          2   -1    0    0  501    0  0.00000000000E+00 -0.00000000000E+00 -0.14218030301E+04  0.14218030301E+04  0.00000000000E+00 0.  1.
         25    1    1    2    0    0 -0.95799100208E+02 -0.33244752374E+02 -0.10421624185E+04  0.10539379430E+04  0.12000000000E+03 0.  0.
         25    1    1    2    0    0  0.95799100208E+02  0.33244752374E+02 -0.35724282060E+03  0.39026287811E+03  0.12000000000E+03 0.  0.
<mgrwt>
<rscale>  0 0.35690473E+03</rscale>
<asrwt>0</asrwt>
<pdfrwt beam="1">  1        2 0.21873901E+00 0.35690473E+03</pdfrwt>
<pdfrwt beam="2">  1       -2 0.34458127E-02 0.35690473E+03</pdfrwt>
<totfact> 0.51906223E+03</totfact>
</mgrwt>
</event>
<event>
 4    1  0.1759998E-004  0.2632660E+03  0.7818608E-02  0.1105197E+00
          3   -1    0    0  501    0  0.00000000000E+00  0.00000000000E+00  0.93789623430E+03  0.93789623430E+03  0.00000000000E+00 0.  1.
         -3   -1    0    0    0  501 -0.00000000000E+00 -0.00000000000E+00 -0.18474590795E+02  0.18474590795E+02  0.00000000000E+00 0.  1.
         25    1    1    2    0    0 -0.23764922435E+02  0.40733917110E+02  0.55604465642E+03  0.57079741018E+03  0.12000000000E+03 0.  0.
         25    1    1    2    0    0  0.23764922435E+02 -0.40733917110E+02  0.36337698709E+03  0.38557341491E+03  0.12000000000E+03 0.  0.
<mgrwt>
<rscale>  0 0.26326602E+03</rscale>
<asrwt>0</asrwt>
<pdfrwt beam="1">  1        3 0.14429169E+00 0.26326602E+03</pdfrwt>
<pdfrwt beam="2">  1       -3 0.28422455E-02 0.26326602E+03</pdfrwt>
<totfact> 0.52963543E+02</totfact>
</mgrwt>
</event>
<event>
 4    1  0.1759998E-004  0.2471033E+03  0.7818608E-02  0.1115149E+00
          2   -1    0    0  501    0  0.00000000000E+00  0.00000000000E+00  0.27427285320E+03  0.27427285320E+03  0.00000000000E+00 0. -1.
         -2   -1    0    0    0  501 -0.00000000000E+00 -0.00000000000E+00 -0.55656290886E+02  0.55656290886E+02  0.00000000000E+00 0. -1.
         25    1    1    2    0    0  0.50717147578E+01 -0.22093651582E+02  0.13432863266E+03  0.18154347491E+03  0.12000000000E+03 0.  0.
         25    1    1    2    0    0 -0.50717147578E+01  0.22093651582E+02  0.84287929652E+02  0.14838566917E+03  0.12000000000E+03 0.  0.
<mgrwt>
<rscale>  0 0.24710330E+03</rscale>
<asrwt>0</asrwt>
<pdfrwt beam="1">  1        2 0.42195823E-01 0.24710330E+03</pdfrwt>
<pdfrwt beam="2">  1       -2 0.85625065E-02 0.24710330E+03</pdfrwt>
<totfact> 0.10087551E+04</totfact>
</mgrwt>
</event>
<event>
 4    1  0.1759998E-004  0.3045853E+03  0.7818608E-02  0.1082971E+00
          2   -1    0    0  501    0  0.00000000000E+00  0.00000000000E+00  0.44594636040E+03  0.44594636040E+03  0.00000000000E+00 0.  1.
         -2   -1    0    0    0  501 -0.00000000000E+00 -0.00000000000E+00 -0.52008606143E+02  0.52008606143E+02  0.00000000000E+00 0.  1.
         25    1    1    2    0    0  0.76701852732E+02 -0.23601049965E+02  0.11766769815E+03  0.18624143191E+03  0.12000000000E+03 0.  0.
         25    1    1    2    0    0 -0.76701852732E+02  0.23601049965E+02  0.27627005611E+03  0.31171353464E+03  0.12000000000E+03 0.  0.
<mgrwt>
<rscale>  0 0.30458528E+03</rscale>
<asrwt>0</asrwt>
<pdfrwt beam="1">  1        2 0.68607130E-01 0.30458528E+03</pdfrwt>
<pdfrwt beam="2">  1       -2 0.80013243E-02 0.30458528E+03</pdfrwt>
<totfact> 0.66825494E+03</totfact>
</mgrwt>
</event>
<event>
 4    1  0.1759998E-004  0.2475410E+03  0.7818608E-02  0.1114869E+00
         -4   -1    0    0    0  501 -0.00000000000E+00  0.00000000000E+00  0.66007907729E+03  0.66007907729E+03  0.00000000000E+00 0. -1.
          4   -1    0    0  501    0  0.00000000000E+00 -0.00000000000E+00 -0.23208028005E+02  0.23208028005E+02  0.00000000000E+00 0. -1.
         25    1    1    2    0    0 -0.29840601481E+02  0.49484715873E+01  0.31278881133E+03  0.33638042357E+03  0.12000000000E+03 0.  0.
         25    1    1    2    0    0  0.29840601481E+02 -0.49484715873E+01  0.32408223796E+03  0.34690668173E+03  0.12000000000E+03 0.  0.
<mgrwt>
<rscale>  0 0.24754098E+03</rscale>
<asrwt>0</asrwt>
<pdfrwt beam="1">  1        4 0.35704663E-02 0.24754098E+03</pdfrwt>
<pdfrwt beam="2">  1       -4 0.10155061E+00 0.24754098E+03</pdfrwt>
<totfact> 0.62352716E+02</totfact>
</mgrwt>
</event>
<event>
 4    1  0.1759998E-004  0.2681113E+03  0.7818608E-02  0.1102365E+00
          2   -1    0    0  501    0  0.00000000000E+00  0.00000000000E+00  0.11665470843E+04  0.11665470843E+04  0.00000000000E+00 0.  1.
         -2   -1    0    0    0  501 -0.00000000000E+00 -0.00000000000E+00 -0.15405223748E+02  0.15405223748E+02  0.00000000000E+00 0.  1.
         25    1    1    2    0    0  0.51375115977E+02  0.18890863628E+02  0.68124954617E+03  0.69390000103E+03  0.12000000000E+03 0.  0.
         25    1    1    2    0    0 -0.51375115977E+02 -0.18890863628E+02  0.46989231434E+03  0.48805230698E+03  0.12000000000E+03 0.  0.
<mgrwt>
<rscale>  0 0.26811131E+03</rscale>
<asrwt>0</asrwt>
<pdfrwt beam="1">  1        2 0.17946871E+00 0.26811131E+03</pdfrwt>
<pdfrwt beam="2">  1       -2 0.23700353E-02 0.26811131E+03</pdfrwt>
<totfact> 0.12532410E+04</totfact>
</mgrwt>
</event>
<event>
 4    1  0.1759998E-004  0.3795087E+03  0.7818608E-02  0.1051115E+00
          1   -1    0    0  501    0  0.00000000000E+00  0.00000000000E+00  0.18954387634E+03  0.18954387634E+03  0.00000000000E+00 0.  1.
         -1   -1    0    0    0  501 -0.00000000000E+00 -0.00000000000E+00 -0.18996510008E+03  0.18996510008E+03  0.00000000000E+00 0.  1.
         25    1    1    2    0    0  0.86244837942E+02 -0.23018086462E+02 -0.11699560176E+03  0.18988410994E+03  0.12000000000E+03 0.  0.
         25    1    1    2    0    0 -0.86244837942E+02  0.23018086462E+02  0.11657437803E+03  0.18962486648E+03  0.12000000000E+03 0.  0.
<mgrwt>
<rscale>  0 0.37950874E+03</rscale>
<asrwt>0</asrwt>
<pdfrwt beam="1">  1        1 0.29160596E-01 0.37950874E+03</pdfrwt>
<pdfrwt beam="2">  1       -1 0.29225400E-01 0.37950874E+03</pdfrwt>
<totfact> 0.16862982E+03</totfact>
</mgrwt>
</event>
<event>
 4    1  0.1759998E-004  0.3032717E+03  0.7818608E-02  0.1083616E+00
          2   -1    0    0  501    0  0.00000000000E+00  0.00000000000E+00  0.11311968373E+04  0.11311968373E+04  0.00000000000E+00 0. -1.
         -2   -1    0    0    0  501 -0.00000000000E+00 -0.00000000000E+00 -0.20326640366E+02  0.20326640366E+02  0.00000000000E+00 0. -1.
         25    1    1    2    0    0  0.72691881904E+02 -0.99203541157E+01  0.34027840997E+03  0.36820092262E+03  0.12000000000E+03 0.  0.
         25    1    1    2    0    0 -0.72691881904E+02  0.99203541157E+01  0.77059178698E+03  0.78332255507E+03  0.12000000000E+03 0.  0.
<mgrwt>
<rscale>  0 0.30327170E+03</rscale>
<asrwt>0</asrwt>
<pdfrwt beam="1">  1        2 0.17403023E+00 0.30327170E+03</pdfrwt>
<pdfrwt beam="2">  1       -2 0.31271763E-02 0.30327170E+03</pdfrwt>
<totfact> 0.87300000E+03</totfact>
</mgrwt>
</event>
<event>
 4    1  0.1759998E-004  0.3458056E+03  0.7818608E-02  0.1064350E+00
          2   -1    0    0  501    0  0.00000000000E+00  0.00000000000E+00  0.88187732468E+03  0.88187732468E+03  0.00000000000E+00 0. -1.
         -2   -1    0    0    0  501 -0.00000000000E+00 -0.00000000000E+00 -0.33899710771E+02  0.33899710771E+02  0.00000000000E+00 0. -1.
         25    1    1    2    0    0 -0.24900568067E+02 -0.11382238311E+03  0.30795430591E+03  0.35044461433E+03  0.12000000000E+03 0.  0.
         25    1    1    2    0    0  0.24900568067E+02  0.11382238311E+03  0.54002330800E+03  0.56533242112E+03  0.12000000000E+03 0.  0.
<mgrwt>
<rscale>  0 0.34580565E+03</rscale>
<asrwt>0</asrwt>
<pdfrwt beam="1">  1        2 0.13567342E+00 0.34580565E+03</pdfrwt>
<pdfrwt beam="2">  1       -2 0.52153408E-02 0.34580565E+03</pdfrwt>
<totfact> 0.57547927E+03</totfact>
</mgrwt>
</event>
<event>
 4    1  0.1759998E-004  0.3203261E+03  0.7818608E-02  0.1075499E+00
          1   -1    0    0  501    0  0.00000000000E+00  0.00000000000E+00  0.12335901024E+04  0.12335901024E+04  0.00000000000E+00 0.  1.
         -1   -1    0    0    0  501 -0.00000000000E+00 -0.00000000000E+00 -0.20794748085E+02  0.20794748085E+02  0.00000000000E+00 0.  1.
         25    1    1    2    0    0  0.99245907963E+02  0.10045118013E+02  0.74767336296E+03  0.76378407441E+03  0.12000000000E+03 0.  0.
         25    1    1    2    0    0 -0.99245907963E+02 -0.10045118013E+02  0.46512199136E+03  0.49060077608E+03  0.12000000000E+03 0.  0.
<mgrwt>
<rscale>  0 0.32032606E+03</rscale>
<asrwt>0</asrwt>
<pdfrwt beam="1">  1        1 0.18978304E+00 0.32032606E+03</pdfrwt>
<pdfrwt beam="2">  1       -1 0.31991930E-02 0.32032606E+03</pdfrwt>
<totfact> 0.37275110E+03</totfact>
</mgrwt>
</event>
<event>
 4    1  0.1759998E-004  0.2941983E+03  0.7818608E-02  0.1088177E+00
          1   -1    0    0  501    0  0.00000000000E+00  0.00000000000E+00  0.17015599187E+03  0.17015599187E+03  0.00000000000E+00 0.  1.
         -1   -1    0    0    0  501 -0.00000000000E+00 -0.00000000000E+00 -0.12716659825E+03  0.12716659825E+03  0.00000000000E+00 0.  1.
         25    1    1    2    0    0  0.25145773721E+02 -0.12309285910E+02 -0.59697324120E+02  0.13692187175E+03  0.12000000000E+03 0.  0.
         25    1    1    2    0    0 -0.25145773721E+02  0.12309285910E+02  0.10268671773E+03  0.16040071837E+03  0.12000000000E+03 0.  0.
<mgrwt>
<rscale>  0 0.29419829E+03</rscale>
<asrwt>0</asrwt>
<pdfrwt beam="1">  1        1 0.26177845E-01 0.29419829E+03</pdfrwt>
<pdfrwt beam="2">  1       -1 0.19564092E-01 0.29419829E+03</pdfrwt>
<totfact> 0.37588608E+03</totfact>
</mgrwt>
</event>
<event>
 4    1  0.1759998E-004  0.2923614E+03  0.7818608E-02  0.1089123E+00
          2   -1    0    0  501    0  0.00000000000E+00  0.00000000000E+00  0.20354116904E+04  0.20354116904E+04  0.00000000000E+00 0.  1.
         -2   -1    0    0    0  501 -0.00000000000E+00 -0.00000000000E+00 -0.10498512537E+02  0.10498512537E+02  0.00000000000E+00 0.  1.
         25    1    1    2    0    0  0.80659647635E+02  0.20817582590E+01  0.86261650100E+03  0.87465281128E+03  0.12000000000E+03 0.  0.
         25    1    1    2    0    0 -0.80659647635E+02 -0.20817582590E+01  0.11622966768E+04  0.11712573916E+04  0.12000000000E+03 0.  0.
<mgrwt>
<rscale>  0 0.29236139E+03</rscale>
<asrwt>0</asrwt>
<pdfrwt beam="1">  1        2 0.31313995E+00 0.29236139E+03</pdfrwt>
<pdfrwt beam="2">  1       -2 0.16151574E-02 0.29236139E+03</pdfrwt>
<totfact> 0.75374156E+03</totfact>
</mgrwt>
</event>
<event>
 4    1  0.1759998E-004  0.2879429E+03  0.7818608E-02  0.1091428E+00
         -1   -1    0    0    0  501 -0.00000000000E+00  0.00000000000E+00  0.22690751259E+02  0.22690751259E+02  0.00000000000E+00 0. -1.
          1   -1    0    0  501    0  0.00000000000E+00 -0.00000000000E+00 -0.91349029139E+03  0.91349029139E+03  0.00000000000E+00 0. -1.
         25    1    1    2    0    0  0.95802532468E+01  0.71525423708E+02 -0.55421368992E+03  0.57162967172E+03  0.12000000000E+03 0.  0.
         25    1    1    2    0    0 -0.95802532468E+01 -0.71525423708E+02 -0.33658585021E+03  0.36455137094E+03  0.12000000000E+03 0.  0.
<mgrwt>
<rscale>  0 0.28794292E+03</rscale>
<asrwt>0</asrwt>
<pdfrwt beam="1">  1        1 0.14053696E+00 0.28794292E+03</pdfrwt>
<pdfrwt beam="2">  1       -1 0.34908851E-02 0.28794292E+03</pdfrwt>
<totfact> 0.56151027E+03</totfact>
</mgrwt>
</event>
<event>
 4    1  0.1759998E-004  0.5369778E+03  0.7818608E-02  0.1004554E+00
         -2   -1    0    0    0  501 -0.00000000000E+00  0.00000000000E+00  0.76627762403E+02  0.76627762403E+02  0.00000000000E+00 0. -1.
          2   -1    0    0  501    0  0.00000000000E+00 -0.00000000000E+00 -0.94073334468E+03  0.94073334468E+03  0.00000000000E+00 0. -1.
         25    1    1    2    0    0  0.58072936955E+02  0.23106850400E+03 -0.37454997938E+03  0.45983997934E+03  0.12000000000E+03 0.  0.
         25    1    1    2    0    0 -0.58072936955E+02 -0.23106850400E+03 -0.48955560290E+03  0.55752112774E+03  0.12000000000E+03 0.  0.
<mgrwt>
<rscale>  0 0.53697781E+03</rscale>
<asrwt>0</asrwt>
<pdfrwt beam="1">  1        2 0.14472821E+00 0.53697781E+03</pdfrwt>
<pdfrwt beam="2">  1       -2 0.11788887E-01 0.53697781E+03</pdfrwt>
<totfact> 0.14521295E+03</totfact>
</mgrwt>
</event>
<event>
 4    1  0.1759998E-004  0.3526337E+03  0.7818608E-02  0.1061539E+00
         -2   -1    0    0    0  501 -0.00000000000E+00  0.00000000000E+00  0.39273858081E+02  0.39273858081E+02  0.00000000000E+00 0. -1.
          2   -1    0    0  501    0  0.00000000000E+00 -0.00000000000E+00 -0.79156043374E+03  0.79156043374E+03  0.00000000000E+00 0. -1.
         25    1    1    2    0    0 -0.12127845644E+03 -0.14332060245E+02 -0.27691441748E+03  0.32556944967E+03  0.12000000000E+03 0.  0.
         25    1    1    2    0    0  0.12127845644E+03  0.14332060245E+02 -0.47537215817E+03  0.50526484215E+03  0.12000000000E+03 0.  0.
<mgrwt>
<rscale>  0 0.35263370E+03</rscale>
<asrwt>0</asrwt>
<pdfrwt beam="1">  1        2 0.12177852E+00 0.35263370E+03</pdfrwt>
<pdfrwt beam="2">  1       -2 0.60421322E-02 0.35263370E+03</pdfrwt>
<totfact> 0.52878469E+03</totfact>
</mgrwt>
</event>
<event>
 4    1  0.1759998E-004  0.3816570E+03  0.7818608E-02  0.1050323E+00
          4   -1    0    0  501    0  0.00000000000E+00  0.00000000000E+00  0.77194615669E+02  0.77194615669E+02  0.00000000000E+00 0. -1.
         -4   -1    0    0    0  501 -0.00000000000E+00 -0.00000000000E+00 -0.47173646413E+03  0.47173646413E+03  0.00000000000E+00 0. -1.
         25    1    1    2    0    0 -0.12620872566E+03 -0.93011461280E+01 -0.30868326455E+03  0.35454267947E+03  0.12000000000E+03 0.  0.
         25    1    1    2    0    0  0.12620872566E+03  0.93011461280E+01 -0.85858583918E+02  0.19438840034E+03  0.12000000000E+03 0.  0.
<mgrwt>
<rscale>  0 0.38165699E+03</rscale>
<asrwt>0</asrwt>
<pdfrwt beam="1">  1        4 0.11876095E-01 0.38165699E+03</pdfrwt>
<pdfrwt beam="2">  1       -4 0.72574841E-01 0.38165699E+03</pdfrwt>
<totfact> 0.19256502E+02</totfact>
</mgrwt>
</event>
<event>
 4    1  0.1759998E-004  0.3168542E+03  0.7818608E-02  0.1077106E+00
         -1   -1    0    0    0  501 -0.00000000000E+00  0.00000000000E+00  0.19865539530E+03  0.19865539530E+03  0.00000000000E+00 0.  1.
          1   -1    0    0  501    0  0.00000000000E+00 -0.00000000000E+00 -0.12634512052E+03  0.12634512052E+03  0.00000000000E+00 0.  1.
         25    1    1    2    0    0 -0.31428415222E+02  0.98544854833E+02  0.35587590216E+02  0.16237398275E+03  0.12000000000E+03 0.  0.
         25    1    1    2    0    0  0.31428415222E+02 -0.98544854833E+02  0.36722684566E+02  0.16262653307E+03  0.12000000000E+03 0.  0.
<mgrwt>
<rscale>  0 0.31685416E+03</rscale>
<asrwt>0</asrwt>
<pdfrwt beam="1">  1        1 0.19437711E-01 0.31685416E+03</pdfrwt>
<pdfrwt beam="2">  1       -1 0.30562369E-01 0.31685416E+03</pdfrwt>
<totfact> 0.26249530E+03</totfact>
</mgrwt>
</event>
<event>
 4    1  0.1759998E-004  0.3009621E+03  0.7818608E-02  0.1084761E+00
          1   -1    0    0  501    0  0.00000000000E+00  0.00000000000E+00  0.33260545070E+03  0.33260545070E+03  0.00000000000E+00 0.  1.
         -1   -1    0    0    0  501 -0.00000000000E+00 -0.00000000000E+00 -0.68082285127E+02  0.68082285127E+02  0.00000000000E+00 0.  1.
         25    1    1    2    0    0  0.25086701395E+02  0.82044691099E+02  0.17184263450E+03  0.22647420374E+03  0.12000000000E+03 0.  0.
         25    1    1    2    0    0 -0.25086701395E+02 -0.82044691099E+02  0.92680531069E+02  0.17421353209E+03  0.12000000000E+03 0.  0.
<mgrwt>
<rscale>  0 0.30096205E+03</rscale>
<asrwt>0</asrwt>
<pdfrwt beam="1">  1        1 0.51170068E-01 0.30096205E+03</pdfrwt>
<pdfrwt beam="2">  1       -1 0.10474198E-01 0.30096205E+03</pdfrwt>
<totfact> 0.43472614E+03</totfact>
</mgrwt>
</event>
<event>
 4    1  0.1759998E-004  0.3054836E+03  0.7818608E-02  0.1082531E+00
         -2   -1    0    0    0  501 -0.00000000000E+00  0.00000000000E+00  0.33200246313E+03  0.33200246313E+03  0.00000000000E+00 0.  1.
          2   -1    0    0  501    0  0.00000000000E+00 -0.00000000000E+00 -0.70270727214E+02  0.70270727214E+02  0.00000000000E+00 0.  1.
         25    1    1    2    0    0  0.78181128721E+00  0.24446405879E+02  0.10666255800E+02  0.12293090336E+03  0.12000000000E+03 0.  0.
         25    1    1    2    0    0 -0.78181128721E+00 -0.24446405879E+02  0.25106548012E+03  0.27934228698E+03  0.12000000000E+03 0.  0.
<mgrwt>
<rscale>  0 0.30548358E+03</rscale>
<asrwt>0</asrwt>
<pdfrwt beam="1">  1        2 0.10810881E-01 0.30548358E+03</pdfrwt>
<pdfrwt beam="2">  1       -2 0.51077301E-01 0.30548358E+03</pdfrwt>
<totfact> 0.21414909E+03</totfact>
</mgrwt>
</event>
<event>
 4    1  0.1759998E-004  0.2508837E+03  0.7818608E-02  0.1112748E+00
         -4   -1    0    0    0  501 -0.00000000000E+00  0.00000000000E+00  0.16527636663E+03  0.16527636663E+03  0.00000000000E+00 0. -1.
          4   -1    0    0  501    0  0.00000000000E+00 -0.00000000000E+00 -0.95208169239E+02  0.95208169239E+02  0.00000000000E+00 0. -1.
         25    1    1    2    0    0  0.30863199608E+02 -0.11960562070E+02  0.51121160756E+02  0.13456955529E+03  0.12000000000E+03 0.  0.
         25    1    1    2    0    0 -0.30863199608E+02  0.11960562070E+02  0.18947036631E+02  0.12591498057E+03  0.12000000000E+03 0.  0.
<mgrwt>
<rscale>  0 0.25088372E+03</rscale>
<asrwt>0</asrwt>
<pdfrwt beam="1">  1        4 0.14647411E-01 0.25088372E+03</pdfrwt>
<pdfrwt beam="2">  1       -4 0.25427133E-01 0.25088372E+03</pdfrwt>
<totfact> 0.10563180E+03</totfact>
</mgrwt>
</event>
<event>
 4    1  0.1759998E-004  0.2806599E+03  0.7818608E-02  0.1095329E+00
          1   -1    0    0  501    0  0.00000000000E+00  0.00000000000E+00  0.14164275235E+03  0.14164275235E+03  0.00000000000E+00 0. -1.
         -1   -1    0    0    0  501 -0.00000000000E+00 -0.00000000000E+00 -0.13902931217E+03  0.13902931217E+03  0.00000000000E+00 0. -1.
         25    1    1    2    0    0  0.51463207908E+02 -0.49423548886E+02 -0.12883520859E+02  0.14020390174E+03  0.12000000000E+03 0.  0.
         25    1    1    2    0    0 -0.51463207908E+02  0.49423548886E+02  0.15496961039E+02  0.14046816278E+03  0.12000000000E+03 0.  0.
<mgrwt>
<rscale>  0 0.28065990E+03</rscale>
<asrwt>0</asrwt>
<pdfrwt beam="1">  1        1 0.21791193E-01 0.28065990E+03</pdfrwt>
<pdfrwt beam="2">  1       -1 0.21389125E-01 0.28065990E+03</pdfrwt>
<totfact> 0.41031084E+03</totfact>
</mgrwt>
</event>
<event>
 4    1  0.1759998E-004  0.3891509E+03  0.7818608E-02  0.1047602E+00
          2   -1    0    0  501    0  0.00000000000E+00  0.00000000000E+00  0.61611843011E+03  0.61611843011E+03  0.00000000000E+00 0.  1.
         -2   -1    0    0    0  501 -0.00000000000E+00 -0.00000000000E+00 -0.61448586079E+02  0.61448586079E+02  0.00000000000E+00 0.  1.
         25    1    1    2    0    0 -0.13458251237E+03 -0.62754545635E+02  0.34269204232E+03  0.39228614748E+03  0.12000000000E+03 0.  0.
         25    1    1    2    0    0  0.13458251237E+03  0.62754545635E+02  0.21197780172E+03  0.28528086872E+03  0.12000000000E+03 0.  0.
<mgrwt>
<rscale>  0 0.38915090E+03</rscale>
<asrwt>0</asrwt>
<pdfrwt beam="1">  1        2 0.94787447E-01 0.38915090E+03</pdfrwt>
<pdfrwt beam="2">  1       -2 0.94536290E-02 0.38915090E+03</pdfrwt>
<totfact> 0.35696238E+03</totfact>
</mgrwt>
</event>
<event>
 4    1  0.1759998E-004  0.2908205E+03  0.7818608E-02  0.1089922E+00
          2   -1    0    0  501    0  0.00000000000E+00  0.00000000000E+00  0.20554501378E+02  0.20554501378E+02  0.00000000000E+00 0.  1.
         -2   -1    0    0    0  501 -0.00000000000E+00 -0.00000000000E+00 -0.10286867191E+04  0.10286867191E+04  0.00000000000E+00 0.  1.
         25    1    1    2    0    0  0.94806112555E+01  0.57086611488E+02 -0.29383621910E+03  0.32262747381E+03  0.12000000000E+03 0.  0.
         25    1    1    2    0    0 -0.94806112555E+01 -0.57086611488E+02 -0.71429599859E+03  0.72661374664E+03  0.12000000000E+03 0.  0.
<mgrwt>
<rscale>  0 0.29082051E+03</rscale>
<asrwt>0</asrwt>
<pdfrwt beam="1">  1        2 0.31622306E-02 0.29082051E+03</pdfrwt>
<pdfrwt beam="2">  1       -2 0.15825952E+00 0.29082051E+03</pdfrwt>
<totfact> 0.80503399E+02</totfact>
</mgrwt>
</event>
<event>
 4    1  0.1759998E-004  0.2629012E+03  0.7818608E-02  0.1105413E+00
         -2   -1    0    0    0  501 -0.00000000000E+00  0.00000000000E+00  0.61810839065E+01  0.61810839065E+01  0.00000000000E+00 0.  1.
          2   -1    0    0  501    0  0.00000000000E+00 -0.00000000000E+00 -0.27955054505E+04  0.27955054505E+04  0.00000000000E+00 0.  1.
         25    1    1    2    0    0  0.49704671543E+02  0.20190258761E+02 -0.13837275091E+04  0.13899568412E+04  0.12000000000E+03 0.  0.
         25    1    1    2    0    0 -0.49704671543E+02 -0.20190258761E+02 -0.14055968574E+04  0.14117296931E+04  0.12000000000E+03 0.  0.
<mgrwt>
<rscale>  0 0.26290115E+03</rscale>
<asrwt>0</asrwt>
<pdfrwt beam="1">  1        2 0.43007709E+00 0.26290115E+03</pdfrwt>
<pdfrwt beam="2">  1       -2 0.95093747E-03 0.26290115E+03</pdfrwt>
<totfact> 0.62890935E+03</totfact>
</mgrwt>
</event>
<event>
 4    1  0.1759998E-004  0.2587641E+03  0.7818608E-02  0.1107888E+00
          2   -1    0    0  501    0  0.00000000000E+00  0.00000000000E+00  0.12453589538E+04  0.12453589538E+04  0.00000000000E+00 0.  1.
         -2   -1    0    0    0  501 -0.00000000000E+00 -0.00000000000E+00 -0.13441676293E+02  0.13441676293E+02  0.00000000000E+00 0.  1.
         25    1    1    2    0    0 -0.26072704425E+02  0.12439773724E+02  0.42722604748E+03  0.44469835792E+03  0.12000000000E+03 0.  0.
         25    1    1    2    0    0  0.26072704425E+02 -0.12439773724E+02  0.80469123005E+03  0.81410227221E+03  0.12000000000E+03 0.  0.
<mgrwt>
<rscale>  0 0.25876408E+03</rscale>
<asrwt>0</asrwt>
<pdfrwt beam="1">  1        2 0.19159359E+00 0.25876408E+03</pdfrwt>
<pdfrwt beam="2">  1       -2 0.20679512E-02 0.25876408E+03</pdfrwt>
<totfact> 0.13809135E+04</totfact>
</mgrwt>
</event>
<event>
 4    1  0.1759998E-004  0.2605097E+03  0.7818608E-02  0.1106837E+00
         -2   -1    0    0    0  501 -0.00000000000E+00  0.00000000000E+00  0.16698307573E+02  0.16698307573E+02  0.00000000000E+00 0. -1.
          2   -1    0    0  501    0  0.00000000000E+00 -0.00000000000E+00 -0.10160505454E+04  0.10160505454E+04  0.00000000000E+00 0. -1.
         25    1    1    2    0    0  0.26126802653E+02 -0.85738004599E+01 -0.66834488915E+03  0.67958885418E+03  0.12000000000E+03 0.  0.
         25    1    1    2    0    0 -0.26126802653E+02  0.85738004599E+01 -0.33100734870E+03  0.35315999881E+03  0.12000000000E+03 0.  0.
<mgrwt>
<rscale>  0 0.26050969E+03</rscale>
<asrwt>0</asrwt>
<pdfrwt beam="1">  1        2 0.15631549E+00 0.26050969E+03</pdfrwt>
<pdfrwt beam="2">  1       -2 0.25689700E-02 0.26050969E+03</pdfrwt>
<totfact> 0.13630933E+04</totfact>
</mgrwt>
</event>
<event>
 4    1  0.1759998E-004  0.3256269E+03  0.7818608E-02  0.1073088E+00
         -2   -1    0    0    0  501 -0.00000000000E+00  0.00000000000E+00  0.85243430792E+02  0.85243430792E+02  0.00000000000E+00 0. -1.
          2   -1    0    0  501    0  0.00000000000E+00 -0.00000000000E+00 -0.31097076000E+03  0.31097076000E+03  0.00000000000E+00 0. -1.
         25    1    1    2    0    0  0.74669061122E+02 -0.92657274410E+01 -0.15165817780E+02  0.14244761993E+03  0.12000000000E+03 0.  0.
         25    1    1    2    0    0 -0.74669061122E+02  0.92657274410E+01 -0.21056151143E+03  0.25376657087E+03  0.12000000000E+03 0.  0.
<mgrwt>
<rscale>  0 0.32562687E+03</rscale>
<asrwt>0</asrwt>
<pdfrwt beam="1">  1        2 0.47841654E-01 0.32562687E+03</pdfrwt>
<pdfrwt beam="2">  1       -2 0.13114374E-01 0.32562687E+03</pdfrwt>
<totfact> 0.44996802E+03</totfact>
</mgrwt>
</event>
<event>
 4    1  0.1759998E-004  0.2539454E+03  0.7818608E-02  0.1110837E+00
         -2   -1    0    0    0  501 -0.00000000000E+00  0.00000000000E+00  0.51807696546E+01  0.51807696546E+01  0.00000000000E+00 0. -1.
          2   -1    0    0  501    0  0.00000000000E+00 -0.00000000000E+00 -0.31119048125E+04  0.31119048125E+04  0.00000000000E+00 0. -1.
         25    1    1    2    0    0 -0.10729520294E+02  0.30804977156E+02 -0.18682231202E+04  0.18723572565E+04  0.12000000000E+03 0.  0.
         25    1    1    2    0    0  0.10729520294E+02 -0.30804977156E+02 -0.12385009226E+04  0.12447283256E+04  0.12000000000E+03 0.  0.
<mgrwt>
<rscale>  0 0.25394536E+03</rscale>
<asrwt>0</asrwt>
<pdfrwt beam="1">  1        2 0.47875504E+00 0.25394536E+03</pdfrwt>
<pdfrwt beam="2">  1       -2 0.79704073E-03 0.25394536E+03</pdfrwt>
<totfact> 0.52974568E+03</totfact>
</mgrwt>
</event>
<event>
 4    1  0.1759998E-004  0.2926957E+03  0.7818608E-02  0.1088950E+00
          1   -1    0    0  501    0  0.00000000000E+00  0.00000000000E+00  0.86623891807E+03  0.86623891807E+03  0.00000000000E+00 0. -1.
         -1   -1    0    0    0  501 -0.00000000000E+00 -0.00000000000E+00 -0.24724926890E+02  0.24724926890E+02  0.00000000000E+00 0. -1.
         25    1    1    2    0    0 -0.67282892972E+01 -0.82723574886E+02  0.45536148618E+03  0.47816581100E+03  0.12000000000E+03 0.  0.
         25    1    1    2    0    0  0.67282892972E+01  0.82723574886E+02  0.38615250500E+03  0.41279803396E+03  0.12000000000E+03 0.  0.
<mgrwt>
<rscale>  0 0.29269570E+03</rscale>
<asrwt>0</asrwt>
<pdfrwt beam="1">  1        1 0.13326750E+00 0.29269570E+03</pdfrwt>
<pdfrwt beam="2">  1       -1 0.38038356E-02 0.29269570E+03</pdfrwt>
<totfact> 0.53891031E+03</totfact>
</mgrwt>
</event>
<event>
 4    1  0.1759998E-004  0.2833027E+03  0.7818608E-02  0.1093899E+00
         -2   -1    0    0    0  501 -0.00000000000E+00  0.00000000000E+00  0.11878118263E+02  0.11878118263E+02  0.00000000000E+00 0.  1.
          2   -1    0    0  501    0  0.00000000000E+00 -0.00000000000E+00 -0.16892495032E+04  0.16892495032E+04  0.00000000000E+00 0.  1.
         25    1    1    2    0    0 -0.23028582154E+02  0.88692468797E+01 -0.12656535012E+04  0.12715690167E+04  0.12000000000E+03 0.  0.
         25    1    1    2    0    0  0.23028582154E+02 -0.88692468797E+01 -0.41171788376E+03  0.42955860478E+03  0.12000000000E+03 0.  0.
<mgrwt>
<rscale>  0 0.28330270E+03</rscale>
<asrwt>0</asrwt>
<pdfrwt beam="1">  1        2 0.25988459E+00 0.28330270E+03</pdfrwt>
<pdfrwt beam="2">  1       -2 0.18274025E-02 0.28330270E+03</pdfrwt>
<totfact> 0.95626945E+03</totfact>
</mgrwt>
</event>
<event>
 4    1  0.1759998E-004  0.2458458E+03  0.7818608E-02  0.1115959E+00
          1   -1    0    0  501    0  0.00000000000E+00  0.00000000000E+00  0.11006001782E+03  0.11006001782E+03  0.00000000000E+00 0. -1.
         -1   -1    0    0    0  501 -0.00000000000E+00 -0.00000000000E+00 -0.13728913337E+03  0.13728913337E+03  0.00000000000E+00 0. -1.
         25    1    1    2    0    0  0.12568240873E+02  0.16786249123E+02 -0.30156065851E+02  0.12549552640E+03  0.12000000000E+03 0.  0.
         25    1    1    2    0    0 -0.12568240873E+02 -0.16786249123E+02  0.29269503050E+01  0.12185362480E+03  0.12000000000E+03 0.  0.
<mgrwt>
<rscale>  0 0.24584584E+03</rscale>
<asrwt>0</asrwt>
<pdfrwt beam="1">  1        1 0.16932310E-01 0.24584584E+03</pdfrwt>
<pdfrwt beam="2">  1       -1 0.21121405E-01 0.24584584E+03</pdfrwt>
<totfact> 0.57742569E+03</totfact>
</mgrwt>
</event>
<event>
 4    1  0.1759998E-004  0.2709322E+03  0.7818608E-02  0.1100747E+00
         -1   -1    0    0    0  501 -0.00000000000E+00  0.00000000000E+00  0.51659466026E+02  0.51659466026E+02  0.00000000000E+00 0. -1.
          1   -1    0    0  501    0  0.00000000000E+00 -0.00000000000E+00 -0.35523136121E+03  0.35523136121E+03  0.00000000000E+00 0. -1.
         25    1    1    2    0    0 -0.44742280522E+02 -0.18056222504E+02 -0.21229194781E+03  0.24858754986E+03  0.12000000000E+03 0.  0.
         25    1    1    2    0    0  0.44742280522E+02  0.18056222504E+02 -0.91279947373E+02  0.15830327738E+03  0.12000000000E+03 0.  0.
<mgrwt>
<rscale>  0 0.27093219E+03</rscale>
<asrwt>0</asrwt>
<pdfrwt beam="1">  1        1 0.54650981E-01 0.27093219E+03</pdfrwt>
<pdfrwt beam="2">  1       -1 0.79476098E-02 0.27093219E+03</pdfrwt>
<totfact> 0.60984669E+03</totfact>
</mgrwt>
</event>
<event>
 4    1  0.1759998E-004  0.2626442E+03  0.7818608E-02  0.1105565E+00
         -2   -1    0    0    0  501 -0.00000000000E+00  0.00000000000E+00  0.82501856985E+01  0.82501856985E+01  0.00000000000E+00 0.  1.
          2   -1    0    0  501    0  0.00000000000E+00 -0.00000000000E+00 -0.20903164789E+04  0.20903164789E+04  0.00000000000E+00 0.  1.
         25    1    1    2    0    0 -0.75045949475E+01 -0.20954057657E+02 -0.65368742136E+03  0.66498318499E+03  0.12000000000E+03 0.  0.
         25    1    1    2    0    0  0.75045949475E+01  0.20954057657E+02 -0.14283788718E+04  0.14335834796E+04  0.12000000000E+03 0.  0.
<mgrwt>
<rscale>  0 0.26264424E+03</rscale>
<asrwt>0</asrwt>
<pdfrwt beam="1">  1        2 0.32158697E+00 0.26264424E+03</pdfrwt>
<pdfrwt beam="2">  1       -2 0.12692601E-02 0.26264424E+03</pdfrwt>
<totfact> 0.10021108E+04</totfact>
</mgrwt>
</event>
<event>
 4    1  0.1759998E-004  0.3029101E+03  0.7818608E-02  0.1083795E+00
          2   -1    0    0  501    0  0.00000000000E+00  0.00000000000E+00  0.92045295902E+03  0.92045295902E+03  0.00000000000E+00 0.  1.
         -2   -1    0    0    0  501 -0.00000000000E+00 -0.00000000000E+00 -0.24921024906E+02  0.24921024906E+02  0.00000000000E+00 0.  1.
         25    1    1    2    0    0 -0.79202677717E+02  0.17375048601E+02  0.30946517461E+03  0.34167770014E+03  0.12000000000E+03 0.  0.
         25    1    1    2    0    0  0.79202677717E+02 -0.17375048601E+02  0.58606675950E+03  0.60369628379E+03  0.12000000000E+03 0.  0.
<mgrwt>
<rscale>  0 0.30291009E+03</rscale>
<asrwt>0</asrwt>
<pdfrwt beam="1">  1        2 0.14160812E+00 0.30291009E+03</pdfrwt>
<pdfrwt beam="2">  1       -2 0.38340045E-02 0.30291009E+03</pdfrwt>
<totfact> 0.86429123E+03</totfact>
</mgrwt>
</event>
<event>
 4    1  0.1759998E-004  0.2625742E+03  0.7818608E-02  0.1105606E+00
          1   -1    0    0  501    0  0.00000000000E+00  0.00000000000E+00  0.27493690532E+02  0.27493690532E+02  0.00000000000E+00 0.  1.
         -1   -1    0    0    0  501 -0.00000000000E+00 -0.00000000000E+00 -0.62691850343E+03  0.62691850343E+03  0.00000000000E+00 0.  1.
         25    1    1    2    0    0 -0.24302773018E+02  0.34724646596E+02 -0.21934306555E+03  0.25358983865E+03  0.12000000000E+03 0.  0.
         25    1    1    2    0    0  0.24302773018E+02 -0.34724646596E+02 -0.38008174735E+03  0.40082235532E+03  0.12000000000E+03 0.  0.
<mgrwt>
<rscale>  0 0.26257421E+03</rscale>
<asrwt>0</asrwt>
<pdfrwt beam="1">  1        1 0.42297989E-02 0.26257421E+03</pdfrwt>
<pdfrwt beam="2">  1       -1 0.96448993E-01 0.26257421E+03</pdfrwt>
<totfact> 0.22900486E+03</totfact>
</mgrwt>
</event>
<event>
 4    1  0.1759998E-004  0.2558513E+03  0.7818608E-02  0.1109662E+00
         -2   -1    0    0    0  501 -0.00000000000E+00  0.00000000000E+00  0.11951110233E+03  0.11951110233E+03  0.00000000000E+00 0. -1.
          2   -1    0    0  501    0  0.00000000000E+00 -0.00000000000E+00 -0.13693264944E+03  0.13693264944E+03  0.00000000000E+00 0. -1.
         25    1    1    2    0    0 -0.35089901761E+02 -0.12902570806E+02  0.15160216889E+02  0.12660019635E+03  0.12000000000E+03 0.  0.
         25    1    1    2    0    0  0.35089901761E+02  0.12902570806E+02 -0.32581764000E+02  0.12984355542E+03  0.12000000000E+03 0.  0.
<mgrwt>
<rscale>  0 0.25585130E+03</rscale>
<asrwt>0</asrwt>
<pdfrwt beam="1">  1        2 0.21066561E-01 0.25585130E+03</pdfrwt>
<pdfrwt beam="2">  1       -2 0.18386324E-01 0.25585130E+03</pdfrwt>
<totfact> 0.62758252E+03</totfact>
</mgrwt>
</event>
<event>
 4    1  0.1759998E-004  0.2910941E+03  0.7818608E-02  0.1089779E+00
         -3   -1    0    0    0  501 -0.00000000000E+00  0.00000000000E+00  0.75792150205E+03  0.75792150205E+03  0.00000000000E+00 0. -1.
          3   -1    0    0  501    0  0.00000000000E+00 -0.00000000000E+00 -0.27950049739E+02  0.27950049739E+02  0.00000000000E+00 0. -1.
         25    1    1    2    0    0  0.15915893644E+02  0.68434354660E+02  0.24894918642E+03  0.28515307115E+03  0.12000000000E+03 0.  0.
         25    1    1    2    0    0 -0.15915893644E+02 -0.68434354660E+02  0.48102226589E+03  0.50071848063E+03  0.12000000000E+03 0.  0.
<mgrwt>
<rscale>  0 0.29109410E+03</rscale>
<asrwt>0</asrwt>
<pdfrwt beam="1">  1        3 0.43000082E-02 0.29109410E+03</pdfrwt>
<pdfrwt beam="2">  1       -3 0.11660329E+00 0.29109410E+03</pdfrwt>
<totfact> 0.46707584E+02</totfact>
</mgrwt>
</event>
<event>
 4    1  0.1759998E-004  0.2785675E+03  0.7818608E-02  0.1096474E+00
         -3   -1    0    0    0  501 -0.00000000000E+00  0.00000000000E+00  0.26357715860E+02  0.26357715860E+02  0.00000000000E+00 0. -1.
          3   -1    0    0  501    0  0.00000000000E+00 -0.00000000000E+00 -0.73602570275E+03  0.73602570275E+03  0.00000000000E+00 0. -1.
         25    1    1    2    0    0 -0.34602986771E+02  0.29337570931E+02 -0.50327598441E+03  0.51936959503E+03  0.12000000000E+03 0.  0.
         25    1    1    2    0    0  0.34602986771E+02 -0.29337570931E+02 -0.20639200248E+03  0.24301382357E+03  0.12000000000E+03 0.  0.
<mgrwt>
<rscale>  0 0.27856745E+03</rscale>
<asrwt>0</asrwt>
<pdfrwt beam="1">  1        3 0.11323472E+00 0.27856745E+03</pdfrwt>
<pdfrwt beam="2">  1       -3 0.40550332E-02 0.27856745E+03</pdfrwt>
<totfact> 0.54853578E+02</totfact>
</mgrwt>
</event>
<event>
 4    1  0.1759998E-004  0.4387871E+03  0.7818608E-02  0.1031120E+00
         -3   -1    0    0    0  501 -0.00000000000E+00  0.00000000000E+00  0.54125000391E+02  0.54125000391E+02  0.00000000000E+00 0.  1.
          3   -1    0    0  501    0  0.00000000000E+00 -0.00000000000E+00 -0.88930292637E+03  0.88930292637E+03  0.00000000000E+00 0.  1.
         25    1    1    2    0    0  0.13000667295E+03  0.70517494443E+02 -0.65173144454E+03  0.67899066845E+03  0.12000000000E+03 0.  0.
         25    1    1    2    0    0 -0.13000667295E+03 -0.70517494443E+02 -0.18344648144E+03  0.26443725831E+03  0.12000000000E+03 0.  0.
<mgrwt>
<rscale>  0 0.43878706E+03</rscale>
<asrwt>0</asrwt>
<pdfrwt beam="1">  1        3 0.13681584E+00 0.43878706E+03</pdfrwt>
<pdfrwt beam="2">  1       -3 0.83269228E-02 0.43878706E+03</pdfrwt>
<totfact> 0.11168885E+02</totfact>
</mgrwt>
</event>
<event>
 4    1  0.1759998E-004  0.2889767E+03  0.7818608E-02  0.1090885E+00
         -2   -1    0    0    0  501 -0.00000000000E+00  0.00000000000E+00  0.52430011644E+01  0.52430011644E+01  0.00000000000E+00 0.  1.
          2   -1    0    0  501    0  0.00000000000E+00 -0.00000000000E+00 -0.39818575497E+04  0.39818575497E+04  0.00000000000E+00 0.  1.
         25    1    1    2    0    0 -0.40525414275E+02  0.86339736656E+00 -0.10290391743E+04  0.10368050332E+04  0.12000000000E+03 0.  0.
         25    1    1    2    0    0  0.40525414275E+02 -0.86339736656E+00 -0.29475753743E+04  0.29502955177E+04  0.12000000000E+03 0.  0.
<mgrwt>
<rscale>  0 0.28897670E+03</rscale>
<asrwt>0</asrwt>
<pdfrwt beam="1">  1        2 0.61259390E+00 0.28897670E+03</pdfrwt>
<pdfrwt beam="2">  1       -2 0.80661499E-03 0.28897670E+03</pdfrwt>
<totfact> 0.13408886E+03</totfact>
</mgrwt>
</event>
<event>
 4    1  0.1759998E-004  0.2580297E+03  0.7818608E-02  0.1108333E+00
          4   -1    0    0  501    0  0.00000000000E+00  0.00000000000E+00  0.52982116188E+02  0.52982116188E+02  0.00000000000E+00 0. -1.
         -4   -1    0    0    0  501 -0.00000000000E+00 -0.00000000000E+00 -0.31415951787E+03  0.31415951787E+03  0.00000000000E+00 0. -1.
         25    1    1    2    0    0 -0.44153259202E+02  0.14605623784E+02 -0.14347341731E+03  0.19273675316E+03  0.12000000000E+03 0.  0.
         25    1    1    2    0    0  0.44153259202E+02 -0.14605623784E+02 -0.11770398438E+03  0.17440488090E+03  0.12000000000E+03 0.  0.
<mgrwt>
<rscale>  0 0.25802974E+03</rscale>
<asrwt>0</asrwt>
<pdfrwt beam="1">  1        4 0.81510950E-02 0.25802974E+03</pdfrwt>
<pdfrwt beam="2">  1       -4 0.48332232E-01 0.25802974E+03</pdfrwt>
<totfact> 0.82700866E+02</totfact>
</mgrwt>
</event>
<event>
 4    1  0.1759998E-004  0.2552837E+03  0.7818608E-02  0.1110010E+00
          2   -1    0    0  501    0  0.00000000000E+00  0.00000000000E+00  0.20779352882E+03  0.20779352882E+03  0.00000000000E+00 0.  1.
         -2   -1    0    0    0  501 -0.00000000000E+00 -0.00000000000E+00 -0.78406880229E+02  0.78406880229E+02  0.00000000000E+00 0.  1.
         25    1    1    2    0    0  0.17650644044E+02 -0.26846724877E+02  0.31813130398E+02  0.12823559232E+03  0.12000000000E+03 0.  0.
         25    1    1    2    0    0 -0.17650644044E+02  0.26846724877E+02  0.97573518190E+02  0.15796481673E+03  0.12000000000E+03 0.  0.
<mgrwt>
<rscale>  0 0.25528370E+03</rscale>
<asrwt>0</asrwt>
<pdfrwt beam="1">  1        2 0.31968235E-01 0.25528370E+03</pdfrwt>
<pdfrwt beam="2">  1       -2 0.12062597E-01 0.25528370E+03</pdfrwt>
<totfact> 0.79104367E+03</totfact>
</mgrwt>
</event>
<event>
 4    1  0.1759998E-004  0.2499355E+03  0.7818608E-02  0.1113346E+00
          2   -1    0    0  501    0  0.00000000000E+00  0.00000000000E+00  0.22525077304E+04  0.22525077304E+04  0.00000000000E+00 0. -1.
         -2   -1    0    0    0  501 -0.00000000000E+00 -0.00000000000E+00 -0.69331340513E+01  0.69331340513E+01  0.00000000000E+00 0. -1.
         25    1    1    2    0    0  0.47248897298E+00 -0.29987959863E+02  0.12838525503E+04  0.12897972212E+04  0.12000000000E+03 0.  0.
         25    1    1    2    0    0 -0.47248897298E+00  0.29987959863E+02  0.96172204607E+03  0.96964364324E+03  0.12000000000E+03 0.  0.
<mgrwt>
<rscale>  0 0.24993550E+03</rscale>
<asrwt>0</asrwt>
<pdfrwt beam="1">  1        2 0.34653907E+00 0.24993550E+03</pdfrwt>
<pdfrwt beam="2">  1       -2 0.10666378E-02 0.24993550E+03</pdfrwt>
<totfact> 0.10582295E+04</totfact>
</mgrwt>
</event>
<event>
 4    1  0.1759998E-004  0.2739854E+03  0.7818608E-02  0.1099020E+00
          1   -1    0    0  501    0  0.00000000000E+00  0.00000000000E+00  0.97106383864E+03  0.97106383864E+03  0.00000000000E+00 0.  1.
         -1   -1    0    0    0  501 -0.00000000000E+00 -0.00000000000E+00 -0.19326225040E+02  0.19326225040E+02  0.00000000000E+00 0.  1.
         25    1    1    2    0    0  0.19121433469E+02 -0.13865848331E+02  0.69896413480E+03  0.70958350651E+03  0.12000000000E+03 0.  0.
         25    1    1    2    0    0 -0.19121433469E+02  0.13865848331E+02  0.25277347880E+03  0.28080655717E+03  0.12000000000E+03 0.  0.
<mgrwt>
<rscale>  0 0.27398539E+03</rscale>
<asrwt>0</asrwt>
<pdfrwt beam="1">  1        1 0.14939440E+00 0.27398539E+03</pdfrwt>
<pdfrwt beam="2">  1       -1 0.29732661E-02 0.27398539E+03</pdfrwt>
<totfact> 0.64227764E+03</totfact>
</mgrwt>
</event>
<event>
 4    1  0.1759998E-004  0.2750022E+03  0.7818608E-02  0.1098450E+00
          1   -1    0    0  501    0  0.00000000000E+00  0.00000000000E+00  0.15296469080E+03  0.15296469080E+03  0.00000000000E+00 0. -1.
         -1   -1    0    0    0  501 -0.00000000000E+00 -0.00000000000E+00 -0.12360072851E+03  0.12360072851E+03  0.00000000000E+00 0. -1.
         25    1    1    2    0    0 -0.26665335582E+02 -0.58289632355E+02 -0.53769724085E+01  0.13615297718E+03  0.12000000000E+03 0.  0.
         25    1    1    2    0    0  0.26665335582E+02  0.58289632355E+02  0.34740934697E+02  0.14041244213E+03  0.12000000000E+03 0.  0.
<mgrwt>
<rscale>  0 0.27500216E+03</rscale>
<asrwt>0</asrwt>
<pdfrwt beam="1">  1        1 0.23533029E-01 0.27500216E+03</pdfrwt>
<pdfrwt beam="2">  1       -1 0.19015497E-01 0.27500216E+03</pdfrwt>
<totfact> 0.45003644E+03</totfact>
</mgrwt>
</event>
<event>
 4    1  0.1759998E-004  0.3116333E+03  0.7818608E-02  0.1079566E+00
         -1   -1    0    0    0  501 -0.00000000000E+00  0.00000000000E+00  0.56835693653E+02  0.56835693653E+02  0.00000000000E+00 0.  1.
          1   -1    0    0  501    0  0.00000000000E+00 -0.00000000000E+00 -0.42717573935E+03  0.42717573935E+03  0.00000000000E+00 0.  1.
         25    1    1    2    0    0  0.93167628353E+02  0.31107039539E+02 -0.20877447044E+03  0.26006659607E+03  0.12000000000E+03 0.  0.
         25    1    1    2    0    0 -0.93167628353E+02 -0.31107039539E+02 -0.16156557525E+03  0.22394483693E+03  0.12000000000E+03 0.  0.
<mgrwt>
<rscale>  0 0.31163331E+03</rscale>
<asrwt>0</asrwt>
<pdfrwt beam="1">  1        1 0.65719343E-01 0.31163331E+03</pdfrwt>
<pdfrwt beam="2">  1       -1 0.87439531E-02 0.31163331E+03</pdfrwt>
<totfact> 0.41741187E+03</totfact>
</mgrwt>
</event>
<event>
 4    1  0.1759998E-004  0.2970593E+03  0.7818608E-02  0.1086720E+00
          2   -1    0    0  501    0  0.00000000000E+00  0.00000000000E+00  0.32700015307E+04  0.32700015307E+04  0.00000000000E+00 0.  1.
         -2   -1    0    0    0  501 -0.00000000000E+00 -0.00000000000E+00 -0.67464965752E+01  0.67464965752E+01  0.00000000000E+00 0.  1.
         25    1    1    2    0    0 -0.14672302413E+02 -0.13641178768E+02  0.69177624032E+03  0.70239285652E+03  0.12000000000E+03 0.  0.
         25    1    1    2    0    0  0.14672302413E+02  0.13641178768E+02  0.25714787938E+04  0.25743551708E+04  0.12000000000E+03 0.  0.
<mgrwt>
<rscale>  0 0.29705928E+03</rscale>
<asrwt>0</asrwt>
<pdfrwt beam="1">  1        2 0.50307589E+00 0.29705928E+03</pdfrwt>
<pdfrwt beam="2">  1       -2 0.10379252E-02 0.29705928E+03</pdfrwt>
<totfact> 0.28741092E+03</totfact>
</mgrwt>
</event>
<event>
 4    1  0.1759998E-004  0.2581221E+03  0.7818608E-02  0.1108277E+00
         -2   -1    0    0    0  501 -0.00000000000E+00  0.00000000000E+00  0.41911162060E+02  0.41911162060E+02  0.00000000000E+00 0. -1.
          2   -1    0    0  501    0  0.00000000000E+00 -0.00000000000E+00 -0.39742993138E+03  0.39742993138E+03  0.00000000000E+00 0. -1.
         25    1    1    2    0    0 -0.29945455062E+02 -0.17648613939E+02 -0.23287447485E+03  0.26427017404E+03  0.12000000000E+03 0.  0.
         25    1    1    2    0    0  0.29945455062E+02  0.17648613939E+02 -0.12264429448E+03  0.17507091940E+03  0.12000000000E+03 0.  0.
<mgrwt>
<rscale>  0 0.25812207E+03</rscale>
<asrwt>0</asrwt>
<pdfrwt beam="1">  1        2 0.61143069E-01 0.25812207E+03</pdfrwt>
<pdfrwt beam="2">  1       -2 0.64478708E-02 0.25812207E+03</pdfrwt>
<totfact> 0.10532509E+04</totfact>
</mgrwt>
</event>
<event>
 4    1  0.1759998E-004  0.2436245E+03  0.7818608E-02  0.1117402E+00
         -2   -1    0    0    0  501 -0.00000000000E+00  0.00000000000E+00  0.10002917752E+02  0.10002917752E+02  0.00000000000E+00 0. -1.
          2   -1    0    0  501    0  0.00000000000E+00 -0.00000000000E+00 -0.14833893526E+04  0.14833893526E+04  0.00000000000E+00 0. -1.
         25    1    1    2    0    0 -0.19654181730E+02 -0.64528200290E+01 -0.71702404824E+03  0.72729045882E+03  0.12000000000E+03 0.  0.
         25    1    1    2    0    0  0.19654181730E+02  0.64528200290E+01 -0.75636238658E+03  0.76610181150E+03  0.12000000000E+03 0.  0.
<mgrwt>
<rscale>  0 0.24362448E+03</rscale>
<asrwt>0</asrwt>
<pdfrwt beam="1">  1        2 0.22821377E+00 0.24362448E+03</pdfrwt>
<pdfrwt beam="2">  1       -2 0.15389103E-02 0.24362448E+03</pdfrwt>
<totfact> 0.15754724E+04</totfact>
</mgrwt>
</event>
<event>
 4    1  0.1759998E-004  0.3567149E+03  0.7818608E-02  0.1059892E+00
         -2   -1    0    0    0  501 -0.00000000000E+00  0.00000000000E+00  0.17475183862E+02  0.17475183862E+02  0.00000000000E+00 0. -1.
          2   -1    0    0  501    0  0.00000000000E+00 -0.00000000000E+00 -0.18203746830E+04  0.18203746830E+04  0.00000000000E+00 0. -1.
         25    1    1    2    0    0 -0.25763359685E+02  0.33710598818E+02 -0.25771450705E+03  0.28743159589E+03  0.12000000000E+03 0.  0.
         25    1    1    2    0    0  0.25763359685E+02 -0.33710598818E+02 -0.15451849921E+04  0.15504182710E+04  0.12000000000E+03 0.  0.
<mgrwt>
<rscale>  0 0.35671491E+03</rscale>
<asrwt>0</asrwt>
<pdfrwt beam="1">  1        2 0.28005759E+00 0.35671491E+03</pdfrwt>
<pdfrwt beam="2">  1       -2 0.26884903E-02 0.35671491E+03</pdfrwt>
<totfact> 0.46054550E+03</totfact>
</mgrwt>
</event>
<event>
 4    1  0.1759998E-004  0.2592801E+03  0.7818608E-02  0.1107577E+00
          1   -1    0    0  501    0  0.00000000000E+00  0.00000000000E+00  0.19448321662E+03  0.19448321662E+03  0.00000000000E+00 0.  1.
         -1   -1    0    0    0  501 -0.00000000000E+00 -0.00000000000E+00 -0.86416429328E+02  0.86416429328E+02  0.00000000000E+00 0.  1.
         25    1    1    2    0    0  0.12870559106E+02 -0.20616505476E+02  0.10019940811E+03  0.15821066012E+03  0.12000000000E+03 0.  0.
         25    1    1    2    0    0 -0.12870559106E+02  0.20616505476E+02  0.78673791874E+01  0.12268898583E+03  0.12000000000E+03 0.  0.
<mgrwt>
<rscale>  0 0.25928012E+03</rscale>
<asrwt>0</asrwt>
<pdfrwt beam="1">  1        1 0.29920495E-01 0.25928012E+03</pdfrwt>
<pdfrwt beam="2">  1       -1 0.13294835E-01 0.25928012E+03</pdfrwt>
<totfact> 0.58583206E+03</totfact>
</mgrwt>
</event>
<event>
 4    1  0.1759998E-004  0.2557254E+03  0.7818608E-02  0.1109739E+00
         -2   -1    0    0    0  501 -0.00000000000E+00  0.00000000000E+00  0.16958150035E+02  0.16958150035E+02  0.00000000000E+00 0. -1.
          2   -1    0    0  501    0  0.00000000000E+00 -0.00000000000E+00 -0.96407135441E+03  0.96407135441E+03  0.00000000000E+00 0. -1.
         25    1    1    2    0    0  0.16433559783E+02  0.40607310243E+02 -0.45259672614E+03  0.47027950417E+03  0.12000000000E+03 0.  0.
         25    1    1    2    0    0 -0.16433559783E+02 -0.40607310243E+02 -0.49451647824E+03  0.51075000028E+03  0.12000000000E+03 0.  0.
<mgrwt>
<rscale>  0 0.25572537E+03</rscale>
<asrwt>0</asrwt>
<pdfrwt beam="1">  1        2 0.14831871E+00 0.25572537E+03</pdfrwt>
<pdfrwt beam="2">  1       -2 0.26089455E-02 0.25572537E+03</pdfrwt>
<totfact> 0.14329432E+04</totfact>
</mgrwt>
</event>
<event>
 4    1  0.1759998E-004  0.2577724E+03  0.7818608E-02  0.1108489E+00
         -4   -1    0    0    0  501 -0.00000000000E+00  0.00000000000E+00  0.91128925925E+02  0.91128925925E+02  0.00000000000E+00 0.  1.
          4   -1    0    0  501    0  0.00000000000E+00 -0.00000000000E+00 -0.18228741617E+03  0.18228741617E+03  0.00000000000E+00 0.  1.
         25    1    1    2    0    0  0.73046809436E+01 -0.31299132298E+02 -0.91640436300E+01  0.12456714552E+03  0.12000000000E+03 0.  0.
         25    1    1    2    0    0 -0.73046809436E+01  0.31299132298E+02 -0.81994446612E+02  0.14884919658E+03  0.12000000000E+03 0.  0.
<mgrwt>
<rscale>  0 0.25777243E+03</rscale>
<asrwt>0</asrwt>
<pdfrwt beam="1">  1        4 0.28044218E-01 0.25777243E+03</pdfrwt>
<pdfrwt beam="2">  1       -4 0.14019835E-01 0.25777243E+03</pdfrwt>
<totfact> 0.95283513E+02</totfact>
</mgrwt>
</event>
<event>
 4    1  0.1759998E-004  0.2470440E+03  0.7818608E-02  0.1115187E+00
          4   -1    0    0  501    0  0.00000000000E+00  0.00000000000E+00  0.10204553336E+03  0.10204553336E+03  0.00000000000E+00 0. -1.
         -4   -1    0    0    0  501 -0.00000000000E+00 -0.00000000000E+00 -0.14951838320E+03  0.14951838320E+03  0.00000000000E+00 0. -1.
         25    1    1    2    0    0  0.35702817365E+01 -0.52012773895E+01 -0.52858320248E+02  0.13127757698E+03  0.12000000000E+03 0.  0.
         25    1    1    2    0    0 -0.35702817365E+01  0.52012773895E+01  0.53854704037E+01  0.12028633958E+03  0.12000000000E+03 0.  0.
<mgrwt>
<rscale>  0 0.24704399E+03</rscale>
<asrwt>0</asrwt>
<pdfrwt beam="1">  1        4 0.15699313E-01 0.24704399E+03</pdfrwt>
<pdfrwt beam="2">  1       -4 0.23002828E-01 0.24704399E+03</pdfrwt>
<totfact> 0.11230070E+03</totfact>
</mgrwt>
</event>
<event>
 4    1  0.1759998E-004  0.2445899E+03  0.7818608E-02  0.1116772E+00
         -2   -1    0    0    0  501 -0.00000000000E+00  0.00000000000E+00  0.16450115983E+02  0.16450115983E+02  0.00000000000E+00 0.  1.
          2   -1    0    0  501    0  0.00000000000E+00 -0.00000000000E+00 -0.90917632863E+03  0.90917632863E+03  0.00000000000E+00 0.  1.
         25    1    1    2    0    0  0.19424923727E+02  0.12718115644E+02 -0.43076975156E+03  0.44777411380E+03  0.12000000000E+03 0.  0.
         25    1    1    2    0    0 -0.19424923727E+02 -0.12718115644E+02 -0.46195646108E+03  0.47785233081E+03  0.12000000000E+03 0.  0.
<mgrwt>
<rscale>  0 0.24458991E+03</rscale>
<asrwt>0</asrwt>
<pdfrwt beam="1">  1        2 0.13987331E+00 0.24458991E+03</pdfrwt>
<pdfrwt beam="2">  1       -2 0.25307866E-02 0.24458991E+03</pdfrwt>
<totfact> 0.16202243E+04</totfact>
</mgrwt>
</event>
<event>
 4    1  0.1759998E-004  0.3250870E+03  0.7818608E-02  0.1073332E+00
          2   -1    0    0  501    0  0.00000000000E+00  0.00000000000E+00  0.12385790580E+04  0.12385790580E+04  0.00000000000E+00 0.  1.
         -2   -1    0    0    0  501 -0.00000000000E+00 -0.00000000000E+00 -0.21331210866E+02  0.21331210866E+02  0.00000000000E+00 0.  1.
         25    1    1    2    0    0 -0.91884002906E+02  0.43572471294E+02  0.76743695832E+03  0.78339052537E+03  0.12000000000E+03 0.  0.
         25    1    1    2    0    0  0.91884002906E+02 -0.43572471294E+02  0.44981088880E+03  0.47651974348E+03  0.12000000000E+03 0.  0.
<mgrwt>
<rscale>  0 0.32508701E+03</rscale>
<asrwt>0</asrwt>
<pdfrwt beam="1">  1        2 0.19055057E+00 0.32508701E+03</pdfrwt>
<pdfrwt beam="2">  1       -2 0.32817257E-02 0.32508701E+03</pdfrwt>
<totfact> 0.70553547E+03</totfact>
</mgrwt>
</event>
<event>
 4    1  0.1759998E-004  0.2455333E+03  0.7818608E-02  0.1116161E+00
          1   -1    0    0  501    0  0.00000000000E+00  0.00000000000E+00  0.49505222409E+02  0.49505222409E+02  0.00000000000E+00 0. -1.
         -1   -1    0    0    0  501 -0.00000000000E+00 -0.00000000000E+00 -0.30444562248E+03  0.30444562248E+03  0.00000000000E+00 0. -1.
         25    1    1    2    0    0 -0.15776226338E+01 -0.98755556684E+00 -0.16473344306E+03  0.20381504219E+03  0.12000000000E+03 0.  0.
         25    1    1    2    0    0  0.15776226338E+01  0.98755556684E+00 -0.90206957003E+02  0.15013580270E+03  0.12000000000E+03 0.  0.
<mgrwt>
<rscale>  0 0.24553328E+03</rscale>
<asrwt>0</asrwt>
<pdfrwt beam="1">  1        1 0.76161881E-02 0.24553328E+03</pdfrwt>
<pdfrwt beam="2">  1       -1 0.46837788E-01 0.24553328E+03</pdfrwt>
<totfact> 0.42687664E+03</totfact>
</mgrwt>
</event>
<event>
 4    1  0.1759998E-004  0.2460752E+03  0.7818608E-02  0.1115811E+00
          2   -1    0    0  501    0  0.00000000000E+00  0.00000000000E+00  0.48011905300E+03  0.48011905300E+03  0.00000000000E+00 0. -1.
         -2   -1    0    0    0  501 -0.00000000000E+00 -0.00000000000E+00 -0.31530209988E+02  0.31530209988E+02  0.00000000000E+00 0. -1.
         25    1    1    2    0    0  0.84821133244E+01  0.24803287177E+02  0.23915847474E+03  0.26885670038E+03  0.12000000000E+03 0.  0.
         25    1    1    2    0    0 -0.84821133244E+01 -0.24803287177E+02  0.20943036827E+03  0.24279256260E+03  0.12000000000E+03 0.  0.
<mgrwt>
<rscale>  0 0.24607523E+03</rscale>
<asrwt>0</asrwt>
<pdfrwt beam="1">  1        2 0.73864465E-01 0.24607523E+03</pdfrwt>
<pdfrwt beam="2">  1       -2 0.48508019E-02 0.24607523E+03</pdfrwt>
<totfact> 0.13191657E+04</totfact>
</mgrwt>
</event>
<event>
 4    1  0.1759998E-004  0.4155451E+03  0.7818608E-02  0.1038526E+00
          1   -1    0    0  501    0  0.00000000000E+00  0.00000000000E+00  0.24388765949E+03  0.24388765949E+03  0.00000000000E+00 0.  1.
         -1   -1    0    0    0  501 -0.00000000000E+00 -0.00000000000E+00 -0.17700539267E+03  0.17700539267E+03  0.00000000000E+00 0.  1.
         25    1    1    2    0    0  0.51696075302E+02  0.80478186155E+02 -0.10843371351E+03  0.18790181711E+03  0.12000000000E+03 0.  0.
         25    1    1    2    0    0 -0.51696075302E+02 -0.80478186155E+02  0.17531598033E+03  0.23299123504E+03  0.12000000000E+03 0.  0.
<mgrwt>
<rscale>  0 0.41554509E+03</rscale>
<asrwt>0</asrwt>
<pdfrwt beam="1">  1        1 0.37521179E-01 0.41554509E+03</pdfrwt>
<pdfrwt beam="2">  1       -1 0.27231599E-01 0.41554509E+03</pdfrwt>
<totfact> 0.13805682E+03</totfact>
</mgrwt>
</event>
<event>
 4    1  0.1759998E-004  0.3773045E+03  0.7818608E-02  0.1051935E+00
          2   -1    0    0  501    0  0.00000000000E+00  0.00000000000E+00  0.18522784856E+04  0.18522784856E+04  0.00000000000E+00 0.  1.
         -2   -1    0    0    0  501 -0.00000000000E+00 -0.00000000000E+00 -0.19213992793E+02  0.19213992793E+02  0.00000000000E+00 0.  1.
         25    1    1    2    0    0 -0.36055467847E+01 -0.34604261385E+02  0.21542363756E+03  0.24903372963E+03  0.12000000000E+03 0.  0.
         25    1    1    2    0    0  0.36055467847E+01  0.34604261385E+02  0.16176408552E+04  0.16224587487E+04  0.12000000000E+03 0.  0.
<mgrwt>
<rscale>  0 0.37730447E+03</rscale>
<asrwt>0</asrwt>
<pdfrwt beam="1">  1        2 0.28496578E+00 0.37730447E+03</pdfrwt>
<pdfrwt beam="2">  1       -2 0.29560004E-02 0.37730447E+03</pdfrwt>
<totfact> 0.38411739E+03</totfact>
</mgrwt>
</event>
<event>
 4    1  0.1759998E-004  0.2816557E+03  0.7818608E-02  0.1094788E+00
          1   -1    0    0  501    0  0.00000000000E+00  0.00000000000E+00  0.92402117380E+02  0.92402117380E+02  0.00000000000E+00 0.  1.
         -1   -1    0    0    0  501 -0.00000000000E+00 -0.00000000000E+00 -0.21463235333E+03  0.21463235333E+03  0.00000000000E+00 0.  1.
         25    1    1    2    0    0  0.26322918459E+02 -0.63407277301E+02 -0.90347537073E+02  0.16515464361E+03  0.12000000000E+03 0.  0.
         25    1    1    2    0    0 -0.26322918459E+02  0.63407277301E+02 -0.31882698882E+02  0.14187982710E+03  0.12000000000E+03 0.  0.
<mgrwt>
<rscale>  0 0.28165570E+03</rscale>
<asrwt>0</asrwt>
<pdfrwt beam="1">  1        1 0.14215711E-01 0.28165570E+03</pdfrwt>
<pdfrwt beam="2">  1       -1 0.33020362E-01 0.28165570E+03</pdfrwt>
<totfact> 0.34506476E+03</totfact>
</mgrwt>
</event>
<event>
 4    1  0.1759998E-004  0.2652419E+03  0.7818608E-02  0.1104034E+00
          2   -1    0    0  501    0  0.00000000000E+00  0.00000000000E+00  0.66135076586E+03  0.66135076586E+03  0.00000000000E+00 0.  1.
         -2   -1    0    0    0  501 -0.00000000000E+00 -0.00000000000E+00 -0.26594544400E+02  0.26594544400E+02  0.00000000000E+00 0.  1.
         25    1    1    2    0    0  0.44383152043E+02 -0.32077996535E+02  0.35307832106E+03  0.37691267271E+03  0.12000000000E+03 0.  0.
         25    1    1    2    0    0 -0.44383152043E+02  0.32077996535E+02  0.28167790040E+03  0.31103263755E+03  0.12000000000E+03 0.  0.
<mgrwt>
<rscale>  0 0.26524194E+03</rscale>
<asrwt>0</asrwt>
<pdfrwt beam="1">  1        2 0.10174626E+00 0.26524194E+03</pdfrwt>
<pdfrwt beam="2">  1       -2 0.40914689E-02 0.26524194E+03</pdfrwt>
<totfact> 0.11861202E+04</totfact>
</mgrwt>
</event>
<event>
 4    1  0.1759998E-004  0.2575669E+03  0.7818608E-02  0.1108614E+00
         -2   -1    0    0    0  501 -0.00000000000E+00  0.00000000000E+00  0.17815112939E+02  0.17815112939E+02  0.00000000000E+00 0.  1.
          2   -1    0    0  501    0  0.00000000000E+00 -0.00000000000E+00 -0.93096144339E+03  0.93096144339E+03  0.00000000000E+00 0.  1.
         25    1    1    2    0    0  0.19681050616E+02 -0.36831820389E+02 -0.53395149917E+03  0.54886075667E+03  0.12000000000E+03 0.  0.
         25    1    1    2    0    0 -0.19681050616E+02  0.36831820389E+02 -0.37919483128E+03  0.39991579966E+03  0.12000000000E+03 0.  0.
<mgrwt>
<rscale>  0 0.25756695E+03</rscale>
<asrwt>0</asrwt>
<pdfrwt beam="1">  1        2 0.14322484E+00 0.25756695E+03</pdfrwt>
<pdfrwt beam="2">  1       -2 0.27407865E-02 0.25756695E+03</pdfrwt>
<totfact> 0.13977360E+04</totfact>
</mgrwt>
</event>
<event>
 4    1  0.1759998E-004  0.3971729E+03  0.7818608E-02  0.1044763E+00
          2   -1    0    0  501    0  0.00000000000E+00  0.00000000000E+00  0.99005217914E+03  0.99005217914E+03  0.00000000000E+00 0. -1.
         -2   -1    0    0    0  501 -0.00000000000E+00 -0.00000000000E+00 -0.39832831700E+02  0.39832831700E+02  0.00000000000E+00 0. -1.
         25    1    1    2    0    0 -0.45902360699E+02 -0.56159786998E+02  0.83975807235E+03  0.85138391368E+03  0.12000000000E+03 0.  0.
         25    1    1    2    0    0  0.45902360699E+02  0.56159786998E+02  0.11046127509E+03  0.17850109716E+03  0.12000000000E+03 0.  0.
<mgrwt>
<rscale>  0 0.39717292E+03</rscale>
<asrwt>0</asrwt>
<pdfrwt beam="1">  1        2 0.15231570E+00 0.39717292E+03</pdfrwt>
<pdfrwt beam="2">  1       -2 0.61281287E-02 0.39717292E+03</pdfrwt>
<totfact> 0.38313193E+03</totfact>
</mgrwt>
</event>
<event>
 4    1  0.1759998E-004  0.2954447E+03  0.7818608E-02  0.1087540E+00
          2   -1    0    0  501    0  0.00000000000E+00  0.00000000000E+00  0.10956967971E+04  0.10956967971E+04  0.00000000000E+00 0.  1.
         -2   -1    0    0    0  501 -0.00000000000E+00 -0.00000000000E+00 -0.19915989076E+02  0.19915989076E+02  0.00000000000E+00 0.  1.
         25    1    1    2    0    0  0.82188169350E+02 -0.84849833732E+01  0.44578308830E+03  0.46898768847E+03  0.12000000000E+03 0.  0.
         25    1    1    2    0    0 -0.82188169350E+02  0.84849833732E+01  0.62999771975E+03  0.64662509773E+03  0.12000000000E+03 0.  0.
<mgrwt>
<rscale>  0 0.29544465E+03</rscale>
<asrwt>0</asrwt>
<pdfrwt beam="1">  1        2 0.16856869E+00 0.29544465E+03</pdfrwt>
<pdfrwt beam="2">  1       -2 0.30639992E-02 0.29544465E+03</pdfrwt>
<totfact> 0.94367655E+03</totfact>
</mgrwt>
</event>
<event>
 4    1  0.1759998E-004  0.2993396E+03  0.7818608E-02  0.1085571E+00
          1   -1    0    0  501    0  0.00000000000E+00  0.00000000000E+00  0.60024009280E+03  0.60024009280E+03  0.00000000000E+00 0. -1.
         -1   -1    0    0    0  501 -0.00000000000E+00 -0.00000000000E+00 -0.37320151411E+02  0.37320151411E+02  0.00000000000E+00 0. -1.
         25    1    1    2    0    0 -0.64282128986E+02  0.33019549961E+02  0.39373096704E+03  0.41790735479E+03  0.12000000000E+03 0.  0.
         25    1    1    2    0    0  0.64282128986E+02 -0.33019549961E+02  0.16918897435E+03  0.21965288941E+03  0.12000000000E+03 0.  0.
<mgrwt>
<rscale>  0 0.29933961E+03</rscale>
<asrwt>0</asrwt>
<pdfrwt beam="1">  1        1 0.92344623E-01 0.29933961E+03</pdfrwt>
<pdfrwt beam="2">  1       -1 0.57415622E-02 0.29933961E+03</pdfrwt>
<totfact> 0.50180114E+03</totfact>
</mgrwt>
</event>
<event>
 4    1  0.1759998E-004  0.3176147E+03  0.7818608E-02  0.1076752E+00
         -1   -1    0    0    0  501 -0.00000000000E+00  0.00000000000E+00  0.68585164509E+03  0.68585164509E+03  0.00000000000E+00 0.  1.
          1   -1    0    0  501    0  0.00000000000E+00 -0.00000000000E+00 -0.36771471566E+02  0.36771471566E+02  0.00000000000E+00 0.  1.
         25    1    1    2    0    0 -0.71563421780E+02 -0.77827524426E+01  0.15370811269E+03  0.20786552980E+03  0.12000000000E+03 0.  0.
         25    1    1    2    0    0  0.71563421780E+02  0.77827524426E+01  0.49537206083E+03  0.51475758686E+03  0.12000000000E+03 0.  0.
<mgrwt>
<rscale>  0 0.31761470E+03</rscale>
<asrwt>0</asrwt>
<pdfrwt beam="1">  1        1 0.56571500E-02 0.31761470E+03</pdfrwt>
<pdfrwt beam="2">  1       -1 0.10551563E+00 0.31761470E+03</pdfrwt>
<totfact> 0.12543123E+03</totfact>
</mgrwt>
</event>
<event>
 4    1  0.1759998E-004  0.2759839E+03  0.7818608E-02  0.1097903E+00
         -2   -1    0    0    0  501 -0.00000000000E+00  0.00000000000E+00  0.18833082900E+02  0.18833082900E+02  0.00000000000E+00 0.  1.
          2   -1    0    0  501    0  0.00000000000E+00 -0.00000000000E+00 -0.10110815888E+04  0.10110815888E+04  0.00000000000E+00 0.  1.
         25    1    1    2    0    0  0.53574567795E+02 -0.22392768422E+02 -0.36312824117E+03  0.38682527054E+03  0.12000000000E+03 0.  0.
         25    1    1    2    0    0 -0.53574567795E+02  0.22392768422E+02 -0.62912026471E+03  0.64308940114E+03  0.12000000000E+03 0.  0.
<mgrwt>
<rscale>  0 0.27598394E+03</rscale>
<asrwt>0</asrwt>
<pdfrwt beam="1">  1        2 0.15555100E+00 0.27598394E+03</pdfrwt>
<pdfrwt beam="2">  1       -2 0.28973977E-02 0.27598394E+03</pdfrwt>
<totfact> 0.11505650E+04</totfact>
</mgrwt>
</event>
<event>
 4    1  0.1759998E-004  0.3489743E+03  0.7818608E-02  0.1063037E+00
          1   -1    0    0  501    0  0.00000000000E+00  0.00000000000E+00  0.11823841836E+03  0.11823841836E+03  0.00000000000E+00 0.  1.
         -1   -1    0    0    0  501 -0.00000000000E+00 -0.00000000000E+00 -0.25749470037E+03  0.25749470037E+03  0.00000000000E+00 0.  1.
         25    1    1    2    0    0 -0.13068126569E+01  0.88357769809E+02  0.28088736828E+02  0.15165019084E+03  0.12000000000E+03 0.  0.
         25    1    1    2    0    0  0.13068126569E+01 -0.88357769809E+02 -0.16734501883E+03  0.22408292789E+03  0.12000000000E+03 0.  0.
<mgrwt>
<rscale>  0 0.34897430E+03</rscale>
<asrwt>0</asrwt>
<pdfrwt beam="1">  1        1 0.18190526E-01 0.34897430E+03</pdfrwt>
<pdfrwt beam="2">  1       -1 0.39614569E-01 0.34897430E+03</pdfrwt>
<totfact> 0.18219795E+03</totfact>
</mgrwt>
</event>
<event>
 4    1  0.1759998E-004  0.2500038E+03  0.7818608E-02  0.1113302E+00
         -2   -1    0    0    0  501 -0.00000000000E+00  0.00000000000E+00  0.35472734658E+03  0.35472734658E+03  0.00000000000E+00 0.  1.
          2   -1    0    0  501    0  0.00000000000E+00 -0.00000000000E+00 -0.44049249460E+02  0.44049249460E+02  0.00000000000E+00 0.  1.
         25    1    1    2    0    0 -0.14453459999E+02 -0.73617746826E+01  0.20482196338E+03  0.23793935134E+03  0.12000000000E+03 0.  0.
         25    1    1    2    0    0  0.14453459999E+02  0.73617746826E+01  0.10585613374E+03  0.16083724470E+03  0.12000000000E+03 0.  0.
<mgrwt>
<rscale>  0 0.25000379E+03</rscale>
<asrwt>0</asrwt>
<pdfrwt beam="1">  1        2 0.67768078E-02 0.25000379E+03</pdfrwt>
<pdfrwt beam="2">  1       -2 0.54573436E-01 0.25000379E+03</pdfrwt>
<totfact> 0.33597911E+03</totfact>
</mgrwt>
</event>
<event>
 4    1  0.1759998E-004  0.2487246E+03  0.7818608E-02  0.1114114E+00
         -3   -1    0    0    0  501 -0.00000000000E+00  0.00000000000E+00  0.48533260551E+02  0.48533260551E+02  0.00000000000E+00 0. -1.
          3   -1    0    0  501    0  0.00000000000E+00 -0.00000000000E+00 -0.31866769342E+03  0.31866769342E+03  0.00000000000E+00 0. -1.
         25    1    1    2    0    0  0.18025798812E+02 -0.86259363952E+01 -0.96948989738E+02  0.15555848679E+03  0.12000000000E+03 0.  0.
         25    1    1    2    0    0 -0.18025798812E+02  0.86259363952E+01 -0.17318544313E+03  0.21164246718E+03  0.12000000000E+03 0.  0.
<mgrwt>
<rscale>  0 0.24872460E+03</rscale>
<asrwt>0</asrwt>
<pdfrwt beam="1">  1        3 0.49025800E-01 0.24872460E+03</pdfrwt>
<pdfrwt beam="2">  1       -3 0.74666554E-02 0.24872460E+03</pdfrwt>
<totfact> 0.12490643E+03</totfact>
</mgrwt>
</event>
<event>
 4    1  0.1759998E-004  0.2739716E+03  0.7818608E-02  0.1099028E+00
          2   -1    0    0  501    0  0.00000000000E+00  0.00000000000E+00  0.42320195806E+03  0.42320195806E+03  0.00000000000E+00 0. -1.
         -2   -1    0    0    0  501 -0.00000000000E+00 -0.00000000000E+00 -0.44340776034E+02  0.44340776034E+02  0.00000000000E+00 0. -1.
         25    1    1    2    0    0  0.37556264188E+02  0.12598526153E+02  0.99195132568E+02  0.16065139329E+03  0.12000000000E+03 0.  0.
         25    1    1    2    0    0 -0.37556264188E+02 -0.12598526153E+02  0.27966604946E+03  0.30689134080E+03  0.12000000000E+03 0.  0.
<mgrwt>
<rscale>  0 0.27397156E+03</rscale>
<asrwt>0</asrwt>
<pdfrwt beam="1">  1        2 0.65107991E-01 0.27397156E+03</pdfrwt>
<pdfrwt beam="2">  1       -2 0.68216581E-02 0.27397156E+03</pdfrwt>
<totfact> 0.90396447E+03</totfact>
</mgrwt>
</event>
<event>
 4    1  0.1759998E-004  0.3550163E+03  0.7818608E-02  0.1060575E+00
          2   -1    0    0  501    0  0.00000000000E+00  0.00000000000E+00  0.29295088184E+03  0.29295088184E+03  0.00000000000E+00 0.  1.
         -2   -1    0    0    0  501 -0.00000000000E+00 -0.00000000000E+00 -0.10755776901E+03  0.10755776901E+03  0.00000000000E+00 0.  1.
         25    1    1    2    0    0  0.93774521978E+02 -0.28225903721E+02 -0.51256188588E+01  0.15497301243E+03  0.12000000000E+03 0.  0.
         25    1    1    2    0    0 -0.93774521978E+02  0.28225903721E+02  0.19051873169E+03  0.24553563843E+03  0.12000000000E+03 0.  0.
<mgrwt>
<rscale>  0 0.35501630E+03</rscale>
<asrwt>0</asrwt>
<pdfrwt beam="1">  1        2 0.45069366E-01 0.35501630E+03</pdfrwt>
<pdfrwt beam="2">  1       -2 0.16547349E-01 0.35501630E+03</pdfrwt>
<totfact> 0.32710526E+03</totfact>
</mgrwt>
</event>
<event>
 4    1  0.1759998E-004  0.2518081E+03  0.7818608E-02  0.1112167E+00
         -1   -1    0    0    0  501 -0.00000000000E+00  0.00000000000E+00  0.73982104160E+02  0.73982104160E+02  0.00000000000E+00 0. -1.
          1   -1    0    0  501    0  0.00000000000E+00 -0.00000000000E+00 -0.21426574145E+03  0.21426574145E+03  0.00000000000E+00 0. -1.
         25    1    1    2    0    0  0.24895218852E+02 -0.27558931003E+01 -0.10301048564E+03  0.16012035167E+03  0.12000000000E+03 0.  0.
         25    1    1    2    0    0 -0.24895218852E+02  0.27558931003E+01 -0.37273151651E+02  0.12812749394E+03  0.12000000000E+03 0.  0.
<mgrwt>
<rscale>  0 0.25180810E+03</rscale>
<asrwt>0</asrwt>
<pdfrwt beam="1">  1        1 0.32963960E-01 0.25180810E+03</pdfrwt>
<pdfrwt beam="2">  1       -1 0.11381862E-01 0.25180810E+03</pdfrwt>
<totfact> 0.66037376E+03</totfact>
</mgrwt>
</event>
<event>
 4    1  0.1759998E-004  0.2907388E+03  0.7818608E-02  0.1089964E+00
         -4   -1    0    0    0  501 -0.00000000000E+00  0.00000000000E+00  0.56394167385E+03  0.56394167385E+03  0.00000000000E+00 0.  1.
          4   -1    0    0  501    0  0.00000000000E+00 -0.00000000000E+00 -0.37472416592E+02  0.37472416592E+02  0.00000000000E+00 0.  1.
         25    1    1    2    0    0  0.47161137993E+02  0.57950714571E+02  0.19309206475E+03  0.23930525219E+03  0.12000000000E+03 0.  0.
         25    1    1    2    0    0 -0.47161137993E+02 -0.57950714571E+02  0.33337719250E+03  0.36210883825E+03  0.12000000000E+03 0.  0.
<mgrwt>
<rscale>  0 0.29073876E+03</rscale>
<asrwt>0</asrwt>
<pdfrwt beam="1">  1        4 0.57649876E-02 0.29073876E+03</pdfrwt>
<pdfrwt beam="2">  1       -4 0.86760252E-01 0.29073876E+03</pdfrwt>
<totfact> 0.42285318E+02</totfact>
</mgrwt>
</event>
<event>
 4    1  0.1759998E-004  0.2628847E+03  0.7818608E-02  0.1105422E+00
          2   -1    0    0  501    0  0.00000000000E+00  0.00000000000E+00  0.24593008229E+04  0.24593008229E+04  0.00000000000E+00 0. -1.
         -2   -1    0    0    0  501 -0.00000000000E+00 -0.00000000000E+00 -0.70252024755E+01  0.70252024755E+01  0.00000000000E+00 0. -1.
         25    1    1    2    0    0 -0.40329479002E+01 -0.32431854746E+02  0.16251664667E+04  0.16299184441E+04  0.12000000000E+03 0.  0.
         25    1    1    2    0    0  0.40329479002E+01  0.32431854746E+02  0.82710915372E+03  0.83640758129E+03  0.12000000000E+03 0.  0.
<mgrwt>
<rscale>  0 0.26288466E+03</rscale>
<asrwt>0</asrwt>
<pdfrwt beam="1">  1        2 0.37835329E+00 0.26288466E+03</pdfrwt>
<pdfrwt beam="2">  1       -2 0.10808023E-02 0.26288466E+03</pdfrwt>
<totfact> 0.80375509E+03</totfact>
</mgrwt>
</event>
<event>
 4    1  0.1759998E-004  0.2617669E+03  0.7818608E-02  0.1106086E+00
         -2   -1    0    0    0  501 -0.00000000000E+00  0.00000000000E+00  0.17863582111E+02  0.17863582111E+02  0.00000000000E+00 0. -1.
          2   -1    0    0  501    0  0.00000000000E+00 -0.00000000000E+00 -0.95896070023E+03  0.95896070023E+03  0.00000000000E+00 0. -1.
         25    1    1    2    0    0  0.21186526767E+02  0.45059918534E+02 -0.41140349118E+03  0.43143029301E+03  0.12000000000E+03 0.  0.
         25    1    1    2    0    0 -0.21186526767E+02 -0.45059918534E+02 -0.52969362695E+03  0.54539398933E+03  0.12000000000E+03 0.  0.
<mgrwt>
<rscale>  0 0.26176687E+03</rscale>
<asrwt>0</asrwt>
<pdfrwt beam="1">  1        2 0.14753244E+00 0.26176687E+03</pdfrwt>
<pdfrwt beam="2">  1       -2 0.27482429E-02 0.26176687E+03</pdfrwt>
<totfact> 0.13376500E+04</totfact>
</mgrwt>
</event>
<event>
 4    1  0.1759998E-004  0.2446045E+03  0.7818608E-02  0.1116763E+00
          4   -1    0    0  501    0  0.00000000000E+00  0.00000000000E+00  0.36627286095E+02  0.36627286095E+02  0.00000000000E+00 0. -1.
         -4   -1    0    0    0  501 -0.00000000000E+00 -0.00000000000E+00 -0.40837973776E+03  0.40837973776E+03  0.00000000000E+00 0. -1.
         25    1    1    2    0    0 -0.21897892179E+02 -0.87420031472E+01 -0.18838473175E+03  0.22459908161E+03  0.12000000000E+03 0.  0.
         25    1    1    2    0    0  0.21897892179E+02  0.87420031472E+01 -0.18336771992E+03  0.22040794225E+03  0.12000000000E+03 0.  0.
<mgrwt>
<rscale>  0 0.24460451E+03</rscale>
<asrwt>0</asrwt>
<pdfrwt beam="1">  1        4 0.56349670E-02 0.24460451E+03</pdfrwt>
<pdfrwt beam="2">  1       -4 0.62827653E-01 0.24460451E+03</pdfrwt>
<totfact> 0.87270749E+02</totfact>
</mgrwt>
</event>
<event>
 4    1  0.1759998E-004  0.2617328E+03  0.7818608E-02  0.1106107E+00
          2   -1    0    0  501    0  0.00000000000E+00  0.00000000000E+00  0.10455846823E+04  0.10455846823E+04  0.00000000000E+00 0. -1.
         -2   -1    0    0    0  501 -0.00000000000E+00 -0.00000000000E+00 -0.16379360525E+02  0.16379360525E+02  0.00000000000E+00 0. -1.
         25    1    1    2    0    0 -0.30429574973E+02 -0.26537974944E+02  0.38029076514E+03  0.40081328471E+03  0.12000000000E+03 0.  0.
         25    1    1    2    0    0  0.30429574973E+02  0.26537974944E+02  0.64891455663E+03  0.66115075811E+03  0.12000000000E+03 0.  0.
<mgrwt>
<rscale>  0 0.26173275E+03</rscale>
<asrwt>0</asrwt>
<pdfrwt beam="1">  1        2 0.16085913E+00 0.26173275E+03</pdfrwt>
<pdfrwt beam="2">  1       -2 0.25199024E-02 0.26173275E+03</pdfrwt>
<totfact> 0.13464115E+04</totfact>
</mgrwt>
</event>
<event>
 4    1  0.1759998E-004  0.3288315E+03  0.7818608E-02  0.1071655E+00
          2   -1    0    0  501    0  0.00000000000E+00  0.00000000000E+00  0.21341971739E+03  0.21341971739E+03  0.00000000000E+00 0. -1.
         -2   -1    0    0    0  501 -0.00000000000E+00 -0.00000000000E+00 -0.12666370029E+03  0.12666370029E+03  0.00000000000E+00 0. -1.
         25    1    1    2    0    0 -0.59685061383E+02 -0.58648124148E+02  0.12098311435E+03  0.18983893957E+03  0.12000000000E+03 0.  0.
         25    1    1    2    0    0  0.59685061383E+02  0.58648124148E+02 -0.34227097250E+02  0.15024447812E+03  0.12000000000E+03 0.  0.
<mgrwt>
<rscale>  0 0.32883145E+03</rscale>
<asrwt>0</asrwt>
<pdfrwt beam="1">  1        2 0.32833803E-01 0.32883145E+03</pdfrwt>
<pdfrwt beam="2">  1       -2 0.19486723E-01 0.32883145E+03</pdfrwt>
<totfact> 0.34944088E+03</totfact>
</mgrwt>
</event>
<event>
 4    1  0.1759998E-004  0.2632360E+03  0.7818608E-02  0.1105214E+00
         -2   -1    0    0    0  501 -0.00000000000E+00  0.00000000000E+00  0.10657587709E+03  0.10657587709E+03  0.00000000000E+00 0. -1.
          2   -1    0    0  501    0  0.00000000000E+00 -0.00000000000E+00 -0.16254429068E+03  0.16254429068E+03  0.00000000000E+00 0. -1.
         25    1    1    2    0    0  0.12112394290E+02 -0.28018571935E+02 -0.73608539476E+02  0.14404849028E+03  0.12000000000E+03 0.  0.
         25    1    1    2    0    0 -0.12112394290E+02  0.28018571935E+02  0.17640125887E+02  0.12507167749E+03  0.12000000000E+03 0.  0.
<mgrwt>
<rscale>  0 0.26323602E+03</rscale>
<asrwt>0</asrwt>
<pdfrwt beam="1">  1        2 0.25006814E-01 0.26323602E+03</pdfrwt>
<pdfrwt beam="2">  1       -2 0.16396289E-01 0.26323602E+03</pdfrwt>
<totfact> 0.62774515E+03</totfact>
</mgrwt>
</event>
<event>
 4    1  0.1759998E-004  0.2858551E+03  0.7818608E-02  0.1092533E+00
          2   -1    0    0  501    0  0.00000000000E+00  0.00000000000E+00  0.10545363590E+04  0.10545363590E+04  0.00000000000E+00 0. -1.
         -2   -1    0    0    0  501 -0.00000000000E+00 -0.00000000000E+00 -0.19371818582E+02  0.19371818582E+02  0.00000000000E+00 0. -1.
         25    1    1    2    0    0  0.21012450667E+02 -0.47722930879E+02  0.73369896516E+03  0.74527389106E+03  0.12000000000E+03 0.  0.
         25    1    1    2    0    0 -0.21012450667E+02  0.47722930879E+02  0.30146557527E+03  0.32863428653E+03  0.12000000000E+03 0.  0.
<mgrwt>
<rscale>  0 0.28585512E+03</rscale>
<asrwt>0</asrwt>
<pdfrwt beam="1">  1        2 0.16223632E+00 0.28585512E+03</pdfrwt>
<pdfrwt beam="2">  1       -2 0.29802806E-02 0.28585512E+03</pdfrwt>
<totfact> 0.10396114E+04</totfact>
</mgrwt>
</event>
<event>
 4    1  0.1759998E-004  0.2822454E+03  0.7818608E-02  0.1094469E+00
         -1   -1    0    0    0  501 -0.00000000000E+00  0.00000000000E+00  0.21130239893E+02  0.21130239893E+02  0.00000000000E+00 0. -1.
          1   -1    0    0  501    0  0.00000000000E+00 -0.00000000000E+00 -0.94251758334E+03  0.94251758334E+03  0.00000000000E+00 0. -1.
         25    1    1    2    0    0  0.74189410157E+02 -0.13361263015E+01 -0.45002248790E+03  0.47162070928E+03  0.12000000000E+03 0.  0.
         25    1    1    2    0    0 -0.74189410157E+02  0.13361263015E+01 -0.47136485555E+03  0.49202711395E+03  0.12000000000E+03 0.  0.
<mgrwt>
<rscale>  0 0.28224544E+03</rscale>
<asrwt>0</asrwt>
<pdfrwt beam="1">  1        1 0.14500273E+00 0.28224544E+03</pdfrwt>
<pdfrwt beam="2">  1       -1 0.32508055E-02 0.28224544E+03</pdfrwt>
<totfact> 0.59228720E+03</totfact>
</mgrwt>
</event>
<event>
 4    1  0.1759998E-004  0.3583791E+03  0.7818608E-02  0.1059228E+00
          1   -1    0    0  501    0  0.00000000000E+00  0.00000000000E+00  0.54920589543E+02  0.54920589543E+02  0.00000000000E+00 0. -1.
         -1   -1    0    0    0  501 -0.00000000000E+00 -0.00000000000E+00 -0.58464218204E+03  0.58464218204E+03  0.00000000000E+00 0. -1.
         25    1    1    2    0    0 -0.26130283851E+02  0.12434616611E+03 -0.19428150572E+03  0.26132367712E+03  0.12000000000E+03 0.  0.
         25    1    1    2    0    0  0.26130283851E+02 -0.12434616611E+03 -0.33544008678E+03  0.37823909446E+03  0.12000000000E+03 0.  0.
<mgrwt>
<rscale>  0 0.35837909E+03</rscale>
<asrwt>0</asrwt>
<pdfrwt beam="1">  1        1 0.84493218E-02 0.35837909E+03</pdfrwt>
<pdfrwt beam="2">  1       -1 0.89944948E-01 0.35837909E+03</pdfrwt>
<totfact> 0.10296828E+03</totfact>
</mgrwt>
</event>
<event>
 4    1  0.1759998E-004  0.2516362E+03  0.7818608E-02  0.1112275E+00
          2   -1    0    0  501    0  0.00000000000E+00  0.00000000000E+00  0.14588280690E+04  0.14588280690E+04  0.00000000000E+00 0. -1.
         -2   -1    0    0    0  501 -0.00000000000E+00 -0.00000000000E+00 -0.10851306839E+02  0.10851306839E+02  0.00000000000E+00 0. -1.
         25    1    1    2    0    0  0.13302343279E+02 -0.34892971307E+02  0.75889441491E+03  0.76923026771E+03  0.12000000000E+03 0.  0.
         25    1    1    2    0    0 -0.13302343279E+02  0.34892971307E+02  0.68908234728E+03  0.70044910816E+03  0.12000000000E+03 0.  0.
<mgrwt>
<rscale>  0 0.25163617E+03</rscale>
<asrwt>0</asrwt>
<pdfrwt beam="1">  1        2 0.22443493E+00 0.25163617E+03</pdfrwt>
<pdfrwt beam="2">  1       -2 0.16694330E-02 0.25163617E+03</pdfrwt>
<totfact> 0.14433087E+04</totfact>
</mgrwt>
</event>
<event>
 4    1  0.1759998E-004  0.2637541E+03  0.7818608E-02  0.1104908E+00
          2   -1    0    0  501    0  0.00000000000E+00  0.00000000000E+00  0.48687627757E+03  0.48687627757E+03  0.00000000000E+00 0.  1.
         -2   -1    0    0    0  501 -0.00000000000E+00 -0.00000000000E+00 -0.35720702440E+02  0.35720702440E+02  0.00000000000E+00 0.  1.
         25    1    1    2    0    0  0.10484815382E+02 -0.49313587328E+02  0.18355566425E+03  0.22502098375E+03  0.12000000000E+03 0.  0.
         25    1    1    2    0    0 -0.10484815382E+02  0.49313587328E+02  0.26759991088E+03  0.29757599626E+03  0.12000000000E+03 0.  0.
<mgrwt>
<rscale>  0 0.26375415E+03</rscale>
<asrwt>0</asrwt>
<pdfrwt beam="1">  1        2 0.74904038E-01 0.26375415E+03</pdfrwt>
<pdfrwt beam="2">  1       -2 0.54954930E-02 0.26375415E+03</pdfrwt>
<totfact> 0.10778490E+04</totfact>
</mgrwt>
</event>
<event>
 4    1  0.1759998E-004  0.3236197E+03  0.7818608E-02  0.1073995E+00
         -2   -1    0    0    0  501 -0.00000000000E+00  0.00000000000E+00  0.78101851405E+02  0.78101851405E+02  0.00000000000E+00 0. -1.
          2   -1    0    0  501    0  0.00000000000E+00 -0.00000000000E+00 -0.33523443216E+03  0.33523443216E+03  0.00000000000E+00 0. -1.
         25    1    1    2    0    0  0.10200755933E+03 -0.20728723545E+02 -0.89257365774E+02  0.18221443270E+03  0.12000000000E+03 0.  0.
         25    1    1    2    0    0 -0.10200755933E+03  0.20728723545E+02 -0.16787521498E+03  0.23112185086E+03  0.12000000000E+03 0.  0.
<mgrwt>
<rscale>  0 0.32361971E+03</rscale>
<asrwt>0</asrwt>
<pdfrwt beam="1">  1        2 0.51574528E-01 0.32361971E+03</pdfrwt>
<pdfrwt beam="2">  1       -2 0.12015670E-01 0.32361971E+03</pdfrwt>
<totfact> 0.47826116E+03</totfact>
</mgrwt>
</event>
<event>
 4    1  0.1759998E-004  0.2600977E+03  0.7818608E-02  0.1107085E+00
         -2   -1    0    0    0  501 -0.00000000000E+00  0.00000000000E+00  0.36996406848E+02  0.36996406848E+02  0.00000000000E+00 0. -1.
          2   -1    0    0  501    0  0.00000000000E+00 -0.00000000000E+00 -0.45714463738E+03  0.45714463738E+03  0.00000000000E+00 0. -1.
         25    1    1    2    0    0  0.36513704678E+02 -0.31149220298E+02 -0.23755173011E+03  0.27043363147E+03  0.12000000000E+03 0.  0.
         25    1    1    2    0    0 -0.36513704678E+02  0.31149220298E+02 -0.18259650042E+03  0.22370741276E+03  0.12000000000E+03 0.  0.
<mgrwt>
<rscale>  0 0.26009774E+03</rscale>
<asrwt>0</asrwt>
<pdfrwt beam="1">  1        2 0.70329948E-01 0.26009774E+03</pdfrwt>
<pdfrwt beam="2">  1       -2 0.56917546E-02 0.26009774E+03</pdfrwt>
<totfact> 0.10947737E+04</totfact>
</mgrwt>
</event>
<event>
 4    1  0.1759998E-004  0.2688483E+03  0.7818608E-02  0.1101941E+00
         -1   -1    0    0    0  501 -0.00000000000E+00  0.00000000000E+00  0.50162129909E+02  0.50162129909E+02  0.00000000000E+00 0. -1.
          1   -1    0    0  501    0  0.00000000000E+00 -0.00000000000E+00 -0.36022898917E+03  0.36022898917E+03  0.00000000000E+00 0. -1.
         25    1    1    2    0    0  0.22039378043E+02 -0.39341935688E+02 -0.21678190776E+03  0.25184899766E+03  0.12000000000E+03 0.  0.
         25    1    1    2    0    0 -0.22039378043E+02  0.39341935688E+02 -0.93284951494E+02  0.15854212142E+03  0.12000000000E+03 0.  0.
<mgrwt>
<rscale>  0 0.26884831E+03</rscale>
<asrwt>0</asrwt>
<pdfrwt beam="1">  1        1 0.55419842E-01 0.26884831E+03</pdfrwt>
<pdfrwt beam="2">  1       -1 0.77172511E-02 0.26884831E+03</pdfrwt>
<totfact> 0.62645255E+03</totfact>
</mgrwt>
</event>
<event>
 4    1  0.1759998E-004  0.2778649E+03  0.7818608E-02  0.1096861E+00
          1   -1    0    0  501    0  0.00000000000E+00  0.00000000000E+00  0.37798994628E+03  0.37798994628E+03  0.00000000000E+00 0.  1.
         -1   -1    0    0    0  501 -0.00000000000E+00 -0.00000000000E+00 -0.51065444893E+02  0.51065444893E+02  0.00000000000E+00 0.  1.
         25    1    1    2    0    0 -0.69294209181E+02 -0.96046214024E+01  0.16790774543E+03  0.21791499984E+03  0.12000000000E+03 0.  0.
         25    1    1    2    0    0  0.69294209181E+02  0.96046214024E+01  0.15901675595E+03  0.21114039133E+03  0.12000000000E+03 0.  0.
<mgrwt>
<rscale>  0 0.27786489E+03</rscale>
<asrwt>0</asrwt>
<pdfrwt beam="1">  1        1 0.58152298E-01 0.27786489E+03</pdfrwt>
<pdfrwt beam="2">  1       -1 0.78562225E-02 0.27786489E+03</pdfrwt>
<totfact> 0.57401769E+03</totfact>
</mgrwt>
</event>
<event>
 4    1  0.1759998E-004  0.2758375E+03  0.7818608E-02  0.1097984E+00
          1   -1    0    0  501    0  0.00000000000E+00  0.00000000000E+00  0.12035526009E+03  0.12035526009E+03  0.00000000000E+00 0.  1.
         -1   -1    0    0    0  501 -0.00000000000E+00 -0.00000000000E+00 -0.15804523102E+03  0.15804523102E+03  0.00000000000E+00 0.  1.
         25    1    1    2    0    0 -0.28794725138E+02 -0.83195441303E+01  0.42740212406E+02  0.13086281659E+03  0.12000000000E+03 0.  0.
         25    1    1    2    0    0  0.28794725138E+02  0.83195441303E+01 -0.80430183342E+02  0.14753767452E+03  0.12000000000E+03 0.  0.
<mgrwt>
<rscale>  0 0.27583745E+03</rscale>
<asrwt>0</asrwt>
<pdfrwt beam="1">  1        1 0.18516194E-01 0.27583745E+03</pdfrwt>
<pdfrwt beam="2">  1       -1 0.24314651E-01 0.27583745E+03</pdfrwt>
<totfact> 0.40955885E+03</totfact>
</mgrwt>
</event>
<event>
 4    1  0.1759998E-004  0.3038769E+03  0.7818608E-02  0.1083318E+00
         -3   -1    0    0    0  501 -0.00000000000E+00  0.00000000000E+00  0.33284060315E+02  0.33284060315E+02  0.00000000000E+00 0. -1.
          3   -1    0    0  501    0  0.00000000000E+00 -0.00000000000E+00 -0.69358414499E+03  0.69358414499E+03  0.00000000000E+00 0. -1.
         25    1    1    2    0    0 -0.77607316528E+02  0.16573622723E+02 -0.21326759946E+03  0.25725599998E+03  0.12000000000E+03 0.  0.
         25    1    1    2    0    0  0.77607316528E+02 -0.16573622723E+02 -0.44703248521E+03  0.46961220532E+03  0.12000000000E+03 0.  0.
<mgrwt>
<rscale>  0 0.30387693E+03</rscale>
<asrwt>0</asrwt>
<pdfrwt beam="1">  1        3 0.10670524E+00 0.30387693E+03</pdfrwt>
<pdfrwt beam="2">  1       -3 0.51206254E-02 0.30387693E+03</pdfrwt>
<totfact> 0.43816308E+02</totfact>
</mgrwt>
</event>
<event>
 4    1  0.1759998E-004  0.3160729E+03  0.7818608E-02  0.1077471E+00
         -3   -1    0    0    0  501 -0.00000000000E+00  0.00000000000E+00  0.23467652741E+03  0.23467652741E+03  0.00000000000E+00 0.  1.
          3   -1    0    0  501    0  0.00000000000E+00 -0.00000000000E+00 -0.10642528133E+03  0.10642528133E+03  0.00000000000E+00 0.  1.
         25    1    1    2    0    0  0.17907109573E+02  0.72827844550E+02  0.14006050588E+03  0.19910174490E+03  0.12000000000E+03 0.  0.
         25    1    1    2    0    0 -0.17907109573E+02 -0.72827844550E+02 -0.11809259795E+02  0.14200006384E+03  0.12000000000E+03 0.  0.
<mgrwt>
<rscale>  0 0.31607287E+03</rscale>
<asrwt>0</asrwt>
<pdfrwt beam="1">  1        3 0.16373120E-01 0.31607287E+03</pdfrwt>
<pdfrwt beam="2">  1       -3 0.36104081E-01 0.31607287E+03</pdfrwt>
<totfact> 0.62109429E+02</totfact>
</mgrwt>
</event>
<event>
 4    1  0.1759998E-004  0.2621167E+03  0.7818608E-02  0.1105878E+00
          3   -1    0    0  501    0  0.00000000000E+00  0.00000000000E+00  0.89787532078E+02  0.89787532078E+02  0.00000000000E+00 0.  1.
         -3   -1    0    0    0  501 -0.00000000000E+00 -0.00000000000E+00 -0.19129922954E+03  0.19129922954E+03  0.00000000000E+00 0.  1.
         25    1    1    2    0    0 -0.23344236556E+01  0.23802686720E+02 -0.40833903863E+00  0.12236087679E+03  0.12000000000E+03 0.  0.
         25    1    1    2    0    0  0.23344236556E+01 -0.23802686720E+02 -0.10110335843E+03  0.15872588483E+03  0.12000000000E+03 0.  0.
<mgrwt>
<rscale>  0 0.26211666E+03</rscale>
<asrwt>0</asrwt>
<pdfrwt beam="1">  1        3 0.13813467E-01 0.26211666E+03</pdfrwt>
<pdfrwt beam="2">  1       -3 0.29430651E-01 0.26211666E+03</pdfrwt>
<totfact> 0.12039501E+03</totfact>
</mgrwt>
</event>
<event>
 4    1  0.1759998E-004  0.2506508E+03  0.7818608E-02  0.1112894E+00
          4   -1    0    0  501    0  0.00000000000E+00  0.00000000000E+00  0.26275858038E+02  0.26275858038E+02  0.00000000000E+00 0.  1.
         -4   -1    0    0    0  501 -0.00000000000E+00 -0.00000000000E+00 -0.59775212010E+03  0.59775212010E+03  0.00000000000E+00 0.  1.
         25    1    1    2    0    0  0.27037004428E+02 -0.49931915540E+01 -0.34415266577E+03  0.36550921866E+03  0.12000000000E+03 0.  0.
         25    1    1    2    0    0 -0.27037004428E+02  0.49931915540E+01 -0.22732359629E+03  0.25851875948E+03  0.12000000000E+03 0.  0.
<mgrwt>
<rscale>  0 0.25065075E+03</rscale>
<asrwt>0</asrwt>
<pdfrwt beam="1">  1        4 0.40424397E-02 0.25065075E+03</pdfrwt>
<pdfrwt beam="2">  1       -4 0.91961864E-01 0.25065075E+03</pdfrwt>
<totfact> 0.64484997E+02</totfact>
</mgrwt>
</event>
<event>
 4    1  0.1759998E-004  0.2722309E+03  0.7818608E-02  0.1100010E+00
         -2   -1    0    0    0  501 -0.00000000000E+00  0.00000000000E+00  0.40473238510E+02  0.40473238510E+02  0.00000000000E+00 0.  1.
          2   -1    0    0  501    0  0.00000000000E+00 -0.00000000000E+00 -0.45776954953E+03  0.45776954953E+03  0.00000000000E+00 0.  1.
         25    1    1    2    0    0 -0.28237186876E+02 -0.12913140638E+02 -0.10571015549E+03  0.16290710512E+03  0.12000000000E+03 0.  0.
         25    1    1    2    0    0  0.28237186876E+02  0.12913140638E+02 -0.31158615554E+03  0.33533568293E+03  0.12000000000E+03 0.  0.
<mgrwt>
<rscale>  0 0.27223090E+03</rscale>
<asrwt>0</asrwt>
<pdfrwt beam="1">  1        2 0.70426086E-01 0.27223090E+03</pdfrwt>
<pdfrwt beam="2">  1       -2 0.62266520E-02 0.27223090E+03</pdfrwt>
<totfact> 0.95435229E+03</totfact>
</mgrwt>
</event>
<event>
 4    1  0.1759998E-004  0.3079882E+03  0.7818608E-02  0.1081314E+00
         -2   -1    0    0    0  501 -0.00000000000E+00  0.00000000000E+00  0.35947763516E+02  0.35947763516E+02  0.00000000000E+00 0. -1.
          2   -1    0    0  501    0  0.00000000000E+00 -0.00000000000E+00 -0.65968449256E+03  0.65968449256E+03  0.00000000000E+00 0. -1.
         25    1    1    2    0    0  0.20084564066E+02 -0.86593446843E+02 -0.22698560685E+03  0.27170623929E+03  0.12000000000E+03 0.  0.
         25    1    1    2    0    0 -0.20084564066E+02  0.86593446843E+02 -0.39675112220E+03  0.42392601679E+03  0.12000000000E+03 0.  0.
<mgrwt>
<rscale>  0 0.30798820E+03</rscale>
<asrwt>0</asrwt>
<pdfrwt beam="1">  1        2 0.10148991E+00 0.30798820E+03</pdfrwt>
<pdfrwt beam="2">  1       -2 0.55304256E-02 0.30798820E+03</pdfrwt>
<totfact> 0.75675442E+03</totfact>
</mgrwt>
</event>
<event>
 4    1  0.1759998E-004  0.2461345E+03  0.7818608E-02  0.1115772E+00
         -2   -1    0    0    0  501 -0.00000000000E+00  0.00000000000E+00  0.10263275887E+03  0.10263275887E+03  0.00000000000E+00 0.  1.
          2   -1    0    0  501    0  0.00000000000E+00 -0.00000000000E+00 -0.14757034580E+03  0.14757034580E+03  0.00000000000E+00 0.  1.
         25    1    1    2    0    0  0.10608870910E+02 -0.87467623176E+01  0.15113537824E+01  0.12079461157E+03  0.12000000000E+03 0.  0.
         25    1    1    2    0    0 -0.10608870910E+02  0.87467623176E+01 -0.46448940710E+02  0.12940849310E+03  0.12000000000E+03 0.  0.
<mgrwt>
<rscale>  0 0.24613453E+03</rscale>
<asrwt>0</asrwt>
<pdfrwt beam="1">  1        2 0.22703130E-01 0.24613453E+03</pdfrwt>
<pdfrwt beam="2">  1       -2 0.15789655E-01 0.24613453E+03</pdfrwt>
<totfact> 0.74277061E+03</totfact>
</mgrwt>
</event>
<event>
 4    1  0.1759998E-004  0.2670059E+03  0.7818608E-02  0.1103006E+00
         -1   -1    0    0    0  501 -0.00000000000E+00  0.00000000000E+00  0.28174954506E+03  0.28174954506E+03  0.00000000000E+00 0. -1.
          1   -1    0    0  501    0  0.00000000000E+00 -0.00000000000E+00 -0.63258455549E+02  0.63258455549E+02  0.00000000000E+00 0. -1.
         25    1    1    2    0    0  0.97413293229E+01  0.50968699275E+01  0.18349750903E+03  0.21952723613E+03  0.12000000000E+03 0.  0.
         25    1    1    2    0    0 -0.97413293229E+01 -0.50968699275E+01  0.34993580475E+02  0.12548076448E+03  0.12000000000E+03 0.  0.
<mgrwt>
<rscale>  0 0.26700593E+03</rscale>
<asrwt>0</asrwt>
<pdfrwt beam="1">  1        1 0.97320702E-02 0.26700593E+03</pdfrwt>
<pdfrwt beam="2">  1       -1 0.43346083E-01 0.26700593E+03</pdfrwt>
<totfact> 0.35352148E+03</totfact>
</mgrwt>
</event>
<event>
 4    1  0.1759998E-004  0.3419837E+03  0.7818608E-02  0.1065954E+00
          1   -1    0    0  501    0  0.00000000000E+00  0.00000000000E+00  0.28309194573E+04  0.28309194573E+04  0.00000000000E+00 0. -1.
         -1   -1    0    0    0  501 -0.00000000000E+00 -0.00000000000E+00 -0.10328166819E+02  0.10328166819E+02  0.00000000000E+00 0. -1.
         25    1    1    2    0    0  0.22388732487E+02 -0.77042443810E+02  0.64877807530E+03  0.66464259905E+03  0.12000000000E+03 0.  0.
         25    1    1    2    0    0 -0.22388732487E+02  0.77042443810E+02  0.21718132152E+04  0.21766050251E+04  0.12000000000E+03 0.  0.
<mgrwt>
<rscale>  0 0.34198367E+03</rscale>
<asrwt>0</asrwt>
<pdfrwt beam="1">  1        1 0.43552545E+00 0.34198367E+03</pdfrwt>
<pdfrwt beam="2">  1       -1 0.15889510E-02 0.34198367E+03</pdfrwt>
<totfact> 0.90210889E+02</totfact>
</mgrwt>
</event>
<event>
 4    1  0.1759998E-004  0.3602798E+03  0.7818608E-02  0.1058473E+00
          2   -1    0    0  501    0  0.00000000000E+00  0.00000000000E+00  0.73675959320E+02  0.73675959320E+02  0.00000000000E+00 0. -1.
         -2   -1    0    0    0  501 -0.00000000000E+00 -0.00000000000E+00 -0.44044734409E+03  0.44044734409E+03  0.00000000000E+00 0. -1.
         25    1    1    2    0    0  0.11828218905E+03 -0.61429329091E+02 -0.15924675692E+03  0.23984113140E+03  0.12000000000E+03 0.  0.
         25    1    1    2    0    0 -0.11828218905E+03  0.61429329091E+02 -0.20752462785E+03  0.27428217201E+03  0.12000000000E+03 0.  0.
<mgrwt>
<rscale>  0 0.36027978E+03</rscale>
<asrwt>0</asrwt>
<pdfrwt beam="1">  1        2 0.11334763E-01 0.36027978E+03</pdfrwt>
<pdfrwt beam="2">  1       -2 0.67761130E-01 0.36027978E+03</pdfrwt>
<totfact> 0.11277731E+03</totfact>
</mgrwt>
</event>
<event>
 4    1  0.1759998E-004  0.3482117E+03  0.7818608E-02  0.1063351E+00
         -2   -1    0    0    0  501 -0.00000000000E+00  0.00000000000E+00  0.61593541019E+02  0.61593541019E+02  0.00000000000E+00 0. -1.
          2   -1    0    0  501    0  0.00000000000E+00 -0.00000000000E+00 -0.49214331772E+03  0.49214331772E+03  0.00000000000E+00 0. -1.
         25    1    1    2    0    0  0.62001749070E+02  0.77708093433E+02 -0.91787737696E+02  0.18085285031E+03  0.12000000000E+03 0.  0.
         25    1    1    2    0    0 -0.62001749070E+02 -0.77708093433E+02 -0.33876203901E+03  0.37288400843E+03  0.12000000000E+03 0.  0.
<mgrwt>
<rscale>  0 0.34821172E+03</rscale>
<asrwt>0</asrwt>
<pdfrwt beam="1">  1        2 0.75714353E-01 0.34821172E+03</pdfrwt>
<pdfrwt beam="2">  1       -2 0.94759299E-02 0.34821172E+03</pdfrwt>
<totfact> 0.45996806E+03</totfact>
</mgrwt>
</event>
<event>
 4    1  0.1759998E-004  0.2444917E+03  0.7818608E-02  0.1116836E+00
         -2   -1    0    0    0  501 -0.00000000000E+00  0.00000000000E+00  0.63053664780E+02  0.63053664780E+02  0.00000000000E+00 0. -1.
          2   -1    0    0  501    0  0.00000000000E+00 -0.00000000000E+00 -0.23700523226E+03  0.23700523226E+03  0.00000000000E+00 0. -1.
         25    1    1    2    0    0 -0.11216444872E+02  0.12562825924E+02 -0.67170750602E+02  0.13854798074E+03  0.12000000000E+03 0.  0.
         25    1    1    2    0    0  0.11216444872E+02 -0.12562825924E+02 -0.10678081688E+03  0.16151091630E+03  0.12000000000E+03 0.  0.
<mgrwt>
<rscale>  0 0.24449171E+03</rscale>
<asrwt>0</asrwt>
<pdfrwt beam="1">  1        2 0.36462344E-01 0.24449171E+03</pdfrwt>
<pdfrwt beam="2">  1       -2 0.97005637E-02 0.24449171E+03</pdfrwt>
<totfact> 0.96946539E+03</totfact>
</mgrwt>
</event>
<event>
 4    1  0.1759998E-004  0.3815010E+03  0.7818608E-02  0.1050380E+00
         -1   -1    0    0    0  501 -0.00000000000E+00  0.00000000000E+00  0.97773969217E+02  0.97773969217E+02  0.00000000000E+00 0.  1.
          1   -1    0    0  501    0  0.00000000000E+00 -0.00000000000E+00 -0.37214149352E+03  0.37214149352E+03  0.00000000000E+00 0.  1.
         25    1    1    2    0    0  0.54544140329E+02  0.45428469331E+02  0.23166523828E+02  0.14133469813E+03  0.12000000000E+03 0.  0.
         25    1    1    2    0    0 -0.54544140329E+02 -0.45428469331E+02 -0.29753404813E+03  0.32858076460E+03  0.12000000000E+03 0.  0.
<mgrwt>
<rscale>  0 0.38150099E+03</rscale>
<asrwt>0</asrwt>
<pdfrwt beam="1">  1        1 0.57252538E-01 0.38150099E+03</pdfrwt>
<pdfrwt beam="2">  1       -1 0.15042149E-01 0.38150099E+03</pdfrwt>
<totfact> 0.21372546E+03</totfact>
</mgrwt>
</event>
<event>
 4    1  0.1759998E-004  0.2657939E+03  0.7818608E-02  0.1103711E+00
          1   -1    0    0  501    0  0.00000000000E+00  0.00000000000E+00  0.54665087608E+03  0.54665087608E+03  0.00000000000E+00 0.  1.
         -1   -1    0    0    0  501 -0.00000000000E+00 -0.00000000000E+00 -0.32308739870E+02  0.32308739870E+02  0.00000000000E+00 0.  1.
         25    1    1    2    0    0 -0.56840076891E+02 -0.44793493071E+01  0.26431022118E+03  0.29582216268E+03  0.12000000000E+03 0.  0.
         25    1    1    2    0    0  0.56840076891E+02  0.44793493071E+01  0.25003191503E+03  0.28313745327E+03  0.12000000000E+03 0.  0.
<mgrwt>
<rscale>  0 0.26579391E+03</rscale>
<asrwt>0</asrwt>
<pdfrwt beam="1">  1        1 0.84100128E-01 0.26579391E+03</pdfrwt>
<pdfrwt beam="2">  1       -1 0.49705758E-02 0.26579391E+03</pdfrwt>
<totfact> 0.70634901E+03</totfact>
</mgrwt>
</event>
<event>
 4    1  0.1759998E-004  0.2784934E+03  0.7818608E-02  0.1096515E+00
         -2   -1    0    0    0  501 -0.00000000000E+00  0.00000000000E+00  0.12732567344E+03  0.12732567344E+03  0.00000000000E+00 0. -1.
          2   -1    0    0  501    0  0.00000000000E+00 -0.00000000000E+00 -0.15228383814E+03  0.15228383814E+03  0.00000000000E+00 0. -1.
         25    1    1    2    0    0  0.45231515660E+02 -0.53999205295E+02 -0.17776406655E+02  0.14027759912E+03  0.12000000000E+03 0.  0.
         25    1    1    2    0    0 -0.45231515660E+02  0.53999205295E+02 -0.71817580530E+01  0.13933191246E+03  0.12000000000E+03 0.  0.
<mgrwt>
<rscale>  0 0.27849339E+03</rscale>
<asrwt>0</asrwt>
<pdfrwt beam="1">  1        2 0.23428283E-01 0.27849339E+03</pdfrwt>
<pdfrwt beam="2">  1       -2 0.19588565E-01 0.27849339E+03</pdfrwt>
<totfact> 0.50136379E+03</totfact>
</mgrwt>
</event>
<event>
 4    1  0.1759998E-004  0.2515977E+03  0.7818608E-02  0.1112299E+00
          2   -1    0    0  501    0  0.00000000000E+00  0.00000000000E+00  0.21314722373E+04  0.21314722373E+04  0.00000000000E+00 0. -1.
         -2   -1    0    0    0  501 -0.00000000000E+00 -0.00000000000E+00 -0.74246104726E+01  0.74246104726E+01  0.00000000000E+00 0. -1.
         25    1    1    2    0    0  0.26895935665E+02  0.20020445355E+02  0.12095497830E+04  0.12159501993E+04  0.12000000000E+03 0.  0.
         25    1    1    2    0    0 -0.26895935665E+02 -0.20020445355E+02  0.91449784381E+03  0.92294664847E+03  0.12000000000E+03 0.  0.
<mgrwt>
<rscale>  0 0.25159770E+03</rscale>
<asrwt>0</asrwt>
<pdfrwt beam="1">  1        2 0.32791832E+00 0.25159770E+03</pdfrwt>
<pdfrwt beam="2">  1       -2 0.11422495E-02 0.25159770E+03</pdfrwt>
<totfact> 0.11106431E+04</totfact>
</mgrwt>
</event>
<event>
 4    1  0.1759998E-004  0.3267359E+03  0.7818608E-02  0.1072590E+00
         -1   -1    0    0    0  501 -0.00000000000E+00  0.00000000000E+00  0.69807965952E+02  0.69807965952E+02  0.00000000000E+00 0.  1.
          1   -1    0    0  501    0  0.00000000000E+00 -0.00000000000E+00 -0.38232158585E+03  0.38232158585E+03  0.00000000000E+00 0.  1.
         25    1    1    2    0    0  0.45488112596E+02  0.99140502346E+02 -0.12889143615E+03  0.20714972823E+03  0.12000000000E+03 0.  0.
         25    1    1    2    0    0 -0.45488112596E+02 -0.99140502346E+02 -0.18362218375E+03  0.24497982357E+03  0.12000000000E+03 0.  0.
<mgrwt>
<rscale>  0 0.32673593E+03</rscale>
<asrwt>0</asrwt>
<pdfrwt beam="1">  1        1 0.58818705E-01 0.32673593E+03</pdfrwt>
<pdfrwt beam="2">  1       -1 0.10739687E-01 0.32673593E+03</pdfrwt>
<totfact> 0.35067635E+03</totfact>
</mgrwt>
</event>
<event>
 4    1  0.1759998E-004  0.5167329E+03  0.7818608E-02  0.1009501E+00
         -2   -1    0    0    0  501 -0.00000000000E+00  0.00000000000E+00  0.49339523459E+02  0.49339523459E+02  0.00000000000E+00 0. -1.
          2   -1    0    0  501    0  0.00000000000E+00 -0.00000000000E+00 -0.13529360355E+04  0.13529360355E+04  0.00000000000E+00 0. -1.
         25    1    1    2    0    0  0.89110012902E+02  0.21032095387E+03 -0.68797561941E+03  0.73476931818E+03  0.12000000000E+03 0.  0.
         25    1    1    2    0    0 -0.89110012902E+02 -0.21032095387E+03 -0.61562089262E+03  0.66750624077E+03  0.12000000000E+03 0.  0.
<mgrwt>
<rscale>  0 0.51673289E+03</rscale>
<asrwt>0</asrwt>
<pdfrwt beam="1">  1        2 0.20814394E+00 0.51673289E+03</pdfrwt>
<pdfrwt beam="2">  1       -2 0.75906982E-02 0.51673289E+03</pdfrwt>
<totfact> 0.16734876E+03</totfact>
</mgrwt>
</event>
<event>
 4    1  0.1759998E-004  0.2727537E+03  0.7818608E-02  0.1099714E+00
         -2   -1    0    0    0  501 -0.00000000000E+00  0.00000000000E+00  0.20431248258E+02  0.20431248258E+02  0.00000000000E+00 0.  1.
          2   -1    0    0  501    0  0.00000000000E+00 -0.00000000000E+00 -0.91030403912E+03  0.91030403912E+03  0.00000000000E+00 0.  1.
         25    1    1    2    0    0 -0.49902206339E+02  0.32742175419E+02 -0.53101783412E+03  0.54766980965E+03  0.12000000000E+03 0.  0.
         25    1    1    2    0    0  0.49902206339E+02 -0.32742175419E+02 -0.35885495674E+03  0.38306547773E+03  0.12000000000E+03 0.  0.
<mgrwt>
<rscale>  0 0.27275372E+03</rscale>
<asrwt>0</asrwt>
<pdfrwt beam="1">  1        2 0.14004674E+00 0.27275372E+03</pdfrwt>
<pdfrwt beam="2">  1       -2 0.31432698E-02 0.27275372E+03</pdfrwt>
<totfact> 0.11777888E+04</totfact>
</mgrwt>
</event>
<event>
 4    1  0.1759998E-004  0.2502111E+03  0.7818608E-02  0.1113171E+00
          1   -1    0    0  501    0  0.00000000000E+00  0.00000000000E+00  0.11593028811E+02  0.11593028811E+02  0.00000000000E+00 0. -1.
         -1   -1    0    0    0  501 -0.00000000000E+00 -0.00000000000E+00 -0.13500698890E+04  0.13500698890E+04  0.00000000000E+00 0. -1.
         25    1    1    2    0    0 -0.33380153623E+02 -0.11612451667E+02 -0.67751935704E+03  0.68897138029E+03  0.12000000000E+03 0.  0.
         25    1    1    2    0    0  0.33380153623E+02  0.11612451667E+02 -0.66095750316E+03  0.67269153754E+03  0.12000000000E+03 0.  0.
<mgrwt>
<rscale>  0 0.25021110E+03</rscale>
<asrwt>0</asrwt>
<pdfrwt beam="1">  1        1 0.17835434E-02 0.25021110E+03</pdfrwt>
<pdfrwt beam="2">  1       -1 0.20770300E+00 0.25021110E+03</pdfrwt>
<totfact> 0.10542931E+03</totfact>
</mgrwt>
</event>
<event>
 4    1  0.1759998E-004  0.2872044E+03  0.7818608E-02  0.1091818E+00
          1   -1    0    0  501    0  0.00000000000E+00  0.00000000000E+00  0.29074332876E+03  0.29074332876E+03  0.00000000000E+00 0.  1.
         -1   -1    0    0    0  501 -0.00000000000E+00 -0.00000000000E+00 -0.70927148640E+02  0.70927148640E+02  0.00000000000E+00 0.  1.
         25    1    1    2    0    0 -0.15074680193E+02 -0.47401076599E+02  0.18699701975E+03  0.22768836914E+03  0.12000000000E+03 0.  0.
         25    1    1    2    0    0  0.15074680193E+02  0.47401076599E+02  0.32819160365E+02  0.13398210826E+03  0.12000000000E+03 0.  0.
<mgrwt>
<rscale>  0 0.28720442E+03</rscale>
<asrwt>0</asrwt>
<pdfrwt beam="1">  1        1 0.44729742E-01 0.28720442E+03</pdfrwt>
<pdfrwt beam="2">  1       -1 0.10911869E-01 0.28720442E+03</pdfrwt>
<totfact> 0.48285074E+03</totfact>
</mgrwt>
</event>
<event>
 4    1  0.1759998E-004  0.2769815E+03  0.7818608E-02  0.1097349E+00
          2   -1    0    0  501    0  0.00000000000E+00  0.00000000000E+00  0.40165155350E+03  0.40165155350E+03  0.00000000000E+00 0.  1.
         -2   -1    0    0    0  501 -0.00000000000E+00 -0.00000000000E+00 -0.47752054349E+02  0.47752054349E+02  0.00000000000E+00 0.  1.
         25    1    1    2    0    0  0.39193281901E+02  0.45820634462E+01  0.84843832062E+02  0.15216959122E+03  0.12000000000E+03 0.  0.
         25    1    1    2    0    0 -0.39193281901E+02 -0.45820634462E+01  0.26905566709E+03  0.29723401664E+03  0.12000000000E+03 0.  0.
<mgrwt>
<rscale>  0 0.27698149E+03</rscale>
<asrwt>0</asrwt>
<pdfrwt beam="1">  1        2 0.61792544E-01 0.27698149E+03</pdfrwt>
<pdfrwt beam="2">  1       -2 0.73464702E-02 0.27698149E+03</pdfrwt>
<totfact> 0.85348194E+03</totfact>
</mgrwt>
</event>
<event>
 4    1  0.1759998E-004  0.3012694E+03  0.7818608E-02  0.1084608E+00
         -2   -1    0    0    0  501 -0.00000000000E+00  0.00000000000E+00  0.23670347555E+02  0.23670347555E+02  0.00000000000E+00 0. -1.
          2   -1    0    0  501    0  0.00000000000E+00 -0.00000000000E+00 -0.95861749249E+03  0.95861749249E+03  0.00000000000E+00 0. -1.
         25    1    1    2    0    0 -0.78463557541E+02 -0.34635903740E+02 -0.36779439204E+03  0.39626870997E+03  0.12000000000E+03 0.  0.
         25    1    1    2    0    0  0.78463557541E+02  0.34635903740E+02 -0.56715275289E+03  0.58601913007E+03  0.12000000000E+03 0.  0.
<mgrwt>
<rscale>  0 0.30126938E+03</rscale>
<asrwt>0</asrwt>
<pdfrwt beam="1">  1        2 0.14747962E+00 0.30126938E+03</pdfrwt>
<pdfrwt beam="2">  1       -2 0.36415917E-02 0.30126938E+03</pdfrwt>
<totfact> 0.88313729E+03</totfact>
</mgrwt>
</event>
<event>
 4    1  0.1759998E-004  0.3075822E+03  0.7818608E-02  0.1081511E+00
         -2   -1    0    0    0  501 -0.00000000000E+00  0.00000000000E+00  0.17416529469E+03  0.17416529469E+03  0.00000000000E+00 0. -1.
          2   -1    0    0  501    0  0.00000000000E+00 -0.00000000000E+00 -0.13580032730E+03  0.13580032730E+03  0.00000000000E+00 0. -1.
         25    1    1    2    0    0 -0.72062021678E+02 -0.63360981911E+02  0.25878899044E+02  0.15581163760E+03  0.12000000000E+03 0.  0.
         25    1    1    2    0    0  0.72062021678E+02  0.63360981911E+02  0.12486068348E+02  0.15415398438E+03  0.12000000000E+03 0.  0.
<mgrwt>
<rscale>  0 0.30758221E+03</rscale>
<asrwt>0</asrwt>
<pdfrwt beam="1">  1        2 0.20892358E-01 0.30758221E+03</pdfrwt>
<pdfrwt beam="2">  1       -2 0.26794661E-01 0.30758221E+03</pdfrwt>
<totfact> 0.33138567E+03</totfact>
</mgrwt>
</event>
<event>
 4    1  0.1759998E-004  0.2810535E+03  0.7818608E-02  0.1095115E+00
          4   -1    0    0  501    0  0.00000000000E+00  0.00000000000E+00  0.18787002473E+04  0.18787002473E+04  0.00000000000E+00 0.  1.
         -4   -1    0    0    0  501 -0.00000000000E+00 -0.00000000000E+00 -0.10511396426E+02  0.10511396426E+02  0.00000000000E+00 0.  1.
         25    1    1    2    0    0 -0.44025434907E+02 -0.48006835350E+02  0.71066166906E+03  0.72365938330E+03  0.12000000000E+03 0.  0.
         25    1    1    2    0    0  0.44025434907E+02  0.48006835350E+02  0.11575271818E+04  0.11655522604E+04  0.12000000000E+03 0.  0.
<mgrwt>
<rscale>  0 0.28105347E+03</rscale>
<asrwt>0</asrwt>
<pdfrwt beam="1">  1        4 0.28903054E+00 0.28105347E+03</pdfrwt>
<pdfrwt beam="2">  1       -4 0.16171394E-02 0.28105347E+03</pdfrwt>
<totfact> 0.11121068E+02</totfact>
</mgrwt>
</event>
<event>
 4    1  0.1759998E-004  0.3226146E+03  0.7818608E-02  0.1074452E+00
          1   -1    0    0  501    0  0.00000000000E+00  0.00000000000E+00  0.61042924945E+03  0.61042924945E+03  0.00000000000E+00 0.  1.
         -1   -1    0    0    0  501 -0.00000000000E+00 -0.00000000000E+00 -0.42625819493E+02  0.42625819493E+02  0.00000000000E+00 0.  1.
         25    1    1    2    0    0 -0.40840433681E+02 -0.87547722772E+02  0.38071758049E+03  0.41070478556E+03  0.12000000000E+03 0.  0.
         25    1    1    2    0    0  0.40840433681E+02  0.87547722772E+02  0.18708584947E+03  0.24235028338E+03  0.12000000000E+03 0.  0.
<mgrwt>
<rscale>  0 0.32261461E+03</rscale>
<asrwt>0</asrwt>
<pdfrwt beam="1">  1        1 0.93912186E-01 0.32261461E+03</pdfrwt>
<pdfrwt beam="2">  1       -1 0.65578188E-02 0.32261461E+03</pdfrwt>
<totfact> 0.40131983E+03</totfact>
</mgrwt>
</event>
<event>
 4    1  0.1759998E-004  0.2986379E+03  0.7818608E-02  0.1085924E+00
          2   -1    0    0  501    0  0.00000000000E+00  0.00000000000E+00  0.14716364037E+03  0.14716364037E+03  0.00000000000E+00 0.  1.
         -2   -1    0    0    0  501 -0.00000000000E+00 -0.00000000000E+00 -0.15150580414E+03  0.15150580414E+03  0.00000000000E+00 0.  1.
         25    1    1    2    0    0  0.29343871606E+01 -0.83206559661E+02 -0.33225989974E+02  0.14978620967E+03  0.12000000000E+03 0.  0.
         25    1    1    2    0    0 -0.29343871606E+01  0.83206559661E+02  0.28883826205E+02  0.14888323483E+03  0.12000000000E+03 0.  0.
<mgrwt>
<rscale>  0 0.29863788E+03</rscale>
<asrwt>0</asrwt>
<pdfrwt beam="1">  1        2 0.22640560E-01 0.29863788E+03</pdfrwt>
<pdfrwt beam="2">  1       -2 0.23308585E-01 0.29863788E+03</pdfrwt>
<totfact> 0.38667457E+03</totfact>
</mgrwt>
</event>
<event>
 4    1  0.1759998E-004  0.2935298E+03  0.7818608E-02  0.1088520E+00
          2   -1    0    0  501    0  0.00000000000E+00  0.00000000000E+00  0.28487074664E+02  0.28487074664E+02  0.00000000000E+00 0.  1.
         -2   -1    0    0    0  501 -0.00000000000E+00 -0.00000000000E+00 -0.75613011589E+03  0.75613011589E+03  0.00000000000E+00 0.  1.
         25    1    1    2    0    0  0.38750424397E+02 -0.42362080956E+02 -0.19809742107E+03  0.23861837634E+03  0.12000000000E+03 0.  0.
         25    1    1    2    0    0 -0.38750424397E+02  0.42362080956E+02 -0.52954562015E+03  0.54599881421E+03  0.12000000000E+03 0.  0.
<mgrwt>
<rscale>  0 0.29352979E+03</rscale>
<asrwt>0</asrwt>
<pdfrwt beam="1">  1        2 0.43826277E-02 0.29352979E+03</pdfrwt>
<pdfrwt beam="2">  1       -2 0.11632769E+00 0.29352979E+03</pdfrwt>
<totfact> 0.11246610E+03</totfact>
</mgrwt>
</event>
<event>
 4    1  0.1759998E-004  0.3399414E+03  0.7818608E-02  0.1066821E+00
          3   -1    0    0  501    0  0.00000000000E+00  0.00000000000E+00  0.16665504288E+03  0.16665504288E+03  0.00000000000E+00 0.  1.
         -3   -1    0    0    0  501 -0.00000000000E+00 -0.00000000000E+00 -0.17335227301E+03  0.17335227301E+03  0.00000000000E+00 0.  1.
         25    1    1    2    0    0  0.96941244504E+01  0.10887752650E+03 -0.53774057085E+02  0.17099690360E+03  0.12000000000E+03 0.  0.
         25    1    1    2    0    0 -0.96941244504E+01 -0.10887752650E+03  0.47076826950E+02  0.16901041229E+03  0.12000000000E+03 0.  0.
<mgrwt>
<rscale>  0 0.33994135E+03</rscale>
<asrwt>0</asrwt>
<pdfrwt beam="1">  1        3 0.25639237E-01 0.33994135E+03</pdfrwt>
<pdfrwt beam="2">  1       -3 0.26669581E-01 0.33994135E+03</pdfrwt>
<totfact> 0.49546036E+02</totfact>
</mgrwt>
</event>
<event>
 4    1  0.1759998E-004  0.3675173E+03  0.7818608E-02  0.1055646E+00
          1   -1    0    0  501    0  0.00000000000E+00  0.00000000000E+00  0.23715978930E+04  0.23715978930E+04  0.00000000000E+00 0.  1.
         -1   -1    0    0    0  501 -0.00000000000E+00 -0.00000000000E+00 -0.14238182516E+02  0.14238182516E+02  0.00000000000E+00 0.  1.
         25    1    1    2    0    0 -0.42739356742E+02 -0.12070458853E+03  0.82483438574E+03  0.84329592327E+03  0.12000000000E+03 0.  0.
         25    1    1    2    0    0  0.42739356742E+02  0.12070458853E+03  0.15325253248E+04  0.15425401523E+04  0.12000000000E+03 0.  0.
<mgrwt>
<rscale>  0 0.36751731E+03</rscale>
<asrwt>0</asrwt>
<pdfrwt beam="1">  1        1 0.36486090E+00 0.36751731E+03</pdfrwt>
<pdfrwt beam="2">  1       -1 0.21904915E-02 0.36751731E+03</pdfrwt>
<totfact> 0.11468608E+03</totfact>
</mgrwt>
</event>
<event>
 4    1  0.1759998E-004  0.3072493E+03  0.7818608E-02  0.1081672E+00
          4   -1    0    0  501    0  0.00000000000E+00  0.00000000000E+00  0.48308716065E+03  0.48308716065E+03  0.00000000000E+00 0. -1.
         -4   -1    0    0    0  501 -0.00000000000E+00 -0.00000000000E+00 -0.48853573364E+02  0.48853573364E+02  0.00000000000E+00 0. -1.
         25    1    1    2    0    0 -0.10593654934E+02 -0.42800076841E+02  0.36459736051E+03  0.38636162774E+03  0.12000000000E+03 0.  0.
         25    1    1    2    0    0  0.10593654934E+02  0.42800076841E+02  0.69636226774E+02  0.14557910627E+03  0.12000000000E+03 0.  0.
<mgrwt>
<rscale>  0 0.30724931E+03</rscale>
<asrwt>0</asrwt>
<pdfrwt beam="1">  1        4 0.74321098E-01 0.30724931E+03</pdfrwt>
<pdfrwt beam="2">  1       -4 0.75159347E-02 0.30724931E+03</pdfrwt>
<totfact> 0.38850758E+02</totfact>
</mgrwt>
</event>
<event>
 4    1  0.1759998E-004  0.2817909E+03  0.7818608E-02  0.1094715E+00
          1   -1    0    0  501    0  0.00000000000E+00  0.00000000000E+00  0.28149425271E+02  0.28149425271E+02  0.00000000000E+00 0.  1.
         -1   -1    0    0    0  501 -0.00000000000E+00 -0.00000000000E+00 -0.70521972092E+03  0.70521972092E+03  0.00000000000E+00 0.  1.
         25    1    1    2    0    0 -0.44740640267E+01  0.61304270702E+02 -0.44499415743E+03  0.46497100017E+03  0.12000000000E+03 0.  0.
         25    1    1    2    0    0  0.44740640267E+01 -0.61304270702E+02 -0.23207613822E+03  0.26839814602E+03  0.12000000000E+03 0.  0.
<mgrwt>
<rscale>  0 0.28179091E+03</rscale>
<asrwt>0</asrwt>
<pdfrwt beam="1">  1        1 0.43306816E-02 0.28179091E+03</pdfrwt>
<pdfrwt beam="2">  1       -1 0.10849532E+00 0.28179091E+03</pdfrwt>
<totfact> 0.17037037E+03</totfact>
</mgrwt>
</event>
<event>
 4    1  0.1759998E-004  0.2475417E+03  0.7818608E-02  0.1114868E+00
         -2   -1    0    0    0  501 -0.00000000000E+00  0.00000000000E+00  0.80045116466E+01  0.80045116466E+01  0.00000000000E+00 0. -1.
          2   -1    0    0  501    0  0.00000000000E+00 -0.00000000000E+00 -0.19138230882E+04  0.19138230882E+04  0.00000000000E+00 0. -1.
         25    1    1    2    0    0 -0.24462651671E+02  0.17215913079E+02 -0.91455164979E+03  0.92287568454E+03  0.12000000000E+03 0.  0.
         25    1    1    2    0    0  0.24462651671E+02 -0.17215913079E+02 -0.99126692672E+03  0.99895191526E+03  0.12000000000E+03 0.  0.
<mgrwt>
<rscale>  0 0.24754167E+03</rscale>
<asrwt>0</asrwt>
<pdfrwt beam="1">  1        2 0.29443449E+00 0.24754167E+03</pdfrwt>
<pdfrwt beam="2">  1       -2 0.12314626E-02 0.24754167E+03</pdfrwt>
<totfact> 0.12948829E+04</totfact>
</mgrwt>
</event>
<event>
 4    1  0.1759998E-004  0.3396091E+03  0.7818608E-02  0.1066963E+00
         -2   -1    0    0    0  501 -0.00000000000E+00  0.00000000000E+00  0.19875734430E+02  0.19875734430E+02  0.00000000000E+00 0. -1.
          2   -1    0    0  501    0  0.00000000000E+00 -0.00000000000E+00 -0.14506926110E+04  0.14506926110E+04  0.00000000000E+00 0. -1.
         25    1    1    2    0    0 -0.97806250085E+02  0.34242242465E+02 -0.45219236639E+03  0.47918319039E+03  0.12000000000E+03 0.  0.
         25    1    1    2    0    0  0.97806250085E+02 -0.34242242465E+02 -0.97862451022E+03  0.99138515509E+03  0.12000000000E+03 0.  0.
<mgrwt>
<rscale>  0 0.33960908E+03</rscale>
<asrwt>0</asrwt>
<pdfrwt beam="1">  1        2 0.22318350E+00 0.33960908E+03</pdfrwt>
<pdfrwt beam="2">  1       -2 0.30578050E-02 0.33960908E+03</pdfrwt>
<totfact> 0.59882617E+03</totfact>
</mgrwt>
</event>
<event>
 4    1  0.1759998E-004  0.2864517E+03  0.7818608E-02  0.1092216E+00
         -1   -1    0    0    0  501 -0.00000000000E+00  0.00000000000E+00  0.62199856233E+02  0.62199856233E+02  0.00000000000E+00 0.  1.
          1   -1    0    0  501    0  0.00000000000E+00 -0.00000000000E+00 -0.32980219336E+03  0.32980219336E+03  0.00000000000E+00 0.  1.
         25    1    1    2    0    0 -0.17372131924E+02  0.10474035926E+02 -0.30464061254E+02  0.12545738489E+03  0.12000000000E+03 0.  0.
         25    1    1    2    0    0  0.17372131924E+02 -0.10474035926E+02 -0.23713827587E+03  0.26654466470E+03  0.12000000000E+03 0.  0.
<mgrwt>
<rscale>  0 0.28645173E+03</rscale>
<asrwt>0</asrwt>
<pdfrwt beam="1">  1        1 0.50738799E-01 0.28645173E+03</pdfrwt>
<pdfrwt beam="2">  1       -1 0.95692086E-02 0.28645173E+03</pdfrwt>
<totfact> 0.50474751E+03</totfact>
</mgrwt>
</event>
<event>
 4    1  0.1759998E-004  0.3315321E+03  0.7818608E-02  0.1070461E+00
          2   -1    0    0  501    0  0.00000000000E+00  0.00000000000E+00  0.89172262094E+03  0.89172262094E+03  0.00000000000E+00 0.  1.
         -2   -1    0    0    0  501 -0.00000000000E+00 -0.00000000000E+00 -0.30814948902E+02  0.30814948902E+02  0.00000000000E+00 0.  1.
         25    1    1    2    0    0 -0.88622331151E+01 -0.96951004200E+02  0.59742091354E+03  0.61708166747E+03  0.12000000000E+03 0.  0.
         25    1    1    2    0    0  0.88622331151E+01  0.96951004200E+02  0.26348675850E+03  0.30545590237E+03  0.12000000000E+03 0.  0.
<mgrwt>
<rscale>  0 0.33153212E+03</rscale>
<asrwt>0</asrwt>
<pdfrwt beam="1">  1        2 0.13718808E+00 0.33153212E+03</pdfrwt>
<pdfrwt beam="2">  1       -2 0.47407621E-02 0.33153212E+03</pdfrwt>
<totfact> 0.65544054E+03</totfact>
</mgrwt>
</event>
<event>
 4    1  0.1759998E-004  0.2954443E+03  0.7818608E-02  0.1087540E+00
          1   -1    0    0  501    0  0.00000000000E+00  0.00000000000E+00  0.11087647950E+04  0.11087647950E+04  0.00000000000E+00 0.  1.
         -1   -1    0    0    0  501 -0.00000000000E+00 -0.00000000000E+00 -0.19681206917E+02  0.19681206917E+02  0.00000000000E+00 0.  1.
         25    1    1    2    0    0  0.61293143715E+01  0.83674094119E+02  0.61928156554E+03  0.63635570237E+03  0.12000000000E+03 0.  0.
         25    1    1    2    0    0 -0.61293143715E+01 -0.83674094119E+02  0.46980202250E+03  0.49209029950E+03  0.12000000000E+03 0.  0.
<mgrwt>
<rscale>  0 0.29544427E+03</rscale>
<asrwt>0</asrwt>
<pdfrwt beam="1">  1        1 0.17057915E+00 0.29544427E+03</pdfrwt>
<pdfrwt beam="2">  1       -1 0.30278788E-02 0.29544427E+03</pdfrwt>
<totfact> 0.49541078E+03</totfact>
</mgrwt>
</event>
<event>
 4    1  0.1759998E-004  0.2418298E+03  0.7818608E-02  0.1118580E+00
          2   -1    0    0  501    0  0.00000000000E+00  0.00000000000E+00  0.50655748176E+03  0.50655748176E+03  0.00000000000E+00 0.  1.
         -2   -1    0    0    0  501 -0.00000000000E+00 -0.00000000000E+00 -0.28862294193E+02  0.28862294193E+02  0.00000000000E+00 0.  1.
         25    1    1    2    0    0 -0.79202096427E+01 -0.11372247365E+02  0.22705833009E+03  0.25719164643E+03  0.12000000000E+03 0.  0.
         25    1    1    2    0    0  0.79202096427E+01  0.11372247365E+02  0.25063685747E+03  0.27822812951E+03  0.12000000000E+03 0.  0.
<mgrwt>
<rscale>  0 0.24182978E+03</rscale>
<asrwt>0</asrwt>
<pdfrwt beam="1">  1        2 0.77931913E-01 0.24182978E+03</pdfrwt>
<pdfrwt beam="2">  1       -2 0.44403533E-02 0.24182978E+03</pdfrwt>
<totfact> 0.14191819E+04</totfact>
</mgrwt>
</event>
<event>
 4    1  0.1759998E-004  0.2882735E+03  0.7818608E-02  0.1091254E+00
          1   -1    0    0  501    0  0.00000000000E+00  0.00000000000E+00  0.59927549939E+03  0.59927549939E+03  0.00000000000E+00 0.  1.
         -1   -1    0    0    0  501 -0.00000000000E+00 -0.00000000000E+00 -0.34667542716E+02  0.34667542716E+02  0.00000000000E+00 0.  1.
         25    1    1    2    0    0  0.80173666626E+01 -0.79350930005E+02  0.29069542380E+03  0.32444518439E+03  0.12000000000E+03 0.  0.
         25    1    1    2    0    0 -0.80173666626E+01  0.79350930005E+02  0.27391253288E+03  0.30949785772E+03  0.12000000000E+03 0.  0.
<mgrwt>
<rscale>  0 0.28827354E+03</rscale>
<asrwt>0</asrwt>
<pdfrwt beam="1">  1        1 0.92196223E-01 0.28827354E+03</pdfrwt>
<pdfrwt beam="2">  1       -1 0.53334686E-02 0.28827354E+03</pdfrwt>
<totfact> 0.56151676E+03</totfact>
</mgrwt>
</event>
<event>
 4    1  0.1759998E-004  0.2621734E+03  0.7818608E-02  0.1105844E+00
         -2   -1    0    0    0  501 -0.00000000000E+00  0.00000000000E+00  0.20807551734E+02  0.20807551734E+02  0.00000000000E+00 0. -1.
          2   -1    0    0  501    0  0.00000000000E+00 -0.00000000000E+00 -0.82584040890E+03  0.82584040890E+03  0.00000000000E+00 0. -1.
         25    1    1    2    0    0 -0.47791337953E+02 -0.11022465235E+02 -0.33971334095E+03  0.36360783922E+03  0.12000000000E+03 0.  0.
         25    1    1    2    0    0  0.47791337953E+02  0.11022465235E+02 -0.46531951622E+03  0.48304012141E+03  0.12000000000E+03 0.  0.
<mgrwt>
<rscale>  0 0.26217336E+03</rscale>
<asrwt>0</asrwt>
<pdfrwt beam="1">  1        2 0.12705238E+00 0.26217336E+03</pdfrwt>
<pdfrwt beam="2">  1       -2 0.32011615E-02 0.26217336E+03</pdfrwt>
<totfact> 0.13009589E+04</totfact>
</mgrwt>
</event>
<event>
 4    1  0.1759998E-004  0.3974833E+03  0.7818608E-02  0.1044655E+00
          2   -1    0    0  501    0  0.00000000000E+00  0.00000000000E+00  0.90706634197E+02  0.90706634197E+02  0.00000000000E+00 0. -1.
         -2   -1    0    0    0  501 -0.00000000000E+00 -0.00000000000E+00 -0.43545050399E+03  0.43545050399E+03  0.00000000000E+00 0. -1.
         25    1    1    2    0    0  0.37876020488E+02 -0.10801868484E+03 -0.31735187060E+03  0.35807099711E+03  0.12000000000E+03 0.  0.
         25    1    1    2    0    0 -0.37876020488E+02  0.10801868484E+03 -0.27391999201E+02  0.16808614108E+03  0.12000000000E+03 0.  0.
<mgrwt>
<rscale>  0 0.39748333E+03</rscale>
<asrwt>0</asrwt>
<pdfrwt beam="1">  1        2 0.13954867E-01 0.39748333E+03</pdfrwt>
<pdfrwt beam="2">  1       -2 0.66992385E-01 0.39748333E+03</pdfrwt>
<totfact> 0.89698003E+02</totfact>
</mgrwt>
</event>
<event>
 4    1  0.1759998E-004  0.3179445E+03  0.7818608E-02  0.1076599E+00
          3   -1    0    0  501    0  0.00000000000E+00  0.00000000000E+00  0.20084924294E+03  0.20084924294E+03  0.00000000000E+00 0.  1.
         -3   -1    0    0    0  501 -0.00000000000E+00 -0.00000000000E+00 -0.12582659697E+03  0.12582659697E+03  0.00000000000E+00 0.  1.
         25    1    1    2    0    0  0.40790586844E+02 -0.19011068829E+02  0.13415220006E+03  0.18553195276E+03  0.12000000000E+03 0.  0.
         25    1    1    2    0    0 -0.40790586844E+02  0.19011068829E+02 -0.59129554094E+02  0.14114388715E+03  0.12000000000E+03 0.  0.
<mgrwt>
<rscale>  0 0.31794450E+03</rscale>
<asrwt>0</asrwt>
<pdfrwt beam="1">  1        3 0.30899884E-01 0.31794450E+03</pdfrwt>
<pdfrwt beam="2">  1       -3 0.19357938E-01 0.31794450E+03</pdfrwt>
<totfact> 0.62208472E+02</totfact>
</mgrwt>
</event>
<event>
 4    1  0.1759998E-004  0.2743240E+03  0.7818608E-02  0.1098830E+00
          2   -1    0    0  501    0  0.00000000000E+00  0.00000000000E+00  0.74904012211E+02  0.74904012211E+02  0.00000000000E+00 0.  1.
         -2   -1    0    0    0  501 -0.00000000000E+00 -0.00000000000E+00 -0.25116689652E+03  0.25116689652E+03  0.00000000000E+00 0.  1.
         25    1    1    2    0    0 -0.34058542096E+02  0.41010125006E+02 -0.41010013479E+02  0.13756320674E+03  0.12000000000E+03 0.  0.
         25    1    1    2    0    0  0.34058542096E+02 -0.41010125006E+02 -0.13525287083E+03  0.18850770199E+03  0.12000000000E+03 0.  0.
<mgrwt>
<rscale>  0 0.27432396E+03</rscale>
<asrwt>0</asrwt>
<pdfrwt beam="1">  1        2 0.11523694E-01 0.27432396E+03</pdfrwt>
<pdfrwt beam="2">  1       -2 0.38641061E-01 0.27432396E+03</pdfrwt>
<totfact> 0.34034492E+03</totfact>
</mgrwt>
</event>
<event>
 4    1  0.1759998E-004  0.2449243E+03  0.7818608E-02  0.1116555E+00
          1   -1    0    0  501    0  0.00000000000E+00  0.00000000000E+00  0.63360512836E+03  0.63360512836E+03  0.00000000000E+00 0.  1.
         -1   -1    0    0    0  501 -0.00000000000E+00 -0.00000000000E+00 -0.23669282834E+02  0.23669282834E+02  0.00000000000E+00 0.  1.
         25    1    1    2    0    0 -0.62052268751E+01  0.17136385164E+02  0.34863850258E+03  0.36916251979E+03  0.12000000000E+03 0.  0.
         25    1    1    2    0    0  0.62052268751E+01 -0.17136385164E+02  0.26129734294E+03  0.28811189140E+03  0.12000000000E+03 0.  0.
<mgrwt>
<rscale>  0 0.24492431E+03</rscale>
<asrwt>0</asrwt>
<pdfrwt beam="1">  1        1 0.97477699E-01 0.24492431E+03</pdfrwt>
<pdfrwt beam="2">  1       -1 0.36414286E-02 0.24492431E+03</pdfrwt>
<totfact> 0.91287471E+03</totfact>
</mgrwt>
</event>
<event>
 4    1  0.1759998E-004  0.2841286E+03  0.7818608E-02  0.1093455E+00
         -3   -1    0    0    0  501 -0.00000000000E+00  0.00000000000E+00  0.13846804212E+02  0.13846804212E+02  0.00000000000E+00 0.  1.
          3   -1    0    0  501    0  0.00000000000E+00 -0.00000000000E+00 -0.14575394303E+04  0.14575394303E+04  0.00000000000E+00 0.  1.
         25    1    1    2    0    0 -0.14096583011E+02 -0.51102922260E+00 -0.33489458655E+03  0.35602437965E+03  0.12000000000E+03 0.  0.
         25    1    1    2    0    0  0.14096583011E+02  0.51102922260E+00 -0.11087980396E+04  0.11153618549E+04  0.12000000000E+03 0.  0.
<mgrwt>
<rscale>  0 0.28412858E+03</rscale>
<asrwt>0</asrwt>
<pdfrwt beam="1">  1        3 0.22423682E+00 0.28412858E+03</pdfrwt>
<pdfrwt beam="2">  1       -3 0.21302777E-02 0.28412858E+03</pdfrwt>
<totfact> 0.25337256E+02</totfact>
</mgrwt>
</event>
<event>
 4    1  0.1759998E-004  0.3026478E+03  0.7818608E-02  0.1083924E+00
         -1   -1    0    0    0  501 -0.00000000000E+00  0.00000000000E+00  0.45723779233E+02  0.45723779233E+02  0.00000000000E+00 0. -1.
          1   -1    0    0  501    0  0.00000000000E+00 -0.00000000000E+00 -0.50080980883E+03  0.50080980883E+03  0.00000000000E+00 0. -1.
         25    1    1    2    0    0 -0.44507050257E+02 -0.49912042188E+02 -0.34213675919E+03  0.36868638633E+03  0.12000000000E+03 0.  0.
         25    1    1    2    0    0  0.44507050257E+02  0.49912042188E+02 -0.11294927041E+03  0.17784720173E+03  0.12000000000E+03 0.  0.
<mgrwt>
<rscale>  0 0.30264776E+03</rscale>
<asrwt>0</asrwt>
<pdfrwt beam="1">  1        1 0.77047654E-01 0.30264776E+03</pdfrwt>
<pdfrwt beam="2">  1       -1 0.70344284E-02 0.30264776E+03</pdfrwt>
<totfact> 0.47212039E+03</totfact>
</mgrwt>
</event>
<event>
 4    1  0.1759998E-004  0.2787012E+03  0.7818608E-02  0.1096400E+00
         -1   -1    0    0    0  501 -0.00000000000E+00  0.00000000000E+00  0.15612943601E+02  0.15612943601E+02  0.00000000000E+00 0. -1.
          1   -1    0    0  501    0  0.00000000000E+00 -0.00000000000E+00 -0.12437491316E+04  0.12437491316E+04  0.00000000000E+00 0. -1.
         25    1    1    2    0    0  0.48292545609E+02  0.50236194407E+02 -0.67171271484E+03  0.68589635986E+03  0.12000000000E+03 0.  0.
         25    1    1    2    0    0 -0.48292545609E+02 -0.50236194407E+02 -0.55642347312E+03  0.57346571531E+03  0.12000000000E+03 0.  0.
<mgrwt>
<rscale>  0 0.27870117E+03</rscale>
<asrwt>0</asrwt>
<pdfrwt beam="1">  1        1 0.19134604E+00 0.27870117E+03</pdfrwt>
<pdfrwt beam="2">  1       -1 0.24019910E-02 0.27870117E+03</pdfrwt>
<totfact> 0.55917750E+03</totfact>
</mgrwt>
</event>
<event>
 4    1  0.1759998E-004  0.2959326E+03  0.7818608E-02  0.1087292E+00
          2   -1    0    0  501    0  0.00000000000E+00  0.00000000000E+00  0.75856702842E+03  0.75856702842E+03  0.00000000000E+00 0.  1.
         -2   -1    0    0    0  501 -0.00000000000E+00 -0.00000000000E+00 -0.28862350982E+02  0.28862350982E+02  0.00000000000E+00 0.  1.
         25    1    1    2    0    0  0.18937670842E+02  0.60425590245E+02  0.52191270828E+03  0.53926131179E+03  0.12000000000E+03 0.  0.
         25    1    1    2    0    0 -0.18937670842E+02 -0.60425590245E+02  0.20779196916E+03  0.24816806761E+03  0.12000000000E+03 0.  0.
<mgrwt>
<rscale>  0 0.29593261E+03</rscale>
<asrwt>0</asrwt>
<pdfrwt beam="1">  1        2 0.11670260E+00 0.29593261E+03</pdfrwt>
<pdfrwt beam="2">  1       -2 0.44403623E-02 0.29593261E+03</pdfrwt>
<totfact> 0.89017368E+03</totfact>
</mgrwt>
</event>
<event>
 4    1  0.1759998E-004  0.2650770E+03  0.7818608E-02  0.1104131E+00
         -2   -1    0    0    0  501 -0.00000000000E+00  0.00000000000E+00  0.38055440036E+01  0.38055440036E+01  0.00000000000E+00 0.  1.
          2   -1    0    0  501    0  0.00000000000E+00 -0.00000000000E+00 -0.46160159823E+04  0.46160159823E+04  0.00000000000E+00 0.  1.
         25    1    1    2    0    0 -0.21306844393E+02 -0.51808473096E+02 -0.22133051305E+04  0.22172635613E+04  0.12000000000E+03 0.  0.
         25    1    1    2    0    0  0.21306844393E+02  0.51808473096E+02 -0.23989053078E+04  0.24025579650E+04  0.12000000000E+03 0.  0.
<mgrwt>
<rscale>  0 0.26507698E+03</rscale>
<asrwt>0</asrwt>
<pdfrwt beam="1">  1        2 0.71015899E+00 0.26507698E+03</pdfrwt>
<pdfrwt beam="2">  1       -2 0.58546609E-03 0.26507698E+03</pdfrwt>
<totfact> 0.61119190E+02</totfact>
</mgrwt>
</event>
<event>
 4    1  0.1759998E-004  0.2813786E+03  0.7818608E-02  0.1094938E+00
          4   -1    0    0  501    0  0.00000000000E+00  0.00000000000E+00  0.76538992864E+02  0.76538992864E+02  0.00000000000E+00 0. -1.
         -4   -1    0    0    0  501 -0.00000000000E+00 -0.00000000000E+00 -0.25860654471E+03  0.25860654471E+03  0.00000000000E+00 0. -1.
         25    1    1    2    0    0  0.24451156357E+02  0.52251042269E+02 -0.36902273240E+02  0.13816587218E+03  0.12000000000E+03 0.  0.
         25    1    1    2    0    0 -0.24451156357E+02 -0.52251042269E+02 -0.14516527860E+03  0.19697966539E+03  0.12000000000E+03 0.  0.
<mgrwt>
<rscale>  0 0.28137864E+03</rscale>
<asrwt>0</asrwt>
<pdfrwt beam="1">  1        4 0.11775230E-01 0.28137864E+03</pdfrwt>
<pdfrwt beam="2">  1       -4 0.39785623E-01 0.28137864E+03</pdfrwt>
<totfact> 0.66365775E+02</totfact>
</mgrwt>
</event>
<event>
 4    1  0.1759998E-004  0.2521904E+03  0.7818608E-02  0.1111928E+00
          1   -1    0    0  501    0  0.00000000000E+00  0.00000000000E+00  0.46704242459E+03  0.46704242459E+03  0.00000000000E+00 0.  1.
         -1   -1    0    0    0  501 -0.00000000000E+00 -0.00000000000E+00 -0.34044028811E+02  0.34044028811E+02  0.00000000000E+00 0.  1.
         25    1    1    2    0    0  0.95203258583E+01  0.18861914617E+02  0.28099350130E+03  0.30627398878E+03  0.12000000000E+03 0.  0.
         25    1    1    2    0    0 -0.95203258583E+01 -0.18861914617E+02  0.15200489447E+03  0.19481246462E+03  0.12000000000E+03 0.  0.
<mgrwt>
<rscale>  0 0.25219045E+03</rscale>
<asrwt>0</asrwt>
<pdfrwt beam="1">  1        1 0.71852676E-01 0.25219045E+03</pdfrwt>
<pdfrwt beam="2">  1       -1 0.52375432E-02 0.25219045E+03</pdfrwt>
<totfact> 0.80369217E+03</totfact>
</mgrwt>
</event>
<event>
 4    1  0.1759998E-004  0.3271986E+03  0.7818608E-02  0.1072383E+00
          4   -1    0    0  501    0  0.00000000000E+00  0.00000000000E+00  0.34467313869E+03  0.34467313869E+03  0.00000000000E+00 0.  1.
         -4   -1    0    0    0  501 -0.00000000000E+00 -0.00000000000E+00 -0.77652482645E+02  0.77652482645E+02  0.00000000000E+00 0.  1.
         25    1    1    2    0    0 -0.10045231656E+02  0.94373365677E+02  0.58720393488E+02  0.16387593917E+03  0.12000000000E+03 0.  0.
         25    1    1    2    0    0  0.10045231656E+02 -0.94373365677E+02  0.20830026256E+03  0.25844968216E+03  0.12000000000E+03 0.  0.
<mgrwt>
<rscale>  0 0.32719856E+03</rscale>
<asrwt>0</asrwt>
<pdfrwt beam="1">  1        4 0.53026636E-01 0.32719856E+03</pdfrwt>
<pdfrwt beam="2">  1       -4 0.11946536E-01 0.32719856E+03</pdfrwt>
<totfact> 0.36765674E+02</totfact>
</mgrwt>
</event>
<event>
 4    1  0.1759998E-004  0.2482649E+03  0.7818608E-02  0.1114406E+00
          2   -1    0    0  501    0  0.00000000000E+00  0.00000000000E+00  0.29667288256E+04  0.29667288256E+04  0.00000000000E+00 0.  1.
         -2   -1    0    0    0  501 -0.00000000000E+00 -0.00000000000E+00 -0.51938904879E+01  0.51938904879E+01  0.00000000000E+00 0.  1.
         25    1    1    2    0    0  0.31206782366E+02 -0.57253422808E+01  0.14986108182E+04  0.15037423407E+04  0.12000000000E+03 0.  0.
         25    1    1    2    0    0 -0.31206782366E+02  0.57253422808E+01  0.14629241170E+04  0.14681803754E+04  0.12000000000E+03 0.  0.
<mgrwt>
<rscale>  0 0.24826490E+03</rscale>
<asrwt>0</asrwt>
<pdfrwt beam="1">  1        2 0.45641846E+00 0.24826490E+03</pdfrwt>
<pdfrwt beam="2">  1       -2 0.79906245E-03 0.24826490E+03</pdfrwt>
<totfact> 0.64429622E+03</totfact>
</mgrwt>
</event>
<event>
 4    1  0.1759998E-004  0.3038472E+03  0.7818608E-02  0.1083333E+00
          4   -1    0    0  501    0  0.00000000000E+00  0.00000000000E+00  0.15264748952E+03  0.15264748952E+03  0.00000000000E+00 0.  1.
         -4   -1    0    0    0  501 -0.00000000000E+00 -0.00000000000E+00 -0.15120315429E+03  0.15120315429E+03  0.00000000000E+00 0.  1.
         25    1    1    2    0    0  0.33870039422E+02 -0.78392680206E+02 -0.36536675572E+02  0.15174821430E+03  0.12000000000E+03 0.  0.
         25    1    1    2    0    0 -0.33870039422E+02  0.78392680206E+02  0.37981010805E+02  0.15210242951E+03  0.12000000000E+03 0.  0.
<mgrwt>
<rscale>  0 0.30384721E+03</rscale>
<asrwt>0</asrwt>
<pdfrwt beam="1">  1        4 0.23484229E-01 0.30384721E+03</pdfrwt>
<pdfrwt beam="2">  1       -4 0.23262024E-01 0.30384721E+03</pdfrwt>
<totfact> 0.54655508E+02</totfact>
</mgrwt>
</event>
<event>
 4    1  0.1759998E-004  0.2707401E+03  0.7818608E-02  0.1100857E+00
          1   -1    0    0  501    0  0.00000000000E+00  0.00000000000E+00  0.25455939118E+03  0.25455939118E+03  0.00000000000E+00 0.  1.
         -1   -1    0    0    0  501 -0.00000000000E+00 -0.00000000000E+00 -0.71987319336E+02  0.71987319336E+02  0.00000000000E+00 0.  1.
         25    1    1    2    0    0  0.38417752172E+02  0.39296914055E+02  0.55004343196E+02  0.14298828241E+03  0.12000000000E+03 0.  0.
         25    1    1    2    0    0 -0.38417752172E+02 -0.39296914055E+02  0.12756772865E+03  0.18355842811E+03  0.12000000000E+03 0.  0.
<mgrwt>
<rscale>  0 0.27074008E+03</rscale>
<asrwt>0</asrwt>
<pdfrwt beam="1">  1        1 0.39162983E-01 0.27074008E+03</pdfrwt>
<pdfrwt beam="2">  1       -1 0.11074972E-01 0.27074008E+03</pdfrwt>
<totfact> 0.55651797E+03</totfact>
</mgrwt>
</event>
<event>
 4    1  0.1759998E-004  0.3694992E+03  0.7818608E-02  0.1054885E+00
          2   -1    0    0  501    0  0.00000000000E+00  0.00000000000E+00  0.66153110800E+03  0.66153110800E+03  0.00000000000E+00 0. -1.
         -2   -1    0    0    0  501 -0.00000000000E+00 -0.00000000000E+00 -0.51596090249E+02  0.51596090249E+02  0.00000000000E+00 0. -1.
         25    1    1    2    0    0 -0.11765366930E+03 -0.40485657724E+02  0.17913403593E+03  0.24893870171E+03  0.12000000000E+03 0.  0.
         25    1    1    2    0    0  0.11765366930E+03  0.40485657724E+02  0.43080098183E+03  0.46418849654E+03  0.12000000000E+03 0.  0.
<mgrwt>
<rscale>  0 0.36949922E+03</rscale>
<asrwt>0</asrwt>
<pdfrwt beam="1">  1        2 0.10177401E+00 0.36949922E+03</pdfrwt>
<pdfrwt beam="2">  1       -2 0.79378605E-02 0.36949922E+03</pdfrwt>
<totfact> 0.43213644E+03</totfact>
</mgrwt>
</event>
<event>
 4    1  0.1759998E-004  0.2644477E+03  0.7818608E-02  0.1104500E+00
         -2   -1    0    0    0  501 -0.00000000000E+00  0.00000000000E+00  0.33413430043E+02  0.33413430043E+02  0.00000000000E+00 0.  1.
          2   -1    0    0  501    0  0.00000000000E+00 -0.00000000000E+00 -0.52323699919E+03  0.52323699919E+03  0.00000000000E+00 0.  1.
         25    1    1    2    0    0  0.43491576247E+02 -0.51690366727E+01 -0.31675543241E+03  0.34154390656E+03  0.12000000000E+03 0.  0.
         25    1    1    2    0    0 -0.43491576247E+02  0.51690366727E+01 -0.17306813674E+03  0.21510652268E+03  0.12000000000E+03 0.  0.
<mgrwt>
<rscale>  0 0.26444767E+03</rscale>
<asrwt>0</asrwt>
<pdfrwt beam="1">  1        2 0.80498001E-01 0.26444767E+03</pdfrwt>
<pdfrwt beam="2">  1       -2 0.51405276E-02 0.26444767E+03</pdfrwt>
<totfact> 0.11009243E+04</totfact>
</mgrwt>
</event>
<event>
 4    1  0.1759998E-004  0.3280645E+03  0.7818608E-02  0.1071996E+00
         -1   -1    0    0    0  501 -0.00000000000E+00  0.00000000000E+00  0.21812867515E+03  0.21812867515E+03  0.00000000000E+00 0.  1.
          1   -1    0    0  501    0  0.00000000000E+00 -0.00000000000E+00 -0.12335186420E+03  0.12335186420E+03  0.00000000000E+00 0.  1.
         25    1    1    2    0    0  0.33626941654E+02  0.89358135911E+02 -0.13224653679E+02  0.15391731262E+03  0.12000000000E+03 0.  0.
         25    1    1    2    0    0 -0.33626941654E+02 -0.89358135911E+02  0.10800146463E+03  0.18756322673E+03  0.12000000000E+03 0.  0.
<mgrwt>
<rscale>  0 0.32806450E+03</rscale>
<asrwt>0</asrwt>
<pdfrwt beam="1">  1        1 0.18977210E-01 0.32806450E+03</pdfrwt>
<pdfrwt beam="2">  1       -1 0.33558258E-01 0.32806450E+03</pdfrwt>
<totfact> 0.23063186E+03</totfact>
</mgrwt>
</event>
<event>
 4    1  0.1759998E-004  0.2581743E+03  0.7818608E-02  0.1108245E+00
          4   -1    0    0  501    0  0.00000000000E+00  0.00000000000E+00  0.17275980205E+03  0.17275980205E+03  0.00000000000E+00 0. -1.
         -4   -1    0    0    0  501 -0.00000000000E+00 -0.00000000000E+00 -0.96454689048E+02  0.96454689048E+02  0.00000000000E+00 0. -1.
         25    1    1    2    0    0  0.11817622653E+02 -0.79928447479E+01 -0.91749782970E+01  0.12119291233E+03  0.12000000000E+03 0.  0.
         25    1    1    2    0    0 -0.11817622653E+02  0.79928447479E+01  0.85480091299E+02  0.14802157877E+03  0.12000000000E+03 0.  0.
<mgrwt>
<rscale>  0 0.25817431E+03</rscale>
<asrwt>0</asrwt>
<pdfrwt beam="1">  1        4 0.26578431E-01 0.25817431E+03</pdfrwt>
<pdfrwt beam="2">  1       -4 0.14839183E-01 0.25817431E+03</pdfrwt>
<totfact> 0.95443216E+02</totfact>
</mgrwt>
</event>
<event>
 4    1  0.1759998E-004  0.3017812E+03  0.7818608E-02  0.1084354E+00
          2   -1    0    0  501    0  0.00000000000E+00  0.00000000000E+00  0.17721029581E+04  0.17721029581E+04  0.00000000000E+00 0.  1.
         -2   -1    0    0    0  501 -0.00000000000E+00 -0.00000000000E+00 -0.12847995413E+02  0.12847995413E+02  0.00000000000E+00 0.  1.
         25    1    1    2    0    0  0.55331970427E+01  0.67878115151E+02  0.51839761612E+03  0.53644584366E+03  0.12000000000E+03 0.  0.
         25    1    1    2    0    0 -0.55331970427E+01 -0.67878115151E+02  0.12408573466E+04  0.12485051098E+04  0.12000000000E+03 0.  0.
<mgrwt>
<rscale>  0 0.30178118E+03</rscale>
<asrwt>0</asrwt>
<pdfrwt beam="1">  1        2 0.27263103E+00 0.30178118E+03</pdfrwt>
<pdfrwt beam="2">  1       -2 0.19766161E-02 0.30178118E+03</pdfrwt>
<totfact> 0.77092716E+03</totfact>
</mgrwt>
</event>
<event>
 4    1  0.1759998E-004  0.3128057E+03  0.7818608E-02  0.1079009E+00
          2   -1    0    0  501    0  0.00000000000E+00  0.00000000000E+00  0.82806388620E+03  0.82806388620E+03  0.00000000000E+00 0. -1.
         -2   -1    0    0    0  501 -0.00000000000E+00 -0.00000000000E+00 -0.29541023859E+02  0.29541023859E+02  0.00000000000E+00 0. -1.
         25    1    1    2    0    0  0.28015131522E+02  0.56215267729E+02  0.18483588568E+03  0.22914909678E+03  0.12000000000E+03 0.  0.
         25    1    1    2    0    0 -0.28015131522E+02 -0.56215267729E+02  0.61368697666E+03  0.62845581328E+03  0.12000000000E+03 0.  0.
<mgrwt>
<rscale>  0 0.31280572E+03</rscale>
<asrwt>0</asrwt>
<pdfrwt beam="1">  1        2 0.12739443E+00 0.31280572E+03</pdfrwt>
<pdfrwt beam="2">  1       -2 0.45447735E-02 0.31280572E+03</pdfrwt>
<totfact> 0.76969662E+03</totfact>
</mgrwt>
</event>
<event>
 4    1  0.1759998E-004  0.2742455E+03  0.7818608E-02  0.1098874E+00
         -2   -1    0    0    0  501 -0.00000000000E+00  0.00000000000E+00  0.22893542473E+02  0.22893542473E+02  0.00000000000E+00 0.  1.
          2   -1    0    0  501    0  0.00000000000E+00 -0.00000000000E+00 -0.82130779279E+03  0.82130779279E+03  0.00000000000E+00 0.  1.
         25    1    1    2    0    0 -0.43751871188E+02 -0.15693908620E+02 -0.54496632593E+03  0.55995430295E+03  0.12000000000E+03 0.  0.
         25    1    1    2    0    0  0.43751871188E+02  0.15693908620E+02 -0.25344792439E+03  0.28424703231E+03  0.12000000000E+03 0.  0.
<mgrwt>
<rscale>  0 0.27424547E+03</rscale>
<asrwt>0</asrwt>
<pdfrwt beam="1">  1        2 0.12635501E+00 0.27424547E+03</pdfrwt>
<pdfrwt beam="2">  1       -2 0.35220843E-02 0.27424547E+03</pdfrwt>
<totfact> 0.11378834E+04</totfact>
</mgrwt>
</event>
<event>
 4    1  0.1759998E-004  0.2747314E+03  0.7818608E-02  0.1098602E+00
         -1   -1    0    0    0  501 -0.00000000000E+00  0.00000000000E+00  0.22112208228E+02  0.22112208228E+02  0.00000000000E+00 0. -1.
          1   -1    0    0  501    0  0.00000000000E+00 -0.00000000000E+00 -0.85334488936E+03  0.85334488936E+03  0.00000000000E+00 0. -1.
         25    1    1    2    0    0  0.32512297147E+02 -0.51538616424E+02 -0.50323670636E+03  0.52092270163E+03  0.12000000000E+03 0.  0.
         25    1    1    2    0    0 -0.32512297147E+02  0.51538616424E+02 -0.32799597478E+03  0.35453439596E+03  0.12000000000E+03 0.  0.
<mgrwt>
<rscale>  0 0.27473143E+03</rscale>
<asrwt>0</asrwt>
<pdfrwt beam="1">  1        1 0.13128383E+00 0.27473143E+03</pdfrwt>
<pdfrwt beam="2">  1       -1 0.34018782E-02 0.27473143E+03</pdfrwt>
<totfact> 0.65056021E+03</totfact>
</mgrwt>
</event>
<event>
 4    1  0.1759998E-004  0.2502110E+03  0.7818608E-02  0.1113172E+00
         -1   -1    0    0    0  501 -0.00000000000E+00  0.00000000000E+00  0.53846373603E+02  0.53846373603E+02  0.00000000000E+00 0. -1.
          1   -1    0    0  501    0  0.00000000000E+00 -0.00000000000E+00 -0.29066751813E+03  0.29066751813E+03  0.00000000000E+00 0. -1.
         25    1    1    2    0    0  0.25337067057E+02  0.12109294551E+02 -0.14803105609E+03  0.19261826380E+03  0.12000000000E+03 0.  0.
         25    1    1    2    0    0 -0.25337067057E+02 -0.12109294551E+02 -0.88790088436E+02  0.15189562794E+03  0.12000000000E+03 0.  0.
<mgrwt>
<rscale>  0 0.25021105E+03</rscale>
<asrwt>0</asrwt>
<pdfrwt beam="1">  1        1 0.44718079E-01 0.25021105E+03</pdfrwt>
<pdfrwt beam="2">  1       -1 0.82840576E-02 0.25021105E+03</pdfrwt>
<totfact> 0.73490164E+03</totfact>
</mgrwt>
</event>
<event>
 4    1  0.1759998E-004  0.3140330E+03  0.7818608E-02  0.1078429E+00
          2   -1    0    0  501    0  0.00000000000E+00  0.00000000000E+00  0.13511052621E+04  0.13511052621E+04  0.00000000000E+00 0. -1.
         -2   -1    0    0    0  501 -0.00000000000E+00 -0.00000000000E+00 -0.18247421126E+02  0.18247421126E+02  0.00000000000E+00 0. -1.
         25    1    1    2    0    0  0.20502433391E+02 -0.67404051683E+02  0.34926074605E+03  0.37596106805E+03  0.12000000000E+03 0.  0.
         25    1    1    2    0    0 -0.20502433391E+02  0.67404051683E+02  0.98359709494E+03  0.99339161519E+03  0.12000000000E+03 0.  0.
<mgrwt>
<rscale>  0 0.31403303E+03</rscale>
<asrwt>0</asrwt>
<pdfrwt beam="1">  1        2 0.20786227E+00 0.31403303E+03</pdfrwt>
<pdfrwt beam="2">  1       -2 0.28072966E-02 0.31403303E+03</pdfrwt>
<totfact> 0.77071554E+03</totfact>
</mgrwt>
</event>
<event>
 4    1  0.1759998E-004  0.3581398E+03  0.7818608E-02  0.1059323E+00
         -1   -1    0    0    0  501 -0.00000000000E+00  0.00000000000E+00  0.14200829417E+02  0.14200829417E+02  0.00000000000E+00 0. -1.
          1   -1    0    0  501    0  0.00000000000E+00 -0.00000000000E+00 -0.22580394551E+04  0.22580394551E+04  0.00000000000E+00 0. -1.
         25    1    1    2    0    0 -0.11927297985E+03 -0.53797212085E+02 -0.97368865128E+03  0.98974227625E+03  0.12000000000E+03 0.  0.
         25    1    1    2    0    0  0.11927297985E+03  0.53797212085E+02 -0.12701499744E+04  0.12824980083E+04  0.12000000000E+03 0.  0.
<mgrwt>
<rscale>  0 0.35813982E+03</rscale>
<asrwt>0</asrwt>
<pdfrwt beam="1">  1        1 0.34739070E+00 0.35813982E+03</pdfrwt>
<pdfrwt beam="2">  1       -1 0.21847429E-02 0.35813982E+03</pdfrwt>
<totfact> 0.13699698E+03</totfact>
</mgrwt>
</event>
<event>
 4    1  0.1759998E-004  0.2607698E+03  0.7818608E-02  0.1106682E+00
          3   -1    0    0  501    0  0.00000000000E+00  0.00000000000E+00  0.21291306244E+03  0.21291306244E+03  0.00000000000E+00 0.  1.
         -3   -1    0    0    0  501 -0.00000000000E+00 -0.00000000000E+00 -0.79845824669E+02  0.79845824669E+02  0.00000000000E+00 0.  1.
         25    1    1    2    0    0 -0.48648294347E+02  0.72969750006E+01  0.81609085646E+02  0.15323167181E+03  0.12000000000E+03 0.  0.
         25    1    1    2    0    0  0.48648294347E+02 -0.72969750006E+01  0.51458152121E+02  0.13952721529E+03  0.12000000000E+03 0.  0.
<mgrwt>
<rscale>  0 0.26076978E+03</rscale>
<asrwt>0</asrwt>
<pdfrwt beam="1">  1        3 0.32755856E-01 0.26076978E+03</pdfrwt>
<pdfrwt beam="2">  1       -3 0.12283973E-01 0.26076978E+03</pdfrwt>
<totfact> 0.12025407E+03</totfact>
</mgrwt>
</event>
<event>
 4    1  0.1759998E-004  0.3371595E+03  0.7818608E-02  0.1068012E+00
          1   -1    0    0  501    0  0.00000000000E+00  0.00000000000E+00  0.76888674012E+03  0.76888674012E+03  0.00000000000E+00 0. -1.
         -1   -1    0    0    0  501 -0.00000000000E+00 -0.00000000000E+00 -0.36961397258E+02  0.36961397258E+02  0.00000000000E+00 0. -1.
         25    1    1    2    0    0 -0.96876418555E+02  0.15936201547E+02  0.20777920086E+03  0.25925122816E+03  0.12000000000E+03 0.  0.
         25    1    1    2    0    0  0.96876418555E+02 -0.15936201547E+02  0.52414614200E+03  0.54659690922E+03  0.12000000000E+03 0.  0.
<mgrwt>
<rscale>  0 0.33715948E+03</rscale>
<asrwt>0</asrwt>
<pdfrwt beam="1">  1        1 0.11829026E+00 0.33715948E+03</pdfrwt>
<pdfrwt beam="2">  1       -1 0.56863694E-02 0.33715948E+03</pdfrwt>
<totfact> 0.35592074E+03</totfact>
</mgrwt>
</event>
<event>
 4    1  0.1759998E-004  0.3948873E+03  0.7818608E-02  0.1045565E+00
          2   -1    0    0  501    0  0.00000000000E+00  0.00000000000E+00  0.10659008221E+04  0.10659008221E+04  0.00000000000E+00 0.  1.
         -2   -1    0    0    0  501 -0.00000000000E+00 -0.00000000000E+00 -0.36573754876E+02  0.36573754876E+02  0.00000000000E+00 0.  1.
         25    1    1    2    0    0 -0.13094782350E+03 -0.69680027779E+01  0.75463637085E+03  0.77528829331E+03  0.12000000000E+03 0.  0.
         25    1    1    2    0    0  0.13094782350E+03  0.69680027779E+01  0.27469069639E+03  0.32718628368E+03  0.12000000000E+03 0.  0.
<mgrwt>
<rscale>  0 0.39488730E+03</rscale>
<asrwt>0</asrwt>
<pdfrwt beam="1">  1        2 0.16398472E+00 0.39488730E+03</pdfrwt>
<pdfrwt beam="2">  1       -2 0.56267323E-02 0.39488730E+03</pdfrwt>
<totfact> 0.39273130E+03</totfact>
</mgrwt>
</event>
<event>
 4    1  0.1759998E-004  0.3709444E+03  0.7818608E-02  0.1054332E+00
          2   -1    0    0  501    0  0.00000000000E+00  0.00000000000E+00  0.15313064197E+04  0.15313064197E+04  0.00000000000E+00 0. -1.
         -2   -1    0    0    0  501 -0.00000000000E+00 -0.00000000000E+00 -0.22464434134E+02  0.22464434134E+02  0.00000000000E+00 0. -1.
         25    1    1    2    0    0  0.12883260405E+03  0.50969065142E+02  0.87320906510E+03  0.89223862102E+03  0.12000000000E+03 0.  0.
         25    1    1    2    0    0 -0.12883260405E+03 -0.50969065142E+02  0.63563292043E+03  0.66153223278E+03  0.12000000000E+03 0.  0.
<mgrwt>
<rscale>  0 0.37094437E+03</rscale>
<asrwt>0</asrwt>
<pdfrwt beam="1">  1        2 0.23558552E+00 0.37094437E+03</pdfrwt>
<pdfrwt beam="2">  1       -2 0.34560680E-02 0.37094437E+03</pdfrwt>
<totfact> 0.45061897E+03</totfact>
</mgrwt>
</event>
<event>
 4    1  0.1759998E-004  0.2802412E+03  0.7818608E-02  0.1095557E+00
         -2   -1    0    0    0  501 -0.00000000000E+00  0.00000000000E+00  0.29479876601E+02  0.29479876601E+02  0.00000000000E+00 0.  1.
          2   -1    0    0  501    0  0.00000000000E+00 -0.00000000000E+00 -0.66600625692E+03  0.66600625692E+03  0.00000000000E+00 0.  1.
         25    1    1    2    0    0 -0.63479345638E+02  0.29544765771E+02 -0.27309401616E+03  0.30640310405E+03  0.12000000000E+03 0.  0.
         25    1    1    2    0    0  0.63479345638E+02 -0.29544765771E+02 -0.36343236416E+03  0.38908302947E+03  0.12000000000E+03 0.  0.
<mgrwt>
<rscale>  0 0.28024120E+03</rscale>
<asrwt>0</asrwt>
<pdfrwt beam="1">  1        2 0.10246251E+00 0.28024120E+03</pdfrwt>
<pdfrwt beam="2">  1       -2 0.45353652E-02 0.28024120E+03</pdfrwt>
<totfact> 0.10090151E+04</totfact>
</mgrwt>
</event>
<event>
 4    1  0.1759998E-004  0.2723454E+03  0.7818608E-02  0.1099945E+00
         -2   -1    0    0    0  501 -0.00000000000E+00  0.00000000000E+00  0.23658953689E+02  0.23658953689E+02  0.00000000000E+00 0. -1.
          2   -1    0    0  501    0  0.00000000000E+00 -0.00000000000E+00 -0.78376268903E+03  0.78376268903E+03  0.00000000000E+00 0. -1.
         25    1    1    2    0    0  0.29029583373E+02 -0.55170554611E+02 -0.33257056517E+03  0.35901209955E+03  0.12000000000E+03 0.  0.
         25    1    1    2    0    0 -0.29029583373E+02  0.55170554611E+02 -0.42753317018E+03  0.44840954317E+03  0.12000000000E+03 0.  0.
<mgrwt>
<rscale>  0 0.27234541E+03</rscale>
<asrwt>0</asrwt>
<pdfrwt beam="1">  1        2 0.12057886E+00 0.27234541E+03</pdfrwt>
<pdfrwt beam="2">  1       -2 0.36398396E-02 0.27234541E+03</pdfrwt>
<totfact> 0.11494679E+04</totfact>
</mgrwt>
</event>
<event>
 4    1  0.1759998E-004  0.2495773E+03  0.7818608E-02  0.1113572E+00
          2   -1    0    0  501    0  0.00000000000E+00  0.00000000000E+00  0.20335991682E+04  0.20335991682E+04  0.00000000000E+00 0. -1.
         -2   -1    0    0    0  501 -0.00000000000E+00 -0.00000000000E+00 -0.76574585353E+01  0.76574585353E+01  0.00000000000E+00 0. -1.
         25    1    1    2    0    0  0.31958691332E+02  0.12181489257E+02  0.10001567078E+04  0.10079103069E+04  0.12000000000E+03 0.  0.
         25    1    1    2    0    0 -0.31958691332E+02 -0.12181489257E+02  0.10257850019E+04  0.10333463199E+04  0.12000000000E+03 0.  0.
<mgrwt>
<rscale>  0 0.24957725E+03</rscale>
<asrwt>0</asrwt>
<pdfrwt beam="1">  1        2 0.31286098E+00 0.24957725E+03</pdfrwt>
<pdfrwt beam="2">  1       -2 0.11780722E-02 0.24957725E+03</pdfrwt>
<totfact> 0.11954729E+04</totfact>
</mgrwt>
</event>
<event>
 4    1  0.1759998E-004  0.2482358E+03  0.7818608E-02  0.1114425E+00
          1   -1    0    0  501    0  0.00000000000E+00  0.00000000000E+00  0.35824386836E+02  0.35824386836E+02  0.00000000000E+00 0. -1.
         -1   -1    0    0    0  501 -0.00000000000E+00 -0.00000000000E+00 -0.43002137329E+03  0.43002137329E+03  0.00000000000E+00 0. -1.
         25    1    1    2    0    0 -0.11971083210E+02 -0.29357611687E+02 -0.19761525541E+03  0.23336016234E+03  0.12000000000E+03 0.  0.
         25    1    1    2    0    0  0.11971083210E+02  0.29357611687E+02 -0.19658173105E+03  0.23248559779E+03  0.12000000000E+03 0.  0.
<mgrwt>
<rscale>  0 0.24823579E+03</rscale>
<asrwt>0</asrwt>
<pdfrwt beam="1">  1        1 0.55114440E-02 0.24823579E+03</pdfrwt>
<pdfrwt beam="2">  1       -1 0.66157136E-01 0.24823579E+03</pdfrwt>
<totfact> 0.34625761E+03</totfact>
</mgrwt>
</event>
<event>
 4    1  0.1759998E-004  0.2845286E+03  0.7818608E-02  0.1093241E+00
         -1   -1    0    0    0  501 -0.00000000000E+00  0.00000000000E+00  0.17397318254E+02  0.17397318254E+02  0.00000000000E+00 0.  1.
          1   -1    0    0  501    0  0.00000000000E+00 -0.00000000000E+00 -0.11633475773E+04  0.11633475773E+04  0.00000000000E+00 0.  1.
         25    1    1    2    0    0 -0.20252420258E+02  0.24547532229E+02 -0.86127285520E+03  0.87017450719E+03  0.12000000000E+03 0.  0.
         25    1    1    2    0    0  0.20252420258E+02 -0.24547532229E+02 -0.28467740383E+03  0.31057038834E+03  0.12000000000E+03 0.  0.
<mgrwt>
<rscale>  0 0.28452858E+03</rscale>
<asrwt>0</asrwt>
<pdfrwt beam="1">  1        1 0.17897659E+00 0.28452858E+03</pdfrwt>
<pdfrwt beam="2">  1       -1 0.26765098E-02 0.28452858E+03</pdfrwt>
<totfact> 0.54303945E+03</totfact>
</mgrwt>
</event>
<event>
 4    1  0.1759998E-004  0.2898660E+03  0.7818608E-02  0.1090419E+00
          1   -1    0    0  501    0  0.00000000000E+00  0.00000000000E+00  0.81984069720E+03  0.81984069720E+03  0.00000000000E+00 0. -1.
         -1   -1    0    0    0  501 -0.00000000000E+00 -0.00000000000E+00 -0.25621529088E+02  0.25621529088E+02  0.00000000000E+00 0. -1.
         25    1    1    2    0    0  0.28535813645E+02  0.54747096606E+02  0.55128420067E+03  0.56756128053E+03  0.12000000000E+03 0.  0.
         25    1    1    2    0    0 -0.28535813645E+02 -0.54747096606E+02  0.24293496744E+03  0.27790094575E+03  0.12000000000E+03 0.  0.
<mgrwt>
<rscale>  0 0.28986598E+03</rscale>
<asrwt>0</asrwt>
<pdfrwt beam="1">  1        1 0.12612932E+00 0.28986598E+03</pdfrwt>
<pdfrwt beam="2">  1       -1 0.39417743E-02 0.28986598E+03</pdfrwt>
<totfact> 0.55743122E+03</totfact>
</mgrwt>
</event>
<event>
 4    1  0.1759998E-004  0.2560544E+03  0.7818608E-02  0.1109537E+00
         -2   -1    0    0    0  501 -0.00000000000E+00  0.00000000000E+00  0.14536686612E+02  0.14536686612E+02  0.00000000000E+00 0. -1.
          2   -1    0    0  501    0  0.00000000000E+00 -0.00000000000E+00 -0.11275583904E+04  0.11275583904E+04  0.00000000000E+00 0. -1.
         25    1    1    2    0    0  0.10176748000E+02 -0.41697401847E+02 -0.61090594654E+03  0.62405794206E+03  0.12000000000E+03 0.  0.
         25    1    1    2    0    0 -0.10176748000E+02  0.41697401847E+02 -0.50211575727E+03  0.51803713498E+03  0.12000000000E+03 0.  0.
<mgrwt>
<rscale>  0 0.25605439E+03</rscale>
<asrwt>0</asrwt>
<pdfrwt beam="1">  1        2 0.17347053E+00 0.25605439E+03</pdfrwt>
<pdfrwt beam="2">  1       -2 0.22364132E-02 0.25605439E+03</pdfrwt>
<totfact> 0.14355962E+04</totfact>
</mgrwt>
</event>
<event>
 4    1  0.1759998E-004  0.5094155E+03  0.7818608E-02  0.1011350E+00
          4   -1    0    0  501    0  0.00000000000E+00  0.00000000000E+00  0.17020044820E+03  0.17020044820E+03  0.00000000000E+00 0.  1.
         -4   -1    0    0    0  501 -0.00000000000E+00 -0.00000000000E+00 -0.38117423251E+03  0.38117423251E+03  0.00000000000E+00 0.  1.
         25    1    1    2    0    0 -0.23576229901E+02 -0.18249157135E+03  0.34037836391E+02  0.22230066698E+03  0.12000000000E+03 0.  0.
         25    1    1    2    0    0  0.23576229901E+02  0.18249157135E+03 -0.24501162070E+03  0.32907401373E+03  0.12000000000E+03 0.  0.
<mgrwt>
<rscale>  0 0.50941545E+03</rscale>
<asrwt>0</asrwt>
<pdfrwt beam="1">  1        4 0.26184685E-01 0.50941545E+03</pdfrwt>
<pdfrwt beam="2">  1       -4 0.58642189E-01 0.50941545E+03</pdfrwt>
<totfact> 0.74962108E+01</totfact>
</mgrwt>
</event>
<event>
 4    1  0.1759998E-004  0.3588248E+03  0.7818608E-02  0.1059050E+00
          2   -1    0    0  501    0  0.00000000000E+00  0.00000000000E+00  0.34943463675E+03  0.34943463675E+03  0.00000000000E+00 0. -1.
         -2   -1    0    0    0  501 -0.00000000000E+00 -0.00000000000E+00 -0.92116804458E+02  0.92116804458E+02  0.00000000000E+00 0. -1.
         25    1    1    2    0    0 -0.11774155291E+03  0.59285737676E+02  0.15360388099E+03  0.23531260959E+03  0.12000000000E+03 0.  0.
         25    1    1    2    0    0  0.11774155291E+03 -0.59285737676E+02  0.10371395129E+03  0.20623883162E+03  0.12000000000E+03 0.  0.
<mgrwt>
<rscale>  0 0.35882476E+03</rscale>
<asrwt>0</asrwt>
<pdfrwt beam="1">  1        2 0.53759174E-01 0.35882476E+03</pdfrwt>
<pdfrwt beam="2">  1       -2 0.14171816E-01 0.35882476E+03</pdfrwt>
<totfact> 0.34974048E+03</totfact>
</mgrwt>
</event>
<event>
 4    1  0.1759998E-004  0.3317014E+03  0.7818608E-02  0.1070387E+00
          1   -1    0    0  501    0  0.00000000000E+00  0.00000000000E+00  0.27937311806E+04  0.27937311806E+04  0.00000000000E+00 0.  1.
         -1   -1    0    0    0  501 -0.00000000000E+00 -0.00000000000E+00 -0.98457750810E+01  0.98457750810E+01  0.00000000000E+00 0.  1.
         25    1    1    2    0    0  0.59834452269E+02  0.75761875746E+02  0.87185100334E+03  0.88534975886E+03  0.12000000000E+03 0.  0.
         25    1    1    2    0    0 -0.59834452269E+02 -0.75761875746E+02  0.19120344022E+04  0.19182271969E+04  0.12000000000E+03 0.  0.
<mgrwt>
<rscale>  0 0.33170136E+03</rscale>
<asrwt>0</asrwt>
<pdfrwt beam="1">  1        1 0.42980416E+00 0.33170136E+03</pdfrwt>
<pdfrwt beam="2">  1       -1 0.15147369E-02 0.33170136E+03</pdfrwt>
<totfact> 0.10275569E+03</totfact>
</mgrwt>
</event>
<event>
 4    1  0.1759998E-004  0.2929198E+03  0.7818608E-02  0.1088834E+00
         -1   -1    0    0    0  501 -0.00000000000E+00  0.00000000000E+00  0.73254002225E+02  0.73254002225E+02  0.00000000000E+00 0.  1.
          1   -1    0    0  501    0  0.00000000000E+00 -0.00000000000E+00 -0.29282371823E+03  0.29282371823E+03  0.00000000000E+00 0.  1.
         25    1    1    2    0    0 -0.22389437924E+02 -0.99683011136E+01 -0.94158836801E+01  0.12283856407E+03  0.12000000000E+03 0.  0.
         25    1    1    2    0    0  0.22389437924E+02  0.99683011136E+01 -0.21015383233E+03  0.24323915639E+03  0.12000000000E+03 0.  0.
<mgrwt>
<rscale>  0 0.29291985E+03</rscale>
<asrwt>0</asrwt>
<pdfrwt beam="1">  1        1 0.45049803E-01 0.29291985E+03</pdfrwt>
<pdfrwt beam="2">  1       -1 0.11269846E-01 0.29291985E+03</pdfrwt>
<totfact> 0.45532183E+03</totfact>
</mgrwt>
</event>
<event>
 4    1  0.1759998E-004  0.2925433E+03  0.7818608E-02  0.1089029E+00
          2   -1    0    0  501    0  0.00000000000E+00  0.00000000000E+00  0.30079905893E+04  0.30079905893E+04  0.00000000000E+00 0.  1.
         -2   -1    0    0    0  501 -0.00000000000E+00 -0.00000000000E+00 -0.71128531034E+01  0.71128531034E+01  0.00000000000E+00 0.  1.
         25    1    1    2    0    0  0.18088327877E+01 -0.34866550594E+02  0.71711301585E+03  0.72792171675E+03  0.12000000000E+03 0.  0.
         25    1    1    2    0    0 -0.18088327877E+01  0.34866550594E+02  0.22837647203E+04  0.22871817256E+04  0.12000000000E+03 0.  0.
<mgrwt>
<rscale>  0 0.29254330E+03</rscale>
<asrwt>0</asrwt>
<pdfrwt beam="1">  1        2 0.46276677E+00 0.29254330E+03</pdfrwt>
<pdfrwt beam="2">  1       -2 0.10942875E-02 0.29254330E+03</pdfrwt>
<totfact> 0.38490548E+03</totfact>
</mgrwt>
</event>
<event>
 4    1  0.1759998E-004  0.2579738E+03  0.7818608E-02  0.1108367E+00
          2   -1    0    0  501    0  0.00000000000E+00  0.00000000000E+00  0.17959785923E+04  0.17959785923E+04  0.00000000000E+00 0.  1.
         -2   -1    0    0    0  501 -0.00000000000E+00 -0.00000000000E+00 -0.92638209531E+01  0.92638209531E+01  0.00000000000E+00 0.  1.
         25    1    1    2    0    0 -0.27469685554E+02 -0.38391241349E+02  0.87218628376E+03  0.88166738888E+03  0.12000000000E+03 0.  0.
         25    1    1    2    0    0  0.27469685554E+02  0.38391241349E+02  0.91452848761E+03  0.92357502439E+03  0.12000000000E+03 0.  0.
<mgrwt>
<rscale>  0 0.25797383E+03</rscale>
<asrwt>0</asrwt>
<pdfrwt beam="1">  1        2 0.27630412E+00 0.25797383E+03</pdfrwt>
<pdfrwt beam="2">  1       -2 0.14252046E-02 0.25797383E+03</pdfrwt>
<totfact> 0.12074248E+04</totfact>
</mgrwt>
</event>
<event>
 4    1  0.1759998E-004  0.2572521E+03  0.7818608E-02  0.1108806E+00
          2   -1    0    0  501    0  0.00000000000E+00  0.00000000000E+00  0.49210837306E+02  0.49210837306E+02  0.00000000000E+00 0. -1.
         -2   -1    0    0    0  501 -0.00000000000E+00 -0.00000000000E+00 -0.33619949203E+03  0.33619949203E+03  0.00000000000E+00 0. -1.
         25    1    1    2    0    0 -0.36836395355E+02 -0.27954789386E+02 -0.13974341426E+03  0.18991211679E+03  0.12000000000E+03 0.  0.
         25    1    1    2    0    0  0.36836395355E+02  0.27954789386E+02 -0.14724524046E+03  0.19549821255E+03  0.12000000000E+03 0.  0.
<mgrwt>
<rscale>  0 0.25725208E+03</rscale>
<asrwt>0</asrwt>
<pdfrwt beam="1">  1        2 0.75708983E-02 0.25725208E+03</pdfrwt>
<pdfrwt beam="2">  1       -2 0.51722997E-01 0.25725208E+03</pdfrwt>
<totfact> 0.32512867E+03</totfact>
</mgrwt>
</event>
<event>
 4    1  0.1759998E-004  0.2779312E+03  0.7818608E-02  0.1096824E+00
         -1   -1    0    0    0  501 -0.00000000000E+00  0.00000000000E+00  0.13262636396E+02  0.13262636396E+02  0.00000000000E+00 0. -1.
          1   -1    0    0  501    0  0.00000000000E+00 -0.00000000000E+00 -0.14560780305E+04  0.14560780305E+04  0.00000000000E+00 0. -1.
         25    1    1    2    0    0  0.15614713786E+02  0.58858569385E+02 -0.90479494724E+03  0.91474698525E+03  0.12000000000E+03 0.  0.
         25    1    1    2    0    0 -0.15614713786E+02 -0.58858569385E+02 -0.53802044688E+03  0.55459368166E+03  0.12000000000E+03 0.  0.
<mgrwt>
<rscale>  0 0.27793117E+03</rscale>
<asrwt>0</asrwt>
<pdfrwt beam="1">  1        1 0.22401196E+00 0.27793117E+03</pdfrwt>
<pdfrwt beam="2">  1       -1 0.20404060E-02 0.27793117E+03</pdfrwt>
<totfact> 0.50977784E+03</totfact>
</mgrwt>
</event>
<event>
 4    1  0.1759998E-004  0.3166916E+03  0.7818608E-02  0.1077182E+00
         -1   -1    0    0    0  501 -0.00000000000E+00  0.00000000000E+00  0.42018495520E+02  0.42018495520E+02  0.00000000000E+00 0.  1.
          1   -1    0    0  501    0  0.00000000000E+00 -0.00000000000E+00 -0.59672274872E+03  0.59672274872E+03  0.00000000000E+00 0.  1.
         25    1    1    2    0    0 -0.35358513203E+02  0.85578412248E+02 -0.18493623195E+03  0.23911356922E+03  0.12000000000E+03 0.  0.
         25    1    1    2    0    0  0.35358513203E+02 -0.85578412248E+02 -0.36976802125E+03  0.39962767501E+03  0.12000000000E+03 0.  0.
<mgrwt>
<rscale>  0 0.31669160E+03</rscale>
<asrwt>0</asrwt>
<pdfrwt beam="1">  1        1 0.91803495E-01 0.31669160E+03</pdfrwt>
<pdfrwt beam="2">  1       -1 0.64643843E-02 0.31669160E+03</pdfrwt>
<totfact> 0.42326798E+03</totfact>
</mgrwt>
</event>
<event>
 4    1  0.1759998E-004  0.2577246E+03  0.7818608E-02  0.1108518E+00
          1   -1    0    0  501    0  0.00000000000E+00  0.00000000000E+00  0.88638066254E+03  0.88638066254E+03  0.00000000000E+00 0. -1.
         -1   -1    0    0    0  501 -0.00000000000E+00 -0.00000000000E+00 -0.18734037252E+02  0.18734037252E+02  0.00000000000E+00 0. -1.
         25    1    1    2    0    0 -0.11767599141E+02 -0.45270896705E+02  0.44853910837E+03  0.46666397141E+03  0.12000000000E+03 0.  0.
         25    1    1    2    0    0  0.11767599141E+02  0.45270896705E+02  0.41910751692E+03  0.43845072838E+03  0.12000000000E+03 0.  0.
<mgrwt>
<rscale>  0 0.25772457E+03</rscale>
<asrwt>0</asrwt>
<pdfrwt beam="1">  1        1 0.13636622E+00 0.25772457E+03</pdfrwt>
<pdfrwt beam="2">  1       -1 0.28821603E-02 0.25772457E+03</pdfrwt>
<totfact> 0.78065264E+03</totfact>
</mgrwt>
</event>
<event>
 4    1  0.1759998E-004  0.2617150E+03  0.7818608E-02  0.1106117E+00
         -1   -1    0    0    0  501 -0.00000000000E+00  0.00000000000E+00  0.14710466484E+02  0.14710466484E+02  0.00000000000E+00 0.  1.
          1   -1    0    0  501    0  0.00000000000E+00 -0.00000000000E+00 -0.11640478015E+04  0.11640478015E+04  0.00000000000E+00 0.  1.
         25    1    1    2    0    0  0.27441374057E+02  0.87343835307E+01 -0.37863608245E+03  0.39823937701E+03  0.12000000000E+03 0.  0.
         25    1    1    2    0    0 -0.27441374057E+02 -0.87343835307E+01 -0.77070125254E+03  0.78051889095E+03  0.12000000000E+03 0.  0.
<mgrwt>
<rscale>  0 0.26171501E+03</rscale>
<asrwt>0</asrwt>
<pdfrwt beam="1">  1        1 0.17908430E+00 0.26171501E+03</pdfrwt>
<pdfrwt beam="2">  1       -1 0.22631484E-02 0.26171501E+03</pdfrwt>
<totfact> 0.69291327E+03</totfact>
</mgrwt>
</event>
<event>
 4    1  0.1759998E-004  0.3147852E+03  0.7818608E-02  0.1078075E+00
          2   -1    0    0  501    0  0.00000000000E+00  0.00000000000E+00  0.20552688500E+04  0.20552688500E+04  0.00000000000E+00 0.  1.
         -2   -1    0    0    0  501 -0.00000000000E+00 -0.00000000000E+00 -0.12053135725E+02  0.12053135725E+02  0.00000000000E+00 0.  1.
         25    1    1    2    0    0  0.11017125076E+02 -0.94977053068E+02  0.12519746632E+04  0.12613415774E+04  0.12000000000E+03 0.  0.
         25    1    1    2    0    0 -0.11017125076E+02  0.94977053068E+02  0.79124105113E+03  0.80598040835E+03  0.12000000000E+03 0.  0.
<mgrwt>
<rscale>  0 0.31478522E+03</rscale>
<asrwt>0</asrwt>
<pdfrwt beam="1">  1        2 0.31619493E+00 0.31478522E+03</pdfrwt>
<pdfrwt beam="2">  1       -2 0.18543302E-02 0.31478522E+03</pdfrwt>
<totfact> 0.60051844E+03</totfact>
</mgrwt>
</event>
<event>
 4    1  0.1759998E-004  0.3574627E+03  0.7818608E-02  0.1059593E+00
         -1   -1    0    0    0  501 -0.00000000000E+00  0.00000000000E+00  0.13260102939E+02  0.13260102939E+02  0.00000000000E+00 0. -1.
          1   -1    0    0  501    0  0.00000000000E+00 -0.00000000000E+00 -0.24090983846E+04  0.24090983846E+04  0.00000000000E+00 0. -1.
         25    1    1    2    0    0  0.73395730928E+02  0.66874935209E+02 -0.17920053659E+04  0.17987613576E+04  0.12000000000E+03 0.  0.
         25    1    1    2    0    0 -0.73395730928E+02 -0.66874935209E+02 -0.60383291578E+03  0.62359712993E+03  0.12000000000E+03 0.  0.
<mgrwt>
<rscale>  0 0.35746268E+03</rscale>
<asrwt>0</asrwt>
<pdfrwt beam="1">  1        1 0.37063007E+00 0.35746268E+03</pdfrwt>
<pdfrwt beam="2">  1       -1 0.20400183E-02 0.35746268E+03</pdfrwt>
<totfact> 0.12038273E+03</totfact>
</mgrwt>
</event>
<event>
 4    1  0.1759998E-004  0.2984287E+03  0.7818608E-02  0.1086029E+00
         -2   -1    0    0    0  501 -0.00000000000E+00  0.00000000000E+00  0.52723683442E+02  0.52723683442E+02  0.00000000000E+00 0.  1.
          2   -1    0    0  501    0  0.00000000000E+00 -0.00000000000E+00 -0.42229448117E+03  0.42229448117E+03  0.00000000000E+00 0.  1.
         25    1    1    2    0    0  0.29264266455E+01 -0.10535360033E+01 -0.43710561122E+02  0.12775087892E+03  0.12000000000E+03 0.  0.
         25    1    1    2    0    0 -0.29264266455E+01  0.10535360033E+01 -0.32586023661E+03  0.34726728569E+03  0.12000000000E+03 0.  0.
<mgrwt>
<rscale>  0 0.29842869E+03</rscale>
<asrwt>0</asrwt>
<pdfrwt beam="1">  1        2 0.64968378E-01 0.29842869E+03</pdfrwt>
<pdfrwt beam="2">  1       -2 0.81113364E-02 0.29842869E+03</pdfrwt>
<totfact> 0.69408533E+03</totfact>
</mgrwt>
</event>
<event>
 4    1  0.1759998E-004  0.3315376E+03  0.7818608E-02  0.1070459E+00
          2   -1    0    0  501    0  0.00000000000E+00  0.00000000000E+00  0.15944476187E+03  0.15944476187E+03  0.00000000000E+00 0.  1.
         -2   -1    0    0    0  501 -0.00000000000E+00 -0.00000000000E+00 -0.17234365205E+03  0.17234365205E+03  0.00000000000E+00 0.  1.
         25    1    1    2    0    0 -0.10030109355E+03 -0.19845811140E+02 -0.57724201292E+02  0.16788760824E+03  0.12000000000E+03 0.  0.
         25    1    1    2    0    0  0.10030109355E+03  0.19845811140E+02  0.44825311112E+02  0.16390080568E+03  0.12000000000E+03 0.  0.
<mgrwt>
<rscale>  0 0.33153758E+03</rscale>
<asrwt>0</asrwt>
<pdfrwt beam="1">  1        2 0.24529963E-01 0.33153758E+03</pdfrwt>
<pdfrwt beam="2">  1       -2 0.26514408E-01 0.33153758E+03</pdfrwt>
<totfact> 0.28195054E+03</totfact>
</mgrwt>
</event>
<event>
 4    1  0.1759998E-004  0.3090835E+03  0.7818608E-02  0.1080786E+00
          2   -1    0    0  501    0  0.00000000000E+00  0.00000000000E+00  0.24405122696E+04  0.24405122696E+04  0.00000000000E+00 0.  1.
         -2   -1    0    0    0  501 -0.00000000000E+00 -0.00000000000E+00 -0.97861211189E+01  0.97861211189E+01  0.00000000000E+00 0.  1.
         25    1    1    2    0    0  0.48350410271E+02 -0.43965400661E+02  0.64301093892E+03  0.65736883574E+03  0.12000000000E+03 0.  0.
         25    1    1    2    0    0 -0.48350410271E+02  0.43965400661E+02  0.17877152096E+04  0.17929295550E+04  0.12000000000E+03 0.  0.
<mgrwt>
<rscale>  0 0.30908348E+03</rscale>
<asrwt>0</asrwt>
<pdfrwt beam="1">  1        2 0.37546294E+00 0.30908348E+03</pdfrwt>
<pdfrwt beam="2">  1       -2 0.15055590E-02 0.30908348E+03</pdfrwt>
<totfact> 0.50678197E+03</totfact>
</mgrwt>
</event>
<event>
 4    1  0.1759998E-004  0.3239330E+03  0.7818608E-02  0.1073853E+00
         -1   -1    0    0    0  501 -0.00000000000E+00  0.00000000000E+00  0.37314282997E+02  0.37314282997E+02  0.00000000000E+00 0.  1.
          1   -1    0    0  501    0  0.00000000000E+00 -0.00000000000E+00 -0.70303236241E+03  0.70303236241E+03  0.00000000000E+00 0.  1.
         25    1    1    2    0    0  0.66671366560E+02  0.68697312777E+02 -0.45092763421E+03  0.47634034387E+03  0.12000000000E+03 0.  0.
         25    1    1    2    0    0 -0.66671366560E+02 -0.68697312777E+02 -0.21479044521E+03  0.26400630154E+03  0.12000000000E+03 0.  0.
<mgrwt>
<rscale>  0 0.32393301E+03</rscale>
<asrwt>0</asrwt>
<pdfrwt beam="1">  1        1 0.10815883E+00 0.32393301E+03</pdfrwt>
<pdfrwt beam="2">  1       -1 0.57406589E-02 0.32393301E+03</pdfrwt>
<totfact> 0.40094202E+03</totfact>
</mgrwt>
</event>
<event>
 4    1  0.1759998E-004  0.2417528E+03  0.7818608E-02  0.1118631E+00
         -2   -1    0    0    0  501 -0.00000000000E+00  0.00000000000E+00  0.83217846166E+01  0.83217846166E+01  0.00000000000E+00 0.  1.
          2   -1    0    0  501    0  0.00000000000E+00 -0.00000000000E+00 -0.17557653381E+04  0.17557653381E+04  0.00000000000E+00 0.  1.
         25    1    1    2    0    0  0.66060893102E+01 -0.12102022555E+02 -0.90716244200E+03  0.91516872517E+03  0.12000000000E+03 0.  0.
         25    1    1    2    0    0 -0.66060893102E+01  0.12102022555E+02 -0.84028111147E+03  0.84891839753E+03  0.12000000000E+03 0.  0.
<mgrwt>
<rscale>  0 0.24175277E+03</rscale>
<asrwt>0</asrwt>
<pdfrwt beam="1">  1        2 0.27011773E+00 0.24175277E+03</pdfrwt>
<pdfrwt beam="2">  1       -2 0.12802746E-02 0.24175277E+03</pdfrwt>
<totfact> 0.14792969E+04</totfact>
</mgrwt>
</event>
<event>
 4    1  0.1759998E-004  0.2725932E+03  0.7818608E-02  0.1099805E+00
         -1   -1    0    0    0  501 -0.00000000000E+00  0.00000000000E+00  0.96807685878E+02  0.96807685878E+02  0.00000000000E+00 0. -1.
          1   -1    0    0  501    0  0.00000000000E+00 -0.00000000000E+00 -0.19189347832E+03  0.19189347832E+03  0.00000000000E+00 0. -1.
         25    1    1    2    0    0  0.49358089332E+02  0.34732997975E+02 -0.23065242881E+02  0.13628869197E+03  0.12000000000E+03 0.  0.
         25    1    1    2    0    0 -0.49358089332E+02 -0.34732997975E+02 -0.72020549566E+02  0.15241247223E+03  0.12000000000E+03 0.  0.
<mgrwt>
<rscale>  0 0.27259320E+03</rscale>
<asrwt>0</asrwt>
<pdfrwt beam="1">  1        1 0.29522074E-01 0.27259320E+03</pdfrwt>
<pdfrwt beam="2">  1       -1 0.14893490E-01 0.27259320E+03</pdfrwt>
<totfact> 0.49893200E+03</totfact>
</mgrwt>
</event>
<event>
 4    1  0.1759998E-004  0.2643285E+03  0.7818608E-02  0.1104570E+00
         -2   -1    0    0    0  501 -0.00000000000E+00  0.00000000000E+00  0.64540343279E+03  0.64540343279E+03  0.00000000000E+00 0. -1.
          2   -1    0    0  501    0  0.00000000000E+00 -0.00000000000E+00 -0.27064297165E+02  0.27064297165E+02  0.00000000000E+00 0. -1.
         25    1    1    2    0    0 -0.38287253675E+02 -0.31869822302E+02  0.37074376552E+03  0.39285180290E+03  0.12000000000E+03 0.  0.
         25    1    1    2    0    0  0.38287253675E+02  0.31869822302E+02  0.24759537011E+03  0.27961592706E+03  0.12000000000E+03 0.  0.
<mgrwt>
<rscale>  0 0.26432851E+03</rscale>
<asrwt>0</asrwt>
<pdfrwt beam="1">  1        2 0.41637385E-02 0.26432851E+03</pdfrwt>
<pdfrwt beam="2">  1       -2 0.99292824E-01 0.26432851E+03</pdfrwt>
<totfact> 0.17464206E+03</totfact>
</mgrwt>
</event>
<event>
 4    1  0.1759998E-004  0.2711940E+03  0.7818608E-02  0.1100598E+00
          2   -1    0    0  501    0  0.00000000000E+00  0.00000000000E+00  0.15089188663E+03  0.15089188663E+03  0.00000000000E+00 0.  1.
         -2   -1    0    0    0  501 -0.00000000000E+00 -0.00000000000E+00 -0.12185248687E+03  0.12185248687E+03  0.00000000000E+00 0.  1.
         25    1    1    2    0    0 -0.44538081600E+02  0.36510915759E+02  0.40549388045E+02  0.13914359688E+03  0.12000000000E+03 0.  0.
         25    1    1    2    0    0  0.44538081600E+02 -0.36510915759E+02 -0.11509988283E+02  0.13360077662E+03  0.12000000000E+03 0.  0.
<mgrwt>
<rscale>  0 0.27119404E+03</rscale>
<asrwt>0</asrwt>
<pdfrwt beam="1">  1        2 0.23214136E-01 0.27119404E+03</pdfrwt>
<pdfrwt beam="2">  1       -2 0.18746536E-01 0.27119404E+03</pdfrwt>
<totfact> 0.54537675E+03</totfact>
</mgrwt>
</event>
<event>
 4    1  0.1759998E-004  0.2583103E+03  0.7818608E-02  0.1108163E+00
         -2   -1    0    0    0  501 -0.00000000000E+00  0.00000000000E+00  0.10255748308E+04  0.10255748308E+04  0.00000000000E+00 0. -1.
          2   -1    0    0  501    0  0.00000000000E+00 -0.00000000000E+00 -0.16265077523E+02  0.16265077523E+02  0.00000000000E+00 0. -1.
         25    1    1    2    0    0 -0.21477708873E+02 -0.72499585689E+01  0.67420656944E+03  0.68517760628E+03  0.12000000000E+03 0.  0.
         25    1    1    2    0    0  0.21477708873E+02  0.72499585689E+01  0.33510318385E+03  0.35666230205E+03  0.12000000000E+03 0.  0.
<mgrwt>
<rscale>  0 0.25831031E+03</rscale>
<asrwt>0</asrwt>
<pdfrwt beam="1">  1        2 0.25023204E-02 0.25831031E+03</pdfrwt>
<pdfrwt beam="2">  1       -2 0.15778069E+00 0.25831031E+03</pdfrwt>
<totfact> 0.11142024E+03</totfact>
</mgrwt>
</event>
<event>
 4    1  0.1759998E-004  0.3016756E+03  0.7818608E-02  0.1084406E+00
          3   -1    0    0  501    0  0.00000000000E+00  0.00000000000E+00  0.12912587921E+03  0.12912587921E+03  0.00000000000E+00 0. -1.
         -3   -1    0    0    0  501 -0.00000000000E+00 -0.00000000000E+00 -0.17620043481E+03  0.17620043481E+03  0.00000000000E+00 0. -1.
         25    1    1    2    0    0 -0.66945869524E+02 -0.85315705363E+01  0.38832318778E+02  0.14304714651E+03  0.12000000000E+03 0.  0.
         25    1    1    2    0    0  0.66945869524E+02  0.85315705363E+01 -0.85906874379E+02  0.16227916751E+03  0.12000000000E+03 0.  0.
<mgrwt>
<rscale>  0 0.30167556E+03</rscale>
<asrwt>0</asrwt>
<pdfrwt beam="1">  1        3 0.19865520E-01 0.30167556E+03</pdfrwt>
<pdfrwt beam="2">  1       -3 0.27107759E-01 0.30167556E+03</pdfrwt>
<totfact> 0.75453461E+02</totfact>
</mgrwt>
</event>
<event>
 4    1  0.1759998E-004  0.4263154E+03  0.7818608E-02  0.1035030E+00
         -1   -1    0    0    0  501 -0.00000000000E+00  0.00000000000E+00  0.12243130439E+03  0.12243130439E+03  0.00000000000E+00 0. -1.
          1   -1    0    0  501    0  0.00000000000E+00 -0.00000000000E+00 -0.37111588549E+03  0.37111588549E+03  0.00000000000E+00 0. -1.
         25    1    1    2    0    0  0.12931837994E+03 -0.10533464306E+03 -0.58673082022E+02  0.21368472330E+03  0.12000000000E+03 0.  0.
         25    1    1    2    0    0 -0.12931837994E+03  0.10533464306E+03 -0.19001149908E+03  0.27986246658E+03  0.12000000000E+03 0.  0.
<mgrwt>
<rscale>  0 0.42631539E+03</rscale>
<asrwt>0</asrwt>
<pdfrwt beam="1">  1        1 0.57094751E-01 0.42631539E+03</pdfrwt>
<pdfrwt beam="2">  1       -1 0.18835585E-01 0.42631539E+03</pdfrwt>
<totfact> 0.14916646E+03</totfact>
</mgrwt>
</event>
<event>
 4    1  0.1759998E-004  0.3058692E+03  0.7818608E-02  0.1082343E+00
         -2   -1    0    0    0  501 -0.00000000000E+00  0.00000000000E+00  0.27563334093E+03  0.27563334093E+03  0.00000000000E+00 0. -1.
          2   -1    0    0  501    0  0.00000000000E+00 -0.00000000000E+00 -0.84855431760E+02  0.84855431760E+02  0.00000000000E+00 0. -1.
         25    1    1    2    0    0  0.67153613124E+02  0.13353162525E+02  0.17268270450E+03  0.22114979344E+03  0.12000000000E+03 0.  0.
         25    1    1    2    0    0 -0.67153613124E+02 -0.13353162525E+02  0.18095204665E+02  0.13933897924E+03  0.12000000000E+03 0.  0.
<mgrwt>
<rscale>  0 0.30586916E+03</rscale>
<asrwt>0</asrwt>
<pdfrwt beam="1">  1        2 0.13054682E-01 0.30586916E+03</pdfrwt>
<pdfrwt beam="2">  1       -2 0.42405129E-01 0.30586916E+03</pdfrwt>
<totfact> 0.24541060E+03</totfact>
</mgrwt>
</event>
<event>
 4    1  0.1759998E-004  0.4854221E+03  0.7818608E-02  0.1017656E+00
          4   -1    0    0  501    0  0.00000000000E+00  0.00000000000E+00  0.74357726479E+02  0.74357726479E+02  0.00000000000E+00 0. -1.
         -4   -1    0    0    0  501 -0.00000000000E+00 -0.00000000000E+00 -0.79223312549E+03  0.79223312549E+03  0.00000000000E+00 0. -1.
         25    1    1    2    0    0  0.27289960710E+02  0.16793149597E+03 -0.13622747109E+03  0.24880444766E+03  0.12000000000E+03 0.  0.
         25    1    1    2    0    0 -0.27289960710E+02 -0.16793149597E+03 -0.58164792792E+03  0.61778640431E+03  0.12000000000E+03 0.  0.
<mgrwt>
<rscale>  0 0.48542210E+03</rscale>
<asrwt>0</asrwt>
<pdfrwt beam="1">  1        4 0.11439651E-01 0.48542210E+03</pdfrwt>
<pdfrwt beam="2">  1       -4 0.12188201E+00 0.48542210E+03</pdfrwt>
<totfact> 0.62430964E+01</totfact>
</mgrwt>
</event>
<event>
 4    1  0.1759998E-004  0.3341873E+03  0.7818608E-02  0.1069299E+00
          2   -1    0    0  501    0  0.00000000000E+00  0.00000000000E+00  0.14833093202E+03  0.14833093202E+03  0.00000000000E+00 0.  1.
         -2   -1    0    0    0  501 -0.00000000000E+00 -0.00000000000E+00 -0.18822968039E+03  0.18822968039E+03  0.00000000000E+00 0.  1.
         25    1    1    2    0    0  0.91501299070E+02 -0.69276327548E+02 -0.11463049451E+01  0.16605123096E+03  0.12000000000E+03 0.  0.
         25    1    1    2    0    0 -0.91501299070E+02  0.69276327548E+02 -0.38752443428E+02  0.17050938145E+03  0.12000000000E+03 0.  0.
<mgrwt>
<rscale>  0 0.33418728E+03</rscale>
<asrwt>0</asrwt>
<pdfrwt beam="1">  1        2 0.22820143E-01 0.33418728E+03</pdfrwt>
<pdfrwt beam="2">  1       -2 0.28958412E-01 0.33418728E+03</pdfrwt>
<totfact> 0.26107324E+03</totfact>
</mgrwt>
</event>
<event>
 4    1  0.1759998E-004  0.2584490E+03  0.7818608E-02  0.1108079E+00
         -1   -1    0    0    0  501 -0.00000000000E+00  0.00000000000E+00  0.93956042424E+01  0.93956042424E+01  0.00000000000E+00 0. -1.
          1   -1    0    0  501    0  0.00000000000E+00 -0.00000000000E+00 -0.17773181117E+04  0.17773181117E+04  0.00000000000E+00 0. -1.
         25    1    1    2    0    0  0.45818890075E+02 -0.32871545731E+00 -0.78631620375E+03  0.79673875958E+03  0.12000000000E+03 0.  0.
         25    1    1    2    0    0 -0.45818890075E+02  0.32871545731E+00 -0.98160630373E+03  0.98997495639E+03  0.12000000000E+03 0.  0.
<mgrwt>
<rscale>  0 0.25844905E+03</rscale>
<asrwt>0</asrwt>
<pdfrwt beam="1">  1        1 0.27343330E+00 0.25844905E+03</pdfrwt>
<pdfrwt beam="2">  1       -1 0.14454789E-02 0.25844905E+03</pdfrwt>
<totfact> 0.51825375E+03</totfact>
</mgrwt>
</event>
<event>
 4    1  0.1759998E-004  0.2450909E+03  0.7818608E-02  0.1116447E+00
          1   -1    0    0  501    0  0.00000000000E+00  0.00000000000E+00  0.37986064649E+03  0.37986064649E+03  0.00000000000E+00 0.  1.
         -1   -1    0    0    0  501 -0.00000000000E+00 -0.00000000000E+00 -0.39533936092E+02  0.39533936092E+02  0.00000000000E+00 0.  1.
         25    1    1    2    0    0 -0.17626759544E+02  0.12416444642E+02  0.14903075091E+03  0.19254878724E+03  0.12000000000E+03 0.  0.
         25    1    1    2    0    0  0.17626759544E+02 -0.12416444642E+02  0.19129595949E+03  0.22684579535E+03  0.12000000000E+03 0.  0.
<mgrwt>
<rscale>  0 0.24509089E+03</rscale>
<asrwt>0</asrwt>
<pdfrwt beam="1">  1        1 0.58440097E-01 0.24509089E+03</pdfrwt>
<pdfrwt beam="2">  1       -1 0.60821443E-02 0.24509089E+03</pdfrwt>
<totfact> 0.83696939E+03</totfact>
</mgrwt>
</event>
<event>
 4    1  0.1759998E-004  0.2752756E+03  0.7818608E-02  0.1098298E+00
          3   -1    0    0  501    0  0.00000000000E+00  0.00000000000E+00  0.83972069903E+03  0.83972069903E+03  0.00000000000E+00 0.  1.
         -3   -1    0    0    0  501 -0.00000000000E+00 -0.00000000000E+00 -0.22560069488E+02  0.22560069488E+02  0.00000000000E+00 0.  1.
         25    1    1    2    0    0 -0.15109728423E+02 -0.29108797296E+01  0.61416353413E+03  0.62596615225E+03  0.12000000000E+03 0.  0.
         25    1    1    2    0    0  0.15109728423E+02  0.29108797296E+01  0.20299709541E+03  0.23631461626E+03  0.12000000000E+03 0.  0.
<mgrwt>
<rscale>  0 0.27527555E+03</rscale>
<asrwt>0</asrwt>
<pdfrwt beam="1">  1        3 0.12918778E+00 0.27527555E+03</pdfrwt>
<pdfrwt beam="2">  1       -3 0.34707806E-02 0.27527555E+03</pdfrwt>
<totfact> 0.51088944E+02</totfact>
</mgrwt>
</event>
<event>
 4    1  0.1759998E-004  0.2712944E+03  0.7818608E-02  0.1100541E+00
          1   -1    0    0  501    0  0.00000000000E+00  0.00000000000E+00  0.10872144395E+03  0.10872144395E+03  0.00000000000E+00 0. -1.
         -1   -1    0    0    0  501 -0.00000000000E+00 -0.00000000000E+00 -0.16924133603E+03  0.16924133603E+03  0.00000000000E+00 0. -1.
         25    1    1    2    0    0  0.19489337477E+02 -0.54950889859E+02 -0.51477491033E+01  0.13351379664E+03  0.12000000000E+03 0.  0.
         25    1    1    2    0    0 -0.19489337477E+02  0.54950889859E+02 -0.55372142982E+02  0.14444898335E+03  0.12000000000E+03 0.  0.
<mgrwt>
<rscale>  0 0.27129440E+03</rscale>
<asrwt>0</asrwt>
<pdfrwt beam="1">  1        1 0.16726376E-01 0.27129440E+03</pdfrwt>
<pdfrwt beam="2">  1       -1 0.26037129E-01 0.27129440E+03</pdfrwt>
<totfact> 0.41684562E+03</totfact>
</mgrwt>
</event>
<event>
 4    1  0.1759998E-004  0.3474074E+03  0.7818608E-02  0.1063684E+00
          1   -1    0    0  501    0  0.00000000000E+00  0.00000000000E+00  0.26275834660E+03  0.26275834660E+03  0.00000000000E+00 0.  1.
         -1   -1    0    0    0  501 -0.00000000000E+00 -0.00000000000E+00 -0.11483165017E+03  0.11483165017E+03  0.00000000000E+00 0.  1.
         25    1    1    2    0    0 -0.73136148228E+02  0.90674132853E+02  0.12496892791E+03  0.20877721976E+03  0.12000000000E+03 0.  0.
         25    1    1    2    0    0  0.73136148228E+02 -0.90674132853E+02  0.22957768522E+02  0.16881277701E+03  0.12000000000E+03 0.  0.
<mgrwt>
<rscale>  0 0.34740740E+03</rscale>
<asrwt>0</asrwt>
<pdfrwt beam="1">  1        1 0.40424361E-01 0.34740740E+03</pdfrwt>
<pdfrwt beam="2">  1       -1 0.17666408E-01 0.34740740E+03</pdfrwt>
<totfact> 0.25672008E+03</totfact>
</mgrwt>
</event>
<event>
 4    1  0.1759998E-004  0.4656609E+03  0.7818608E-02  0.1023152E+00
          2   -1    0    0  501    0  0.00000000000E+00  0.00000000000E+00  0.20248229679E+03  0.20248229679E+03  0.00000000000E+00 0. -1.
         -2   -1    0    0    0  501 -0.00000000000E+00 -0.00000000000E+00 -0.26772723728E+03  0.26772723728E+03  0.00000000000E+00 0. -1.
         25    1    1    2    0    0 -0.17960350644E+03  0.59468685722E+02  0.31369120037E+02  0.22622547558E+03  0.12000000000E+03 0.  0.
         25    1    1    2    0    0  0.17960350644E+03 -0.59468685722E+02 -0.96614060522E+02  0.24398405849E+03  0.12000000000E+03 0.  0.
<mgrwt>
<rscale>  0 0.46566093E+03</rscale>
<asrwt>0</asrwt>
<pdfrwt beam="1">  1        2 0.31151122E-01 0.46566093E+03</pdfrwt>
<pdfrwt beam="2">  1       -2 0.41188806E-01 0.46566093E+03</pdfrwt>
<totfact> 0.95365161E+02</totfact>
</mgrwt>
</event>
<event>
 4    1  0.1759998E-004  0.2433107E+03  0.7818608E-02  0.1117607E+00
         -1   -1    0    0    0  501 -0.00000000000E+00  0.00000000000E+00  0.71933916039E+03  0.71933916039E+03  0.00000000000E+00 0.  1.
          1   -1    0    0  501    0  0.00000000000E+00 -0.00000000000E+00 -0.20574467190E+02  0.20574467190E+02  0.00000000000E+00 0.  1.
         25    1    1    2    0    0 -0.13655532178E+02  0.14520504741E+02  0.35438049634E+03  0.37467700063E+03  0.12000000000E+03 0.  0.
         25    1    1    2    0    0  0.13655532178E+02 -0.14520504741E+02  0.34438419686E+03  0.36523662695E+03  0.12000000000E+03 0.  0.
<mgrwt>
<rscale>  0 0.24331067E+03</rscale>
<asrwt>0</asrwt>
<pdfrwt beam="1">  1        1 0.31653032E-02 0.24331067E+03</pdfrwt>
<pdfrwt beam="2">  1       -1 0.11066754E+00 0.24331067E+03</pdfrwt>
<totfact> 0.25134014E+03</totfact>
</mgrwt>
</event>
<event>
 4    1  0.1759998E-004  0.2454487E+03  0.7818608E-02  0.1116215E+00
          2   -1    0    0  501    0  0.00000000000E+00  0.00000000000E+00  0.16379792918E+04  0.16379792918E+04  0.00000000000E+00 0.  1.
         -2   -1    0    0    0  501 -0.00000000000E+00 -0.00000000000E+00 -0.91950320513E+01  0.91950320513E+01  0.00000000000E+00 0.  1.
         25    1    1    2    0    0 -0.14573910392E+02  0.20847897106E+02  0.78906946088E+03  0.79854721073E+03  0.12000000000E+03 0.  0.
         25    1    1    2    0    0  0.14573910392E+02 -0.20847897106E+02  0.83971479884E+03  0.84862711308E+03  0.12000000000E+03 0.  0.
<mgrwt>
<rscale>  0 0.24544875E+03</rscale>
<asrwt>0</asrwt>
<pdfrwt beam="1">  1        2 0.25199658E+00 0.24544875E+03</pdfrwt>
<pdfrwt beam="2">  1       -2 0.14146216E-02 0.24544875E+03</pdfrwt>
<totfact> 0.14755295E+04</totfact>
</mgrwt>
</event>
<event>
 4    1  0.1759998E-004  0.2702447E+03  0.7818608E-02  0.1101140E+00
         -2   -1    0    0    0  501 -0.00000000000E+00  0.00000000000E+00  0.10747142140E+02  0.10747142140E+02  0.00000000000E+00 0. -1.
          2   -1    0    0  501    0  0.00000000000E+00 -0.00000000000E+00 -0.16988753218E+04  0.16988753218E+04  0.00000000000E+00 0. -1.
         25    1    1    2    0    0 -0.53612196282E+01 -0.50908105028E+02 -0.62150436167E+03  0.63504964326E+03  0.12000000000E+03 0.  0.
         25    1    1    2    0    0  0.53612196282E+01  0.50908105028E+02 -0.10666238180E+04  0.10745728207E+04  0.12000000000E+03 0.  0.
<mgrwt>
<rscale>  0 0.27024474E+03</rscale>
<asrwt>0</asrwt>
<pdfrwt beam="1">  1        2 0.26136526E+00 0.27024474E+03</pdfrwt>
<pdfrwt beam="2">  1       -2 0.16534076E-02 0.27024474E+03</pdfrwt>
<totfact> 0.10937789E+04</totfact>
</mgrwt>
</event>
<event>
 4    1  0.1759998E-004  0.4411585E+03  0.7818608E-02  0.1030392E+00
         -1   -1    0    0    0  501 -0.00000000000E+00  0.00000000000E+00  0.72199434544E+02  0.72199434544E+02  0.00000000000E+00 0.  1.
          1   -1    0    0  501    0  0.00000000000E+00 -0.00000000000E+00 -0.67390013390E+03  0.67390013390E+03  0.00000000000E+00 0.  1.
         25    1    1    2    0    0  0.37260005043E+02 -0.10099601612E+03 -0.55547258315E+03  0.57839285428E+03  0.12000000000E+03 0.  0.
         25    1    1    2    0    0 -0.37260005043E+02  0.10099601612E+03 -0.46228116204E+02  0.16770671416E+03  0.12000000000E+03 0.  0.
<mgrwt>
<rscale>  0 0.44115851E+03</rscale>
<asrwt>0</asrwt>
<pdfrwt beam="1">  1        1 0.10367694E+00 0.44115851E+03</pdfrwt>
<pdfrwt beam="2">  1       -1 0.11107605E-01 0.44115851E+03</pdfrwt>
<totfact> 0.15447620E+03</totfact>
</mgrwt>
</event>
<event>
 4    1  0.1759998E-004  0.2722780E+03  0.7818608E-02  0.1099983E+00
          1   -1    0    0  501    0  0.00000000000E+00  0.00000000000E+00  0.61289096569E+03  0.61289096569E+03  0.00000000000E+00 0.  1.
         -1   -1    0    0    0  501 -0.00000000000E+00 -0.00000000000E+00 -0.30240013229E+02  0.30240013229E+02  0.00000000000E+00 0.  1.
         25    1    1    2    0    0 -0.48008041673E+02  0.37987025884E+02  0.33773484254E+03  0.36361051974E+03  0.12000000000E+03 0.  0.
         25    1    1    2    0    0  0.48008041673E+02 -0.37987025884E+02  0.24491610992E+03  0.27952045918E+03  0.12000000000E+03 0.  0.
<mgrwt>
<rscale>  0 0.27227803E+03</rscale>
<asrwt>0</asrwt>
<pdfrwt beam="1">  1        1 0.94290908E-01 0.27227803E+03</pdfrwt>
<pdfrwt beam="2">  1       -1 0.46523102E-02 0.27227803E+03</pdfrwt>
<totfact> 0.66686265E+03</totfact>
</mgrwt>
</event>
<event>
 4    1  0.1759998E-004  0.3533702E+03  0.7818608E-02  0.1061240E+00
         -1   -1    0    0    0  501 -0.00000000000E+00  0.00000000000E+00  0.65810105161E+02  0.65810105161E+02  0.00000000000E+00 0.  1.
          1   -1    0    0  501    0  0.00000000000E+00 -0.00000000000E+00 -0.47435916600E+03  0.47435916600E+03  0.00000000000E+00 0.  1.
         25    1    1    2    0    0 -0.10105601617E+03 -0.62943624490E+02 -0.12568185641E+03  0.21064222583E+03  0.12000000000E+03 0.  0.
         25    1    1    2    0    0  0.10105601617E+03  0.62943624490E+02 -0.28286720442E+03  0.32952704533E+03  0.12000000000E+03 0.  0.
<mgrwt>
<rscale>  0 0.35337021E+03</rscale>
<asrwt>0</asrwt>
<pdfrwt beam="1">  1        1 0.72978334E-01 0.35337021E+03</pdfrwt>
<pdfrwt beam="2">  1       -1 0.10124631E-01 0.35337021E+03</pdfrwt>
<totfact> 0.29054336E+03</totfact>
</mgrwt>
</event>
<event>
 4    1  0.1759998E-004  0.2491391E+03  0.7818608E-02  0.1113850E+00
         -1   -1    0    0    0  501 -0.00000000000E+00  0.00000000000E+00  0.13851997039E+04  0.13851997039E+04  0.00000000000E+00 0. -1.
          1   -1    0    0  501    0  0.00000000000E+00 -0.00000000000E+00 -0.11202403968E+02  0.11202403968E+02  0.00000000000E+00 0. -1.
         25    1    1    2    0    0 -0.13261767580E+02  0.27627429718E+02  0.76186508960E+03  0.77186628641E+03  0.12000000000E+03 0.  0.
         25    1    1    2    0    0  0.13261767580E+02 -0.27627429718E+02  0.61213221032E+03  0.62453582144E+03  0.12000000000E+03 0.  0.
<mgrwt>
<rscale>  0 0.24913905E+03</rscale>
<asrwt>0</asrwt>
<pdfrwt beam="1">  1        1 0.17234479E-02 0.24913905E+03</pdfrwt>
<pdfrwt beam="2">  1       -1 0.21310751E+00 0.24913905E+03</pdfrwt>
<totfact> 0.10199125E+03</totfact>
</mgrwt>
</event>
<event>
 4    1  0.1759998E-004  0.2846297E+03  0.7818608E-02  0.1093187E+00
          2   -1    0    0  501    0  0.00000000000E+00  0.00000000000E+00  0.26553193306E+02  0.26553193306E+02  0.00000000000E+00 0. -1.
         -2   -1    0    0    0  501 -0.00000000000E+00 -0.00000000000E+00 -0.76275275030E+03  0.76275275030E+03  0.00000000000E+00 0. -1.
         25    1    1    2    0    0 -0.25679887132E+02  0.13472938940E+01 -0.16827797197E+03  0.20827565305E+03  0.12000000000E+03 0.  0.
         25    1    1    2    0    0  0.25679887132E+02 -0.13472938940E+01 -0.56792158503E+03  0.58103029055E+03  0.12000000000E+03 0.  0.
<mgrwt>
<rscale>  0 0.28462973E+03</rscale>
<asrwt>0</asrwt>
<pdfrwt beam="1">  1        2 0.40851072E-02 0.28462973E+03</pdfrwt>
<pdfrwt beam="2">  1       -2 0.11734656E+00 0.28462973E+03</pdfrwt>
<totfact> 0.12092644E+03</totfact>
</mgrwt>
</event>
<event>
 4    1  0.1759998E-004  0.2484302E+03  0.7818608E-02  0.1114301E+00
         -2   -1    0    0    0  501 -0.00000000000E+00  0.00000000000E+00  0.11892984657E+02  0.11892984657E+02  0.00000000000E+00 0. -1.
          2   -1    0    0  501    0  0.00000000000E+00 -0.00000000000E+00 -0.12973526382E+04  0.12973526382E+04  0.00000000000E+00 0. -1.
         25    1    1    2    0    0  0.22083181278E+02  0.12559699877E+02 -0.74599934598E+03  0.75601616197E+03  0.12000000000E+03 0.  0.
         25    1    1    2    0    0 -0.22083181278E+02 -0.12559699877E+02 -0.53946030753E+03  0.55322946086E+03  0.12000000000E+03 0.  0.
<mgrwt>
<rscale>  0 0.24843023E+03</rscale>
<asrwt>0</asrwt>
<pdfrwt beam="1">  1        2 0.19959274E+00 0.24843023E+03</pdfrwt>
<pdfrwt beam="2">  1       -2 0.18296897E-02 0.24843023E+03</pdfrwt>
<totfact> 0.15441435E+04</totfact>
</mgrwt>
</event>
<event>
 4    1  0.1759998E-004  0.2727673E+03  0.7818608E-02  0.1099706E+00
         -2   -1    0    0    0  501 -0.00000000000E+00  0.00000000000E+00  0.28804439939E+02  0.28804439939E+02  0.00000000000E+00 0. -1.
          2   -1    0    0  501    0  0.00000000000E+00 -0.00000000000E+00 -0.64575127152E+03  0.64575127152E+03  0.00000000000E+00 0. -1.
         25    1    1    2    0    0  0.32630728340E+02 -0.22287762926E+02 -0.43551466382E+03  0.45346943801E+03  0.12000000000E+03 0.  0.
         25    1    1    2    0    0 -0.32630728340E+02  0.22287762926E+02 -0.18143216776E+03  0.22108627345E+03  0.12000000000E+03 0.  0.
<mgrwt>
<rscale>  0 0.27276733E+03</rscale>
<asrwt>0</asrwt>
<pdfrwt beam="1">  1        2 0.99346341E-01 0.27276733E+03</pdfrwt>
<pdfrwt beam="2">  1       -2 0.44314527E-02 0.27276733E+03</pdfrwt>
<totfact> 0.10830501E+04</totfact>
</mgrwt>
</event>
<event>
 4    1  0.1759998E-004  0.2636537E+03  0.7818608E-02  0.1104968E+00
          2   -1    0    0  501    0  0.00000000000E+00  0.00000000000E+00  0.51709098841E+03  0.51709098841E+03  0.00000000000E+00 0. -1.
         -2   -1    0    0    0  501 -0.00000000000E+00 -0.00000000000E+00 -0.33607858515E+02  0.33607858515E+02  0.00000000000E+00 0. -1.
         25    1    1    2    0    0 -0.44013100038E+02 -0.31079318078E+02  0.25985978794E+03  0.29125622118E+03  0.12000000000E+03 0.  0.
         25    1    1    2    0    0  0.44013100038E+02  0.31079318078E+02  0.22362334195E+03  0.25944262574E+03  0.12000000000E+03 0.  0.
<mgrwt>
<rscale>  0 0.26365372E+03</rscale>
<asrwt>0</asrwt>
<pdfrwt beam="1">  1        2 0.79552454E-01 0.26365372E+03</pdfrwt>
<pdfrwt beam="2">  1       -2 0.51704402E-02 0.26365372E+03</pdfrwt>
<totfact> 0.11057215E+04</totfact>
</mgrwt>
</event>
<event>
 4    1  0.1759998E-004  0.3005800E+03  0.7818608E-02  0.1084951E+00
          2   -1    0    0  501    0  0.00000000000E+00  0.00000000000E+00  0.21366145399E+03  0.21366145399E+03  0.00000000000E+00 0.  1.
         -2   -1    0    0    0  501 -0.00000000000E+00 -0.00000000000E+00 -0.10571433001E+03  0.10571433001E+03  0.00000000000E+00 0.  1.
         25    1    1    2    0    0 -0.21461983844E+02 -0.82286290572E+02  0.21130719090E+02  0.14858720556E+03  0.12000000000E+03 0.  0.
         25    1    1    2    0    0  0.21461983844E+02  0.82286290572E+02  0.86816404886E+02  0.17078857844E+03  0.12000000000E+03 0.  0.
<mgrwt>
<rscale>  0 0.30057996E+03</rscale>
<asrwt>0</asrwt>
<pdfrwt beam="1">  1        2 0.32870993E-01 0.30057996E+03</pdfrwt>
<pdfrwt beam="2">  1       -2 0.16263743E-01 0.30057996E+03</pdfrwt>
<totfact> 0.47266619E+03</totfact>
</mgrwt>
</event>
<event>
 4    1  0.1759998E-004  0.3887938E+03  0.7818608E-02  0.1047731E+00
          2   -1    0    0  501    0  0.00000000000E+00  0.00000000000E+00  0.97565988651E+02  0.97565988651E+02  0.00000000000E+00 0.  1.
         -2   -1    0    0    0  501 -0.00000000000E+00 -0.00000000000E+00 -0.38732913610E+03  0.38732913610E+03  0.00000000000E+00 0.  1.
         25    1    1    2    0    0  0.80456197924E+02 -0.78084688142E+02 -0.27461048134E+03  0.31997083425E+03  0.12000000000E+03 0.  0.
         25    1    1    2    0    0 -0.80456197924E+02  0.78084688142E+02 -0.15152666103E+02  0.16492429050E+03  0.12000000000E+03 0.  0.
<mgrwt>
<rscale>  0 0.38879378E+03</rscale>
<asrwt>0</asrwt>
<pdfrwt beam="1">  1        2 0.15010152E-01 0.38879378E+03</pdfrwt>
<pdfrwt beam="2">  1       -2 0.59589097E-01 0.38879378E+03</pdfrwt>
<totfact> 0.10516972E+03</totfact>
</mgrwt>
</event>
<event>
 4    1  0.1759998E-004  0.3297728E+03  0.7818608E-02  0.1071237E+00
          2   -1    0    0  501    0  0.00000000000E+00  0.00000000000E+00  0.80555644363E+02  0.80555644363E+02  0.00000000000E+00 0. -1.
         -2   -1    0    0    0  501 -0.00000000000E+00 -0.00000000000E+00 -0.33750003942E+03  0.33750003942E+03  0.00000000000E+00 0. -1.
         25    1    1    2    0    0  0.65063803676E+02  0.25568260590E+02 -0.15792288834E+02  0.13977278306E+03  0.12000000000E+03 0.  0.
         25    1    1    2    0    0 -0.65063803676E+02 -0.25568260590E+02 -0.24115210623E+03  0.27828290073E+03  0.12000000000E+03 0.  0.
<mgrwt>
<rscale>  0 0.32977285E+03</rscale>
<asrwt>0</asrwt>
<pdfrwt beam="1">  1        2 0.12393176E-01 0.32977285E+03</pdfrwt>
<pdfrwt beam="2">  1       -2 0.51923082E-01 0.32977285E+03</pdfrwt>
<totfact> 0.17546624E+03</totfact>
</mgrwt>
</event>
<event>
 4    1  0.1759998E-004  0.2604497E+03  0.7818608E-02  0.1106873E+00
          1   -1    0    0  501    0  0.00000000000E+00  0.00000000000E+00  0.92933104036E+02  0.92933104036E+02  0.00000000000E+00 0. -1.
         -1   -1    0    0    0  501 -0.00000000000E+00 -0.00000000000E+00 -0.18248084411E+03  0.18248084411E+03  0.00000000000E+00 0. -1.
         25    1    1    2    0    0 -0.33849526100E+02 -0.35065119351E+02 -0.59085046104E+02  0.14236009162E+03  0.12000000000E+03 0.  0.
         25    1    1    2    0    0  0.33849526100E+02  0.35065119351E+02 -0.30462693965E+02  0.13305385652E+03  0.12000000000E+03 0.  0.
<mgrwt>
<rscale>  0 0.26044970E+03</rscale>
<asrwt>0</asrwt>
<pdfrwt beam="1">  1        1 0.14297401E-01 0.26044970E+03</pdfrwt>
<pdfrwt beam="2">  1       -1 0.28073975E-01 0.26044970E+03</pdfrwt>
<totfact> 0.45050772E+03</totfact>
</mgrwt>
</event>
<event>
 4    1  0.1759998E-004  0.2488809E+03  0.7818608E-02  0.1114014E+00
          2   -1    0    0  501    0  0.00000000000E+00  0.00000000000E+00  0.10520405782E+04  0.10520405782E+04  0.00000000000E+00 0. -1.
         -2   -1    0    0    0  501 -0.00000000000E+00 -0.00000000000E+00 -0.14719420377E+02  0.14719420377E+02  0.00000000000E+00 0. -1.
         25    1    1    2    0    0 -0.29207266101E+02 -0.13697862033E+02  0.48999353862E+03  0.50550406893E+03  0.12000000000E+03 0.  0.
         25    1    1    2    0    0  0.29207266101E+02  0.13697862033E+02  0.54732761917E+03  0.56125592961E+03  0.12000000000E+03 0.  0.
<mgrwt>
<rscale>  0 0.24888092E+03</rscale>
<asrwt>0</asrwt>
<pdfrwt beam="1">  1        2 0.16185234E+00 0.24888092E+03</pdfrwt>
<pdfrwt beam="2">  1       -2 0.22645270E-02 0.24888092E+03</pdfrwt>
<totfact> 0.15594763E+04</totfact>
</mgrwt>
</event>
<event>
 4    1  0.1759998E-004  0.2885012E+03  0.7818608E-02  0.1091134E+00
          1   -1    0    0  501    0  0.00000000000E+00  0.00000000000E+00  0.50961804652E+03  0.50961804652E+03  0.00000000000E+00 0.  1.
         -1   -1    0    0    0  501 -0.00000000000E+00 -0.00000000000E+00 -0.40831042120E+02  0.40831042120E+02  0.00000000000E+00 0.  1.
         25    1    1    2    0    0  0.35126590260E+02  0.70956002434E+02  0.21185012776E+03  0.25602560079E+03  0.12000000000E+03 0.  0.
         25    1    1    2    0    0 -0.35126590260E+02 -0.70956002434E+02  0.25693687664E+03  0.29442348786E+03  0.12000000000E+03 0.  0.
<mgrwt>
<rscale>  0 0.28850120E+03</rscale>
<asrwt>0</asrwt>
<pdfrwt beam="1">  1        1 0.78402772E-01 0.28850120E+03</pdfrwt>
<pdfrwt beam="2">  1       -1 0.62816991E-02 0.28850120E+03</pdfrwt>
<totfact> 0.54708000E+03</totfact>
</mgrwt>
</event>
<event>
 4    1  0.1759998E-004  0.5538919E+03  0.7818608E-02  0.1000597E+00
          3   -1    0    0  501    0  0.00000000000E+00  0.00000000000E+00  0.15097977485E+03  0.15097977485E+03  0.00000000000E+00 0. -1.
         -3   -1    0    0    0  501 -0.00000000000E+00 -0.00000000000E+00 -0.50800890369E+03  0.50800890369E+03  0.00000000000E+00 0. -1.
         25    1    1    2    0    0  0.62591740842E+02 -0.18749779996E+03 -0.35983191379E+03  0.42772906985E+03  0.12000000000E+03 0.  0.
         25    1    1    2    0    0 -0.62591740842E+02  0.18749779996E+03  0.28027849513E+01  0.23125960869E+03  0.12000000000E+03 0.  0.
<mgrwt>
<rscale>  0 0.55389194E+03</rscale>
<asrwt>0</asrwt>
<pdfrwt beam="1">  1        3 0.23227658E-01 0.55389194E+03</pdfrwt>
<pdfrwt beam="2">  1       -3 0.78155216E-01 0.55389194E+03</pdfrwt>
<totfact> 0.70140347E+01</totfact>
</mgrwt>
</event>
<event>
 4    1  0.1759998E-004  0.2723787E+03  0.7818608E-02  0.1099926E+00
         -1   -1    0    0    0  501 -0.00000000000E+00  0.00000000000E+00  0.14409411959E+03  0.14409411959E+03  0.00000000000E+00 0. -1.
          1   -1    0    0  501    0  0.00000000000E+00 -0.00000000000E+00 -0.12871824144E+03  0.12871824144E+03  0.00000000000E+00 0. -1.
         25    1    1    2    0    0  0.38808236386E+02  0.37623413011E+02  0.42757126352E+02  0.13838270221E+03  0.12000000000E+03 0.  0.
         25    1    1    2    0    0 -0.38808236386E+02 -0.37623413011E+02 -0.27381248199E+02  0.13442965882E+03  0.12000000000E+03 0.  0.
<mgrwt>
<rscale>  0 0.27237872E+03</rscale>
<asrwt>0</asrwt>
<pdfrwt beam="1">  1        1 0.19802806E-01 0.27237872E+03</pdfrwt>
<pdfrwt beam="2">  1       -1 0.22168326E-01 0.27237872E+03</pdfrwt>
<totfact> 0.43719732E+03</totfact>
</mgrwt>
</event>
<event>
 4    1  0.1759998E-004  0.3171118E+03  0.7818608E-02  0.1076986E+00
         -2   -1    0    0    0  501 -0.00000000000E+00  0.00000000000E+00  0.85108935697E+02  0.85108935697E+02  0.00000000000E+00 0. -1.
          2   -1    0    0  501    0  0.00000000000E+00 -0.00000000000E+00 -0.29538585207E+03  0.29538585207E+03  0.00000000000E+00 0. -1.
         25    1    1    2    0    0  0.10065587939E+03  0.24623136643E+02 -0.10341189699E+03  0.18929322585E+03  0.12000000000E+03 0.  0.
         25    1    1    2    0    0 -0.10065587939E+03 -0.24623136643E+02 -0.10686501939E+03  0.19120156192E+03  0.12000000000E+03 0.  0.
<mgrwt>
<rscale>  0 0.31711181E+03</rscale>
<asrwt>0</asrwt>
<pdfrwt beam="1">  1        2 0.45443977E-01 0.31711181E+03</pdfrwt>
<pdfrwt beam="2">  1       -2 0.13093682E-01 0.31711181E+03</pdfrwt>
<totfact> 0.47658741E+03</totfact>
</mgrwt>
</event>
<event>
 4    1  0.1759998E-004  0.4731848E+03  0.7818608E-02  0.1021025E+00
         -1   -1    0    0    0  501 -0.00000000000E+00  0.00000000000E+00  0.18232073936E+04  0.18232073936E+04  0.00000000000E+00 0.  1.
          1   -1    0    0  501    0  0.00000000000E+00 -0.00000000000E+00 -0.30701923259E+02  0.30701923259E+02  0.00000000000E+00 0.  1.
         25    1    1    2    0    0  0.16276174284E+03  0.12181438477E+03  0.83482172454E+03  0.86755832141E+03  0.12000000000E+03 0.  0.
         25    1    1    2    0    0 -0.16276174284E+03 -0.12181438477E+03  0.95768374577E+03  0.98635099543E+03  0.12000000000E+03 0.  0.
<mgrwt>
<rscale>  0 0.47318484E+03</rscale>
<asrwt>0</asrwt>
<pdfrwt beam="1">  1        1 0.47233743E-02 0.47318484E+03</pdfrwt>
<pdfrwt beam="2">  1       -1 0.28049336E+00 0.47318484E+03</pdfrwt>
<totfact> 0.90100306E+01</totfact>
</mgrwt>
</event>
<event>
 4    1  0.1759998E-004  0.2571655E+03  0.7818608E-02  0.1108858E+00
          1   -1    0    0  501    0  0.00000000000E+00  0.00000000000E+00  0.83912842828E+03  0.83912842828E+03  0.00000000000E+00 0. -1.
         -1   -1    0    0    0  501 -0.00000000000E+00 -0.00000000000E+00 -0.19703213157E+02  0.19703213157E+02  0.00000000000E+00 0. -1.
         25    1    1    2    0    0 -0.42265334153E+02  0.25562930229E+01  0.47134922150E+03  0.48822431495E+03  0.12000000000E+03 0.  0.
         25    1    1    2    0    0  0.42265334153E+02 -0.25562930229E+01  0.34807599363E+03  0.37060732649E+03  0.12000000000E+03 0.  0.
<mgrwt>
<rscale>  0 0.25716552E+03</rscale>
<asrwt>0</asrwt>
<pdfrwt beam="1">  1        1 0.12909665E+00 0.25716552E+03</pdfrwt>
<pdfrwt beam="2">  1       -1 0.30312642E-02 0.25716552E+03</pdfrwt>
<totfact> 0.79069879E+03</totfact>
</mgrwt>
</event>
<event>
 4    1  0.1759998E-004  0.2595495E+03  0.7818608E-02  0.1107414E+00
         -2   -1    0    0    0  501 -0.00000000000E+00  0.00000000000E+00  0.39063695055E+03  0.39063695055E+03  0.00000000000E+00 0.  1.
          2   -1    0    0  501    0  0.00000000000E+00 -0.00000000000E+00 -0.43112874690E+02  0.43112874690E+02  0.00000000000E+00 0.  1.
         25    1    1    2    0    0  0.37805539511E+02 -0.14337121871E+02  0.22122634263E+03  0.25490372016E+03  0.12000000000E+03 0.  0.
         25    1    1    2    0    0 -0.37805539511E+02  0.14337121871E+02  0.12629773323E+03  0.17884610508E+03  0.12000000000E+03 0.  0.
<mgrwt>
<rscale>  0 0.25954947E+03</rscale>
<asrwt>0</asrwt>
<pdfrwt beam="1">  1        2 0.66327502E-02 0.25954947E+03</pdfrwt>
<pdfrwt beam="2">  1       -2 0.60097990E-01 0.25954947E+03</pdfrwt>
<totfact> 0.28386524E+03</totfact>
</mgrwt>
</event>
<event>
 4    1  0.1759998E-004  0.2667048E+03  0.7818608E-02  0.1103180E+00
          1   -1    0    0  501    0  0.00000000000E+00  0.00000000000E+00  0.14456346360E+03  0.14456346360E+03  0.00000000000E+00 0.  1.
         -1   -1    0    0    0  501 -0.00000000000E+00 -0.00000000000E+00 -0.12301080079E+03  0.12301080079E+03  0.00000000000E+00 0.  1.
         25    1    1    2    0    0 -0.32841223434E+02 -0.53288338858E+01  0.58638505466E+02  0.13764235086E+03  0.12000000000E+03 0.  0.
         25    1    1    2    0    0  0.32841223434E+02  0.53288338858E+01 -0.37085842654E+02  0.12993191353E+03  0.12000000000E+03 0.  0.
<mgrwt>
<rscale>  0 0.26670484E+03</rscale>
<asrwt>0</asrwt>
<pdfrwt beam="1">  1        1 0.22240533E-01 0.26670484E+03</pdfrwt>
<pdfrwt beam="2">  1       -1 0.18924739E-01 0.26670484E+03</pdfrwt>
<totfact> 0.48700988E+03</totfact>
</mgrwt>
</event>
<event>
 4    1  0.1759998E-004  0.2404775E+03  0.7818608E-02  0.1119475E+00
          2   -1    0    0  501    0  0.00000000000E+00  0.00000000000E+00  0.72786119126E+03  0.72786119126E+03  0.00000000000E+00 0.  1.
         -2   -1    0    0    0  501 -0.00000000000E+00 -0.00000000000E+00 -0.19862795742E+02  0.19862795742E+02  0.00000000000E+00 0.  1.
         25    1    1    2    0    0 -0.22117781358E+01  0.33968214138E+01  0.37389109057E+03  0.39269705622E+03  0.12000000000E+03 0.  0.
         25    1    1    2    0    0  0.22117781358E+01 -0.33968214138E+01  0.33410730495E+03  0.35502693078E+03  0.12000000000E+03 0.  0.
<mgrwt>
<rscale>  0 0.24047751E+03</rscale>
<asrwt>0</asrwt>
<pdfrwt beam="1">  1        2 0.11197862E+00 0.24047751E+03</pdfrwt>
<pdfrwt beam="2">  1       -2 0.30558153E-02 0.24047751E+03</pdfrwt>
<totfact> 0.16272495E+04</totfact>
</mgrwt>
</event>
<event>
 4    1  0.1759998E-004  0.3331760E+03  0.7818608E-02  0.1069740E+00
         -2   -1    0    0    0  501 -0.00000000000E+00  0.00000000000E+00  0.56205131134E+02  0.56205131134E+02  0.00000000000E+00 0.  1.
          2   -1    0    0  501    0  0.00000000000E+00 -0.00000000000E+00 -0.49375495874E+03  0.49375495874E+03  0.00000000000E+00 0.  1.
         25    1    1    2    0    0 -0.12394965593E+02  0.10240962263E+03 -0.30470748941E+03  0.34334824899E+03  0.12000000000E+03 0.  0.
         25    1    1    2    0    0  0.12394965593E+02 -0.10240962263E+03 -0.13284233820E+03  0.20661184089E+03  0.12000000000E+03 0.  0.
<mgrwt>
<rscale>  0 0.33317600E+03</rscale>
<asrwt>0</asrwt>
<pdfrwt beam="1">  1        2 0.75962304E-01 0.33317600E+03</pdfrwt>
<pdfrwt beam="2">  1       -2 0.86469430E-02 0.33317600E+03</pdfrwt>
<totfact> 0.52934959E+03</totfact>
</mgrwt>
</event>
<event>
 4    1  0.1759998E-004  0.2571312E+03  0.7818608E-02  0.1108879E+00
          1   -1    0    0  501    0  0.00000000000E+00  0.00000000000E+00  0.71017057059E+02  0.71017057059E+02  0.00000000000E+00 0.  1.
         -1   -1    0    0    0  501 -0.00000000000E+00 -0.00000000000E+00 -0.23274844038E+03  0.23274844038E+03  0.00000000000E+00 0.  1.
         25    1    1    2    0    0 -0.17257847696E+01 -0.41541486834E+02 -0.57225544439E+02  0.13929621817E+03  0.12000000000E+03 0.  0.
         25    1    1    2    0    0  0.17257847696E+01  0.41541486834E+02 -0.10450583888E+03  0.16446927927E+03  0.12000000000E+03 0.  0.
<mgrwt>
<rscale>  0 0.25713117E+03</rscale>
<asrwt>0</asrwt>
<pdfrwt beam="1">  1        1 0.10925701E-01 0.25713117E+03</pdfrwt>
<pdfrwt beam="2">  1       -1 0.35807452E-01 0.25713117E+03</pdfrwt>
<totfact> 0.42400428E+03</totfact>
</mgrwt>
</event>
<event>
 4    1  0.1759998E-004  0.2625744E+03  0.7818608E-02  0.1105606E+00
         -1   -1    0    0    0  501 -0.00000000000E+00  0.00000000000E+00  0.34124529256E+02  0.34124529256E+02  0.00000000000E+00 0.  1.
          1   -1    0    0  501    0  0.00000000000E+00 -0.00000000000E+00 -0.50510087241E+03  0.50510087241E+03  0.00000000000E+00 0.  1.
         25    1    1    2    0    0 -0.25555245027E+02 -0.42343300935E+02 -0.27605951153E+03  0.30504897900E+03  0.12000000000E+03 0.  0.
         25    1    1    2    0    0  0.25555245027E+02  0.42343300935E+02 -0.19491683163E+03  0.23417642267E+03  0.12000000000E+03 0.  0.
<mgrwt>
<rscale>  0 0.26257440E+03</rscale>
<asrwt>0</asrwt>
<pdfrwt beam="1">  1        1 0.77707825E-01 0.26257440E+03</pdfrwt>
<pdfrwt beam="2">  1       -1 0.52499277E-02 0.26257440E+03</pdfrwt>
<totfact> 0.72330574E+03</totfact>
</mgrwt>
</event>
<event>
 4    1  0.1759998E-004  0.2985687E+03  0.7818608E-02  0.1085958E+00
         -2   -1    0    0    0  501 -0.00000000000E+00  0.00000000000E+00  0.61010946392E+01  0.61010946392E+01  0.00000000000E+00 0.  1.
          2   -1    0    0  501    0  0.00000000000E+00 -0.00000000000E+00 -0.36527560297E+04  0.36527560297E+04  0.00000000000E+00 0.  1.
         25    1    1    2    0    0 -0.65236888206E+00 -0.43606868449E+02 -0.27712889850E+04  0.27742286537E+04  0.12000000000E+03 0.  0.
         25    1    1    2    0    0  0.65236888206E+00  0.43606868449E+02 -0.87536595007E+03  0.88462847066E+03  0.12000000000E+03 0.  0.
<mgrwt>
<rscale>  0 0.29856865E+03</rscale>
<asrwt>0</asrwt>
<pdfrwt beam="1">  1        2 0.56196407E+00 0.29856865E+03</pdfrwt>
<pdfrwt beam="2">  1       -2 0.93862726E-03 0.29856865E+03</pdfrwt>
<totfact> 0.18618003E+03</totfact>
</mgrwt>
</event>
<event>
 4    1  0.1759998E-004  0.3125704E+03  0.7818608E-02  0.1079120E+00
          2   -1    0    0  501    0  0.00000000000E+00  0.00000000000E+00  0.38843965525E+03  0.38843965525E+03  0.00000000000E+00 0.  1.
         -2   -1    0    0    0  501 -0.00000000000E+00 -0.00000000000E+00 -0.62879963389E+02  0.62879963389E+02  0.00000000000E+00 0.  1.
         25    1    1    2    0    0  0.25024620247E+02  0.93420059317E+02  0.12536278099E+03  0.19866898590E+03  0.12000000000E+03 0.  0.
         25    1    1    2    0    0 -0.25024620247E+02 -0.93420059317E+02  0.20019691087E+03  0.25265063274E+03  0.12000000000E+03 0.  0.
<mgrwt>
<rscale>  0 0.31257045E+03</rscale>
<asrwt>0</asrwt>
<pdfrwt beam="1">  1        2 0.59759945E-01 0.31257045E+03</pdfrwt>
<pdfrwt beam="2">  1       -2 0.96738408E-02 0.31257045E+03</pdfrwt>
<totfact> 0.57663854E+03</totfact>
</mgrwt>
</event>
<event>
 4    1  0.1759998E-004  0.3150450E+03  0.7818608E-02  0.1077953E+00
          1   -1    0    0  501    0  0.00000000000E+00  0.00000000000E+00  0.15340830710E+03  0.15340830710E+03  0.00000000000E+00 0.  1.
         -1   -1    0    0    0  501 -0.00000000000E+00 -0.00000000000E+00 -0.16174700375E+03  0.16174700375E+03  0.00000000000E+00 0.  1.
         25    1    1    2    0    0  0.86707961456E+02 -0.52955073279E+02  0.53641340521E+01  0.15732540895E+03  0.12000000000E+03 0.  0.
         25    1    1    2    0    0 -0.86707961456E+02  0.52955073279E+02 -0.13702830706E+02  0.15782990190E+03  0.12000000000E+03 0.  0.
<mgrwt>
<rscale>  0 0.31504497E+03</rscale>
<asrwt>0</asrwt>
<pdfrwt beam="1">  1        1 0.23601278E-01 0.31504497E+03</pdfrwt>
<pdfrwt beam="2">  1       -1 0.24884154E-01 0.31504497E+03</pdfrwt>
<totfact> 0.28921717E+03</totfact>
</mgrwt>
</event>
<event>
 4    1  0.1759998E-004  0.2891407E+03  0.7818608E-02  0.1090799E+00
          1   -1    0    0  501    0  0.00000000000E+00  0.00000000000E+00  0.89336046281E+03  0.89336046281E+03  0.00000000000E+00 0.  1.
         -1   -1    0    0    0  501 -0.00000000000E+00 -0.00000000000E+00 -0.23395460585E+02  0.23395460585E+02  0.00000000000E+00 0.  1.
         25    1    1    2    0    0 -0.62746456848E+02  0.27727893973E+02  0.56929965720E+03  0.58583961426E+03  0.12000000000E+03 0.  0.
         25    1    1    2    0    0  0.62746456848E+02 -0.27727893973E+02  0.30066534503E+03  0.33091630913E+03  0.12000000000E+03 0.  0.
<mgrwt>
<rscale>  0 0.28914065E+03</rscale>
<asrwt>0</asrwt>
<pdfrwt beam="1">  1        1 0.13744004E+00 0.28914065E+03</pdfrwt>
<pdfrwt beam="2">  1       -1 0.35993023E-02 0.28914065E+03</pdfrwt>
<totfact> 0.55654010E+03</totfact>
</mgrwt>
</event>
<event>
 4    1  0.1759998E-004  0.3048927E+03  0.7818608E-02  0.1082820E+00
          2   -1    0    0  501    0  0.00000000000E+00  0.00000000000E+00  0.24211253393E+03  0.24211253393E+03  0.00000000000E+00 0.  1.
         -2   -1    0    0    0  501 -0.00000000000E+00 -0.00000000000E+00 -0.95987976288E+02  0.95987976288E+02  0.00000000000E+00 0.  1.
         25    1    1    2    0    0  0.85153318718E+02  0.23903314790E+02  0.37690872236E+02  0.15376299294E+03  0.12000000000E+03 0.  0.
         25    1    1    2    0    0 -0.85153318718E+02 -0.23903314790E+02  0.10843368540E+03  0.18433751728E+03  0.12000000000E+03 0.  0.
<mgrwt>
<rscale>  0 0.30489272E+03</rscale>
<asrwt>0</asrwt>
<pdfrwt beam="1">  1        2 0.37248082E-01 0.30489272E+03</pdfrwt>
<pdfrwt beam="2">  1       -2 0.14767381E-01 0.30489272E+03</pdfrwt>
<totfact> 0.48444904E+03</totfact>
</mgrwt>
</event>
<event>
 4    1  0.1759998E-004  0.2557609E+03  0.7818608E-02  0.1109717E+00
          2   -1    0    0  501    0  0.00000000000E+00  0.00000000000E+00  0.82285201071E+02  0.82285201071E+02  0.00000000000E+00 0. -1.
         -2   -1    0    0    0  501 -0.00000000000E+00 -0.00000000000E+00 -0.19874060336E+03  0.19874060336E+03  0.00000000000E+00 0. -1.
         25    1    1    2    0    0  0.39859239605E+02 -0.17492877817E+02 -0.66642598590E+02  0.14399998508E+03  0.12000000000E+03 0.  0.
         25    1    1    2    0    0 -0.39859239605E+02  0.17492877817E+02 -0.49812803698E+02  0.13702581935E+03  0.12000000000E+03 0.  0.
<mgrwt>
<rscale>  0 0.25576091E+03</rscale>
<asrwt>0</asrwt>
<pdfrwt beam="1">  1        2 0.12659262E-01 0.25576091E+03</pdfrwt>
<pdfrwt beam="2">  1       -2 0.30575477E-01 0.25576091E+03</pdfrwt>
<totfact> 0.46789014E+03</totfact>
</mgrwt>
</event>
<event>
 4    1  0.1759998E-004  0.2454539E+03  0.7818608E-02  0.1116212E+00
         -1   -1    0    0    0  501 -0.00000000000E+00  0.00000000000E+00  0.84545805754E+01  0.84545805754E+01  0.00000000000E+00 0.  1.
          1   -1    0    0  501    0  0.00000000000E+00 -0.00000000000E+00 -0.17815088457E+04  0.17815088457E+04  0.00000000000E+00 0.  1.
         25    1    1    2    0    0  0.37383012276E+01 -0.22952396073E+02 -0.80626939583E+03  0.81548214330E+03  0.12000000000E+03 0.  0.
         25    1    1    2    0    0 -0.37383012276E+01  0.22952396073E+02 -0.96678486930E+03  0.97448128299E+03  0.12000000000E+03 0.  0.
<mgrwt>
<rscale>  0 0.24545395E+03</rscale>
<asrwt>0</asrwt>
<pdfrwt beam="1">  1        1 0.27407868E+00 0.24545395E+03</pdfrwt>
<pdfrwt beam="2">  1       -1 0.13007028E-02 0.24545395E+03</pdfrwt>
<totfact> 0.59988906E+03</totfact>
</mgrwt>
</event>
<event>
 4    1  0.1759998E-004  0.2481693E+03  0.7818608E-02  0.1114467E+00
          3   -1    0    0  501    0  0.00000000000E+00  0.00000000000E+00  0.74966999394E+03  0.74966999394E+03  0.00000000000E+00 0.  1.
         -3   -1    0    0    0  501 -0.00000000000E+00 -0.00000000000E+00 -0.20538374732E+02  0.20538374732E+02  0.00000000000E+00 0.  1.
         25    1    1    2    0    0  0.17035936158E+02 -0.24307101063E+02  0.39798424465E+03  0.41674034755E+03  0.12000000000E+03 0.  0.
         25    1    1    2    0    0 -0.17035936158E+02  0.24307101063E+02  0.33114737456E+03  0.35346802113E+03  0.12000000000E+03 0.  0.
<mgrwt>
<rscale>  0 0.24816932E+03</rscale>
<asrwt>0</asrwt>
<pdfrwt beam="1">  1        3 0.11533382E+00 0.24816932E+03</pdfrwt>
<pdfrwt beam="2">  1       -3 0.31597505E-02 0.24816932E+03</pdfrwt>
<totfact> 0.76847727E+02</totfact>
</mgrwt>
</event>
<event>
 4    1  0.1759998E-004  0.2793569E+03  0.7818608E-02  0.1096041E+00
         -2   -1    0    0    0  501 -0.00000000000E+00  0.00000000000E+00  0.22982494683E+02  0.22982494683E+02  0.00000000000E+00 0. -1.
          2   -1    0    0  501    0  0.00000000000E+00 -0.00000000000E+00 -0.84891018705E+03  0.84891018705E+03  0.00000000000E+00 0. -1.
         25    1    1    2    0    0 -0.66812561730E+02  0.25034989148E+02 -0.39921526540E+03  0.42292256646E+03  0.12000000000E+03 0.  0.
         25    1    1    2    0    0  0.66812561730E+02 -0.25034989148E+02 -0.42671242697E+03  0.44897011528E+03  0.12000000000E+03 0.  0.
<mgrwt>
<rscale>  0 0.27935693E+03</rscale>
<asrwt>0</asrwt>
<pdfrwt beam="1">  1        2 0.13060156E+00 0.27935693E+03</pdfrwt>
<pdfrwt beam="2">  1       -2 0.35357685E-02 0.27935693E+03</pdfrwt>
<totfact> 0.10845494E+04</totfact>
</mgrwt>
</event>
<event>
 4    1  0.1759998E-004  0.2750715E+03  0.7818608E-02  0.1098412E+00
         -2   -1    0    0    0  501 -0.00000000000E+00  0.00000000000E+00  0.43790330929E+02  0.43790330929E+02  0.00000000000E+00 0.  1.
          2   -1    0    0  501    0  0.00000000000E+00 -0.00000000000E+00 -0.43196936189E+03  0.43196936189E+03  0.00000000000E+00 0.  1.
         25    1    1    2    0    0  0.17186449897E+02 -0.42416834794E+02 -0.10897844802E+03  0.16843652830E+03  0.12000000000E+03 0.  0.
         25    1    1    2    0    0 -0.17186449897E+02  0.42416834794E+02 -0.27920058294E+03  0.30732316452E+03  0.12000000000E+03 0.  0.
<mgrwt>
<rscale>  0 0.27507149E+03</rscale>
<asrwt>0</asrwt>
<pdfrwt beam="1">  1        2 0.66456826E-01 0.27507149E+03</pdfrwt>
<pdfrwt beam="2">  1       -2 0.67369739E-02 0.27507149E+03</pdfrwt>
<totfact> 0.90127793E+03</totfact>
</mgrwt>
</event>
<event>
 4    1  0.1759998E-004  0.2499325E+03  0.7818608E-02  0.1113347E+00
          2   -1    0    0  501    0  0.00000000000E+00  0.00000000000E+00  0.11458069733E+03  0.11458069733E+03  0.00000000000E+00 0. -1.
         -2   -1    0    0    0  501 -0.00000000000E+00 -0.00000000000E+00 -0.13629313280E+03  0.13629313280E+03  0.00000000000E+00 0. -1.
         25    1    1    2    0    0  0.95359201335E+01 -0.31226099287E+02 -0.23172686818E+02  0.12650287137E+03  0.12000000000E+03 0.  0.
         25    1    1    2    0    0 -0.95359201335E+01  0.31226099287E+02  0.14602513513E+01  0.12437095876E+03  0.12000000000E+03 0.  0.
<mgrwt>
<rscale>  0 0.24993249E+03</rscale>
<asrwt>0</asrwt>
<pdfrwt beam="1">  1        2 0.17627800E-01 0.24993249E+03</pdfrwt>
<pdfrwt beam="2">  1       -2 0.20968174E-01 0.24993249E+03</pdfrwt>
<totfact> 0.61501749E+03</totfact>
</mgrwt>
</event>
<event>
 4    1  0.1759998E-004  0.3308736E+03  0.7818608E-02  0.1070751E+00
         -2   -1    0    0    0  501 -0.00000000000E+00  0.00000000000E+00  0.16351367149E+02  0.16351367149E+02  0.00000000000E+00 0. -1.
          2   -1    0    0  501    0  0.00000000000E+00 -0.00000000000E+00 -0.16738259270E+04  0.16738259270E+04  0.00000000000E+00 0. -1.
         25    1    1    2    0    0 -0.11353635526E+03 -0.81091847737E+01 -0.81026312671E+03  0.82697194471E+03  0.12000000000E+03 0.  0.
         25    1    1    2    0    0  0.11353635526E+03  0.81091847737E+01 -0.84721143314E+03  0.86320534943E+03  0.12000000000E+03 0.  0.
<mgrwt>
<rscale>  0 0.33087365E+03</rscale>
<asrwt>0</asrwt>
<pdfrwt beam="1">  1        2 0.25751173E+00 0.33087365E+03</pdfrwt>
<pdfrwt beam="2">  1       -2 0.25155944E-02 0.33087365E+03</pdfrwt>
<totfact> 0.60826467E+03</totfact>
</mgrwt>
</event>
<event>
 4    1  0.1759998E-004  0.2939619E+03  0.7818608E-02  0.1088299E+00
          1   -1    0    0  501    0  0.00000000000E+00  0.00000000000E+00  0.21242468229E+03  0.21242468229E+03  0.00000000000E+00 0. -1.
         -1   -1    0    0    0  501 -0.00000000000E+00 -0.00000000000E+00 -0.10169912786E+03  0.10169912786E+03  0.00000000000E+00 0. -1.
         25    1    1    2    0    0  0.64900635762E+02 -0.54020900478E+02  0.46229347719E+02  0.15384246098E+03  0.12000000000E+03 0.  0.
         25    1    1    2    0    0 -0.64900635762E+02  0.54020900478E+02  0.64496206710E+02  0.16028134917E+03  0.12000000000E+03 0.  0.
<mgrwt>
<rscale>  0 0.29396194E+03</rscale>
<asrwt>0</asrwt>
<pdfrwt beam="1">  1        1 0.32680720E-01 0.29396194E+03</pdfrwt>
<pdfrwt beam="2">  1       -1 0.15646020E-01 0.29396194E+03</pdfrwt>
<totfact> 0.40667914E+03</totfact>
</mgrwt>
</event>
<event>
 4    1  0.1759998E-004  0.3181244E+03  0.7818608E-02  0.1076516E+00
          2   -1    0    0  501    0  0.00000000000E+00  0.00000000000E+00  0.54558736825E+02  0.54558736825E+02  0.00000000000E+00 0.  1.
         -2   -1    0    0    0  501 -0.00000000000E+00 -0.00000000000E+00 -0.46373481024E+03  0.46373481024E+03  0.00000000000E+00 0.  1.
         25    1    1    2    0    0 -0.72275817376E+02  0.68826790960E+02 -0.25453526990E+03  0.29857850652E+03  0.12000000000E+03 0.  0.
         25    1    1    2    0    0  0.72275817376E+02 -0.68826790960E+02 -0.15464080351E+03  0.21971504055E+03  0.12000000000E+03 0.  0.
<mgrwt>
<rscale>  0 0.31812441E+03</rscale>
<asrwt>0</asrwt>
<pdfrwt beam="1">  1        2 0.83936515E-02 0.31812441E+03</pdfrwt>
<pdfrwt beam="2">  1       -2 0.71343819E-01 0.31812441E+03</pdfrwt>
<totfact> 0.14686460E+03</totfact>
</mgrwt>
</event>
<event>
 4    1  0.1759998E-004  0.2661778E+03  0.7818608E-02  0.1103487E+00
          1   -1    0    0  501    0  0.00000000000E+00  0.00000000000E+00  0.29457566564E+02  0.29457566564E+02  0.00000000000E+00 0.  1.
         -1   -1    0    0    0  501 -0.00000000000E+00 -0.00000000000E+00 -0.60129408571E+03  0.60129408571E+03  0.00000000000E+00 0.  1.
         25    1    1    2    0    0 -0.46204817185E+02 -0.23474572255E+02 -0.34524127754E+03  0.36915779877E+03  0.12000000000E+03 0.  0.
         25    1    1    2    0    0  0.46204817185E+02  0.23474572255E+02 -0.22659524161E+03  0.26159385351E+03  0.12000000000E+03 0.  0.
<mgrwt>
<rscale>  0 0.26617784E+03</rscale>
<asrwt>0</asrwt>
<pdfrwt beam="1">  1        1 0.45319337E-02 0.26617784E+03</pdfrwt>
<pdfrwt beam="2">  1       -1 0.92506774E-01 0.26617784E+03</pdfrwt>
<totfact> 0.22796102E+03</totfact>
</mgrwt>
</event>
<event>
 4    1  0.1759998E-004  0.2546423E+03  0.7818608E-02  0.1110406E+00
         -1   -1    0    0    0  501 -0.00000000000E+00  0.00000000000E+00  0.77672340913E+01  0.77672340913E+01  0.00000000000E+00 0.  1.
          1   -1    0    0  501    0  0.00000000000E+00 -0.00000000000E+00 -0.20870586536E+04  0.20870586536E+04  0.00000000000E+00 0.  1.
         25    1    1    2    0    0 -0.93922877936E+01 -0.40941634077E+02 -0.10955866029E+04  0.11029389996E+04  0.12000000000E+03 0.  0.
         25    1    1    2    0    0  0.93922877936E+01  0.40941634077E+02 -0.98370481661E+03  0.99188688806E+03  0.12000000000E+03 0.  0.
<mgrwt>
<rscale>  0 0.25464228E+03</rscale>
<asrwt>0</asrwt>
<pdfrwt beam="1">  1        1 0.32108594E+00 0.25464228E+03</pdfrwt>
<pdfrwt beam="2">  1       -1 0.11949591E-02 0.25464228E+03</pdfrwt>
<totfact> 0.43013909E+03</totfact>
</mgrwt>
</event>
<event>
 4    1  0.1759998E-004  0.3183605E+03  0.7818608E-02  0.1076406E+00
         -2   -1    0    0    0  501 -0.00000000000E+00  0.00000000000E+00  0.57376091899E+02  0.57376091899E+02  0.00000000000E+00 0. -1.
          2   -1    0    0  501    0  0.00000000000E+00 -0.00000000000E+00 -0.44161867652E+03  0.44161867652E+03  0.00000000000E+00 0. -1.
         25    1    1    2    0    0 -0.13969931469E+02  0.84095305713E+02 -0.28708973220E+03  0.32262624469E+03  0.12000000000E+03 0.  0.
         25    1    1    2    0    0  0.13969931469E+02 -0.84095305713E+02 -0.97152852419E+02  0.17636852373E+03  0.12000000000E+03 0.  0.
<mgrwt>
<rscale>  0 0.31836051E+03</rscale>
<asrwt>0</asrwt>
<pdfrwt beam="1">  1        2 0.67941335E-01 0.31836051E+03</pdfrwt>
<pdfrwt beam="2">  1       -2 0.88270910E-02 0.31836051E+03</pdfrwt>
<totfact> 0.57953782E+03</totfact>
</mgrwt>
</event>
<event>
 4    1  0.1759998E-004  0.2656461E+03  0.7818608E-02  0.1103798E+00
         -1   -1    0    0    0  501 -0.00000000000E+00  0.00000000000E+00  0.16233930338E+03  0.16233930338E+03  0.00000000000E+00 0. -1.
          1   -1    0    0  501    0  0.00000000000E+00 -0.00000000000E+00 -0.10867340820E+03  0.10867340820E+03  0.00000000000E+00 0. -1.
         25    1    1    2    0    0 -0.38511192786E+02 -0.26012376889E+02 -0.67285928742E+01  0.12886050475E+03  0.12000000000E+03 0.  0.
         25    1    1    2    0    0  0.38511192786E+02  0.26012376889E+02  0.60394488048E+02  0.14215220683E+03  0.12000000000E+03 0.  0.
<mgrwt>
<rscale>  0 0.26564612E+03</rscale>
<asrwt>0</asrwt>
<pdfrwt beam="1">  1        1 0.16718986E-01 0.26564612E+03</pdfrwt>
<pdfrwt beam="2">  1       -1 0.24975277E-01 0.26564612E+03</pdfrwt>
<totfact> 0.44675074E+03</totfact>
</mgrwt>
</event>
<event>
 4    1  0.1759998E-004  0.3052905E+03  0.7818608E-02  0.1082625E+00
         -1   -1    0    0    0  501 -0.00000000000E+00  0.00000000000E+00  0.15753216746E+02  0.15753216746E+02  0.00000000000E+00 0.  1.
          1   -1    0    0  501    0  0.00000000000E+00 -0.00000000000E+00 -0.14790995917E+04  0.14790995917E+04  0.00000000000E+00 0.  1.
         25    1    1    2    0    0  0.93169426530E+02  0.10668926538E+02 -0.68121117272E+03  0.69802795780E+03  0.12000000000E+03 0.  0.
         25    1    1    2    0    0 -0.93169426530E+02 -0.10668926538E+02 -0.78213520226E+03  0.79682485067E+03  0.12000000000E+03 0.  0.
<mgrwt>
<rscale>  0 0.30529053E+03</rscale>
<asrwt>0</asrwt>
<pdfrwt beam="1">  1        1 0.22755373E+00 0.30529053E+03</pdfrwt>
<pdfrwt beam="2">  1       -1 0.24235724E-02 0.30529053E+03</pdfrwt>
<totfact> 0.38241342E+03</totfact>
</mgrwt>
</event>
<event>
 4    1  0.1759998E-004  0.3658261E+03  0.7818608E-02  0.1056300E+00
         -1   -1    0    0    0  501 -0.00000000000E+00  0.00000000000E+00  0.49127318483E+03  0.49127318483E+03  0.00000000000E+00 0. -1.
          1   -1    0    0  501    0  0.00000000000E+00 -0.00000000000E+00 -0.68103014023E+02  0.68103014023E+02  0.00000000000E+00 0. -1.
         25    1    1    2    0    0 -0.37583594296E+02  0.12057864984E+03  0.29679524309E+03  0.34414990001E+03  0.12000000000E+03 0.  0.
         25    1    1    2    0    0  0.37583594296E+02 -0.12057864984E+03  0.12637492772E+03  0.21522629885E+03  0.12000000000E+03 0.  0.
<mgrwt>
<rscale>  0 0.36582610E+03</rscale>
<asrwt>0</asrwt>
<pdfrwt beam="1">  1        1 0.10477387E-01 0.36582610E+03</pdfrwt>
<pdfrwt beam="2">  1       -1 0.75580488E-01 0.36582610E+03</pdfrwt>
<totfact> 0.11089432E+03</totfact>
</mgrwt>
</event>
<event>
 4    1  0.1759998E-004  0.2670287E+03  0.7818608E-02  0.1102992E+00
          2   -1    0    0  501    0  0.00000000000E+00  0.00000000000E+00  0.25574374639E+04  0.25574374639E+04  0.00000000000E+00 0.  1.
         -2   -1    0    0    0  501 -0.00000000000E+00 -0.00000000000E+00 -0.69702877973E+01  0.69702877973E+01  0.00000000000E+00 0.  1.
         25    1    1    2    0    0  0.22613133339E+02 -0.13292667002E+02  0.17777474318E+04  0.17819859652E+04  0.12000000000E+03 0.  0.
         25    1    1    2    0    0 -0.22613133339E+02  0.13292667002E+02  0.77271974429E+03  0.78242178652E+03  0.12000000000E+03 0.  0.
<mgrwt>
<rscale>  0 0.26702865E+03</rscale>
<asrwt>0</asrwt>
<pdfrwt beam="1">  1        2 0.39345117E+00 0.26702865E+03</pdfrwt>
<pdfrwt beam="2">  1       -2 0.10723540E-02 0.26702865E+03</pdfrwt>
<totfact> 0.71827621E+03</totfact>
</mgrwt>
</event>
<event>
 4    1  0.1759998E-004  0.2502594E+03  0.7818608E-02  0.1113141E+00
         -2   -1    0    0    0  501 -0.00000000000E+00  0.00000000000E+00  0.21083345449E+02  0.21083345449E+02  0.00000000000E+00 0. -1.
          2   -1    0    0  501    0  0.00000000000E+00 -0.00000000000E+00 -0.74264503209E+03  0.74264503209E+03  0.00000000000E+00 0. -1.
         25    1    1    2    0    0  0.74356799789E+01 -0.26320414678E+02 -0.42965764406E+03  0.44693818886E+03  0.12000000000E+03 0.  0.
         25    1    1    2    0    0 -0.74356799789E+01  0.26320414678E+02 -0.29190404258E+03  0.31679018867E+03  0.12000000000E+03 0.  0.
<mgrwt>
<rscale>  0 0.25025940E+03</rscale>
<asrwt>0</asrwt>
<pdfrwt beam="1">  1        2 0.11425308E+00 0.25025940E+03</pdfrwt>
<pdfrwt beam="2">  1       -2 0.32435917E-02 0.25025940E+03</pdfrwt>
<totfact> 0.14554630E+04</totfact>
</mgrwt>
</event>
<event>
 4    1  0.1759998E-004  0.2558628E+03  0.7818608E-02  0.1109655E+00
         -2   -1    0    0    0  501 -0.00000000000E+00  0.00000000000E+00  0.29383001401E+02  0.29383001401E+02  0.00000000000E+00 0. -1.
          2   -1    0    0  501    0  0.00000000000E+00 -0.00000000000E+00 -0.55700391200E+03  0.55700391200E+03  0.00000000000E+00 0. -1.
         25    1    1    2    0    0  0.34234062962E+02  0.20059395744E+01 -0.32824441005E+03  0.35117002661E+03  0.12000000000E+03 0.  0.
         25    1    1    2    0    0 -0.34234062962E+02 -0.20059395744E+01 -0.19937650055E+03  0.23521688679E+03  0.12000000000E+03 0.  0.
<mgrwt>
<rscale>  0 0.25586283E+03</rscale>
<asrwt>0</asrwt>
<pdfrwt beam="1">  1        2 0.85692910E-01 0.25586283E+03</pdfrwt>
<pdfrwt beam="2">  1       -2 0.45204617E-02 0.25586283E+03</pdfrwt>
<totfact> 0.12444308E+04</totfact>
</mgrwt>
</event>
<event>
 4    1  0.1759998E-004  0.2453698E+03  0.7818608E-02  0.1116266E+00
          2   -1    0    0  501    0  0.00000000000E+00  0.00000000000E+00  0.15640040840E+04  0.15640040840E+04  0.00000000000E+00 0.  1.
         -2   -1    0    0    0  501 -0.00000000000E+00 -0.00000000000E+00 -0.96237491686E+01  0.96237491686E+01  0.00000000000E+00 0.  1.
         25    1    1    2    0    0  0.22779258525E+02 -0.11508894001E+02  0.77408953809E+03  0.78375121196E+03  0.12000000000E+03 0.  0.
         25    1    1    2    0    0 -0.22779258525E+02  0.11508894001E+02  0.78029079669E+03  0.78987662117E+03  0.12000000000E+03 0.  0.
<mgrwt>
<rscale>  0 0.24536979E+03</rscale>
<asrwt>0</asrwt>
<pdfrwt beam="1">  1        2 0.24061581E+00 0.24536979E+03</pdfrwt>
<pdfrwt beam="2">  1       -2 0.14805780E-02 0.24536979E+03</pdfrwt>
<totfact> 0.15105523E+04</totfact>
</mgrwt>
</event>
<event>
 4    1  0.1759998E-004  0.2865653E+03  0.7818608E-02  0.1092156E+00
          2   -1    0    0  501    0  0.00000000000E+00  0.00000000000E+00  0.16744347739E+04  0.16744347739E+04  0.00000000000E+00 0. -1.
         -2   -1    0    0    0  501 -0.00000000000E+00 -0.00000000000E+00 -0.12260808043E+02  0.12260808043E+02  0.00000000000E+00 0. -1.
         25    1    1    2    0    0  0.50810809912E+02 -0.54337199501E+02  0.97473841690E+03  0.98491078328E+03  0.12000000000E+03 0.  0.
         25    1    1    2    0    0 -0.50810809912E+02  0.54337199501E+02  0.68743554895E+03  0.70178479864E+03  0.12000000000E+03 0.  0.
<mgrwt>
<rscale>  0 0.28656534E+03</rscale>
<asrwt>0</asrwt>
<pdfrwt beam="1">  1        2 0.25760517E+00 0.28656534E+03</pdfrwt>
<pdfrwt beam="2">  1       -2 0.18862795E-02 0.28656534E+03</pdfrwt>
<totfact> 0.92944333E+03</totfact>
</mgrwt>
</event>
<event>
 4    1  0.1759998E-004  0.3249212E+03  0.7818608E-02  0.1073406E+00
          2   -1    0    0  501    0  0.00000000000E+00  0.00000000000E+00  0.65577167372E+02  0.65577167372E+02  0.00000000000E+00 0. -1.
         -2   -1    0    0    0  501 -0.00000000000E+00 -0.00000000000E+00 -0.40247924646E+03  0.40247924646E+03  0.00000000000E+00 0. -1.
         25    1    1    2    0    0  0.10923830323E+03 -0.74700488040E+01 -0.17155414974E+03  0.23626179297E+03  0.12000000000E+03 0.  0.
         25    1    1    2    0    0 -0.10923830323E+03  0.74700488040E+01 -0.16534792935E+03  0.23179462087E+03  0.12000000000E+03 0.  0.
<mgrwt>
<rscale>  0 0.32492121E+03</rscale>
<asrwt>0</asrwt>
<pdfrwt beam="1">  1        2 0.10088795E-01 0.32492121E+03</pdfrwt>
<pdfrwt beam="2">  1       -2 0.61919883E-01 0.32492121E+03</pdfrwt>
<totfact> 0.15746045E+03</totfact>
</mgrwt>
</event>
<event>
 4    1  0.1759998E-004  0.2934168E+03  0.7818608E-02  0.1088579E+00
          2   -1    0    0  501    0  0.00000000000E+00  0.00000000000E+00  0.11527737823E+04  0.11527737823E+04  0.00000000000E+00 0.  1.
         -2   -1    0    0    0  501 -0.00000000000E+00 -0.00000000000E+00 -0.18670921101E+02  0.18670921101E+02  0.00000000000E+00 0.  1.
         25    1    1    2    0    0  0.79871806370E+02  0.46608847523E+01  0.45976586933E+03  0.48185670473E+03  0.12000000000E+03 0.  0.
         25    1    1    2    0    0 -0.79871806370E+02 -0.46608847523E+01  0.67433699191E+03  0.68958799870E+03  0.12000000000E+03 0.  0.
<mgrwt>
<rscale>  0 0.29341676E+03</rscale>
<asrwt>0</asrwt>
<pdfrwt beam="1">  1        2 0.17734976E+00 0.29341676E+03</pdfrwt>
<pdfrwt beam="2">  1       -2 0.28724503E-02 0.29341676E+03</pdfrwt>
<totfact> 0.96208315E+03</totfact>
</mgrwt>
</event>
<event>
 4    1  0.1759998E-004  0.3538795E+03  0.7818608E-02  0.1061034E+00
         -1   -1    0    0    0  501 -0.00000000000E+00  0.00000000000E+00  0.46777646707E+02  0.46777646707E+02  0.00000000000E+00 0. -1.
          1   -1    0    0  501    0  0.00000000000E+00 -0.00000000000E+00 -0.66928727302E+03  0.66928727302E+03  0.00000000000E+00 0. -1.
         25    1    1    2    0    0 -0.56250624841E+01 -0.12906289117E+03 -0.34118661740E+03  0.38405361488E+03  0.12000000000E+03 0.  0.
         25    1    1    2    0    0  0.56250624841E+01  0.12906289117E+03 -0.28132300891E+03  0.33201130485E+03  0.12000000000E+03 0.  0.
<mgrwt>
<rscale>  0 0.35387955E+03</rscale>
<asrwt>0</asrwt>
<pdfrwt beam="1">  1        1 0.10296727E+00 0.35387955E+03</pdfrwt>
<pdfrwt beam="2">  1       -1 0.71965613E-02 0.35387955E+03</pdfrwt>
<totfact> 0.30578189E+03</totfact>
</mgrwt>
</event>
<event>
 4    1  0.1759998E-004  0.3120273E+03  0.7818608E-02  0.1079378E+00
         -1   -1    0    0    0  501 -0.00000000000E+00  0.00000000000E+00  0.44874840054E+02  0.44874840054E+02  0.00000000000E+00 0. -1.
          1   -1    0    0  501    0  0.00000000000E+00 -0.00000000000E+00 -0.54240322757E+03  0.54240322757E+03  0.00000000000E+00 0. -1.
         25    1    1    2    0    0  0.73565300649E+02  0.57122720040E+02 -0.31571642000E+03  0.35035941041E+03  0.12000000000E+03 0.  0.
         25    1    1    2    0    0 -0.73565300649E+02 -0.57122720040E+02 -0.18181196751E+03  0.23691865721E+03  0.12000000000E+03 0.  0.
<mgrwt>
<rscale>  0 0.31202729E+03</rscale>
<asrwt>0</asrwt>
<pdfrwt beam="1">  1        1 0.83446645E-01 0.31202729E+03</pdfrwt>
<pdfrwt beam="2">  1       -1 0.69038220E-02 0.31202729E+03</pdfrwt>
<totfact> 0.43661014E+03</totfact>
</mgrwt>
</event>
<event>
 4    1  0.1759998E-004  0.2860028E+03  0.7818608E-02  0.1092455E+00
         -2   -1    0    0    0  501 -0.00000000000E+00  0.00000000000E+00  0.24479028830E+02  0.24479028830E+02  0.00000000000E+00 0. -1.
          2   -1    0    0  501    0  0.00000000000E+00 -0.00000000000E+00 -0.83538455071E+03  0.83538455071E+03  0.00000000000E+00 0. -1.
         25    1    1    2    0    0 -0.12798260301E+01 -0.75622984463E+02 -0.45997958158E+03  0.48135401650E+03  0.12000000000E+03 0.  0.
         25    1    1    2    0    0  0.12798260301E+01  0.75622984463E+02 -0.35092594030E+03  0.37850956303E+03  0.12000000000E+03 0.  0.
<mgrwt>
<rscale>  0 0.28600281E+03</rscale>
<asrwt>0</asrwt>
<pdfrwt beam="1">  1        2 0.12852070E+00 0.28600281E+03</pdfrwt>
<pdfrwt beam="2">  1       -2 0.37660043E-02 0.28600281E+03</pdfrwt>
<totfact> 0.10082183E+04</totfact>
</mgrwt>
</event>
<event>
 4    1  0.1759998E-004  0.2754740E+03  0.7818608E-02  0.1098187E+00
          2   -1    0    0  501    0  0.00000000000E+00  0.00000000000E+00  0.31324297532E+03  0.31324297532E+03  0.00000000000E+00 0. -1.
         -2   -1    0    0    0  501 -0.00000000000E+00 -0.00000000000E+00 -0.60564746131E+02  0.60564746131E+02  0.00000000000E+00 0. -1.
         25    1    1    2    0    0  0.40594995048E+02  0.44622735154E+02  0.16777290023E+03  0.21491134956E+03  0.12000000000E+03 0.  0.
         25    1    1    2    0    0 -0.40594995048E+02 -0.44622735154E+02  0.84905328952E+02  0.15889637189E+03  0.12000000000E+03 0.  0.
<mgrwt>
<rscale>  0 0.27547400E+03</rscale>
<asrwt>0</asrwt>
<pdfrwt beam="1">  1        2 0.48191226E-01 0.27547400E+03</pdfrwt>
<pdfrwt beam="2">  1       -2 0.93176535E-02 0.27547400E+03</pdfrwt>
<totfact> 0.76923091E+03</totfact>
</mgrwt>
</event>
<event>
 4    1  0.1759998E-004  0.3012225E+03  0.7818608E-02  0.1084631E+00
         -1   -1    0    0    0  501 -0.00000000000E+00  0.00000000000E+00  0.13366459926E+04  0.13366459926E+04  0.00000000000E+00 0. -1.
          1   -1    0    0  501    0  0.00000000000E+00 -0.00000000000E+00 -0.16970652775E+02  0.16970652775E+02  0.00000000000E+00 0. -1.
         25    1    1    2    0    0 -0.20127610602E+02  0.88557572798E+02  0.63280392546E+03  0.65045243676E+03  0.12000000000E+03 0.  0.
         25    1    1    2    0    0  0.20127610602E+02 -0.88557572798E+02  0.68687141438E+03  0.70316420864E+03  0.12000000000E+03 0.  0.
<mgrwt>
<rscale>  0 0.30122254E+03</rscale>
<asrwt>0</asrwt>
<pdfrwt beam="1">  1        1 0.26108707E-02 0.30122254E+03</pdfrwt>
<pdfrwt beam="2">  1       -1 0.20563776E+00 0.30122254E+03</pdfrwt>
<totfact> 0.63556451E+02</totfact>
</mgrwt>
</event>
<event>
 4    1  0.1759998E-004  0.6102785E+03  0.7818608E-02  0.9884308E-01
          2   -1    0    0  501    0  0.00000000000E+00  0.00000000000E+00  0.98026739143E+03  0.98026739143E+03  0.00000000000E+00 0.  1.
         -2   -1    0    0    0  501 -0.00000000000E+00 -0.00000000000E+00 -0.94984249929E+02  0.94984249929E+02  0.00000000000E+00 0.  1.
         25    1    1    2    0    0 -0.12871499807E+03 -0.13756225701E+03  0.76356188021E+02  0.23605336839E+03  0.12000000000E+03 0.  0.
         25    1    1    2    0    0  0.12871499807E+03  0.13756225701E+03  0.80892695348E+03  0.83919827297E+03  0.12000000000E+03 0.  0.
<mgrwt>
<rscale>  0 0.61027850E+03</rscale>
<asrwt>0</asrwt>
<pdfrwt beam="1">  1        2 0.15081036E+00 0.61027850E+03</pdfrwt>
<pdfrwt beam="2">  1       -2 0.14612962E-01 0.61027850E+03</pdfrwt>
<totfact> 0.95716919E+02</totfact>
</mgrwt>
</event>
<event>
 4    1  0.1759998E-004  0.2530994E+03  0.7818608E-02  0.1111362E+00
          2   -1    0    0  501    0  0.00000000000E+00  0.00000000000E+00  0.16889395190E+04  0.16889395190E+04  0.00000000000E+00 0.  1.
         -2   -1    0    0    0  501 -0.00000000000E+00 -0.00000000000E+00 -0.94821771934E+01  0.94821771934E+01  0.00000000000E+00 0.  1.
         25    1    1    2    0    0 -0.37380610652E+01 -0.13781443647E+02  0.10917898889E+04  0.10984575835E+04  0.12000000000E+03 0.  0.
         25    1    1    2    0    0  0.37380610652E+01  0.13781443647E+02  0.58766745291E+03  0.59996411268E+03  0.12000000000E+03 0.  0.
<mgrwt>
<rscale>  0 0.25309938E+03</rscale>
<asrwt>0</asrwt>
<pdfrwt beam="1">  1        2 0.25983661E+00 0.25309938E+03</pdfrwt>
<pdfrwt beam="2">  1       -2 0.14587978E-02 0.25309938E+03</pdfrwt>
<totfact> 0.13275271E+04</totfact>
</mgrwt>
</event>
<event>
 4    1  0.1759998E-004  0.3136391E+03  0.7818608E-02  0.1078615E+00
         -2   -1    0    0    0  501 -0.00000000000E+00  0.00000000000E+00  0.13312254009E+02  0.13312254009E+02  0.00000000000E+00 0.  1.
          2   -1    0    0  501    0  0.00000000000E+00 -0.00000000000E+00 -0.18473488537E+04  0.18473488537E+04  0.00000000000E+00 0.  1.
         25    1    1    2    0    0 -0.14796178873E+02  0.96958915547E+02 -0.77508181743E+03  0.79042506408E+03  0.12000000000E+03 0.  0.
         25    1    1    2    0    0  0.14796178873E+02 -0.96958915547E+02 -0.10589547823E+04  0.10702360436E+04  0.12000000000E+03 0.  0.
<mgrwt>
<rscale>  0 0.31363914E+03</rscale>
<asrwt>0</asrwt>
<pdfrwt beam="1">  1        2 0.28420761E+00 0.31363914E+03</pdfrwt>
<pdfrwt beam="2">  1       -2 0.20480384E-02 0.31363914E+03</pdfrwt>
<totfact> 0.66782666E+03</totfact>
</mgrwt>
</event>
<event>
 4    1  0.1759998E-004  0.2472407E+03  0.7818608E-02  0.1115061E+00
         -3   -1    0    0    0  501 -0.00000000000E+00  0.00000000000E+00  0.43562968056E+02  0.43562968056E+02  0.00000000000E+00 0. -1.
          3   -1    0    0  501    0  0.00000000000E+00 -0.00000000000E+00 -0.35080221749E+03  0.35080221749E+03  0.00000000000E+00 0. -1.
         25    1    1    2    0    0 -0.17075115390E+02  0.23737137944E+02 -0.14533533140E+03  0.19072852392E+03  0.12000000000E+03 0.  0.
         25    1    1    2    0    0  0.17075115390E+02 -0.23737137944E+02 -0.16190391804E+03  0.20363666163E+03  0.12000000000E+03 0.  0.
<mgrwt>
<rscale>  0 0.24724066E+03</rscale>
<asrwt>0</asrwt>
<pdfrwt beam="1">  1        3 0.53969573E-01 0.24724066E+03</pdfrwt>
<pdfrwt beam="2">  1       -3 0.67019949E-02 0.24724066E+03</pdfrwt>
<totfact> 0.12253891E+03</totfact>
</mgrwt>
</event>
<event>
 4    1  0.1759998E-004  0.2556565E+03  0.7818608E-02  0.1109781E+00
          2   -1    0    0  501    0  0.00000000000E+00  0.00000000000E+00  0.10861311554E+04  0.10861311554E+04  0.00000000000E+00 0.  1.
         -2   -1    0    0    0  501 -0.00000000000E+00 -0.00000000000E+00 -0.15044280254E+02  0.15044280254E+02  0.00000000000E+00 0.  1.
         25    1    1    2    0    0  0.25165543496E+02 -0.54412795300E+01  0.68947246531E+03  0.70031078281E+03  0.12000000000E+03 0.  0.
         25    1    1    2    0    0 -0.25165543496E+02  0.54412795300E+01  0.38161440983E+03  0.40086465283E+03  0.12000000000E+03 0.  0.
<mgrwt>
<rscale>  0 0.25565650E+03</rscale>
<asrwt>0</asrwt>
<pdfrwt beam="1">  1        2 0.16709704E+00 0.25565650E+03</pdfrwt>
<pdfrwt beam="2">  1       -2 0.23145055E-02 0.25565650E+03</pdfrwt>
<totfact> 0.14429476E+04</totfact>
</mgrwt>
</event>
<event>
 4    1  0.1759998E-004  0.2876953E+03  0.7818608E-02  0.1091559E+00
          2   -1    0    0  501    0  0.00000000000E+00  0.00000000000E+00  0.61551504693E+02  0.61551504693E+02  0.00000000000E+00 0. -1.
         -2   -1    0    0    0  501 -0.00000000000E+00 -0.00000000000E+00 -0.33617615476E+03  0.33617615476E+03  0.00000000000E+00 0. -1.
         25    1    1    2    0    0  0.10015864659E+02  0.74698035620E+02 -0.17151348359E+03  0.22247918807E+03  0.12000000000E+03 0.  0.
         25    1    1    2    0    0 -0.10015864659E+02 -0.74698035620E+02 -0.10311116647E+03  0.17524847138E+03  0.12000000000E+03 0.  0.
<mgrwt>
<rscale>  0 0.28769531E+03</rscale>
<asrwt>0</asrwt>
<pdfrwt beam="1">  1        2 0.94694623E-02 0.28769531E+03</pdfrwt>
<pdfrwt beam="2">  1       -2 0.51719408E-01 0.28769531E+03</pdfrwt>
<totfact> 0.24590185E+03</totfact>
</mgrwt>
</event>
<event>
 4    1  0.1759998E-004  0.2723512E+03  0.7818608E-02  0.1099941E+00
         -1   -1    0    0    0  501 -0.00000000000E+00  0.00000000000E+00  0.11644114037E+02  0.11644114037E+02  0.00000000000E+00 0. -1.
          1   -1    0    0  501    0  0.00000000000E+00 -0.00000000000E+00 -0.15925461131E+04  0.15925461131E+04  0.00000000000E+00 0. -1.
         25    1    1    2    0    0  0.41484197873E+02  0.29619520632E+02 -0.55888974089E+03  0.57389545838E+03  0.12000000000E+03 0.  0.
         25    1    1    2    0    0 -0.41484197873E+02 -0.29619520632E+02 -0.10220122582E+04  0.10302947688E+04  0.12000000000E+03 0.  0.
<mgrwt>
<rscale>  0 0.27235116E+03</rscale>
<asrwt>0</asrwt>
<pdfrwt beam="1">  1        1 0.24500701E+00 0.27235116E+03</pdfrwt>
<pdfrwt beam="2">  1       -1 0.17914028E-02 0.27235116E+03</pdfrwt>
<totfact> 0.50076771E+03</totfact>
</mgrwt>
</event>
<event>
 4    1  0.1759998E-004  0.2953006E+03  0.7818608E-02  0.1087614E+00
         -2   -1    0    0    0  501 -0.00000000000E+00  0.00000000000E+00  0.13028781513E+02  0.13028781513E+02  0.00000000000E+00 0. -1.
          2   -1    0    0  501    0  0.00000000000E+00 -0.00000000000E+00 -0.16732657509E+04  0.16732657509E+04  0.00000000000E+00 0. -1.
         25    1    1    2    0    0  0.53317157785E+02  0.47912679471E+02 -0.55851129290E+03  0.57573710012E+03  0.12000000000E+03 0.  0.
         25    1    1    2    0    0 -0.53317157785E+02 -0.47912679471E+02 -0.11017256765E+04  0.11105574323E+04  0.12000000000E+03 0.  0.
<mgrwt>
<rscale>  0 0.29530062E+03</rscale>
<asrwt>0</asrwt>
<pdfrwt beam="1">  1        2 0.25742553E+00 0.29530062E+03</pdfrwt>
<pdfrwt beam="2">  1       -2 0.20044277E-02 0.29530062E+03</pdfrwt>
<totfact> 0.85143183E+03</totfact>
</mgrwt>
</event>
<event>
 4    1  0.1759998E-004  0.2894195E+03  0.7818608E-02  0.1090653E+00
          1   -1    0    0  501    0  0.00000000000E+00  0.00000000000E+00  0.20080369143E+04  0.20080369143E+04  0.00000000000E+00 0.  1.
         -1   -1    0    0    0  501 -0.00000000000E+00 -0.00000000000E+00 -0.10428552255E+02  0.10428552255E+02  0.00000000000E+00 0.  1.
         25    1    1    2    0    0  0.46788832215E+02  0.59030942161E+02  0.12041665125E+04  0.12124730251E+04  0.12000000000E+03 0.  0.
         25    1    1    2    0    0 -0.46788832215E+02 -0.59030942161E+02  0.79344184959E+03  0.80599244143E+03  0.12000000000E+03 0.  0.
<mgrwt>
<rscale>  0 0.28941954E+03</rscale>
<asrwt>0</asrwt>
<pdfrwt beam="1">  1        1 0.30892845E+00 0.28941954E+03</pdfrwt>
<pdfrwt beam="2">  1       -1 0.16043943E-02 0.28941954E+03</pdfrwt>
<totfact> 0.31534383E+03</totfact>
</mgrwt>
</event>
<event>
 4    1  0.1759998E-004  0.2759581E+03  0.7818608E-02  0.1097917E+00
         -2   -1    0    0    0  501 -0.00000000000E+00  0.00000000000E+00  0.27010497616E+02  0.27010497616E+02  0.00000000000E+00 0. -1.
          2   -1    0    0  501    0  0.00000000000E+00 -0.00000000000E+00 -0.70484520211E+03  0.70484520211E+03  0.00000000000E+00 0. -1.
         25    1    1    2    0    0  0.15292193478E+02 -0.80472480470E+01 -0.16421141623E+03  0.20411760973E+03  0.12000000000E+03 0.  0.
         25    1    1    2    0    0 -0.15292193478E+02  0.80472480470E+01 -0.51362328827E+03  0.52773809000E+03  0.12000000000E+03 0.  0.
<mgrwt>
<rscale>  0 0.27595811E+03</rscale>
<asrwt>0</asrwt>
<pdfrwt beam="1">  1        2 0.10843771E+00 0.27595811E+03</pdfrwt>
<pdfrwt beam="2">  1       -2 0.41554617E-02 0.27595811E+03</pdfrwt>
<totfact> 0.10748434E+04</totfact>
</mgrwt>
</event>
<event>
 4    1  0.1759998E-004  0.2833608E+03  0.7818608E-02  0.1093867E+00
          2   -1    0    0  501    0  0.00000000000E+00  0.00000000000E+00  0.32369770150E+04  0.32369770150E+04  0.00000000000E+00 0.  1.
         -2   -1    0    0    0  501 -0.00000000000E+00 -0.00000000000E+00 -0.62012612394E+01  0.62012612394E+01  0.00000000000E+00 0.  1.
         25    1    1    2    0    0  0.66079621298E+02  0.30941220369E+02  0.18293478904E+04  0.18347309284E+04  0.12000000000E+03 0.  0.
         25    1    1    2    0    0 -0.66079621298E+02 -0.30941220369E+02  0.14014278633E+04  0.14084473478E+04  0.12000000000E+03 0.  0.
<mgrwt>
<rscale>  0 0.28336083E+03</rscale>
<asrwt>0</asrwt>
<pdfrwt beam="1">  1        2 0.49799511E+00 0.28336083E+03</pdfrwt>
<pdfrwt beam="2">  1       -2 0.95404278E-03 0.28336083E+03</pdfrwt>
<totfact> 0.34121833E+03</totfact>
</mgrwt>
</event>
<event>
 4    1  0.1759998E-004  0.2745173E+03  0.7818608E-02  0.1098722E+00
         -2   -1    0    0    0  501 -0.00000000000E+00  0.00000000000E+00  0.21028741921E+03  0.21028741921E+03  0.00000000000E+00 0. -1.
          2   -1    0    0  501    0  0.00000000000E+00 -0.00000000000E+00 -0.89591357414E+02  0.89591357414E+02  0.00000000000E+00 0. -1.
         25    1    1    2    0    0 -0.23668152222E+02  0.62066518636E+02  0.54619389848E+02  0.14763370859E+03  0.12000000000E+03 0.  0.
         25    1    1    2    0    0  0.23668152222E+02 -0.62066518636E+02  0.66076671952E+02  0.15224506804E+03  0.12000000000E+03 0.  0.
<mgrwt>
<rscale>  0 0.27451729E+03</rscale>
<asrwt>0</asrwt>
<pdfrwt beam="1">  1        2 0.13783286E-01 0.27451729E+03</pdfrwt>
<pdfrwt beam="2">  1       -2 0.32351910E-01 0.27451729E+03</pdfrwt>
<totfact> 0.38187087E+03</totfact>
</mgrwt>
</event>
<event>
 4    1  0.1759998E-004  0.2809494E+03  0.7818608E-02  0.1095172E+00
          2   -1    0    0  501    0  0.00000000000E+00  0.00000000000E+00  0.73275744436E+03  0.73275744436E+03  0.00000000000E+00 0.  1.
         -2   -1    0    0    0  501 -0.00000000000E+00 -0.00000000000E+00 -0.26929971944E+02  0.26929971944E+02  0.00000000000E+00 0.  1.
         25    1    1    2    0    0  0.70856825450E+02 -0.16213050366E+02  0.37195434049E+03  0.39753438106E+03  0.12000000000E+03 0.  0.
         25    1    1    2    0    0 -0.70856825450E+02  0.16213050366E+02  0.33387313193E+03  0.36215303525E+03  0.12000000000E+03 0.  0.
<mgrwt>
<rscale>  0 0.28094937E+03</rscale>
<asrwt>0</asrwt>
<pdfrwt beam="1">  1        2 0.11273190E+00 0.28094937E+03</pdfrwt>
<pdfrwt beam="2">  1       -2 0.41430732E-02 0.28094937E+03</pdfrwt>
<totfact> 0.10301944E+04</totfact>
</mgrwt>
</event>
<event>
 4    1  0.1759998E-004  0.4234059E+03  0.7818608E-02  0.1035963E+00
          1   -1    0    0  501    0  0.00000000000E+00  0.00000000000E+00  0.10469836008E+04  0.10469836008E+04  0.00000000000E+00 0.  1.
         -1   -1    0    0    0  501 -0.00000000000E+00 -0.00000000000E+00 -0.42806920231E+02  0.42806920231E+02  0.00000000000E+00 0.  1.
         25    1    1    2    0    0  0.27719673426E+02 -0.89650522061E+02  0.88047783918E+03  0.89355851609E+03  0.12000000000E+03 0.  0.
         25    1    1    2    0    0 -0.27719673426E+02  0.89650522061E+02  0.12369884140E+03  0.19623200494E+03  0.12000000000E+03 0.  0.
<mgrwt>
<rscale>  0 0.42340592E+03</rscale>
<asrwt>0</asrwt>
<pdfrwt beam="1">  1        1 0.16107438E+00 0.42340592E+03</pdfrwt>
<pdfrwt beam="2">  1       -1 0.65856808E-02 0.42340592E+03</pdfrwt>
<totfact> 0.17100752E+03</totfact>
</mgrwt>
</event>
<event>
 4    1  0.1759998E-004  0.2715864E+03  0.7818608E-02  0.1100375E+00
         -2   -1    0    0    0  501 -0.00000000000E+00  0.00000000000E+00  0.12579545256E+02  0.12579545256E+02  0.00000000000E+00 0.  1.
          2   -1    0    0  501    0  0.00000000000E+00 -0.00000000000E+00 -0.14658553614E+04  0.14658553614E+04  0.00000000000E+00 0.  1.
         25    1    1    2    0    0  0.40200163359E+02 -0.19742205321E+02 -0.97214733170E+03  0.98054894949E+03  0.12000000000E+03 0.  0.
         25    1    1    2    0    0 -0.40200163359E+02  0.19742205321E+02 -0.48112848445E+03  0.49788595717E+03  0.12000000000E+03 0.  0.
<mgrwt>
<rscale>  0 0.27158641E+03</rscale>
<asrwt>0</asrwt>
<pdfrwt beam="1">  1        2 0.22551633E+00 0.27158641E+03</pdfrwt>
<pdfrwt beam="2">  1       -2 0.19353136E-02 0.27158641E+03</pdfrwt>
<totfact> 0.11544555E+04</totfact>
</mgrwt>
</event>
<event>
 4    1  0.1759998E-004  0.2479781E+03  0.7818608E-02  0.1114589E+00
         -2   -1    0    0    0  501 -0.00000000000E+00  0.00000000000E+00  0.10753405509E+03  0.10753405509E+03  0.00000000000E+00 0.  1.
          2   -1    0    0  501    0  0.00000000000E+00 -0.00000000000E+00 -0.14296197418E+03  0.14296197418E+03  0.00000000000E+00 0.  1.
         25    1    1    2    0    0  0.18080230100E+02 -0.15952107622E+01  0.79177171334E+01  0.12162289942E+03  0.12000000000E+03 0.  0.
         25    1    1    2    0    0 -0.18080230100E+02  0.15952107622E+01 -0.43345636223E+02  0.12887312985E+03  0.12000000000E+03 0.  0.
<mgrwt>
<rscale>  0 0.24797807E+03</rscale>
<asrwt>0</asrwt>
<pdfrwt beam="1">  1        2 0.21994150E-01 0.24797807E+03</pdfrwt>
<pdfrwt beam="2">  1       -2 0.16543701E-01 0.24797807E+03</pdfrwt>
<totfact> 0.71261579E+03</totfact>
</mgrwt>
</event>
<event>
 4    1  0.1759998E-004  0.2752051E+03  0.7818608E-02  0.1098337E+00
         -1   -1    0    0    0  501 -0.00000000000E+00  0.00000000000E+00  0.19044955060E+02  0.19044955060E+02  0.00000000000E+00 0.  1.
          1   -1    0    0  501    0  0.00000000000E+00 -0.00000000000E+00 -0.99419793161E+03  0.99419793161E+03  0.00000000000E+00 0.  1.
         25    1    1    2    0    0  0.39325443363E+02 -0.15712254034E+01 -0.68874749436E+03  0.70023001238E+03  0.12000000000E+03 0.  0.
         25    1    1    2    0    0 -0.39325443363E+02  0.15712254034E+01 -0.28640548218E+03  0.31301287429E+03  0.12000000000E+03 0.  0.
<mgrwt>
<rscale>  0 0.27520505E+03</rscale>
<asrwt>0</asrwt>
<pdfrwt beam="1">  1        1 0.15295356E+00 0.27520505E+03</pdfrwt>
<pdfrwt beam="2">  1       -1 0.29299925E-02 0.27520505E+03</pdfrwt>
<totfact> 0.63053162E+03</totfact>
</mgrwt>
</event>
<event>
 4    1  0.1759998E-004  0.2730767E+03  0.7818608E-02  0.1099532E+00
         -3   -1    0    0    0  501 -0.00000000000E+00  0.00000000000E+00  0.11258393084E+04  0.11258393084E+04  0.00000000000E+00 0.  1.
          3   -1    0    0  501    0  0.00000000000E+00 -0.00000000000E+00 -0.16558958653E+02  0.16558958653E+02  0.00000000000E+00 0.  1.
         25    1    1    2    0    0 -0.30543788564E+02 -0.37553742745E+02  0.37231159305E+03  0.39415622402E+03  0.12000000000E+03 0.  0.
         25    1    1    2    0    0  0.30543788564E+02  0.37553742745E+02  0.73696875668E+03  0.74824204302E+03  0.12000000000E+03 0.  0.
<mgrwt>
<rscale>  0 0.27307674E+03</rscale>
<asrwt>0</asrwt>
<pdfrwt beam="1">  1        3 0.25475330E-02 0.27307674E+03</pdfrwt>
<pdfrwt beam="2">  1       -3 0.17320599E+00 0.27307674E+03</pdfrwt>
<totfact> 0.39215749E+02</totfact>
</mgrwt>
</event>
<event>
 4    1  0.1759998E-004  0.2642744E+03  0.7818608E-02  0.1104602E+00
          1   -1    0    0  501    0  0.00000000000E+00  0.00000000000E+00  0.27628134726E+03  0.27628134726E+03  0.00000000000E+00 0. -1.
         -1   -1    0    0    0  501 -0.00000000000E+00 -0.00000000000E+00 -0.63197297721E+02  0.63197297721E+02  0.00000000000E+00 0. -1.
         25    1    1    2    0    0  0.46696890518E+02 -0.29548143509E+02  0.10325639249E+03  0.16767699591E+03  0.12000000000E+03 0.  0.
         25    1    1    2    0    0 -0.46696890518E+02  0.29548143509E+02  0.10982765705E+03  0.17180164907E+03  0.12000000000E+03 0.  0.
<mgrwt>
<rscale>  0 0.26427436E+03</rscale>
<asrwt>0</asrwt>
<pdfrwt beam="1">  1        1 0.42504822E-01 0.26427436E+03</pdfrwt>
<pdfrwt beam="2">  1       -1 0.97226613E-02 0.26427436E+03</pdfrwt>
<totfact> 0.61385783E+03</totfact>
</mgrwt>
</event>
<event>
 4    1  0.1759998E-004  0.3968154E+03  0.7818608E-02  0.1044888E+00
         -2   -1    0    0    0  501 -0.00000000000E+00  0.00000000000E+00  0.14322876905E+02  0.14322876905E+02  0.00000000000E+00 0. -1.
          2   -1    0    0  501    0  0.00000000000E+00 -0.00000000000E+00 -0.27484439582E+04  0.27484439582E+04  0.00000000000E+00 0. -1.
         25    1    1    2    0    0 -0.13555014839E+03 -0.75625127705E+02 -0.15727294765E+04  0.15849198746E+04  0.12000000000E+03 0.  0.
         25    1    1    2    0    0  0.13555014839E+03  0.75625127705E+02 -0.11613916048E+04  0.11778469605E+04  0.12000000000E+03 0.  0.
<mgrwt>
<rscale>  0 0.39681545E+03</rscale>
<asrwt>0</asrwt>
<pdfrwt beam="1">  1        2 0.42283773E+00 0.39681545E+03</pdfrwt>
<pdfrwt beam="2">  1       -2 0.22035185E-02 0.39681545E+03</pdfrwt>
<totfact> 0.19281133E+03</totfact>
</mgrwt>
</event>
<event>
 4    1  0.1759998E-004  0.2652237E+03  0.7818608E-02  0.1104045E+00
         -2   -1    0    0    0  501 -0.00000000000E+00  0.00000000000E+00  0.87516547067E+01  0.87516547067E+01  0.00000000000E+00 0. -1.
          2   -1    0    0  501    0  0.00000000000E+00 -0.00000000000E+00 -0.20094381639E+04  0.20094381639E+04  0.00000000000E+00 0. -1.
         25    1    1    2    0    0  0.46966320158E+02  0.30999630815E+02 -0.10335960314E+04  0.10420592922E+04  0.12000000000E+03 0.  0.
         25    1    1    2    0    0 -0.46966320158E+02 -0.30999630815E+02 -0.96709047780E+03  0.97613052641E+03  0.12000000000E+03 0.  0.
<mgrwt>
<rscale>  0 0.26522375E+03</rscale>
<asrwt>0</asrwt>
<pdfrwt beam="1">  1        2 0.30914470E+00 0.26522375E+03</pdfrwt>
<pdfrwt beam="2">  1       -2 0.13464068E-02 0.26522375E+03</pdfrwt>
<totfact> 0.10143515E+04</totfact>
</mgrwt>
</event>
<event>
 4    1  0.1759998E-004  0.3021082E+03  0.7818608E-02  0.1084191E+00
         -2   -1    0    0    0  501 -0.00000000000E+00  0.00000000000E+00  0.88589157646E+01  0.88589157646E+01  0.00000000000E+00 0. -1.
          2   -1    0    0  501    0  0.00000000000E+00 -0.00000000000E+00 -0.25756366783E+04  0.25756366783E+04  0.00000000000E+00 0. -1.
         25    1    1    2    0    0 -0.24002094179E+02  0.70863376258E+02 -0.17376538598E+04  0.17433985933E+04  0.12000000000E+03 0.  0.
         25    1    1    2    0    0  0.24002094179E+02 -0.70863376258E+02 -0.82912390277E+03  0.84109700080E+03  0.12000000000E+03 0.  0.
<mgrwt>
<rscale>  0 0.30210825E+03</rscale>
<asrwt>0</asrwt>
<pdfrwt beam="1">  1        2 0.39625168E+00 0.30210825E+03</pdfrwt>
<pdfrwt beam="2">  1       -2 0.13629105E-02 0.30210825E+03</pdfrwt>
<totfact> 0.49419221E+03</totfact>
</mgrwt>
</event>
<event>
 4    1  0.1759998E-004  0.2634284E+03  0.7818608E-02  0.1105101E+00
          1   -1    0    0  501    0  0.00000000000E+00  0.00000000000E+00  0.71220476968E+03  0.71220476968E+03  0.00000000000E+00 0. -1.
         -1   -1    0    0    0  501 -0.00000000000E+00 -0.00000000000E+00 -0.24359055699E+02  0.24359055699E+02  0.00000000000E+00 0. -1.
         25    1    1    2    0    0 -0.25465076466E+02  0.45952150916E+02  0.38231821176E+03  0.40413770590E+03  0.12000000000E+03 0.  0.
         25    1    1    2    0    0  0.25465076466E+02 -0.45952150916E+02  0.30552750222E+03  0.33242611947E+03  0.12000000000E+03 0.  0.
<mgrwt>
<rscale>  0 0.26342844E+03</rscale>
<asrwt>0</asrwt>
<pdfrwt beam="1">  1        1 0.10956995E+00 0.26342844E+03</pdfrwt>
<pdfrwt beam="2">  1       -1 0.37475476E-02 0.26342844E+03</pdfrwt>
<totfact> 0.74149213E+03</totfact>
</mgrwt>
</event>
<event>
 4    1  0.1759998E-004  0.2790342E+03  0.7818608E-02  0.1096218E+00
         -2   -1    0    0    0  501 -0.00000000000E+00  0.00000000000E+00  0.13377749545E+03  0.13377749545E+03  0.00000000000E+00 0.  1.
          2   -1    0    0  501    0  0.00000000000E+00 -0.00000000000E+00 -0.14550299448E+03  0.14550299448E+03  0.00000000000E+00 0.  1.
         25    1    1    2    0    0  0.64133922742E+02  0.14271795419E+01 -0.36709248949E+02  0.14093532505E+03  0.12000000000E+03 0.  0.
         25    1    1    2    0    0 -0.64133922742E+02 -0.14271795419E+01  0.24983749918E+02  0.13834516489E+03  0.12000000000E+03 0.  0.
<mgrwt>
<rscale>  0 0.27903424E+03</rscale>
<asrwt>0</asrwt>
<pdfrwt beam="1">  1        2 0.22385076E-01 0.27903424E+03</pdfrwt>
<pdfrwt beam="2">  1       -2 0.20581153E-01 0.27903424E+03</pdfrwt>
<totfact> 0.48500829E+03</totfact>
</mgrwt>
</event>
<event>
 4    1  0.1759998E-004  0.2915122E+03  0.7818608E-02  0.1089562E+00
         -4   -1    0    0    0  501 -0.00000000000E+00  0.00000000000E+00  0.11227725604E+03  0.11227725604E+03  0.00000000000E+00 0. -1.
          4   -1    0    0  501    0  0.00000000000E+00 -0.00000000000E+00 -0.18921766565E+03  0.18921766565E+03  0.00000000000E+00 0. -1.
         25    1    1    2    0    0  0.62139423764E+02 -0.35465545157E+02  0.44942563642E+01  0.13978308631E+03  0.12000000000E+03 0.  0.
         25    1    1    2    0    0 -0.62139423764E+02  0.35465545157E+02 -0.81434665970E+02  0.16171183538E+03  0.12000000000E+03 0.  0.
<mgrwt>
<rscale>  0 0.29151220E+03</rscale>
<asrwt>0</asrwt>
<pdfrwt beam="1">  1        4 0.29110410E-01 0.29151220E+03</pdfrwt>
<pdfrwt beam="2">  1       -4 0.17273424E-01 0.29151220E+03</pdfrwt>
<totfact> 0.62436257E+02</totfact>
</mgrwt>
</event>
<event>
 4    1  0.1759998E-004  0.3283266E+03  0.7818608E-02  0.1071880E+00
          1   -1    0    0  501    0  0.00000000000E+00  0.00000000000E+00  0.41935957638E+02  0.41935957638E+02  0.00000000000E+00 0.  1.
         -1   -1    0    0    0  501 -0.00000000000E+00 -0.00000000000E+00 -0.64263669629E+03  0.64263669629E+03  0.00000000000E+00 0.  1.
         25    1    1    2    0    0 -0.10540902149E+03  0.18087049092E+02 -0.23084070202E+03  0.28129278850E+03  0.12000000000E+03 0.  0.
         25    1    1    2    0    0  0.10540902149E+03 -0.18087049092E+02 -0.36986003664E+03  0.40327986543E+03  0.12000000000E+03 0.  0.
<mgrwt>
<rscale>  0 0.32832658E+03</rscale>
<asrwt>0</asrwt>
<pdfrwt beam="1">  1        1 0.64516859E-02 0.32832658E+03</pdfrwt>
<pdfrwt beam="2">  1       -1 0.98867182E-01 0.32832658E+03</pdfrwt>
<totfact> 0.12115299E+03</totfact>
</mgrwt>
</event>
<event>
 4    1  0.1759998E-004  0.2553561E+03  0.7818608E-02  0.1109966E+00
         -2   -1    0    0    0  501 -0.00000000000E+00  0.00000000000E+00  0.11464260108E+02  0.11464260108E+02  0.00000000000E+00 0. -1.
          2   -1    0    0  501    0  0.00000000000E+00 -0.00000000000E+00 -0.14219568404E+04  0.14219568404E+04  0.00000000000E+00 0. -1.
         25    1    1    2    0    0  0.31419112680E+02 -0.24771844448E+02 -0.60787679719E+03  0.62089854685E+03  0.12000000000E+03 0.  0.
         25    1    1    2    0    0 -0.31419112680E+02  0.24771844448E+02 -0.80261578314E+03  0.81252255370E+03  0.12000000000E+03 0.  0.
<mgrwt>
<rscale>  0 0.25535609E+03</rscale>
<asrwt>0</asrwt>
<pdfrwt beam="1">  1        2 0.21876264E+00 0.25535609E+03</pdfrwt>
<pdfrwt beam="2">  1       -2 0.17637319E-02 0.25535609E+03</pdfrwt>
<totfact> 0.13946429E+04</totfact>
</mgrwt>
</event>
<event>
 4    1  0.1759998E-004  0.2692129E+03  0.7818608E-02  0.1101731E+00
          2   -1    0    0  501    0  0.00000000000E+00  0.00000000000E+00  0.96773337410E+02  0.96773337410E+02  0.00000000000E+00 0.  1.
         -2   -1    0    0    0  501 -0.00000000000E+00 -0.00000000000E+00 -0.18723027289E+03  0.18723027289E+03  0.00000000000E+00 0.  1.
         25    1    1    2    0    0 -0.31238160374E+02 -0.60273383185E+01 -0.10011323095E+03  0.15948294731E+03  0.12000000000E+03 0.  0.
         25    1    1    2    0    0  0.31238160374E+02  0.60273383185E+01  0.96562954659E+01  0.12452066300E+03  0.12000000000E+03 0.  0.
<mgrwt>
<rscale>  0 0.26921291E+03</rscale>
<asrwt>0</asrwt>
<pdfrwt beam="1">  1        2 0.14888206E-01 0.26921291E+03</pdfrwt>
<pdfrwt beam="2">  1       -2 0.28804657E-01 0.26921291E+03</pdfrwt>
<totfact> 0.43011053E+03</totfact>
</mgrwt>
</event>
<event>
 4    1  0.1759998E-004  0.3824617E+03  0.7818608E-02  0.1050028E+00
          1   -1    0    0  501    0  0.00000000000E+00  0.00000000000E+00  0.60582418562E+03  0.60582418562E+03  0.00000000000E+00 0. -1.
         -1   -1    0    0    0  501 -0.00000000000E+00 -0.00000000000E+00 -0.60362800439E+02  0.60362800439E+02  0.00000000000E+00 0. -1.
         25    1    1    2    0    0 -0.12382300431E+03  0.71960198486E+02  0.20178759876E+03  0.27500662097E+03  0.12000000000E+03 0.  0.
         25    1    1    2    0    0  0.12382300431E+03 -0.71960198486E+02  0.34367378642E+03  0.39118036509E+03  0.12000000000E+03 0.  0.
<mgrwt>
<rscale>  0 0.38246173E+03</rscale>
<asrwt>0</asrwt>
<pdfrwt beam="1">  1        1 0.93203717E-01 0.38246173E+03</pdfrwt>
<pdfrwt beam="2">  1       -1 0.92865851E-02 0.38246173E+03</pdfrwt>
<totfact> 0.23814753E+03</totfact>
</mgrwt>
</event>
<event>
 4    1  0.1759998E-004  0.3032445E+03  0.7818608E-02  0.1083630E+00
         -2   -1    0    0    0  501 -0.00000000000E+00  0.00000000000E+00  0.12165715998E+04  0.12165715998E+04  0.00000000000E+00 0.  1.
          2   -1    0    0  501    0  0.00000000000E+00 -0.00000000000E+00 -0.18896797201E+02  0.18896797201E+02  0.00000000000E+00 0.  1.
         25    1    1    2    0    0  0.84570484826E+02  0.93555477035E+01  0.74851039112E+03  0.76282861692E+03  0.12000000000E+03 0.  0.
         25    1    1    2    0    0 -0.84570484826E+02 -0.93555477035E+01  0.44916441147E+03  0.47263978007E+03  0.12000000000E+03 0.  0.
<mgrwt>
<rscale>  0 0.30324450E+03</rscale>
<asrwt>0</asrwt>
<pdfrwt beam="1">  1        2 0.29072005E-02 0.30324450E+03</pdfrwt>
<pdfrwt beam="2">  1       -2 0.18716480E+00 0.30324450E+03</pdfrwt>
<totfact> 0.57165232E+02</totfact>
</mgrwt>
</event>
<event>
 4    1  0.1759998E-004  0.2589379E+03  0.7818608E-02  0.1107783E+00
         -2   -1    0    0    0  501 -0.00000000000E+00  0.00000000000E+00  0.78298693594E+01  0.78298693594E+01  0.00000000000E+00 0.  1.
          2   -1    0    0  501    0  0.00000000000E+00 -0.00000000000E+00 -0.21408038818E+04  0.21408038818E+04  0.00000000000E+00 0.  1.
         25    1    1    2    0    0  0.29308740387E+02  0.57299971600E+01 -0.74830073986E+03  0.75844962417E+03  0.12000000000E+03 0.  0.
         25    1    1    2    0    0 -0.29308740387E+02 -0.57299971600E+01 -0.13846732726E+04  0.13901841270E+04  0.12000000000E+03 0.  0.
<mgrwt>
<rscale>  0 0.25893794E+03</rscale>
<asrwt>0</asrwt>
<pdfrwt beam="1">  1        2 0.32935510E+00 0.25893794E+03</pdfrwt>
<pdfrwt beam="2">  1       -2 0.12045929E-02 0.25893794E+03</pdfrwt>
<totfact> 0.10168347E+04</totfact>
</mgrwt>
</event>
<event>
 4    1  0.1759998E-004  0.3479540E+03  0.7818608E-02  0.1063458E+00
          1   -1    0    0  501    0  0.00000000000E+00  0.00000000000E+00  0.72284727332E+03  0.72284727332E+03  0.00000000000E+00 0.  1.
         -1   -1    0    0    0  501 -0.00000000000E+00 -0.00000000000E+00 -0.41873289250E+02  0.41873289250E+02  0.00000000000E+00 0.  1.
         25    1    1    2    0    0  0.25456199596E+02 -0.13825250980E+02  0.60991556550E+03  0.62228301657E+03  0.12000000000E+03 0.  0.
         25    1    1    2    0    0 -0.25456199596E+02  0.13825250980E+02  0.71058418567E+02  0.14243754600E+03  0.12000000000E+03 0.  0.
<mgrwt>
<rscale>  0 0.34795398E+03</rscale>
<asrwt>0</asrwt>
<pdfrwt beam="1">  1        1 0.11120726E+00 0.34795398E+03</pdfrwt>
<pdfrwt beam="2">  1       -1 0.64420451E-02 0.34795398E+03</pdfrwt>
<totfact> 0.32331962E+03</totfact>
</mgrwt>
</event>
<event>
 4    1  0.1759998E-004  0.2781664E+03  0.7818608E-02  0.1096695E+00
          3   -1    0    0  501    0  0.00000000000E+00  0.00000000000E+00  0.80485043282E+02  0.80485043282E+02  0.00000000000E+00 0.  1.
         -3   -1    0    0    0  501 -0.00000000000E+00 -0.00000000000E+00 -0.24034450094E+03  0.24034450094E+03  0.00000000000E+00 0.  1.
         25    1    1    2    0    0 -0.12828362219E+02 -0.63608376037E+02 -0.48691736992E+02  0.14484984512E+03  0.12000000000E+03 0.  0.
         25    1    1    2    0    0  0.12828362219E+02  0.63608376037E+02 -0.11116772067E+03  0.17597969911E+03  0.12000000000E+03 0.  0.
<mgrwt>
<rscale>  0 0.27816641E+03</rscale>
<asrwt>0</asrwt>
<pdfrwt beam="1">  1        3 0.12382314E-01 0.27816641E+03</pdfrwt>
<pdfrwt beam="2">  1       -3 0.36976077E-01 0.27816641E+03</pdfrwt>
<totfact> 0.94811503E+02</totfact>
</mgrwt>
</event>
<event>
 4    1  0.1759998E-004  0.2942808E+03  0.7818608E-02  0.1088135E+00
         -4   -1    0    0    0  501 -0.00000000000E+00  0.00000000000E+00  0.69585583759E+03  0.69585583759E+03  0.00000000000E+00 0. -1.
          4   -1    0    0  501    0  0.00000000000E+00 -0.00000000000E+00 -0.31113191906E+02  0.31113191906E+02  0.00000000000E+00 0. -1.
         25    1    1    2    0    0  0.21325914137E+02  0.26286206851E+01  0.12883409983E+03  0.17736947184E+03  0.12000000000E+03 0.  0.
         25    1    1    2    0    0 -0.21325914137E+02 -0.26286206851E+01  0.53590854585E+03  0.54959955766E+03  0.12000000000E+03 0.  0.
<mgrwt>
<rscale>  0 0.29428079E+03</rscale>
<asrwt>0</asrwt>
<pdfrwt beam="1">  1        4 0.47866454E-02 0.29428079E+03</pdfrwt>
<pdfrwt beam="2">  1       -4 0.10705473E+00 0.29428079E+03</pdfrwt>
<totfact> 0.35152708E+02</totfact>
</mgrwt>
</event>
<event>
 4    1  0.1759998E-004  0.4821582E+03  0.7818608E-02  0.1018544E+00
          1   -1    0    0  501    0  0.00000000000E+00  0.00000000000E+00  0.18267194834E+03  0.18267194834E+03  0.00000000000E+00 0.  1.
         -1   -1    0    0    0  501 -0.00000000000E+00 -0.00000000000E+00 -0.31816122421E+03  0.31816122421E+03  0.00000000000E+00 0.  1.
         25    1    1    2    0    0  0.19501589683E+03  0.75345356150E+02 -0.71190975272E+02  0.25134891619E+03  0.12000000000E+03 0.  0.
         25    1    1    2    0    0 -0.19501589683E+03 -0.75345356150E+02 -0.64298300593E+02  0.24948425636E+03  0.12000000000E+03 0.  0.
<mgrwt>
<rscale>  0 0.48215819E+03</rscale>
<asrwt>0</asrwt>
<pdfrwt beam="1">  1        1 0.28103377E-01 0.48215819E+03</pdfrwt>
<pdfrwt beam="2">  1       -1 0.48947881E-01 0.48215819E+03</pdfrwt>
<totfact> 0.70511320E+02</totfact>
</mgrwt>
</event>
<event>
 4    1  0.1759998E-004  0.2930175E+03  0.7818608E-02  0.1088784E+00
         -2   -1    0    0    0  501 -0.00000000000E+00  0.00000000000E+00  0.88813237583E+02  0.88813237583E+02  0.00000000000E+00 0.  1.
          2   -1    0    0  501    0  0.00000000000E+00 -0.00000000000E+00 -0.24168479109E+03  0.24168479109E+03  0.00000000000E+00 0.  1.
         25    1    1    2    0    0 -0.50926026473E+02  0.66838191597E+02 -0.78692938628E+02  0.16629306245E+03  0.12000000000E+03 0.  0.
         25    1    1    2    0    0  0.50926026473E+02 -0.66838191597E+02 -0.74178614880E+02  0.16420496623E+03  0.12000000000E+03 0.  0.
<mgrwt>
<rscale>  0 0.29301747E+03</rscale>
<asrwt>0</asrwt>
<pdfrwt beam="1">  1        2 0.37182275E-01 0.29301747E+03</pdfrwt>
<pdfrwt beam="2">  1       -2 0.13663575E-01 0.29301747E+03</pdfrwt>
<totfact> 0.55093982E+03</totfact>
</mgrwt>
</event>
<event>
 4    1  0.1759998E-004  0.3435290E+03  0.7818608E-02  0.1065303E+00
         -2   -1    0    0    0  501 -0.00000000000E+00  0.00000000000E+00  0.16178742502E+02  0.16178742502E+02  0.00000000000E+00 0. -1.
          2   -1    0    0  501    0  0.00000000000E+00 -0.00000000000E+00 -0.18235685695E+04  0.18235685695E+04  0.00000000000E+00 0. -1.
         25    1    1    2    0    0 -0.92489471216E+02 -0.70866877059E+02 -0.11129430575E+04  0.11254415426E+04  0.12000000000E+03 0.  0.
         25    1    1    2    0    0  0.92489471216E+02  0.70866877059E+02 -0.69444676948E+03  0.71430576940E+03  0.12000000000E+03 0.  0.
<mgrwt>
<rscale>  0 0.34352902E+03</rscale>
<asrwt>0</asrwt>
<pdfrwt beam="1">  1        2 0.28054904E+00 0.34352902E+03</pdfrwt>
<pdfrwt beam="2">  1       -2 0.24890371E-02 0.34352902E+03</pdfrwt>
<totfact> 0.51473189E+03</totfact>
</mgrwt>
</event>
<event>
 4    1  0.1759998E-004  0.3318330E+03  0.7818608E-02  0.1070329E+00
         -2   -1    0    0    0  501 -0.00000000000E+00  0.00000000000E+00  0.22333960913E+02  0.22333960913E+02  0.00000000000E+00 0.  1.
          2   -1    0    0  501    0  0.00000000000E+00 -0.00000000000E+00 -0.12325751167E+04  0.12325751167E+04  0.00000000000E+00 0.  1.
         25    1    1    2    0    0 -0.80238651956E+02  0.49335154213E+02 -0.35840425873E+03  0.38951997559E+03  0.12000000000E+03 0.  0.
         25    1    1    2    0    0  0.80238651956E+02 -0.49335154213E+02 -0.85183689704E+03  0.86538910200E+03  0.12000000000E+03 0.  0.
<mgrwt>
<rscale>  0 0.33183300E+03</rscale>
<asrwt>0</asrwt>
<pdfrwt beam="1">  1        2 0.18962696E+00 0.33183300E+03</pdfrwt>
<pdfrwt beam="2">  1       -2 0.34359936E-02 0.33183300E+03</pdfrwt>
<totfact> 0.66387813E+03</totfact>
</mgrwt>
</event>
<event>
 4    1  0.1759998E-004  0.2623848E+03  0.7818608E-02  0.1105719E+00
         -2   -1    0    0    0  501 -0.00000000000E+00  0.00000000000E+00  0.94864149935E+01  0.94864149935E+01  0.00000000000E+00 0.  1.
          2   -1    0    0  501    0  0.00000000000E+00 -0.00000000000E+00 -0.18143252426E+04  0.18143252426E+04  0.00000000000E+00 0.  1.
         25    1    1    2    0    0  0.10500280919E+02 -0.28260496183E+01 -0.54169491263E+03  0.55493388870E+03  0.12000000000E+03 0.  0.
         25    1    1    2    0    0 -0.10500280919E+02  0.28260496183E+01 -0.12631439149E+04  0.12688777689E+04  0.12000000000E+03 0.  0.
<mgrwt>
<rscale>  0 0.26238477E+03</rscale>
<asrwt>0</asrwt>
<pdfrwt beam="1">  1        2 0.27912696E+00 0.26238477E+03</pdfrwt>
<pdfrwt beam="2">  1       -2 0.14594485E-02 0.26238477E+03</pdfrwt>
<totfact> 0.11411377E+04</totfact>
</mgrwt>
</event>
<event>
 4    1  0.1759998E-004  0.2762495E+03  0.7818608E-02  0.1097755E+00
          2   -1    0    0  501    0  0.00000000000E+00  0.00000000000E+00  0.14564045684E+04  0.14564045684E+04  0.00000000000E+00 0.  1.
         -2   -1    0    0    0  501 -0.00000000000E+00 -0.00000000000E+00 -0.13099692019E+02  0.13099692019E+02  0.00000000000E+00 0.  1.
         25    1    1    2    0    0 -0.16180246693E+02 -0.43120255360E+02  0.99065701366E+03  0.99896069769E+03  0.12000000000E+03 0.  0.
         25    1    1    2    0    0  0.16180246693E+02  0.43120255360E+02  0.45264786274E+03  0.47054356276E+03  0.12000000000E+03 0.  0.
<mgrwt>
<rscale>  0 0.27624953E+03</rscale>
<asrwt>0</asrwt>
<pdfrwt beam="1">  1        2 0.22406211E+00 0.27624953E+03</pdfrwt>
<pdfrwt beam="2">  1       -2 0.20153384E-02 0.27624953E+03</pdfrwt>
<totfact> 0.11008999E+04</totfact>
</mgrwt>
</event>
<event>
 4    1  0.1759998E-004  0.3354915E+03  0.7818608E-02  0.1068733E+00
         -3   -1    0    0    0  501 -0.00000000000E+00  0.00000000000E+00  0.26203161025E+02  0.26203161025E+02  0.00000000000E+00 0. -1.
          3   -1    0    0  501    0  0.00000000000E+00 -0.00000000000E+00 -0.10738640927E+04  0.10738640927E+04  0.00000000000E+00 0. -1.
         25    1    1    2    0    0 -0.20379897711E+01 -0.93855555140E+02 -0.75395767698E+03  0.76919776216E+03  0.12000000000E+03 0.  0.
         25    1    1    2    0    0  0.20379897711E+01  0.93855555140E+02 -0.29370325471E+03  0.33086949159E+03  0.12000000000E+03 0.  0.
<mgrwt>
<rscale>  0 0.33549148E+03</rscale>
<asrwt>0</asrwt>
<pdfrwt beam="1">  1        3 0.16520982E+00 0.33549148E+03</pdfrwt>
<pdfrwt beam="2">  1       -3 0.40312564E-02 0.33549148E+03</pdfrwt>
<totfact> 0.22063408E+02</totfact>
</mgrwt>
</event>
<event>
 4    1  0.1759998E-004  0.2765154E+03  0.7818608E-02  0.1097608E+00
         -1   -1    0    0    0  501 -0.00000000000E+00  0.00000000000E+00  0.34942318577E+02  0.34942318577E+02  0.00000000000E+00 0.  1.
          1   -1    0    0  501    0  0.00000000000E+00 -0.00000000000E+00 -0.54704974564E+03  0.54704974564E+03  0.00000000000E+00 0.  1.
         25    1    1    2    0    0  0.53946689294E+01 -0.46632730421E+02 -0.36153174359E+03  0.38380843610E+03  0.12000000000E+03 0.  0.
         25    1    1    2    0    0 -0.53946689294E+01  0.46632730421E+02 -0.15057568347E+03  0.19818362812E+03  0.12000000000E+03 0.  0.
<mgrwt>
<rscale>  0 0.27651536E+03</rscale>
<asrwt>0</asrwt>
<pdfrwt beam="1">  1        1 0.84161495E-01 0.27651536E+03</pdfrwt>
<pdfrwt beam="2">  1       -1 0.53757416E-02 0.27651536E+03</pdfrwt>
<totfact> 0.62819602E+03</totfact>
</mgrwt>
</event>
<event>
 4    1  0.1759998E-004  0.2942222E+03  0.7818608E-02  0.1088165E+00
          2   -1    0    0  501    0  0.00000000000E+00  0.00000000000E+00  0.11968433210E+03  0.11968433210E+03  0.00000000000E+00 0.  1.
         -2   -1    0    0    0  501 -0.00000000000E+00 -0.00000000000E+00 -0.18082293895E+03  0.18082293895E+03  0.00000000000E+00 0.  1.
         25    1    1    2    0    0 -0.19215596752E+02 -0.49419179187E+02 -0.98550714832E+02  0.16408454474E+03  0.12000000000E+03 0.  0.
         25    1    1    2    0    0  0.19215596752E+02  0.49419179187E+02  0.37412107977E+02  0.13642272631E+03  0.12000000000E+03 0.  0.
<mgrwt>
<rscale>  0 0.29422218E+03</rscale>
<asrwt>0</asrwt>
<pdfrwt beam="1">  1        2 0.18412974E-01 0.29422218E+03</pdfrwt>
<pdfrwt beam="2">  1       -2 0.27818914E-01 0.29422218E+03</pdfrwt>
<totfact> 0.35790996E+03</totfact>
</mgrwt>
</event>
<event>
 4    1  0.1759998E-004  0.2830956E+03  0.7818608E-02  0.1094010E+00
          1   -1    0    0  501    0  0.00000000000E+00  0.00000000000E+00  0.37798028778E+02  0.37798028778E+02  0.00000000000E+00 0.  1.
         -1   -1    0    0    0  501 -0.00000000000E+00 -0.00000000000E+00 -0.53007460231E+03  0.53007460231E+03  0.00000000000E+00 0.  1.
         25    1    1    2    0    0  0.51674982879E+02  0.27113744377E+02 -0.34087124010E+03  0.36605827585E+03  0.12000000000E+03 0.  0.
         25    1    1    2    0    0 -0.51674982879E+02 -0.27113744377E+02 -0.15140533344E+03  0.20181435525E+03  0.12000000000E+03 0.  0.
<mgrwt>
<rscale>  0 0.28309557E+03</rscale>
<asrwt>0</asrwt>
<pdfrwt beam="1">  1        1 0.58150819E-02 0.28309557E+03</pdfrwt>
<pdfrwt beam="2">  1       -1 0.81549931E-01 0.28309557E+03</pdfrwt>
<totfact> 0.21131040E+03</totfact>
</mgrwt>
</event>
<event>
 4    1  0.1759998E-004  0.2948817E+03  0.7818608E-02  0.1087828E+00
         -2   -1    0    0    0  501 -0.00000000000E+00  0.00000000000E+00  0.56199857234E+01  0.56199857234E+01  0.00000000000E+00 0.  1.
          2   -1    0    0  501    0  0.00000000000E+00 -0.00000000000E+00 -0.38681253751E+04  0.38681253751E+04  0.00000000000E+00 0.  1.
         25    1    1    2    0    0 -0.61077412072E+02 -0.59957861919E+02 -0.19793655287E+04  0.19848459113E+04  0.12000000000E+03 0.  0.
         25    1    1    2    0    0  0.61077412072E+02  0.59957861919E+02 -0.18831398607E+04  0.18888994495E+04  0.12000000000E+03 0.  0.
<mgrwt>
<rscale>  0 0.29488173E+03</rscale>
<asrwt>0</asrwt>
<pdfrwt beam="1">  1        2 0.59509627E+00 0.29488173E+03</pdfrwt>
<pdfrwt beam="2">  1       -2 0.86461310E-03 0.29488173E+03</pdfrwt>
<totfact> 0.14736990E+03</totfact>
</mgrwt>
</event>
<event>
 4    1  0.1759998E-004  0.3050191E+03  0.7818608E-02  0.1082758E+00
          1   -1    0    0  501    0  0.00000000000E+00  0.00000000000E+00  0.49513444693E+03  0.49513444693E+03  0.00000000000E+00 0.  1.
         -1   -1    0    0    0  501 -0.00000000000E+00 -0.00000000000E+00 -0.46975460087E+02  0.46975460087E+02  0.00000000000E+00 0.  1.
         25    1    1    2    0    0  0.92774822030E+02  0.99196306077E+01  0.24610664672E+03  0.28926466814E+03  0.12000000000E+03 0.  0.
         25    1    1    2    0    0 -0.92774822030E+02 -0.99196306077E+01  0.20205234013E+03  0.25284523888E+03  0.12000000000E+03 0.  0.
<mgrwt>
<rscale>  0 0.30501914E+03</rscale>
<asrwt>0</asrwt>
<pdfrwt beam="1">  1        1 0.76174527E-01 0.30501914E+03</pdfrwt>
<pdfrwt beam="2">  1       -1 0.72269942E-02 0.30501914E+03</pdfrwt>
<totfact> 0.46010179E+03</totfact>
</mgrwt>
</event>
<event>
 4    1  0.1759998E-004  0.2739377E+03  0.7818608E-02  0.1099047E+00
         -1   -1    0    0    0  501 -0.00000000000E+00  0.00000000000E+00  0.14618865740E+04  0.14618865740E+04  0.00000000000E+00 0.  1.
          1   -1    0    0  501    0  0.00000000000E+00 -0.00000000000E+00 -0.12833050717E+02  0.12833050717E+02  0.00000000000E+00 0.  1.
         25    1    1    2    0    0 -0.40625427244E+02  0.37056921056E+02  0.92135833126E+03  0.93076571452E+03  0.12000000000E+03 0.  0.
         25    1    1    2    0    0  0.40625427244E+02 -0.37056921056E+02  0.52769519198E+03  0.54395391016E+03  0.12000000000E+03 0.  0.
<mgrwt>
<rscale>  0 0.27393769E+03</rscale>
<asrwt>0</asrwt>
<pdfrwt beam="1">  1        1 0.19743166E-02 0.27393769E+03</pdfrwt>
<pdfrwt beam="2">  1       -1 0.22490550E+00 0.27393769E+03</pdfrwt>
<totfact> 0.70623909E+02</totfact>
</mgrwt>
</event>
<event>
 4    1  0.1759998E-004  0.2484893E+03  0.7818608E-02  0.1114263E+00
          1   -1    0    0  501    0  0.00000000000E+00  0.00000000000E+00  0.80479128448E+02  0.80479128448E+02  0.00000000000E+00 0. -1.
         -1   -1    0    0    0  501 -0.00000000000E+00 -0.00000000000E+00 -0.19181032302E+03  0.19181032302E+03  0.00000000000E+00 0. -1.
         25    1    1    2    0    0  0.20015126350E+02 -0.30924557514E+01 -0.28236961527E+02  0.12492995862E+03  0.12000000000E+03 0.  0.
         25    1    1    2    0    0 -0.20015126350E+02  0.30924557514E+01 -0.83094233040E+02  0.14735949284E+03  0.12000000000E+03 0.  0.
<mgrwt>
<rscale>  0 0.24848926E+03</rscale>
<asrwt>0</asrwt>
<pdfrwt beam="1">  1        1 0.12381405E-01 0.24848926E+03</pdfrwt>
<pdfrwt beam="2">  1       -1 0.29509280E-01 0.24848926E+03</pdfrwt>
<totfact> 0.49985905E+03</totfact>
</mgrwt>
</event>
<event>
 4    1  0.1759998E-004  0.2650710E+03  0.7818608E-02  0.1104134E+00
          1   -1    0    0  501    0  0.00000000000E+00  0.00000000000E+00  0.10879085783E+04  0.10879085783E+04  0.00000000000E+00 0. -1.
         -1   -1    0    0    0  501 -0.00000000000E+00 -0.00000000000E+00 -0.16146261512E+02  0.16146261512E+02  0.00000000000E+00 0. -1.
         25    1    1    2    0    0  0.51546652802E+02  0.20420268726E+02  0.57574725638E+03  0.59072747356E+03  0.12000000000E+03 0.  0.
         25    1    1    2    0    0 -0.51546652802E+02 -0.20420268726E+02  0.49601506037E+03  0.51332736622E+03  0.12000000000E+03 0.  0.
<mgrwt>
<rscale>  0 0.26507098E+03</rscale>
<asrwt>0</asrwt>
<pdfrwt beam="1">  1        1 0.16737049E+00 0.26507098E+03</pdfrwt>
<pdfrwt beam="2">  1       -1 0.24840411E-02 0.26507098E+03</pdfrwt>
<totfact> 0.68526766E+03</totfact>
</mgrwt>
</event>
<event>
 4    1  0.1759998E-004  0.2511704E+03  0.7818608E-02  0.1112567E+00
          1   -1    0    0  501    0  0.00000000000E+00  0.00000000000E+00  0.92767480241E+03  0.92767480241E+03  0.00000000000E+00 0.  1.
         -1   -1    0    0    0  501 -0.00000000000E+00 -0.00000000000E+00 -0.17001268508E+02  0.17001268508E+02  0.00000000000E+00 0.  1.
         25    1    1    2    0    0 -0.31596238745E+02 -0.58078595800E+01  0.38602692078E+03  0.40552291810E+03  0.12000000000E+03 0.  0.
         25    1    1    2    0    0  0.31596238745E+02  0.58078595800E+01  0.52464661312E+03  0.53915315282E+03  0.12000000000E+03 0.  0.
<mgrwt>
<rscale>  0 0.25117045E+03</rscale>
<asrwt>0</asrwt>
<pdfrwt beam="1">  1        1 0.14271916E+00 0.25117045E+03</pdfrwt>
<pdfrwt beam="2">  1       -1 0.26155805E-02 0.25117045E+03</pdfrwt>
<totfact> 0.83526188E+03</totfact>
</mgrwt>
</event>
<event>
 4    1  0.1759998E-004  0.2791978E+03  0.7818608E-02  0.1096128E+00
          1   -1    0    0  501    0  0.00000000000E+00  0.00000000000E+00  0.62548416797E+02  0.62548416797E+02  0.00000000000E+00 0. -1.
         -1   -1    0    0    0  501 -0.00000000000E+00 -0.00000000000E+00 -0.31156426317E+03  0.31156426317E+03  0.00000000000E+00 0. -1.
         25    1    1    2    0    0 -0.21800318586E+02 -0.44432401919E+01 -0.33698309987E+02  0.12661189664E+03  0.12000000000E+03 0.  0.
         25    1    1    2    0    0  0.21800318586E+02  0.44432401919E+01 -0.21531753639E+03  0.24750078333E+03  0.12000000000E+03 0.  0.
<mgrwt>
<rscale>  0 0.27919779E+03</rscale>
<asrwt>0</asrwt>
<pdfrwt beam="1">  1        1 0.96228336E-02 0.27919779E+03</pdfrwt>
<pdfrwt beam="2">  1       -1 0.47932962E-01 0.27919779E+03</pdfrwt>
<totfact> 0.29936192E+03</totfact>
</mgrwt>
</event>
<event>
 4    1  0.1759998E-004  0.2971908E+03  0.7818608E-02  0.1086653E+00
          2   -1    0    0  501    0  0.00000000000E+00  0.00000000000E+00  0.71109040855E+03  0.71109040855E+03  0.00000000000E+00 0. -1.
         -2   -1    0    0    0  501 -0.00000000000E+00 -0.00000000000E+00 -0.31051734834E+02  0.31051734834E+02  0.00000000000E+00 0. -1.
         25    1    1    2    0    0 -0.35709485413E+02 -0.74319003859E+02  0.26585196136E+03  0.30311012362E+03  0.12000000000E+03 0.  0.
         25    1    1    2    0    0  0.35709485413E+02  0.74319003859E+02  0.41418671235E+03  0.43903201976E+03  0.12000000000E+03 0.  0.
<mgrwt>
<rscale>  0 0.29719079E+03</rscale>
<asrwt>0</asrwt>
<pdfrwt beam="1">  1        2 0.10939851E+00 0.29719079E+03</pdfrwt>
<pdfrwt beam="2">  1       -2 0.47771905E-02 0.29719079E+03</pdfrwt>
<totfact> 0.86314765E+03</totfact>
</mgrwt>
</event>
<event>
 4    1  0.1759998E-004  0.2822735E+03  0.7818608E-02  0.1094454E+00
          2   -1    0    0  501    0  0.00000000000E+00  0.00000000000E+00  0.38354534603E+04  0.38354534603E+04  0.00000000000E+00 0.  1.
         -2   -1    0    0    0  501 -0.00000000000E+00 -0.00000000000E+00 -0.51935393399E+01  0.51935393399E+01  0.00000000000E+00 0.  1.
         25    1    1    2    0    0 -0.11621212987E+02 -0.72893817568E+02  0.18004688608E+04  0.18059725026E+04  0.12000000000E+03 0.  0.
         25    1    1    2    0    0  0.11621212987E+02  0.72893817568E+02  0.20297910601E+04  0.20346744971E+04  0.12000000000E+03 0.  0.
<mgrwt>
<rscale>  0 0.28227347E+03</rscale>
<asrwt>0</asrwt>
<pdfrwt beam="1">  1        2 0.59006750E+00 0.28227347E+03</pdfrwt>
<pdfrwt beam="2">  1       -2 0.79900912E-03 0.28227347E+03</pdfrwt>
<totfact> 0.17499733E+03</totfact>
</mgrwt>
</event>
<event>
 4    1  0.1759998E-004  0.2504781E+03  0.7818608E-02  0.1113003E+00
          1   -1    0    0  501    0  0.00000000000E+00  0.00000000000E+00  0.26091181087E+03  0.26091181087E+03  0.00000000000E+00 0. -1.
         -1   -1    0    0    0  501 -0.00000000000E+00 -0.00000000000E+00 -0.60115404576E+02  0.60115404576E+02  0.00000000000E+00 0. -1.
         25    1    1    2    0    0 -0.42101944288E+01  0.34126956264E+02  0.11337046666E+03  0.16862751138E+03  0.12000000000E+03 0.  0.
         25    1    1    2    0    0  0.42101944288E+01 -0.34126956264E+02  0.87425939630E+02  0.15239970407E+03  0.12000000000E+03 0.  0.
<mgrwt>
<rscale>  0 0.25047810E+03</rscale>
<asrwt>0</asrwt>
<pdfrwt beam="1">  1        1 0.40140278E-01 0.25047810E+03</pdfrwt>
<pdfrwt beam="2">  1       -1 0.92485239E-02 0.25047810E+03</pdfrwt>
<totfact> 0.71076955E+03</totfact>
</mgrwt>
</event>
<event>
 4    1  0.1759998E-004  0.3076055E+03  0.7818608E-02  0.1081499E+00
         -1   -1    0    0    0  501 -0.00000000000E+00  0.00000000000E+00  0.21450236401E+02  0.21450236401E+02  0.00000000000E+00 0.  1.
          1   -1    0    0  501    0  0.00000000000E+00 -0.00000000000E+00 -0.11027985200E+04  0.11027985200E+04  0.00000000000E+00 0.  1.
         25    1    1    2    0    0 -0.88101485494E+02 -0.62705598119E+01 -0.40130551406E+03  0.42807395072E+03  0.12000000000E+03 0.  0.
         25    1    1    2    0    0  0.88101485494E+02  0.62705598119E+01 -0.68004276952E+03  0.69617480567E+03  0.12000000000E+03 0.  0.
<mgrwt>
<rscale>  0 0.30760552E+03</rscale>
<asrwt>0</asrwt>
<pdfrwt beam="1">  1        1 0.16966129E+00 0.30760552E+03</pdfrwt>
<pdfrwt beam="2">  1       -1 0.33000367E-02 0.30760552E+03</pdfrwt>
<totfact> 0.44065231E+03</totfact>
</mgrwt>
</event>
<event>
 4    1  0.1759998E-004  0.3117618E+03  0.7818608E-02  0.1079504E+00
          2   -1    0    0  501    0  0.00000000000E+00  0.00000000000E+00  0.18272796201E+03  0.18272796201E+03  0.00000000000E+00 0.  1.
         -2   -1    0    0    0  501 -0.00000000000E+00 -0.00000000000E+00 -0.13297829406E+03  0.13297829406E+03  0.00000000000E+00 0.  1.
         25    1    1    2    0    0  0.79047572949E+02 -0.27527671419E+02 -0.29588169209E+02  0.14927073136E+03  0.12000000000E+03 0.  0.
         25    1    1    2    0    0 -0.79047572949E+02  0.27527671419E+02  0.79337837153E+02  0.16643552471E+03  0.12000000000E+03 0.  0.
<mgrwt>
<rscale>  0 0.31176179E+03</rscale>
<asrwt>0</asrwt>
<pdfrwt beam="1">  1        2 0.28111994E-01 0.31176179E+03</pdfrwt>
<pdfrwt beam="2">  1       -2 0.20458199E-01 0.31176179E+03</pdfrwt>
<totfact> 0.38092471E+03</totfact>
</mgrwt>
</event>
<event>
 4    1  0.1759998E-004  0.3168176E+03  0.7818608E-02  0.1077123E+00
         -1   -1    0    0    0  501 -0.00000000000E+00  0.00000000000E+00  0.19459524102E+02  0.19459524102E+02  0.00000000000E+00 0.  1.
          1   -1    0    0  501    0  0.00000000000E+00 -0.00000000000E+00 -0.12895152052E+04  0.12895152052E+04  0.00000000000E+00 0.  1.
         25    1    1    2    0    0  0.52340361481E+01 -0.10296440175E+03 -0.60190020503E+03  0.62234469547E+03  0.12000000000E+03 0.  0.
         25    1    1    2    0    0 -0.52340361481E+01  0.10296440175E+03 -0.66815547603E+03  0.68663003379E+03  0.12000000000E+03 0.  0.
<mgrwt>
<rscale>  0 0.31681763E+03</rscale>
<asrwt>0</asrwt>
<pdfrwt beam="1">  1        1 0.19838699E+00 0.31681763E+03</pdfrwt>
<pdfrwt beam="2">  1       -1 0.29937724E-02 0.31681763E+03</pdfrwt>
<totfact> 0.37616653E+03</totfact>
</mgrwt>
</event>
<event>
 4    1  0.1759998E-004  0.2520827E+03  0.7818608E-02  0.1111996E+00
         -2   -1    0    0    0  501 -0.00000000000E+00  0.00000000000E+00  0.17824927595E+03  0.17824927595E+03  0.00000000000E+00 0.  1.
          2   -1    0    0  501    0  0.00000000000E+00 -0.00000000000E+00 -0.89124745773E+02  0.89124745773E+02  0.00000000000E+00 0.  1.
         25    1    1    2    0    0 -0.12686990094E+02 -0.14430416932E+02  0.80014731002E+02  0.14550448044E+03  0.12000000000E+03 0.  0.
         25    1    1    2    0    0  0.12686990094E+02  0.14430416932E+02  0.91097991701E+01  0.12186954128E+03  0.12000000000E+03 0.  0.
<mgrwt>
<rscale>  0 0.25208270E+03</rscale>
<asrwt>0</asrwt>
<pdfrwt beam="1">  1        2 0.13711499E-01 0.25208270E+03</pdfrwt>
<pdfrwt beam="2">  1       -2 0.27422966E-01 0.25208270E+03</pdfrwt>
<totfact> 0.51695575E+03</totfact>
</mgrwt>
</event>
<event>
 4    1  0.1759998E-004  0.4890886E+03  0.7818608E-02  0.1016667E+00
          2   -1    0    0  501    0  0.00000000000E+00  0.00000000000E+00  0.58371107499E+03  0.58371107499E+03  0.00000000000E+00 0.  1.
         -2   -1    0    0    0  501 -0.00000000000E+00 -0.00000000000E+00 -0.10245123964E+03  0.10245123964E+03  0.00000000000E+00 0.  1.
         25    1    1    2    0    0 -0.17163359503E+03  0.79741017532E+02  0.10327635304E+03  0.24674425205E+03  0.12000000000E+03 0.  0.
         25    1    1    2    0    0  0.17163359503E+03 -0.79741017532E+02  0.37798348231E+03  0.43941806258E+03  0.12000000000E+03 0.  0.
<mgrwt>
<rscale>  0 0.48908864E+03</rscale>
<asrwt>0</asrwt>
<pdfrwt beam="1">  1        2 0.89801702E-01 0.48908864E+03</pdfrwt>
<pdfrwt beam="2">  1       -2 0.15761729E-01 0.48908864E+03</pdfrwt>
<totfact> 0.16496386E+03</totfact>
</mgrwt>
</event>
<event>
 4    1  0.1759998E-004  0.2527970E+03  0.7818608E-02  0.1111550E+00
          2   -1    0    0  501    0  0.00000000000E+00  0.00000000000E+00  0.55228908665E+03  0.55228908665E+03  0.00000000000E+00 0.  1.
         -2   -1    0    0    0  501 -0.00000000000E+00 -0.00000000000E+00 -0.28927926238E+02  0.28927926238E+02  0.00000000000E+00 0.  1.
         25    1    1    2    0    0  0.11743876811E+02 -0.17851609827E+02  0.33862399340E+03  0.35989277225E+03  0.12000000000E+03 0.  0.
         25    1    1    2    0    0 -0.11743876811E+02  0.17851609827E+02  0.18473716702E+03  0.22132424064E+03  0.12000000000E+03 0.  0.
<mgrwt>
<rscale>  0 0.25279698E+03</rscale>
<asrwt>0</asrwt>
<pdfrwt beam="1">  1        2 0.84967544E-01 0.25279698E+03</pdfrwt>
<pdfrwt beam="2">  1       -2 0.44504506E-02 0.25279698E+03</pdfrwt>
<totfact> 0.12857898E+04</totfact>
</mgrwt>
</event>
<event>
 4    1  0.1759998E-004  0.3242838E+03  0.7818608E-02  0.1073694E+00
          1   -1    0    0  501    0  0.00000000000E+00  0.00000000000E+00  0.23003618812E+04  0.23003618812E+04  0.00000000000E+00 0.  1.
         -1   -1    0    0    0  501 -0.00000000000E+00 -0.00000000000E+00 -0.11428637147E+02  0.11428637147E+02  0.00000000000E+00 0.  1.
         25    1    1    2    0    0  0.39346397699E+02  0.40453392366E+02  0.47932032516E+03  0.49732543679E+03  0.12000000000E+03 0.  0.
         25    1    1    2    0    0 -0.39346397699E+02 -0.40453392366E+02  0.18096129189E+04  0.18144650816E+04  0.12000000000E+03 0.  0.
<mgrwt>
<rscale>  0 0.32428383E+03</rscale>
<asrwt>0</asrwt>
<pdfrwt beam="1">  1        1 0.35390146E+00 0.32428383E+03</pdfrwt>
<pdfrwt beam="2">  1       -1 0.17582537E-02 0.32428383E+03</pdfrwt>
<totfact> 0.17726612E+03</totfact>
</mgrwt>
</event>
<event>
 4    1  0.1759998E-004  0.3702306E+03  0.7818608E-02  0.1054605E+00
          1   -1    0    0  501    0  0.00000000000E+00  0.00000000000E+00  0.28956886442E+03  0.28956886442E+03  0.00000000000E+00 0.  1.
         -1   -1    0    0    0  501 -0.00000000000E+00 -0.00000000000E+00 -0.11834030523E+03  0.11834030523E+03  0.00000000000E+00 0.  1.
         25    1    1    2    0    0  0.10014054722E+03 -0.89210684442E+02  0.13339852334E+03  0.22401303856E+03  0.12000000000E+03 0.  0.
         25    1    1    2    0    0 -0.10014054722E+03  0.89210684442E+02  0.37830035854E+02  0.18389613109E+03  0.12000000000E+03 0.  0.
<mgrwt>
<rscale>  0 0.37023056E+03</rscale>
<asrwt>0</asrwt>
<pdfrwt beam="1">  1        1 0.44549056E-01 0.37023056E+03</pdfrwt>
<pdfrwt beam="2">  1       -1 0.18206201E-01 0.37023056E+03</pdfrwt>
<totfact> 0.21636700E+03</totfact>
</mgrwt>
</event>
<event>
 4    1  0.1759998E-004  0.3491010E+03  0.7818608E-02  0.1062985E+00
          2   -1    0    0  501    0  0.00000000000E+00  0.00000000000E+00  0.93756553247E+03  0.93756553247E+03  0.00000000000E+00 0. -1.
         -2   -1    0    0    0  501 -0.00000000000E+00 -0.00000000000E+00 -0.32496793636E+02  0.32496793636E+02  0.00000000000E+00 0. -1.
         25    1    1    2    0    0  0.52194099453E+01 -0.10074450522E+03  0.23925464504E+03  0.28604105081E+03  0.12000000000E+03 0.  0.
         25    1    1    2    0    0 -0.52194099453E+01  0.10074450522E+03  0.66581409379E+03  0.68402127530E+03  0.12000000000E+03 0.  0.
<mgrwt>
<rscale>  0 0.34910098E+03</rscale>
<asrwt>0</asrwt>
<pdfrwt beam="1">  1        2 0.14424083E+00 0.34910098E+03</pdfrwt>
<pdfrwt beam="2">  1       -2 0.49995074E-02 0.34910098E+03</pdfrwt>
<totfact> 0.56501333E+03</totfact>
</mgrwt>
</event>
<event>
 4    1  0.1759998E-004  0.2733520E+03  0.7818608E-02  0.1099376E+00
          2   -1    0    0  501    0  0.00000000000E+00  0.00000000000E+00  0.20053588450E+03  0.20053588450E+03  0.00000000000E+00 0. -1.
         -2   -1    0    0    0  501 -0.00000000000E+00 -0.00000000000E+00 -0.93152079522E+02  0.93152079522E+02  0.00000000000E+00 0. -1.
         25    1    1    2    0    0  0.19587929853E+01  0.55353811781E+02  0.16281159056E+02  0.13316515118E+03  0.12000000000E+03 0.  0.
         25    1    1    2    0    0 -0.19587929853E+01 -0.55353811781E+02  0.91102645921E+02  0.16052281284E+03  0.12000000000E+03 0.  0.
<mgrwt>
<rscale>  0 0.27335204E+03</rscale>
<asrwt>0</asrwt>
<pdfrwt beam="1">  1        2 0.30851674E-01 0.27335204E+03</pdfrwt>
<pdfrwt beam="2">  1       -2 0.14331089E-01 0.27335204E+03</pdfrwt>
<totfact> 0.62286015E+03</totfact>
</mgrwt>
</event>
<event>
 4    1  0.1759998E-004  0.2446690E+03  0.7818608E-02  0.1116721E+00
         -3   -1    0    0    0  501 -0.00000000000E+00  0.00000000000E+00  0.13837033858E+03  0.13837033858E+03  0.00000000000E+00 0. -1.
          3   -1    0    0  501    0  0.00000000000E+00 -0.00000000000E+00 -0.10815709236E+03  0.10815709236E+03  0.00000000000E+00 0. -1.
         25    1    1    2    0    0  0.12489137530E+02 -0.19629634398E+00 -0.52885748723E+01  0.12076417562E+03  0.12000000000E+03 0.  0.
         25    1    1    2    0    0 -0.12489137530E+02  0.19629634398E+00  0.35501821096E+02  0.12576325532E+03  0.12000000000E+03 0.  0.
<mgrwt>
<rscale>  0 0.24466903E+03</rscale>
<asrwt>0</asrwt>
<pdfrwt beam="1">  1        3 0.16639553E-01 0.24466903E+03</pdfrwt>
<pdfrwt beam="2">  1       -3 0.21287744E-01 0.24466903E+03</pdfrwt>
<totfact> 0.15634470E+03</totfact>
</mgrwt>
</event>
<event>
 4    1  0.1759998E-004  0.3270087E+03  0.7818608E-02  0.1072468E+00
         -1   -1    0    0    0  501 -0.00000000000E+00  0.00000000000E+00  0.27092278014E+02  0.27092278014E+02  0.00000000000E+00 0. -1.
          1   -1    0    0  501    0  0.00000000000E+00 -0.00000000000E+00 -0.98676382240E+03  0.98676382240E+03  0.00000000000E+00 0. -1.
         25    1    1    2    0    0  0.20168662686E+02  0.81838901427E+02 -0.70403736418E+03  0.71914740554E+03  0.12000000000E+03 0.  0.
         25    1    1    2    0    0 -0.20168662686E+02 -0.81838901427E+02 -0.25563418021E+03  0.29470869487E+03  0.12000000000E+03 0.  0.
<mgrwt>
<rscale>  0 0.32700874E+03</rscale>
<asrwt>0</asrwt>
<pdfrwt beam="1">  1        1 0.15180982E+00 0.32700874E+03</pdfrwt>
<pdfrwt beam="2">  1       -1 0.41680429E-02 0.32700874E+03</pdfrwt>
<totfact> 0.37936242E+03</totfact>
</mgrwt>
</event>
<event>
 4    1  0.1759998E-004  0.2542649E+03  0.7818608E-02  0.1110639E+00
          2   -1    0    0  501    0  0.00000000000E+00  0.00000000000E+00  0.18594201268E+04  0.18594201268E+04  0.00000000000E+00 0.  1.
         -2   -1    0    0    0  501 -0.00000000000E+00 -0.00000000000E+00 -0.86923133513E+01  0.86923133513E+01  0.00000000000E+00 0.  1.
         25    1    1    2    0    0 -0.17134368262E+01  0.30406808099E+02  0.11376880947E+04  0.11444045223E+04  0.12000000000E+03 0.  0.
         25    1    1    2    0    0  0.17134368262E+01 -0.30406808099E+02  0.71303971880E+03  0.72370791790E+03  0.12000000000E+03 0.  0.
<mgrwt>
<rscale>  0 0.25426492E+03</rscale>
<asrwt>0</asrwt>
<pdfrwt beam="1">  1        2 0.28606432E+00 0.25426492E+03</pdfrwt>
<pdfrwt beam="2">  1       -2 0.13372805E-02 0.25426492E+03</pdfrwt>
<totfact> 0.12269752E+04</totfact>
</mgrwt>
</event>
<event>
 4    1  0.1759998E-004  0.2791942E+03  0.7818608E-02  0.1096130E+00
         -3   -1    0    0    0  501 -0.00000000000E+00  0.00000000000E+00  0.16733342187E+04  0.16733342187E+04  0.00000000000E+00 0. -1.
          3   -1    0    0  501    0  0.00000000000E+00 -0.00000000000E+00 -0.11645820823E+02  0.11645820823E+02  0.00000000000E+00 0. -1.
         25    1    1    2    0    0  0.48360082818E+02  0.63680577801E+01  0.11449100902E+04  0.11522145479E+04  0.12000000000E+03 0.  0.
         25    1    1    2    0    0 -0.48360082818E+02 -0.63680577801E+01  0.51677830767E+03  0.53276549161E+03  0.12000000000E+03 0.  0.
<mgrwt>
<rscale>  0 0.27919420E+03</rscale>
<asrwt>0</asrwt>
<pdfrwt beam="1">  1        3 0.17916661E-02 0.27919420E+03</pdfrwt>
<pdfrwt beam="2">  1       -3 0.25743584E+00 0.27919420E+03</pdfrwt>
<totfact> 0.21294374E+02</totfact>
</mgrwt>
</event>
<event>
 4    1  0.1759998E-004  0.2653691E+03  0.7818608E-02  0.1103960E+00
         -2   -1    0    0    0  501 -0.00000000000E+00  0.00000000000E+00  0.36326575885E+02  0.36326575885E+02  0.00000000000E+00 0.  1.
          2   -1    0    0  501    0  0.00000000000E+00 -0.00000000000E+00 -0.48463681972E+03  0.48463681972E+03  0.00000000000E+00 0.  1.
         25    1    1    2    0    0  0.13226424670E+02 -0.41410921981E+02 -0.15295436429E+03  0.19921054271E+03  0.12000000000E+03 0.  0.
         25    1    1    2    0    0 -0.13226424670E+02  0.41410921981E+02 -0.29535587954E+03  0.32175285290E+03  0.12000000000E+03 0.  0.
<mgrwt>
<rscale>  0 0.26536915E+03</rscale>
<asrwt>0</asrwt>
<pdfrwt beam="1">  1        2 0.74559507E-01 0.26536915E+03</pdfrwt>
<pdfrwt beam="2">  1       -2 0.55887043E-02 0.26536915E+03</pdfrwt>
<totfact> 0.10562009E+04</totfact>
</mgrwt>
</event>
<event>
 4    1  0.1759998E-004  0.4322395E+03  0.7818608E-02  0.1033155E+00
          1   -1    0    0  501    0  0.00000000000E+00  0.00000000000E+00  0.14977400757E+04  0.14977400757E+04  0.00000000000E+00 0.  1.
         -1   -1    0    0    0  501 -0.00000000000E+00 -0.00000000000E+00 -0.31185485833E+02  0.31185485833E+02  0.00000000000E+00 0.  1.
         25    1    1    2    0    0  0.13815509217E+03 -0.31953768961E+02  0.11239738900E+04  0.11392213034E+04  0.12000000000E+03 0.  0.
         25    1    1    2    0    0 -0.13815509217E+03  0.31953768961E+02  0.34258069988E+03  0.38970425809E+03  0.12000000000E+03 0.  0.
<mgrwt>
<rscale>  0 0.43223953E+03</rscale>
<asrwt>0</asrwt>
<pdfrwt beam="1">  1        1 0.23042149E+00 0.43223953E+03</pdfrwt>
<pdfrwt beam="2">  1       -1 0.47977682E-02 0.43223953E+03</pdfrwt>
<totfact> 0.13361745E+03</totfact>
</mgrwt>
</event>
<event>
 4    1  0.1759998E-004  0.3061164E+03  0.7818608E-02  0.1082222E+00
          2   -1    0    0  501    0  0.00000000000E+00  0.00000000000E+00  0.83328943722E+03  0.83328943722E+03  0.00000000000E+00 0.  1.
         -2   -1    0    0    0  501 -0.00000000000E+00 -0.00000000000E+00 -0.28113664418E+02  0.28113664418E+02  0.00000000000E+00 0.  1.
         25    1    1    2    0    0 -0.62326394385E+02  0.59947080479E+02  0.29185218204E+03  0.32719402204E+03  0.12000000000E+03 0.  0.
         25    1    1    2    0    0  0.62326394385E+02 -0.59947080479E+02  0.51332359076E+03  0.53420907960E+03  0.12000000000E+03 0.  0.
<mgrwt>
<rscale>  0 0.30611645E+03</rscale>
<asrwt>0</asrwt>
<pdfrwt beam="1">  1        2 0.12819836E+00 0.30611645E+03</pdfrwt>
<pdfrwt beam="2">  1       -2 0.43251798E-02 0.30611645E+03</pdfrwt>
<totfact> 0.82250881E+03</totfact>
</mgrwt>
</event>
<event>
 4    1  0.1759998E-004  0.2447438E+03  0.7818608E-02  0.1116672E+00
          2   -1    0    0  501    0  0.00000000000E+00  0.00000000000E+00  0.41074407153E+03  0.41074407153E+03  0.00000000000E+00 0. -1.
         -2   -1    0    0    0  501 -0.00000000000E+00 -0.00000000000E+00 -0.36457944965E+02  0.36457944965E+02  0.00000000000E+00 0. -1.
         25    1    1    2    0    0  0.16602658751E+02 -0.10289621272E+02  0.16173476823E+03  0.20233551304E+03  0.12000000000E+03 0.  0.
         25    1    1    2    0    0 -0.16602658751E+02  0.10289621272E+02  0.21255135834E+03  0.24486650345E+03  0.12000000000E+03 0.  0.
<mgrwt>
<rscale>  0 0.24474382E+03</rscale>
<asrwt>0</asrwt>
<pdfrwt beam="1">  1        2 0.63191392E-01 0.24474382E+03</pdfrwt>
<pdfrwt beam="2">  1       -2 0.56089149E-02 0.24474382E+03</pdfrwt>
<totfact> 0.12550546E+04</totfact>
</mgrwt>
</event>
<event>
 4    1  0.1759998E-004  0.3452420E+03  0.7818608E-02  0.1064585E+00
         -2   -1    0    0    0  501 -0.00000000000E+00  0.00000000000E+00  0.43553644298E+03  0.43553644298E+03  0.00000000000E+00 0. -1.
          2   -1    0    0  501    0  0.00000000000E+00 -0.00000000000E+00 -0.68416793660E+02  0.68416793660E+02  0.00000000000E+00 0. -1.
         25    1    1    2    0    0  0.49368880889E+02  0.13225786471E+02  0.18504107065E+02  0.13173689615E+03  0.12000000000E+03 0.  0.
         25    1    1    2    0    0 -0.49368880889E+02 -0.13225786471E+02  0.34861554225E+03  0.37221634049E+03  0.12000000000E+03 0.  0.
<mgrwt>
<rscale>  0 0.34524198E+03</rscale>
<asrwt>0</asrwt>
<pdfrwt beam="1">  1        2 0.10525661E-01 0.34524198E+03</pdfrwt>
<pdfrwt beam="2">  1       -2 0.67005605E-01 0.34524198E+03</pdfrwt>
<totfact> 0.12655343E+03</totfact>
</mgrwt>
</event>
<event>
 4    1  0.1759998E-004  0.2896546E+03  0.7818608E-02  0.1090530E+00
          2   -1    0    0  501    0  0.00000000000E+00  0.00000000000E+00  0.15261368290E+04  0.15261368290E+04  0.00000000000E+00 0. -1.
         -2   -1    0    0    0  501 -0.00000000000E+00 -0.00000000000E+00 -0.13743814952E+02  0.13743814952E+02  0.00000000000E+00 0. -1.
         25    1    1    2    0    0 -0.27833585666E+02  0.75805262689E+02  0.79518899696E+03  0.80823677671E+03  0.12000000000E+03 0.  0.
         25    1    1    2    0    0  0.27833585666E+02 -0.75805262689E+02  0.71720401706E+03  0.73164386721E+03  0.12000000000E+03 0.  0.
<mgrwt>
<rscale>  0 0.28965457E+03</rscale>
<asrwt>0</asrwt>
<pdfrwt beam="1">  1        2 0.23479015E+00 0.28965457E+03</pdfrwt>
<pdfrwt beam="2">  1       -2 0.21144343E-02 0.28965457E+03</pdfrwt>
<totfact> 0.94188789E+03</totfact>
</mgrwt>
</event>
<event>
 4    1  0.1759998E-004  0.2537006E+03  0.7818608E-02  0.1110988E+00
         -2   -1    0    0    0  501 -0.00000000000E+00  0.00000000000E+00  0.83921864896E+01  0.83921864896E+01  0.00000000000E+00 0. -1.
          2   -1    0    0  501    0  0.00000000000E+00 -0.00000000000E+00 -0.19173778816E+04  0.19173778816E+04  0.00000000000E+00 0. -1.
         25    1    1    2    0    0  0.23955513246E+02  0.24763487972E+02 -0.78409920498E+03  0.79397648593E+03  0.12000000000E+03 0.  0.
         25    1    1    2    0    0 -0.23955513246E+02 -0.24763487972E+02 -0.11248864901E+04  0.11317935822E+04  0.12000000000E+03 0.  0.
<mgrwt>
<rscale>  0 0.25370055E+03</rscale>
<asrwt>0</asrwt>
<pdfrwt beam="1">  1        2 0.29498143E+00 0.25370055E+03</pdfrwt>
<pdfrwt beam="2">  1       -2 0.12911047E-02 0.25370055E+03</pdfrwt>
<totfact> 0.12042231E+04</totfact>
</mgrwt>
</event>
<event>
 4    1  0.1759998E-004  0.4885466E+03  0.7818608E-02  0.1016812E+00
          1   -1    0    0  501    0  0.00000000000E+00  0.00000000000E+00  0.12269337251E+04  0.12269337251E+04  0.00000000000E+00 0. -1.
         -1   -1    0    0    0  501 -0.00000000000E+00 -0.00000000000E+00 -0.48632977698E+02  0.48632977698E+02  0.00000000000E+00 0. -1.
         25    1    1    2    0    0  0.13362875833E+03  0.15561379534E+03  0.44151916769E+03  0.50140948714E+03  0.12000000000E+03 0.  0.
         25    1    1    2    0    0 -0.13362875833E+03 -0.15561379534E+03  0.73678157973E+03  0.77415721568E+03  0.12000000000E+03 0.  0.
<mgrwt>
<rscale>  0 0.48854658E+03</rscale>
<asrwt>0</asrwt>
<pdfrwt beam="1">  1        1 0.18875901E+00 0.48854658E+03</pdfrwt>
<pdfrwt beam="2">  1       -1 0.74819975E-02 0.48854658E+03</pdfrwt>
<totfact> 0.10377328E+03</totfact>
</mgrwt>
</event>
<event>
 4    1  0.1759998E-004  0.2425526E+03  0.7818608E-02  0.1118104E+00
         -3   -1    0    0    0  501 -0.00000000000E+00  0.00000000000E+00  0.39276107753E+02  0.39276107753E+02  0.00000000000E+00 0.  1.
          3   -1    0    0  501    0  0.00000000000E+00 -0.00000000000E+00 -0.37447539283E+03  0.37447539283E+03  0.00000000000E+00 0.  1.
         25    1    1    2    0    0  0.42005524289E+01  0.14774454645E+02 -0.15312458616E+03  0.19514883561E+03  0.12000000000E+03 0.  0.
         25    1    1    2    0    0 -0.42005524289E+01 -0.14774454645E+02 -0.18207469891E+03  0.21860266498E+03  0.12000000000E+03 0.  0.
<mgrwt>
<rscale>  0 0.24255256E+03</rscale>
<asrwt>0</asrwt>
<pdfrwt beam="1">  1        3 0.57611603E-01 0.24255256E+03</pdfrwt>
<pdfrwt beam="2">  1       -3 0.60424777E-02 0.24255256E+03</pdfrwt>
<totfact> 0.12644902E+03</totfact>
</mgrwt>
</event>
<event>
 4    1  0.1759998E-004  0.2955377E+03  0.7818608E-02  0.1087493E+00
          3   -1    0    0  501    0  0.00000000000E+00  0.00000000000E+00  0.45427465961E+03  0.45427465961E+03  0.00000000000E+00 0.  1.
         -3   -1    0    0    0  501 -0.00000000000E+00 -0.00000000000E+00 -0.48067026376E+02  0.48067026376E+02  0.00000000000E+00 0.  1.
         25    1    1    2    0    0 -0.96635524672E+01  0.34363266813E+02  0.33652553329E+03  0.35905940025E+03  0.12000000000E+03 0.  0.
         25    1    1    2    0    0  0.96635524672E+01 -0.34363266813E+02  0.69682099942E+02  0.14328228573E+03  0.12000000000E+03 0.  0.
<mgrwt>
<rscale>  0 0.29553769E+03</rscale>
<asrwt>0</asrwt>
<pdfrwt beam="1">  1        3 0.69888406E-01 0.29553769E+03</pdfrwt>
<pdfrwt beam="2">  1       -3 0.73949274E-02 0.29553769E+03</pdfrwt>
<totfact> 0.61993233E+02</totfact>
</mgrwt>
</event>
<event>
 4    1  0.1759998E-004  0.2702133E+03  0.7818608E-02  0.1101158E+00
          2   -1    0    0  501    0  0.00000000000E+00  0.00000000000E+00  0.66656415470E+03  0.66656415470E+03  0.00000000000E+00 0. -1.
         -2   -1    0    0    0  501 -0.00000000000E+00 -0.00000000000E+00 -0.27384919444E+02  0.27384919444E+02  0.00000000000E+00 0. -1.
         25    1    1    2    0    0  0.59385230485E+02  0.12371176893E+02  0.35348087637E+03  0.37819093270E+03  0.12000000000E+03 0.  0.
         25    1    1    2    0    0 -0.59385230485E+02 -0.12371176893E+02  0.28569835889E+03  0.31575814144E+03  0.12000000000E+03 0.  0.
<mgrwt>
<rscale>  0 0.27021329E+03</rscale>
<asrwt>0</asrwt>
<pdfrwt beam="1">  1        2 0.10254832E+00 0.27021329E+03</pdfrwt>
<pdfrwt beam="2">  1       -2 0.42130650E-02 0.27021329E+03</pdfrwt>
<totfact> 0.11251923E+04</totfact>
</mgrwt>
</event>
<event>
 4    1  0.1759998E-004  0.5148239E+03  0.7818608E-02  0.1009980E+00
          2   -1    0    0  501    0  0.00000000000E+00  0.00000000000E+00  0.67324359243E+03  0.67324359243E+03  0.00000000000E+00 0. -1.
         -2   -1    0    0    0  501 -0.00000000000E+00 -0.00000000000E+00 -0.98420394269E+02  0.98420394269E+02  0.00000000000E+00 0. -1.
         25    1    1    2    0    0  0.25558583507E+01 -0.19097247053E+03  0.47332151512E+03  0.52431886632E+03  0.12000000000E+03 0.  0.
         25    1    1    2    0    0 -0.25558583507E+01  0.19097247053E+03  0.10150168304E+03  0.24734512037E+03  0.12000000000E+03 0.  0.
<mgrwt>
<rscale>  0 0.51482385E+03</rscale>
<asrwt>0</asrwt>
<pdfrwt beam="1">  1        2 0.10357593E+00 0.51482385E+03</pdfrwt>
<pdfrwt beam="2">  1       -2 0.15141600E-01 0.51482385E+03</pdfrwt>
<totfact> 0.14860446E+03</totfact>
</mgrwt>
</event>
<event>
 4    1  0.1759998E-004  0.3785773E+03  0.7818608E-02  0.1051461E+00
          1   -1    0    0  501    0  0.00000000000E+00  0.00000000000E+00  0.31068767297E+03  0.31068767297E+03  0.00000000000E+00 0.  1.
         -1   -1    0    0    0  501 -0.00000000000E+00 -0.00000000000E+00 -0.11532545381E+03  0.11532545381E+03  0.00000000000E+00 0.  1.
         25    1    1    2    0    0  0.68204635609E+02 -0.63536837500E+02 -0.29340284664E+02  0.15475675863E+03  0.12000000000E+03 0.  0.
         25    1    1    2    0    0 -0.68204635609E+02  0.63536837500E+02  0.22470250382E+03  0.27125636815E+03  0.12000000000E+03 0.  0.
<mgrwt>
<rscale>  0 0.37857732E+03</rscale>
<asrwt>0</asrwt>
<pdfrwt beam="1">  1        1 0.47798103E-01 0.37857732E+03</pdfrwt>
<pdfrwt beam="2">  1       -1 0.17742378E-01 0.37857732E+03</pdfrwt>
<totfact> 0.20636396E+03</totfact>
</mgrwt>
</event>
<event>
 4    1  0.1759998E-004  0.2541611E+03  0.7818608E-02  0.1110703E+00
          2   -1    0    0  501    0  0.00000000000E+00  0.00000000000E+00  0.47165241159E+03  0.47165241159E+03  0.00000000000E+00 0. -1.
         -2   -1    0    0    0  501 -0.00000000000E+00 -0.00000000000E+00 -0.34240184725E+02  0.34240184725E+02  0.00000000000E+00 0. -1.
         25    1    1    2    0    0 -0.26501863619E+02 -0.26503648744E+02  0.18175281470E+03  0.22099519864E+03  0.12000000000E+03 0.  0.
         25    1    1    2    0    0  0.26501863619E+02  0.26503648744E+02  0.25565941217E+03  0.28489739767E+03  0.12000000000E+03 0.  0.
<mgrwt>
<rscale>  0 0.25416110E+03</rscale>
<asrwt>0</asrwt>
<pdfrwt beam="1">  1        2 0.72561905E-01 0.25416110E+03</pdfrwt>
<pdfrwt beam="2">  1       -2 0.52677211E-02 0.25416110E+03</pdfrwt>
<totfact> 0.11889507E+04</totfact>
</mgrwt>
</event>
<event>
 4    1  0.1759998E-004  0.2598759E+03  0.7818608E-02  0.1107218E+00
          2   -1    0    0  501    0  0.00000000000E+00  0.00000000000E+00  0.13721541418E+03  0.13721541418E+03  0.00000000000E+00 0.  1.
         -2   -1    0    0    0  501 -0.00000000000E+00 -0.00000000000E+00 -0.12304642511E+03  0.12304642511E+03  0.00000000000E+00 0.  1.
         25    1    1    2    0    0 -0.23468340345E+02 -0.40765995742E+02  0.23578222814E+02  0.13102885941E+03  0.12000000000E+03 0.  0.
         25    1    1    2    0    0  0.23468340345E+02  0.40765995742E+02 -0.94092337403E+01  0.12923297987E+03  0.12000000000E+03 0.  0.
<mgrwt>
<rscale>  0 0.25987586E+03</rscale>
<asrwt>0</asrwt>
<pdfrwt beam="1">  1        2 0.21110064E-01 0.25987586E+03</pdfrwt>
<pdfrwt beam="2">  1       -2 0.18930219E-01 0.25987586E+03</pdfrwt>
<totfact> 0.59633302E+03</totfact>
</mgrwt>
</event>
<event>
 4    1  0.1759998E-004  0.3142148E+03  0.7818608E-02  0.1078343E+00
          2   -1    0    0  501    0  0.00000000000E+00  0.00000000000E+00  0.16369157740E+03  0.16369157740E+03  0.00000000000E+00 0.  1.
         -2   -1    0    0    0  501 -0.00000000000E+00 -0.00000000000E+00 -0.15078809014E+03  0.15078809014E+03  0.00000000000E+00 0.  1.
         25    1    1    2    0    0 -0.74982291431E+02 -0.26719891214E+02  0.69325418566E+02  0.15981961793E+03  0.12000000000E+03 0.  0.
         25    1    1    2    0    0  0.74982291431E+02  0.26719891214E+02 -0.56421931305E+02  0.15466004962E+03  0.12000000000E+03 0.  0.
<mgrwt>
<rscale>  0 0.31421483E+03</rscale>
<asrwt>0</asrwt>
<pdfrwt beam="1">  1        2 0.25183320E-01 0.31421483E+03</pdfrwt>
<pdfrwt beam="2">  1       -2 0.23198168E-01 0.31421483E+03</pdfrwt>
<totfact> 0.34629959E+03</totfact>
</mgrwt>
</event>
<event>
 4    1  0.1759998E-004  0.3718174E+03  0.7818608E-02  0.1054000E+00
          2   -1    0    0  501    0  0.00000000000E+00  0.00000000000E+00  0.15903942180E+04  0.15903942180E+04  0.00000000000E+00 0.  1.
         -2   -1    0    0    0  501 -0.00000000000E+00 -0.00000000000E+00 -0.21731747501E+02  0.21731747501E+02  0.00000000000E+00 0.  1.
         25    1    1    2    0    0 -0.13289318562E+03  0.34110751458E+02  0.94292336849E+03  0.96037941512E+03  0.12000000000E+03 0.  0.
         25    1    1    2    0    0  0.13289318562E+03 -0.34110751458E+02  0.62573910205E+03  0.65174655042E+03  0.12000000000E+03 0.  0.
<mgrwt>
<rscale>  0 0.37181740E+03</rscale>
<asrwt>0</asrwt>
<pdfrwt beam="1">  1        2 0.24467594E+00 0.37181740E+03</pdfrwt>
<pdfrwt beam="2">  1       -2 0.33433470E-02 0.37181740E+03</pdfrwt>
<totfact> 0.44025554E+03</totfact>
</mgrwt>
</event>
<event>
 4    1  0.1759998E-004  0.2683204E+03  0.7818608E-02  0.1102245E+00
         -1   -1    0    0    0  501 -0.00000000000E+00  0.00000000000E+00  0.36496002366E+02  0.36496002366E+02  0.00000000000E+00 0.  1.
          1   -1    0    0  501    0  0.00000000000E+00 -0.00000000000E+00 -0.49317604757E+03  0.49317604757E+03  0.00000000000E+00 0.  1.
         25    1    1    2    0    0  0.14255138633E+02  0.57483207763E+02 -0.20946496022E+03  0.24856206008E+03  0.12000000000E+03 0.  0.
         25    1    1    2    0    0 -0.14255138633E+02 -0.57483207763E+02 -0.24721508499E+03  0.28110998986E+03  0.12000000000E+03 0.  0.
<mgrwt>
<rscale>  0 0.26832036E+03</rscale>
<asrwt>0</asrwt>
<pdfrwt beam="1">  1        1 0.75873232E-01 0.26832036E+03</pdfrwt>
<pdfrwt beam="2">  1       -1 0.56147701E-02 0.26832036E+03</pdfrwt>
<totfact> 0.67545206E+03</totfact>
</mgrwt>
</event>
<event>
 4    1  0.1759998E-004  0.3139202E+03  0.7818608E-02  0.1078482E+00
          2   -1    0    0  501    0  0.00000000000E+00  0.00000000000E+00  0.15649262668E+04  0.15649262668E+04  0.00000000000E+00 0.  1.
         -2   -1    0    0    0  501 -0.00000000000E+00 -0.00000000000E+00 -0.15742901797E+02  0.15742901797E+02  0.00000000000E+00 0.  1.
         25    1    1    2    0    0 -0.62967835743E+02  0.49554413884E+02  0.10856341623E+04  0.10951813195E+04  0.12000000000E+03 0.  0.
         25    1    1    2    0    0  0.62967835743E+02 -0.49554413884E+02  0.46354920269E+03  0.48548784907E+03  0.12000000000E+03 0.  0.
<mgrwt>
<rscale>  0 0.31392025E+03</rscale>
<asrwt>0</asrwt>
<pdfrwt beam="1">  1        2 0.24075777E+00 0.31392025E+03</pdfrwt>
<pdfrwt beam="2">  1       -2 0.24219861E-02 0.31392025E+03</pdfrwt>
<totfact> 0.73524233E+03</totfact>
</mgrwt>
</event>
<event>
 4    1  0.1759998E-004  0.2691460E+03  0.7818608E-02  0.1101769E+00
         -2   -1    0    0    0  501 -0.00000000000E+00  0.00000000000E+00  0.43301358631E+02  0.43301358631E+02  0.00000000000E+00 0.  1.
          2   -1    0    0  501    0  0.00000000000E+00 -0.00000000000E+00 -0.41822911079E+03  0.41822911079E+03  0.00000000000E+00 0.  1.
         25    1    1    2    0    0  0.31963761027E+02  0.19126580505E+02 -0.10482599173E+03  0.16363372709E+03  0.12000000000E+03 0.  0.
         25    1    1    2    0    0 -0.31963761027E+02 -0.19126580505E+02 -0.27010176043E+03  0.29789674232E+03  0.12000000000E+03 0.  0.
<mgrwt>
<rscale>  0 0.26914597E+03</rscale>
<asrwt>0</asrwt>
<pdfrwt beam="1">  1        2 0.64342938E-01 0.26914597E+03</pdfrwt>
<pdfrwt beam="2">  1       -2 0.66617477E-02 0.26914597E+03</pdfrwt>
<totfact> 0.94921035E+03</totfact>
</mgrwt>
</event>
<event>
 4    1  0.1759998E-004  0.3912577E+03  0.7818608E-02  0.1046850E+00
          1   -1    0    0  501    0  0.00000000000E+00  0.00000000000E+00  0.14507184056E+04  0.14507184056E+04  0.00000000000E+00 0.  1.
         -1   -1    0    0    0  501 -0.00000000000E+00 -0.00000000000E+00 -0.26380485231E+02  0.26380485231E+02  0.00000000000E+00 0.  1.
         25    1    1    2    0    0 -0.13283489606E+01  0.10965429287E+03  0.11230451619E+04  0.11347494279E+04  0.12000000000E+03 0.  0.
         25    1    1    2    0    0  0.13283489606E+01 -0.10965429287E+03  0.30129275840E+03  0.34234946286E+03  0.12000000000E+03 0.  0.
<mgrwt>
<rscale>  0 0.39125774E+03</rscale>
<asrwt>0</asrwt>
<pdfrwt beam="1">  1        1 0.22318738E+00 0.39125774E+03</pdfrwt>
<pdfrwt beam="2">  1       -1 0.40585373E-02 0.39125774E+03</pdfrwt>
<totfact> 0.18533319E+03</totfact>
</mgrwt>
</event>
<event>
 4    1  0.1759998E-004  0.2771267E+03  0.7818608E-02  0.1097269E+00
         -2   -1    0    0    0  501 -0.00000000000E+00  0.00000000000E+00  0.29770580431E+03  0.29770580431E+03  0.00000000000E+00 0.  1.
          2   -1    0    0  501    0  0.00000000000E+00 -0.00000000000E+00 -0.64492558044E+02  0.64492558044E+02  0.00000000000E+00 0.  1.
         25    1    1    2    0    0  0.10893265598E+02 -0.65124898384E+02  0.89194562868E+02  0.16344903080E+03  0.12000000000E+03 0.  0.
         25    1    1    2    0    0 -0.10893265598E+02  0.65124898384E+02  0.14401868340E+03  0.19874933156E+03  0.12000000000E+03 0.  0.
<mgrwt>
<rscale>  0 0.27712675E+03</rscale>
<asrwt>0</asrwt>
<pdfrwt beam="1">  1        2 0.99219322E-02 0.27712675E+03</pdfrwt>
<pdfrwt beam="2">  1       -2 0.45800892E-01 0.27712675E+03</pdfrwt>
<totfact> 0.29500525E+03</totfact>
</mgrwt>
</event>
<event>
 4    1  0.1759998E-004  0.2650337E+03  0.7818608E-02  0.1104156E+00
          2   -1    0    0  501    0  0.00000000000E+00  0.00000000000E+00  0.32451797000E+03  0.32451797000E+03  0.00000000000E+00 0.  1.
         -2   -1    0    0    0  501 -0.00000000000E+00 -0.00000000000E+00 -0.54113227489E+02  0.54113227489E+02  0.00000000000E+00 0.  1.
         25    1    1    2    0    0 -0.21832095627E+02  0.48676339931E+02  0.10985951384E+03  0.17121664419E+03  0.12000000000E+03 0.  0.
         25    1    1    2    0    0  0.21832095627E+02 -0.48676339931E+02  0.16054522867E+03  0.20741455329E+03  0.12000000000E+03 0.  0.
<mgrwt>
<rscale>  0 0.26503369E+03</rscale>
<asrwt>0</asrwt>
<pdfrwt beam="1">  1        2 0.49925840E-01 0.26503369E+03</pdfrwt>
<pdfrwt beam="2">  1       -2 0.83251121E-02 0.26503369E+03</pdfrwt>
<totfact> 0.88269012E+03</totfact>
</mgrwt>
</event>
<event>
 4    1  0.1759998E-004  0.3240171E+03  0.7818608E-02  0.1073815E+00
         -1   -1    0    0    0  501 -0.00000000000E+00  0.00000000000E+00  0.27625645826E+02  0.27625645826E+02  0.00000000000E+00 0.  1.
          1   -1    0    0  501    0  0.00000000000E+00 -0.00000000000E+00 -0.95008699379E+03  0.95008699379E+03  0.00000000000E+00 0.  1.
         25    1    1    2    0    0 -0.99462428917E+01 -0.10719892252E+03 -0.41292942462E+03  0.44328461112E+03  0.12000000000E+03 0.  0.
         25    1    1    2    0    0  0.99462428917E+01  0.10719892252E+03 -0.50953192334E+03  0.53442802849E+03  0.12000000000E+03 0.  0.
<mgrwt>
<rscale>  0 0.32401708E+03</rscale>
<asrwt>0</asrwt>
<pdfrwt beam="1">  1        1 0.14616723E+00 0.32401708E+03</pdfrwt>
<pdfrwt beam="2">  1       -1 0.42500993E-02 0.32401708E+03</pdfrwt>
<totfact> 0.39297430E+03</totfact>
</mgrwt>
</event>
<event>
 4    1  0.1759998E-004  0.3960685E+03  0.7818608E-02  0.1045150E+00
          2   -1    0    0  501    0  0.00000000000E+00  0.00000000000E+00  0.14103748153E+04  0.14103748153E+04  0.00000000000E+00 0.  1.
         -2   -1    0    0    0  501 -0.00000000000E+00 -0.00000000000E+00 -0.27806478092E+02  0.27806478092E+02  0.00000000000E+00 0.  1.
         25    1    1    2    0    0  0.10409383643E+03 -0.10906614878E+03  0.52541583668E+03  0.55963626851E+03  0.12000000000E+03 0.  0.
         25    1    1    2    0    0 -0.10409383643E+03  0.10906614878E+03  0.85715250054E+03  0.87854502489E+03  0.12000000000E+03 0.  0.
<mgrwt>
<rscale>  0 0.39606846E+03</rscale>
<asrwt>0</asrwt>
<pdfrwt beam="1">  1        2 0.21698069E+00 0.39606846E+03</pdfrwt>
<pdfrwt beam="2">  1       -2 0.42779208E-02 0.39606846E+03</pdfrwt>
<totfact> 0.37949774E+03</totfact>
</mgrwt>
</event>
<event>
 4    1  0.1759998E-004  0.2493410E+03  0.7818608E-02  0.1113722E+00
          2   -1    0    0  501    0  0.00000000000E+00  0.00000000000E+00  0.50157620893E+03  0.50157620893E+03  0.00000000000E+00 0. -1.
         -2   -1    0    0    0  501 -0.00000000000E+00 -0.00000000000E+00 -0.30987783100E+02  0.30987783100E+02  0.00000000000E+00 0. -1.
         25    1    1    2    0    0 -0.21240425857E+01 -0.32550052703E+02  0.21634404198E+03  0.24953709542E+03  0.12000000000E+03 0.  0.
         25    1    1    2    0    0  0.21240425857E+01  0.32550052703E+02  0.25424438384E+03  0.28302689661E+03  0.12000000000E+03 0.  0.
<mgrwt>
<rscale>  0 0.24934101E+03</rscale>
<asrwt>0</asrwt>
<pdfrwt beam="1">  1        2 0.77165565E-01 0.24934101E+03</pdfrwt>
<pdfrwt beam="2">  1       -2 0.47673516E-02 0.24934101E+03</pdfrwt>
<totfact> 0.12908138E+04</totfact>
</mgrwt>
</event>
<event>
 4    1  0.1759998E-004  0.2806637E+03  0.7818608E-02  0.1095327E+00
         -2   -1    0    0    0  501 -0.00000000000E+00  0.00000000000E+00  0.17303888162E+04  0.17303888162E+04  0.00000000000E+00 0. -1.
          2   -1    0    0  501    0  0.00000000000E+00 -0.00000000000E+00 -0.11380698157E+02  0.11380698157E+02  0.00000000000E+00 0. -1.
         25    1    1    2    0    0  0.20226565027E+02 -0.40178748724E+02  0.50464913331E+03  0.52066706592E+03  0.12000000000E+03 0.  0.
         25    1    1    2    0    0 -0.20226565027E+02  0.40178748724E+02  0.12143589848E+04  0.12211024485E+04  0.12000000000E+03 0.  0.
<mgrwt>
<rscale>  0 0.28066373E+03</rscale>
<asrwt>0</asrwt>
<pdfrwt beam="1">  1        2 0.17508780E-02 0.28066373E+03</pdfrwt>
<pdfrwt beam="2">  1       -2 0.26621346E+00 0.28066373E+03</pdfrwt>
<totfact> 0.37970532E+02</totfact>
</mgrwt>
</event>
<event>
 4    1  0.1759998E-004  0.2767038E+03  0.7818608E-02  0.1097503E+00
         -2   -1    0    0    0  501 -0.00000000000E+00  0.00000000000E+00  0.78059761654E+01  0.78059761654E+01  0.00000000000E+00 0. -1.
          2   -1    0    0  501    0  0.00000000000E+00 -0.00000000000E+00 -0.24521279700E+04  0.24521279700E+04  0.00000000000E+00 0. -1.
         25    1    1    2    0    0  0.65225145689E+02 -0.81962704319E+01 -0.10400208425E+04  0.10489827698E+04  0.12000000000E+03 0.  0.
         25    1    1    2    0    0 -0.65225145689E+02  0.81962704319E+01 -0.14043011513E+04  0.14109511763E+04  0.12000000000E+03 0.  0.
<mgrwt>
<rscale>  0 0.27670383E+03</rscale>
<asrwt>0</asrwt>
<pdfrwt beam="1">  1        2 0.37725064E+00 0.27670383E+03</pdfrwt>
<pdfrwt beam="2">  1       -2 0.12009188E-02 0.27670383E+03</pdfrwt>
<totfact> 0.69565235E+03</totfact>
</mgrwt>
</event>
<event>
 4    1  0.1759998E-004  0.2552207E+03  0.7818608E-02  0.1110049E+00
          1   -1    0    0  501    0  0.00000000000E+00  0.00000000000E+00  0.28398293230E+04  0.28398293230E+04  0.00000000000E+00 0.  1.
         -1   -1    0    0    0  501 -0.00000000000E+00 -0.00000000000E+00 -0.57342899237E+01  0.57342899237E+01  0.00000000000E+00 0.  1.
         25    1    1    2    0    0 -0.35187819183E+01  0.25073837415E+02  0.10239097333E+04  0.10312285009E+04  0.12000000000E+03 0.  0.
         25    1    1    2    0    0  0.35187819183E+01 -0.25073837415E+02  0.18101852998E+04  0.18143351120E+04  0.12000000000E+03 0.  0.
<mgrwt>
<rscale>  0 0.25522073E+03</rscale>
<asrwt>0</asrwt>
<pdfrwt beam="1">  1        1 0.43689569E+00 0.25522073E+03</pdfrwt>
<pdfrwt beam="2">  1       -1 0.88220072E-03 0.25522073E+03</pdfrwt>
<totfact> 0.21108086E+03</totfact>
</mgrwt>
</event>
<event>
 4    1  0.1759998E-004  0.3895628E+03  0.7818608E-02  0.1047455E+00
         -2   -1    0    0    0  501 -0.00000000000E+00  0.00000000000E+00  0.41805158608E+02  0.41805158608E+02  0.00000000000E+00 0. -1.
          2   -1    0    0  501    0  0.00000000000E+00 -0.00000000000E+00 -0.90753866520E+03  0.90753866520E+03  0.00000000000E+00 0. -1.
         25    1    1    2    0    0 -0.10233224982E+03 -0.10295346637E+03 -0.55394382575E+03  0.58508552168E+03  0.12000000000E+03 0.  0.
         25    1    1    2    0    0  0.10233224982E+03  0.10295346637E+03 -0.31178968084E+03  0.36425830213E+03  0.12000000000E+03 0.  0.
<mgrwt>
<rscale>  0 0.38956282E+03</rscale>
<asrwt>0</asrwt>
<pdfrwt beam="1">  1        2 0.13962133E+00 0.38956282E+03</pdfrwt>
<pdfrwt beam="2">  1       -2 0.64315631E-02 0.38956282E+03</pdfrwt>
<totfact> 0.40119567E+03</totfact>
</mgrwt>
</event>
<event>
 4    1  0.1759998E-004  0.3130545E+03  0.7818608E-02  0.1078891E+00
          2   -1    0    0  501    0  0.00000000000E+00  0.00000000000E+00  0.16324612462E+04  0.16324612462E+04  0.00000000000E+00 0.  1.
         -2   -1    0    0    0  501 -0.00000000000E+00 -0.00000000000E+00 -0.15008493882E+02  0.15008493882E+02  0.00000000000E+00 0.  1.
         25    1    1    2    0    0 -0.28135037437E+02  0.92505429464E+02  0.66441788599E+03  0.68205568836E+03  0.12000000000E+03 0.  0.
         25    1    1    2    0    0  0.28135037437E+02 -0.92505429464E+02  0.95303486638E+03  0.96541405176E+03  0.12000000000E+03 0.  0.
<mgrwt>
<rscale>  0 0.31305453E+03</rscale>
<asrwt>0</asrwt>
<pdfrwt beam="1">  1        2 0.25114774E+00 0.31305453E+03</pdfrwt>
<pdfrwt beam="2">  1       -2 0.23090003E-02 0.31305453E+03</pdfrwt>
<totfact> 0.72645249E+03</totfact>
</mgrwt>
</event>
<event>
 4    1  0.1759998E-004  0.2514912E+03  0.7818608E-02  0.1112366E+00
         -2   -1    0    0    0  501 -0.00000000000E+00  0.00000000000E+00  0.25682372408E+02  0.25682372408E+02  0.00000000000E+00 0.  1.
          2   -1    0    0  501    0  0.00000000000E+00 -0.00000000000E+00 -0.61567344365E+03  0.61567344365E+03  0.00000000000E+00 0.  1.
         25    1    1    2    0    0 -0.13324457638E+02 -0.15404688828E+02 -0.37552366133E+03  0.39475671727E+03  0.12000000000E+03 0.  0.
         25    1    1    2    0    0  0.13324457638E+02  0.15404688828E+02 -0.21446740991E+03  0.24659909879E+03  0.12000000000E+03 0.  0.
<mgrwt>
<rscale>  0 0.25149119E+03</rscale>
<asrwt>0</asrwt>
<pdfrwt beam="1">  1        2 0.94718992E-01 0.25149119E+03</pdfrwt>
<pdfrwt beam="2">  1       -2 0.39511342E-02 0.25149119E+03</pdfrwt>
<totfact> 0.13568746E+04</totfact>
</mgrwt>
</event>
<event>
 4    1  0.1759998E-004  0.2701903E+03  0.7818608E-02  0.1101171E+00
         -2   -1    0    0    0  501 -0.00000000000E+00  0.00000000000E+00  0.40672311600E+02  0.40672311600E+02  0.00000000000E+00 0.  1.
          2   -1    0    0  501    0  0.00000000000E+00 -0.00000000000E+00 -0.44872530818E+03  0.44872530818E+03  0.00000000000E+00 0.  1.
         25    1    1    2    0    0  0.16567422006E+02 -0.57642015513E+02 -0.23287205149E+03  0.26874983495E+03  0.12000000000E+03 0.  0.
         25    1    1    2    0    0 -0.16567422006E+02  0.57642015513E+02 -0.17518094509E+03  0.22064778482E+03  0.12000000000E+03 0.  0.
<mgrwt>
<rscale>  0 0.27019027E+03</rscale>
<asrwt>0</asrwt>
<pdfrwt beam="1">  1        2 0.69034660E-01 0.27019027E+03</pdfrwt>
<pdfrwt beam="2">  1       -2 0.62572790E-02 0.27019027E+03</pdfrwt>
<totfact> 0.96794450E+03</totfact>
</mgrwt>
</event>
<event>
 4    1  0.1759998E-004  0.2715840E+03  0.7818608E-02  0.1100376E+00
          2   -1    0    0  501    0  0.00000000000E+00  0.00000000000E+00  0.24143019437E+03  0.24143019437E+03  0.00000000000E+00 0. -1.
         -2   -1    0    0    0  501 -0.00000000000E+00 -0.00000000000E+00 -0.76376000300E+02  0.76376000300E+02  0.00000000000E+00 0. -1.
         25    1    1    2    0    0  0.54784759378E+02  0.21263493445E+02  0.11085370290E+03  0.17361465797E+03  0.12000000000E+03 0.  0.
         25    1    1    2    0    0 -0.54784759378E+02 -0.21263493445E+02  0.54200491165E+02  0.14419153670E+03  0.12000000000E+03 0.  0.
<mgrwt>
<rscale>  0 0.27158404E+03</rscale>
<asrwt>0</asrwt>
<pdfrwt beam="1">  1        2 0.37143107E-01 0.27158404E+03</pdfrwt>
<pdfrwt beam="2">  1       -2 0.11750154E-01 0.27158404E+03</pdfrwt>
<totfact> 0.70292242E+03</totfact>
</mgrwt>
</event>
<event>
 4    1  0.1759998E-004  0.3697489E+03  0.7818608E-02  0.1054789E+00
         -1   -1    0    0    0  501 -0.00000000000E+00  0.00000000000E+00  0.34287929380E+02  0.34287929380E+02  0.00000000000E+00 0.  1.
          1   -1    0    0  501    0  0.00000000000E+00 -0.00000000000E+00 -0.99681055220E+03  0.99681055220E+03  0.00000000000E+00 0.  1.
         25    1    1    2    0    0 -0.12653897559E+03  0.50922335767E+02 -0.38573757752E+03  0.42637855871E+03  0.12000000000E+03 0.  0.
         25    1    1    2    0    0  0.12653897559E+03 -0.50922335767E+02 -0.57678504531E+03  0.60471992287E+03  0.12000000000E+03 0.  0.
<mgrwt>
<rscale>  0 0.36974894E+03</rscale>
<asrwt>0</asrwt>
<pdfrwt beam="1">  1        1 0.15335544E+00 0.36974894E+03</pdfrwt>
<pdfrwt beam="2">  1       -1 0.52750669E-02 0.36974894E+03</pdfrwt>
<totfact> 0.26165872E+03</totfact>
</mgrwt>
</event>
<event>
 4    1  0.1759998E-004  0.2827634E+03  0.7818608E-02  0.1094189E+00
          1   -1    0    0  501    0  0.00000000000E+00  0.00000000000E+00  0.51086710049E+03  0.51086710049E+03  0.00000000000E+00 0.  1.
         -1   -1    0    0    0  501 -0.00000000000E+00 -0.00000000000E+00 -0.39127165324E+02  0.39127165324E+02  0.00000000000E+00 0.  1.
         25    1    1    2    0    0  0.41302344714E+02 -0.25027626338E+02  0.12487287672E+03  0.17979293952E+03  0.12000000000E+03 0.  0.
         25    1    1    2    0    0 -0.41302344714E+02  0.25027626338E+02  0.34686705844E+03  0.37020132630E+03  0.12000000000E+03 0.  0.
<mgrwt>
<rscale>  0 0.28276337E+03</rscale>
<asrwt>0</asrwt>
<pdfrwt beam="1">  1        1 0.78594934E-01 0.28276337E+03</pdfrwt>
<pdfrwt beam="2">  1       -1 0.60195643E-02 0.28276337E+03</pdfrwt>
<totfact> 0.58127861E+03</totfact>
</mgrwt>
</event>
<event>
 4    1  0.1759998E-004  0.2905293E+03  0.7818608E-02  0.1090073E+00
         -1   -1    0    0    0  501 -0.00000000000E+00  0.00000000000E+00  0.69245191686E+03  0.69245191686E+03  0.00000000000E+00 0. -1.
          1   -1    0    0  501    0  0.00000000000E+00 -0.00000000000E+00 -0.30474065378E+02  0.30474065378E+02  0.00000000000E+00 0. -1.
         25    1    1    2    0    0 -0.43667417687E+02  0.40615160385E+02  0.47054254550E+03  0.48925118472E+03  0.12000000000E+03 0.  0.
         25    1    1    2    0    0  0.43667417687E+02 -0.40615160385E+02  0.19143530598E+03  0.23367479752E+03  0.12000000000E+03 0.  0.
<mgrwt>
<rscale>  0 0.29052934E+03</rscale>
<asrwt>0</asrwt>
<pdfrwt beam="1">  1        1 0.46883183E-02 0.29052934E+03</pdfrwt>
<pdfrwt beam="2">  1       -1 0.10653105E+00 0.29052934E+03</pdfrwt>
<totfact> 0.15913580E+03</totfact>
</mgrwt>
</event>
<event>
 4    1  0.1759998E-004  0.3389643E+03  0.7818608E-02  0.1067238E+00
         -2   -1    0    0    0  501 -0.00000000000E+00  0.00000000000E+00  0.13888597880E+03  0.13888597880E+03  0.00000000000E+00 0.  1.
          2   -1    0    0  501    0  0.00000000000E+00 -0.00000000000E+00 -0.20681853977E+03  0.20681853977E+03  0.00000000000E+00 0.  1.
         25    1    1    2    0    0  0.18806438495E+02  0.65816253959E+02  0.66163005782E+02  0.15317638443E+03  0.12000000000E+03 0.  0.
         25    1    1    2    0    0 -0.18806438495E+02 -0.65816253959E+02 -0.13409556675E+03  0.19252813414E+03  0.12000000000E+03 0.  0.
<mgrwt>
<rscale>  0 0.33896428E+03</rscale>
<asrwt>0</asrwt>
<pdfrwt beam="1">  1        2 0.31818237E-01 0.33896428E+03</pdfrwt>
<pdfrwt beam="2">  1       -2 0.21367074E-01 0.33896428E+03</pdfrwt>
<totfact> 0.30883811E+03</totfact>
</mgrwt>
</event>
<event>
 4    1  0.1759998E-004  0.2560862E+03  0.7818608E-02  0.1109518E+00
          1   -1    0    0  501    0  0.00000000000E+00  0.00000000000E+00  0.56781155032E+03  0.56781155032E+03  0.00000000000E+00 0.  1.
         -1   -1    0    0    0  501 -0.00000000000E+00 -0.00000000000E+00 -0.28874080482E+02  0.28874080482E+02  0.00000000000E+00 0.  1.
         25    1    1    2    0    0  0.43587985994E+02  0.85540678315E+01  0.28038551318E+03  0.30820305092E+03  0.12000000000E+03 0.  0.
         25    1    1    2    0    0 -0.43587985994E+02 -0.85540678315E+01  0.25855195666E+03  0.28848257987E+03  0.12000000000E+03 0.  0.
<mgrwt>
<rscale>  0 0.25608621E+03</rscale>
<asrwt>0</asrwt>
<pdfrwt beam="1">  1        1 0.87355615E-01 0.25608621E+03</pdfrwt>
<pdfrwt beam="2">  1       -1 0.44421667E-02 0.25608621E+03</pdfrwt>
<totfact> 0.79237978E+03</totfact>
</mgrwt>
</event>
<event>
 4    1  0.1759998E-004  0.2414977E+03  0.7818608E-02  0.1118799E+00
         -2   -1    0    0    0  501 -0.00000000000E+00  0.00000000000E+00  0.24172578459E+02  0.24172578459E+02  0.00000000000E+00 0. -1.
          2   -1    0    0  501    0  0.00000000000E+00 -0.00000000000E+00 -0.60317435520E+03  0.60317435520E+03  0.00000000000E+00 0. -1.
         25    1    1    2    0    0  0.21280982090E+01  0.12982413405E+02 -0.29647500431E+03  0.32011013736E+03  0.12000000000E+03 0.  0.
         25    1    1    2    0    0 -0.21280982090E+01 -0.12982413405E+02 -0.28252677243E+03  0.30723679630E+03  0.12000000000E+03 0.  0.
<mgrwt>
<rscale>  0 0.24149766E+03</rscale>
<asrwt>0</asrwt>
<pdfrwt beam="1">  1        2 0.92796056E-01 0.24149766E+03</pdfrwt>
<pdfrwt beam="2">  1       -2 0.37188582E-02 0.24149766E+03</pdfrwt>
<totfact> 0.15187461E+04</totfact>
</mgrwt>
</event>
<event>
 4    1  0.1759998E-004  0.1038968E+04  0.7818608E-02  0.9266809E-01
         -1   -1    0    0    0  501 -0.00000000000E+00  0.00000000000E+00  0.87400455198E+03  0.87400455198E+03  0.00000000000E+00 0. -1.
          1   -1    0    0  501    0  0.00000000000E+00 -0.00000000000E+00 -0.30876678339E+03  0.30876678339E+03  0.00000000000E+00 0. -1.
         25    1    1    2    0    0  0.33939262274E+03 -0.35583007978E+03  0.41567740981E+03  0.65497336363E+03  0.12000000000E+03 0.  0.
         25    1    1    2    0    0 -0.33939262274E+03  0.35583007978E+03  0.14956035878E+03  0.52779797173E+03  0.12000000000E+03 0.  0.
<mgrwt>
<rscale>  0 0.10389679E+04</rscale>
<asrwt>0</asrwt>
<pdfrwt beam="1">  1        1 0.47502582E-01 0.10389679E+04</pdfrwt>
<pdfrwt beam="2">  1       -1 0.13446224E+00 0.10389679E+04</pdfrwt>
<totfact> 0.39315763E+01</totfact>
</mgrwt>
</event>
<event>
 4    1  0.1759998E-004  0.4622529E+03  0.7818608E-02  0.1024130E+00
          2   -1    0    0  501    0  0.00000000000E+00  0.00000000000E+00  0.40440973848E+03  0.40440973848E+03  0.00000000000E+00 0. -1.
         -2   -1    0    0    0  501 -0.00000000000E+00 -0.00000000000E+00 -0.13209233824E+03  0.13209233824E+03  0.00000000000E+00 0. -1.
         25    1    1    2    0    0 -0.29810070276E+02  0.60777619424E+02 -0.79220431803E+02  0.15892902859E+03  0.12000000000E+03 0.  0.
         25    1    1    2    0    0  0.29810070276E+02 -0.60777619424E+02  0.35153783204E+03  0.37757304813E+03  0.12000000000E+03 0.  0.
<mgrwt>
<rscale>  0 0.46225287E+03</rscale>
<asrwt>0</asrwt>
<pdfrwt beam="1">  1        2 0.62216882E-01 0.46225287E+03</pdfrwt>
<pdfrwt beam="2">  1       -2 0.20321898E-01 0.46225287E+03</pdfrwt>
<totfact> 0.16231408E+03</totfact>
</mgrwt>
</event>
<event>
 4    1  0.1759998E-004  0.2825793E+03  0.7818608E-02  0.1094288E+00
         -2   -1    0    0    0  501 -0.00000000000E+00  0.00000000000E+00  0.27434486581E+02  0.27434486581E+02  0.00000000000E+00 0. -1.
          2   -1    0    0  501    0  0.00000000000E+00 -0.00000000000E+00 -0.72765226777E+03  0.72765226777E+03  0.00000000000E+00 0. -1.
         25    1    1    2    0    0 -0.32689059491E+02  0.17998718346E+02 -0.17755017090E+03  0.21752377263E+03  0.12000000000E+03 0.  0.
         25    1    1    2    0    0  0.32689059491E+02 -0.17998718346E+02 -0.52266761029E+03  0.53756298172E+03  0.12000000000E+03 0.  0.
<mgrwt>
<rscale>  0 0.28257931E+03</rscale>
<asrwt>0</asrwt>
<pdfrwt beam="1">  1        2 0.11194651E+00 0.28257931E+03</pdfrwt>
<pdfrwt beam="2">  1       -2 0.42206898E-02 0.28257931E+03</pdfrwt>
<totfact> 0.10106165E+04</totfact>
</mgrwt>
</event>
<event>
 4    1  0.1759998E-004  0.2909069E+03  0.7818608E-02  0.1089877E+00
         -1   -1    0    0    0  501 -0.00000000000E+00  0.00000000000E+00  0.64970092525E+01  0.64970092525E+01  0.00000000000E+00 0. -1.
          1   -1    0    0  501    0  0.00000000000E+00 -0.00000000000E+00 -0.32563750778E+04  0.32563750778E+04  0.00000000000E+00 0. -1.
         25    1    1    2    0    0  0.37228542475E+02  0.74699122406E+01 -0.24426410718E+04  0.24458816753E+04  0.12000000000E+03 0.  0.
         25    1    1    2    0    0 -0.37228542475E+02 -0.74699122406E+01 -0.80723699671E+03  0.81699041170E+03  0.12000000000E+03 0.  0.
<mgrwt>
<rscale>  0 0.29090685E+03</rscale>
<asrwt>0</asrwt>
<pdfrwt beam="1">  1        1 0.50098182E+00 0.29090685E+03</pdfrwt>
<pdfrwt beam="2">  1       -1 0.99953781E-03 0.29090685E+03</pdfrwt>
<totfact> 0.89254275E+02</totfact>
</mgrwt>
</event>
<event>
 4    1  0.1759998E-004  0.2731380E+03  0.7818608E-02  0.1099497E+00
         -1   -1    0    0    0  501 -0.00000000000E+00  0.00000000000E+00  0.22087837288E+02  0.22087837288E+02  0.00000000000E+00 0. -1.
          1   -1    0    0  501    0  0.00000000000E+00 -0.00000000000E+00 -0.84440575524E+03  0.84440575524E+03  0.00000000000E+00 0. -1.
         25    1    1    2    0    0 -0.18302544430E+02  0.50003462935E+02 -0.53052454595E+03  0.54652687335E+03  0.12000000000E+03 0.  0.
         25    1    1    2    0    0  0.18302544430E+02 -0.50003462935E+02 -0.29179337201E+03  0.31996671918E+03  0.12000000000E+03 0.  0.
<mgrwt>
<rscale>  0 0.27313804E+03</rscale>
<asrwt>0</asrwt>
<pdfrwt beam="1">  1        1 0.12990854E+00 0.27313804E+03</pdfrwt>
<pdfrwt beam="2">  1       -1 0.33981297E-02 0.27313804E+03</pdfrwt>
<totfact> 0.66247297E+03</totfact>
</mgrwt>
</event>
<event>
 4    1  0.1759998E-004  0.3027451E+03  0.7818608E-02  0.1083876E+00
          1   -1    0    0  501    0  0.00000000000E+00  0.00000000000E+00  0.45367192381E+03  0.45367192381E+03  0.00000000000E+00 0. -1.
         -1   -1    0    0    0  501 -0.00000000000E+00 -0.00000000000E+00 -0.50507075457E+02  0.50507075457E+02  0.00000000000E+00 0. -1.
         25    1    1    2    0    0 -0.79691199485E+02 -0.42922681329E+02  0.17176375469E+03  0.22824511226E+03  0.12000000000E+03 0.  0.
         25    1    1    2    0    0  0.79691199485E+02  0.42922681329E+02  0.23140109366E+03  0.27593388700E+03  0.12000000000E+03 0.  0.
<mgrwt>
<rscale>  0 0.30274506E+03</rscale>
<asrwt>0</asrwt>
<pdfrwt beam="1">  1        1 0.69795678E-01 0.30274506E+03</pdfrwt>
<pdfrwt beam="2">  1       -1 0.77703196E-02 0.30274506E+03</pdfrwt>
<totfact> 0.46221900E+03</totfact>
</mgrwt>
</event>
<event>
 4    1  0.1759998E-004  0.3039731E+03  0.7818608E-02  0.1083271E+00
         -2   -1    0    0    0  501 -0.00000000000E+00  0.00000000000E+00  0.28572747002E+02  0.28572747002E+02  0.00000000000E+00 0.  1.
          2   -1    0    0  501    0  0.00000000000E+00 -0.00000000000E+00 -0.80845970175E+03  0.80845970175E+03  0.00000000000E+00 0.  1.
         25    1    1    2    0    0  0.15082342230E+02  0.68775342638E+02 -0.22148936490E+03  0.26156273352E+03  0.12000000000E+03 0.  0.
         25    1    1    2    0    0 -0.15082342230E+02 -0.68775342638E+02 -0.55839758985E+03  0.57546971524E+03  0.12000000000E+03 0.  0.
<mgrwt>
<rscale>  0 0.30397312E+03</rscale>
<asrwt>0</asrwt>
<pdfrwt beam="1">  1        2 0.12437841E+00 0.30397312E+03</pdfrwt>
<pdfrwt beam="2">  1       -2 0.43958073E-02 0.30397312E+03</pdfrwt>
<totfact> 0.83440729E+03</totfact>
</mgrwt>
</event>
<event>
 4    1  0.1759998E-004  0.3135934E+03  0.7818608E-02  0.1078636E+00
         -2   -1    0    0    0  501 -0.00000000000E+00  0.00000000000E+00  0.73690911219E+01  0.73690911219E+01  0.00000000000E+00 0. -1.
          2   -1    0    0  501    0  0.00000000000E+00 -0.00000000000E+00 -0.33362601193E+04  0.33362601193E+04  0.00000000000E+00 0. -1.
         25    1    1    2    0    0 -0.31174008278E+01 -0.54646796372E+02 -0.25684943969E+04  0.25718785852E+04  0.12000000000E+03 0.  0.
         25    1    1    2    0    0  0.31174008278E+01  0.54646796372E+02 -0.76039663136E+03  0.77175062522E+03  0.12000000000E+03 0.  0.
<mgrwt>
<rscale>  0 0.31359340E+03</rscale>
<asrwt>0</asrwt>
<pdfrwt beam="1">  1        2 0.51326979E+00 0.31359340E+03</pdfrwt>
<pdfrwt beam="2">  1       -2 0.11337085E-02 0.31359340E+03</pdfrwt>
<totfact> 0.22893802E+03</totfact>
</mgrwt>
</event>
<event>
 4    1  0.1759998E-004  0.4158848E+03  0.7818608E-02  0.1038414E+00
          1   -1    0    0  501    0  0.00000000000E+00  0.00000000000E+00  0.18127821004E+04  0.18127821004E+04  0.00000000000E+00 0.  1.
         -1   -1    0    0    0  501 -0.00000000000E+00 -0.00000000000E+00 -0.23852857774E+02  0.23852857774E+02  0.00000000000E+00 0.  1.
         25    1    1    2    0    0 -0.89328555610E+02 -0.45425034652E+00  0.15323012453E+04  0.15395866015E+04  0.12000000000E+03 0.  0.
         25    1    1    2    0    0  0.89328555610E+02  0.45425034652E+00  0.25662799736E+03  0.29704835670E+03  0.12000000000E+03 0.  0.
<mgrwt>
<rscale>  0 0.41588476E+03</rscale>
<asrwt>0</asrwt>
<pdfrwt beam="1">  1        1 0.27888944E+00 0.41588476E+03</pdfrwt>
<pdfrwt beam="2">  1       -1 0.36696719E-02 0.41588476E+03</pdfrwt>
<totfact> 0.12373103E+03</totfact>
</mgrwt>
</event>
<event>
 4    1  0.1759998E-004  0.2798949E+03  0.7818608E-02  0.1095746E+00
          2   -1    0    0  501    0  0.00000000000E+00  0.00000000000E+00  0.15324122983E+04  0.15324122983E+04  0.00000000000E+00 0. -1.
         -2   -1    0    0    0  501 -0.00000000000E+00 -0.00000000000E+00 -0.12780691880E+02  0.12780691880E+02  0.00000000000E+00 0. -1.
         25    1    1    2    0    0  0.61278744711E+02  0.34542000713E+02  0.84481451507E+03  0.85618911418E+03  0.12000000000E+03 0.  0.
         25    1    1    2    0    0 -0.61278744711E+02 -0.34542000713E+02  0.67481709135E+03  0.68900387600E+03  0.12000000000E+03 0.  0.
<mgrwt>
<rscale>  0 0.27989490E+03</rscale>
<asrwt>0</asrwt>
<pdfrwt beam="1">  1        2 0.23575559E+00 0.27989490E+03</pdfrwt>
<pdfrwt beam="2">  1       -2 0.19662615E-02 0.27989490E+03</pdfrwt>
<totfact> 0.10396347E+04</totfact>
</mgrwt>
</event>
<event>
 4    1  0.1759998E-004  0.2988837E+03  0.7818608E-02  0.1085800E+00
         -2   -1    0    0    0  501 -0.00000000000E+00  0.00000000000E+00  0.12750411862E+03  0.12750411862E+03  0.00000000000E+00 0.  1.
          2   -1    0    0  501    0  0.00000000000E+00 -0.00000000000E+00 -0.17515407190E+03  0.17515407190E+03  0.00000000000E+00 0.  1.
         25    1    1    2    0    0  0.68089534404E+01  0.29086962561E+02  0.61142063696E+02  0.13795203946E+03  0.12000000000E+03 0.  0.
         25    1    1    2    0    0 -0.68089534404E+01 -0.29086962561E+02 -0.10879201698E+03  0.16470615106E+03  0.12000000000E+03 0.  0.
<mgrwt>
<rscale>  0 0.29888369E+03</rscale>
<asrwt>0</asrwt>
<pdfrwt beam="1">  1        2 0.26946780E-01 0.29888369E+03</pdfrwt>
<pdfrwt beam="2">  1       -2 0.19616018E-01 0.29888369E+03</pdfrwt>
<totfact> 0.42860777E+03</totfact>
</mgrwt>
</event>
<event>
 4    1  0.1759998E-004  0.3879314E+03  0.7818608E-02  0.1048041E+00
          2   -1    0    0  501    0  0.00000000000E+00  0.00000000000E+00  0.30202952919E+03  0.30202952919E+03  0.00000000000E+00 0.  1.
         -2   -1    0    0    0  501 -0.00000000000E+00 -0.00000000000E+00 -0.12456628208E+03  0.12456628208E+03  0.00000000000E+00 0.  1.
         25    1    1    2    0    0  0.81479449519E+02 -0.30877658127E+02  0.22621373644E+03  0.27049026789E+03  0.12000000000E+03 0.  0.
         25    1    1    2    0    0 -0.81479449519E+02  0.30877658127E+02 -0.48750489339E+02  0.15610554339E+03  0.12000000000E+03 0.  0.
<mgrwt>
<rscale>  0 0.38793141E+03</rscale>
<asrwt>0</asrwt>
<pdfrwt beam="1">  1        2 0.46466081E-01 0.38793141E+03</pdfrwt>
<pdfrwt beam="2">  1       -2 0.19164043E-01 0.38793141E+03</pdfrwt>
<totfact> 0.24699841E+03</totfact>
</mgrwt>
</event>
<event>
 4    1  0.1759998E-004  0.2552630E+03  0.7818608E-02  0.1110023E+00
         -2   -1    0    0    0  501 -0.00000000000E+00  0.00000000000E+00  0.10853825776E+03  0.10853825776E+03  0.00000000000E+00 0.  1.
          2   -1    0    0  501    0  0.00000000000E+00 -0.00000000000E+00 -0.15008344385E+03  0.15008344385E+03  0.00000000000E+00 0.  1.
         25    1    1    2    0    0 -0.36599232490E+02 -0.22527028343E+02 -0.14142429128E+02  0.12824577625E+03  0.12000000000E+03 0.  0.
         25    1    1    2    0    0  0.36599232490E+02  0.22527028343E+02 -0.27402756955E+02  0.13037592536E+03  0.12000000000E+03 0.  0.
<mgrwt>
<rscale>  0 0.25526297E+03</rscale>
<asrwt>0</asrwt>
<pdfrwt beam="1">  1        2 0.23089760E-01 0.25526297E+03</pdfrwt>
<pdfrwt beam="2">  1       -2 0.16698194E-01 0.25526297E+03</pdfrwt>
<totfact> 0.66503434E+03</totfact>
</mgrwt>
</event>
<event>
 4    1  0.1759998E-004  0.2495527E+03  0.7818608E-02  0.1113588E+00
         -1   -1    0    0    0  501 -0.00000000000E+00  0.00000000000E+00  0.70647616151E+02  0.70647616151E+02  0.00000000000E+00 0. -1.
          1   -1    0    0  501    0  0.00000000000E+00 -0.00000000000E+00 -0.22037741218E+03  0.22037741218E+03  0.00000000000E+00 0. -1.
         25    1    1    2    0    0 -0.23532831226E+02  0.95030075984E+00 -0.45957542929E+02  0.13063993635E+03  0.12000000000E+03 0.  0.
         25    1    1    2    0    0  0.23532831226E+02 -0.95030075984E+00 -0.10377225310E+03  0.16038509198E+03  0.12000000000E+03 0.  0.
<mgrwt>
<rscale>  0 0.24955271E+03</rscale>
<asrwt>0</asrwt>
<pdfrwt beam="1">  1        1 0.33904217E-01 0.24955271E+03</pdfrwt>
<pdfrwt beam="2">  1       -1 0.10868864E-01 0.24955271E+03</pdfrwt>
<totfact> 0.68452361E+03</totfact>
</mgrwt>
</event>
<event>
 4    1  0.1759998E-004  0.3680182E+03  0.7818608E-02  0.1055453E+00
         -1   -1    0    0    0  501 -0.00000000000E+00  0.00000000000E+00  0.25350732446E+02  0.25350732446E+02  0.00000000000E+00 0. -1.
          1   -1    0    0  501    0  0.00000000000E+00 -0.00000000000E+00 -0.13356356834E+04  0.13356356834E+04  0.00000000000E+00 0. -1.
         25    1    1    2    0    0 -0.13568329193E+03  0.16545127621E+02 -0.55214744219E+03  0.58133509689E+03  0.12000000000E+03 0.  0.
         25    1    1    2    0    0  0.13568329193E+03 -0.16545127621E+02 -0.75813750875E+03  0.77965131894E+03  0.12000000000E+03 0.  0.
<mgrwt>
<rscale>  0 0.36801817E+03</rscale>
<asrwt>0</asrwt>
<pdfrwt beam="1">  1        1 0.20548243E+00 0.36801817E+03</pdfrwt>
<pdfrwt beam="2">  1       -1 0.39001124E-02 0.36801817E+03</pdfrwt>
<totfact> 0.23575413E+03</totfact>
</mgrwt>
</event>
<event>
 4    1  0.1759998E-004  0.2531009E+03  0.7818608E-02  0.1111361E+00
          1   -1    0    0  501    0  0.00000000000E+00  0.00000000000E+00  0.11900080671E+04  0.11900080671E+04  0.00000000000E+00 0.  1.
         -1   -1    0    0    0  501 -0.00000000000E+00 -0.00000000000E+00 -0.13457905316E+02  0.13457905316E+02  0.00000000000E+00 0.  1.
         25    1    1    2    0    0  0.30654062744E+02 -0.11042318275E+02  0.70013235633E+03  0.71108854634E+03  0.12000000000E+03 0.  0.
         25    1    1    2    0    0 -0.30654062744E+02  0.11042318275E+02  0.47641780548E+03  0.49237742610E+03  0.12000000000E+03 0.  0.
<mgrwt>
<rscale>  0 0.25310090E+03</rscale>
<asrwt>0</asrwt>
<pdfrwt beam="1">  1        1 0.18307808E+00 0.25310090E+03</pdfrwt>
<pdfrwt beam="2">  1       -1 0.20704479E-02 0.25310090E+03</pdfrwt>
<totfact> 0.75620191E+03</totfact>
</mgrwt>
</event>
<event>
 4    1  0.1759998E-004  0.2887172E+03  0.7818608E-02  0.1091021E+00
          4   -1    0    0  501    0  0.00000000000E+00  0.00000000000E+00  0.14245179869E+03  0.14245179869E+03  0.00000000000E+00 0. -1.
         -4   -1    0    0    0  501 -0.00000000000E+00 -0.00000000000E+00 -0.14629096833E+03  0.14629096833E+03  0.00000000000E+00 0. -1.
         25    1    1    2    0    0  0.31947945743E+02  0.67835618298E+02 -0.30506534576E+02  0.14475148013E+03  0.12000000000E+03 0.  0.
         25    1    1    2    0    0 -0.31947945743E+02 -0.67835618298E+02  0.26667364942E+02  0.14399128689E+03  0.12000000000E+03 0.  0.
<mgrwt>
<rscale>  0 0.28871724E+03</rscale>
<asrwt>0</asrwt>
<pdfrwt beam="1">  1        4 0.21915661E-01 0.28871724E+03</pdfrwt>
<pdfrwt beam="2">  1       -4 0.22506303E-01 0.28871724E+03</pdfrwt>
<totfact> 0.65563989E+02</totfact>
</mgrwt>
</event>
<event>
 4    1  0.1759998E-004  0.2418541E+03  0.7818608E-02  0.1118564E+00
         -4   -1    0    0    0  501 -0.00000000000E+00  0.00000000000E+00  0.10539166757E+03  0.10539166757E+03  0.00000000000E+00 0. -1.
          4   -1    0    0  501    0  0.00000000000E+00 -0.00000000000E+00 -0.13875247956E+03  0.13875247956E+03  0.00000000000E+00 0. -1.
         25    1    1    2    0    0 -0.99721003805E+01  0.11058770645E+02 -0.17963664503E+02  0.12224742303E+03  0.12000000000E+03 0.  0.
         25    1    1    2    0    0  0.99721003805E+01 -0.11058770645E+02 -0.15397147487E+02  0.12189672409E+03  0.12000000000E+03 0.  0.
<mgrwt>
<rscale>  0 0.24185413E+03</rscale>
<asrwt>0</asrwt>
<pdfrwt beam="1">  1        4 0.21346535E-01 0.24185413E+03</pdfrwt>
<pdfrwt beam="2">  1       -4 0.16214103E-01 0.24185413E+03</pdfrwt>
<totfact> 0.12125331E+03</totfact>
</mgrwt>
</event>
<event>
 4    1  0.1759998E-004  0.3992057E+03  0.7818608E-02  0.1044055E+00
          1   -1    0    0  501    0  0.00000000000E+00  0.00000000000E+00  0.95541875648E+02  0.95541875648E+02  0.00000000000E+00 0. -1.
         -1   -1    0    0    0  501 -0.00000000000E+00 -0.00000000000E+00 -0.41700345987E+03  0.41700345987E+03  0.00000000000E+00 0. -1.
         25    1    1    2    0    0 -0.82724345425E+02 -0.89159192963E+02 -0.29322049167E+03  0.33936843658E+03  0.12000000000E+03 0.  0.
         25    1    1    2    0    0  0.82724345425E+02  0.89159192963E+02 -0.28241092554E+02  0.17317689893E+03  0.12000000000E+03 0.  0.
<mgrwt>
<rscale>  0 0.39920567E+03</rscale>
<asrwt>0</asrwt>
<pdfrwt beam="1">  1        1 0.14698750E-01 0.39920567E+03</pdfrwt>
<pdfrwt beam="2">  1       -1 0.64154379E-01 0.39920567E+03</pdfrwt>
<totfact> 0.97979382E+02</totfact>
</mgrwt>
</event>
<event>
 4    1  0.1759998E-004  0.2785965E+03  0.7818608E-02  0.1096458E+00
          3   -1    0    0  501    0  0.00000000000E+00  0.00000000000E+00  0.46938555834E+03  0.46938555834E+03  0.00000000000E+00 0.  1.
         -3   -1    0    0    0  501 -0.00000000000E+00 -0.00000000000E+00 -0.41339165195E+02  0.41339165195E+02  0.00000000000E+00 0.  1.
         25    1    1    2    0    0 -0.13302595214E+02  0.41096806800E+02  0.31671708591E+03  0.34143171949E+03  0.12000000000E+03 0.  0.
         25    1    1    2    0    0  0.13302595214E+02 -0.41096806800E+02  0.11132930724E+03  0.16929300404E+03  0.12000000000E+03 0.  0.
<mgrwt>
<rscale>  0 0.27859653E+03</rscale>
<asrwt>0</asrwt>
<pdfrwt beam="1">  1        3 0.72213159E-01 0.27859653E+03</pdfrwt>
<pdfrwt beam="2">  1       -3 0.63598719E-02 0.27859653E+03</pdfrwt>
<totfact> 0.73456354E+02</totfact>
</mgrwt>
</event>
<event>
 4    1  0.1759998E-004  0.2849910E+03  0.7818608E-02  0.1092994E+00
         -2   -1    0    0    0  501 -0.00000000000E+00  0.00000000000E+00  0.58164574170E+02  0.58164574170E+02  0.00000000000E+00 0. -1.
          2   -1    0    0  501    0  0.00000000000E+00 -0.00000000000E+00 -0.34909516133E+03  0.34909516133E+03  0.00000000000E+00 0. -1.
         25    1    1    2    0    0 -0.73262923565E+02  0.22871964580E+02 -0.14004465291E+03  0.19975757192E+03  0.12000000000E+03 0.  0.
         25    1    1    2    0    0  0.73262923565E+02 -0.22871964580E+02 -0.15088593425E+03  0.20750216357E+03  0.12000000000E+03 0.  0.
<mgrwt>
<rscale>  0 0.28499103E+03</rscale>
<asrwt>0</asrwt>
<pdfrwt beam="1">  1        2 0.53706947E-01 0.28499103E+03</pdfrwt>
<pdfrwt beam="2">  1       -2 0.89483962E-02 0.28499103E+03</pdfrwt>
<totfact> 0.73043970E+03</totfact>
</mgrwt>
</event>
<event>
 4    1  0.1759998E-004  0.2462222E+03  0.7818608E-02  0.1115716E+00
          1   -1    0    0  501    0  0.00000000000E+00  0.00000000000E+00  0.69552363156E+03  0.69552363156E+03  0.00000000000E+00 0.  1.
         -1   -1    0    0    0  501 -0.00000000000E+00 -0.00000000000E+00 -0.21791267475E+02  0.21791267475E+02  0.00000000000E+00 0.  1.
         25    1    1    2    0    0 -0.15529056728E+02  0.57443146910E+01  0.40083863402E+03  0.41874307072E+03  0.12000000000E+03 0.  0.
         25    1    1    2    0    0  0.15529056728E+02 -0.57443146910E+01  0.27289373007E+03  0.29857182832E+03  0.12000000000E+03 0.  0.
<mgrwt>
<rscale>  0 0.24622219E+03</rscale>
<asrwt>0</asrwt>
<pdfrwt beam="1">  1        1 0.10700362E+00 0.24622219E+03</pdfrwt>
<pdfrwt beam="2">  1       -1 0.33525032E-02 0.24622219E+03</pdfrwt>
<totfact> 0.90304839E+03</totfact>
</mgrwt>
</event>
<event>
 4    1  0.1759998E-004  0.2649632E+03  0.7818608E-02  0.1104197E+00
         -4   -1    0    0    0  501 -0.00000000000E+00  0.00000000000E+00  0.18179886785E+03  0.18179886785E+03  0.00000000000E+00 0.  1.
          4   -1    0    0  501    0  0.00000000000E+00 -0.00000000000E+00 -0.96542847912E+02  0.96542847912E+02  0.00000000000E+00 0.  1.
         25    1    1    2    0    0 -0.29554908227E+02  0.47627042347E+02  0.39381210760E+02  0.13817636384E+03  0.12000000000E+03 0.  0.
         25    1    1    2    0    0  0.29554908227E+02 -0.47627042347E+02  0.45874809181E+02  0.14016535193E+03  0.12000000000E+03 0.  0.
<mgrwt>
<rscale>  0 0.26496325E+03</rscale>
<asrwt>0</asrwt>
<pdfrwt beam="1">  1        4 0.14852746E-01 0.26496325E+03</pdfrwt>
<pdfrwt beam="2">  1       -4 0.27969057E-01 0.26496325E+03</pdfrwt>
<totfact> 0.86894510E+02</totfact>
</mgrwt>
</event>
<event>
 4    1  0.1759998E-004  0.2745256E+03  0.7818608E-02  0.1098717E+00
          1   -1    0    0  501    0  0.00000000000E+00  0.00000000000E+00  0.19368430700E+04  0.19368430700E+04  0.00000000000E+00 0.  1.
         -1   -1    0    0    0  501 -0.00000000000E+00 -0.00000000000E+00 -0.97277212632E+01  0.97277212632E+01  0.00000000000E+00 0.  1.
         25    1    1    2    0    0 -0.41205794669E+02  0.36212345042E+02  0.12318642708E+04  0.12389103410E+04  0.12000000000E+03 0.  0.
         25    1    1    2    0    0  0.41205794669E+02 -0.36212345042E+02  0.69525107802E+03  0.70766045032E+03  0.12000000000E+03 0.  0.
<mgrwt>
<rscale>  0 0.27452555E+03</rscale>
<asrwt>0</asrwt>
<pdfrwt beam="1">  1        1 0.29797555E+00 0.27452555E+03</pdfrwt>
<pdfrwt beam="2">  1       -1 0.14965740E-02 0.27452555E+03</pdfrwt>
<totfact> 0.38829868E+03</totfact>
</mgrwt>
</event>
<event>
 4    1  0.1759998E-004  0.2457593E+03  0.7818608E-02  0.1116015E+00
         -2   -1    0    0    0  501 -0.00000000000E+00  0.00000000000E+00  0.13522937460E+02  0.13522937460E+02  0.00000000000E+00 0.  1.
          2   -1    0    0  501    0  0.00000000000E+00 -0.00000000000E+00 -0.11165772442E+04  0.11165772442E+04  0.00000000000E+00 0.  1.
         25    1    1    2    0    0  0.19860493774E+02 -0.38223094020E+01 -0.62988304962E+03  0.64153075177E+03  0.12000000000E+03 0.  0.
         25    1    1    2    0    0 -0.19860493774E+02  0.38223094020E+01 -0.47317125709E+03  0.48856942987E+03  0.12000000000E+03 0.  0.
<mgrwt>
<rscale>  0 0.24575927E+03</rscale>
<asrwt>0</asrwt>
<pdfrwt beam="1">  1        2 0.17178114E+00 0.24575927E+03</pdfrwt>
<pdfrwt beam="2">  1       -2 0.20804516E-02 0.24575927E+03</pdfrwt>
<totfact> 0.16177953E+04</totfact>
</mgrwt>
</event>
