<event>
 5    1  0.1147887E+001  0.2768874E+03  0.7818608E-02  0.1097401E+00
         -2   -1    0    0    0  501 -0.00000000000E+00  0.00000000000E+00  0.71509420290E+02  0.71509420290E+02  0.00000000000E+00 0.  1.
          2   -1    0    0  501    0  0.00000000000E+00 -0.00000000000E+00 -0.26802981295E+03  0.26802981295E+03  0.00000000000E+00 0.  1.
         35    2    1    2    0    0  0.00000000000E+00  0.00000000000E+00 -0.19652039266E+03  0.33953923324E+03  0.27688738898E+03 0.  0.
         25    1    3    3    0    0  0.22743605737E+01 -0.34096551652E+02 -0.24695030215E+02  0.12719116348E+03  0.12000000000E+03 0.  0.
         25    1    3    3    0    0 -0.22743605737E+01  0.34096551652E+02 -0.17182536244E+03  0.21234806976E+03  0.12000000000E+03 0.  0.
<mgrwt>
<rscale>  0 0.27688739E+03</rscale>
<asrwt>0</asrwt>
<pdfrwt beam="1">  1        2 0.41235355E-01 0.27688739E+03</pdfrwt>
<pdfrwt beam="2">  1       -2 0.11001450E-01 0.27688739E+03</pdfrwt>
<totfact> 0.69850797E+03</totfact>
</mgrwt>
</event>
<event>
 5    1  0.1147887E+001  0.2738962E+03  0.7818608E-02  0.1099070E+00
         -2   -1    0    0    0  501 -0.00000000000E+00  0.00000000000E+00  0.97282076567E+02  0.97282076567E+02  0.00000000000E+00 0.  1.
          2   -1    0    0  501    0  0.00000000000E+00 -0.00000000000E+00 -0.19278760003E+03  0.19278760003E+03  0.00000000000E+00 0.  1.
         35    2    1    2    0    0  0.00000000000E+00  0.00000000000E+00 -0.95505523467E+02  0.29006967660E+03  0.27389617060E+03 0.  0.
         25    1    3    3    0    0 -0.53857739645E+02  0.34455328798E+02 -0.30449292868E+02  0.13933766626E+03  0.12000000000E+03 0.  0.
         25    1    3    3    0    0  0.53857739645E+02 -0.34455328798E+02 -0.65056230599E+02  0.15073201034E+03  0.12000000000E+03 0.  0.
<mgrwt>
<rscale>  0 0.27389617E+03</rscale>
<asrwt>0</asrwt>
<pdfrwt beam="1">  1        2 0.29659631E-01 0.27389617E+03</pdfrwt>
<pdfrwt beam="2">  1       -2 0.14966473E-01 0.27389617E+03</pdfrwt>
<totfact> 0.60554422E+03</totfact>
</mgrwt>
</event>
<event>
 5    1  0.1147887E+001  0.2733826E+03  0.7818608E-02  0.1099359E+00
          1   -1    0    0  501    0  0.00000000000E+00  0.00000000000E+00  0.15594627240E+04  0.15594627240E+04  0.00000000000E+00 0.  1.
         -1   -1    0    0    0  501 -0.00000000000E+00 -0.00000000000E+00 -0.11981381732E+02  0.11981381732E+02  0.00000000000E+00 0.  1.
         35    2    1    2    0    0  0.00000000000E+00  0.00000000000E+00  0.15474813422E+04  0.15714441057E+04  0.27338264899E+03 0.  0.
         25    1    3    3    0    0 -0.34057366254E+02 -0.38646580958E+02  0.10058873084E+04  0.10143287138E+04  0.12000000000E+03 0.  0.
         25    1    3    3    0    0  0.34057366254E+02  0.38646580958E+02  0.54159403379E+03  0.55711539186E+03  0.12000000000E+03 0.  0.
<mgrwt>
<rscale>  0 0.27338265E+03</rscale>
<asrwt>0</asrwt>
<pdfrwt beam="1">  1        1 0.23991718E+00 0.27338265E+03</pdfrwt>
<pdfrwt beam="2">  1       -1 0.18432907E-02 0.27338265E+03</pdfrwt>
<totfact> 0.50502663E+03</totfact>
</mgrwt>
</event>
<event>
 5    1  0.1147887E+001  0.2776436E+03  0.7818608E-02  0.1096983E+00
         -1   -1    0    0    0  501 -0.00000000000E+00  0.00000000000E+00  0.11320936723E+02  0.11320936723E+02  0.00000000000E+00 0.  1.
          1   -1    0    0  501    0  0.00000000000E+00 -0.00000000000E+00 -0.17022878608E+04  0.17022878608E+04  0.00000000000E+00 0.  1.
         35    2    1    2    0    0  0.00000000000E+00  0.00000000000E+00 -0.16909669241E+04  0.17136087975E+04  0.27764360721E+03 0.  0.
         25    1    3    3    0    0  0.22149872020E+02  0.37321464103E+02 -0.11828586857E+04  0.11897218913E+04  0.12000000000E+03 0.  0.
         25    1    3    3    0    0 -0.22149872020E+02 -0.37321464103E+02 -0.50810823844E+03  0.52388690620E+03  0.12000000000E+03 0.  0.
<mgrwt>
<rscale>  0 0.27764361E+03</rscale>
<asrwt>0</asrwt>
<pdfrwt beam="1">  1        1 0.26189029E+00 0.27764361E+03</pdfrwt>
<pdfrwt beam="2">  1       -1 0.17416836E-02 0.27764361E+03</pdfrwt>
<totfact> 0.44225944E+03</totfact>
</mgrwt>
</event>
<event>
 5    1  0.1147887E+001  0.2736036E+03  0.7818608E-02  0.1099235E+00
          2   -1    0    0  501    0  0.00000000000E+00  0.00000000000E+00  0.37445814067E+02  0.37445814067E+02  0.00000000000E+00 0.  1.
         -2   -1    0    0    0  501 -0.00000000000E+00 -0.00000000000E+00 -0.49978174817E+03  0.49978174817E+03  0.00000000000E+00 0.  1.
         35    2    1    2    0    0  0.00000000000E+00  0.00000000000E+00 -0.46233593410E+03  0.53722756224E+03  0.27360361413E+03 0.  0.
         25    1    3    3    0    0  0.12055801887E+02  0.57604547011E+02 -0.17388455894E+03  0.21931590465E+03  0.12000000000E+03 0.  0.
         25    1    3    3    0    0 -0.12055801887E+02 -0.57604547011E+02 -0.28845137516E+03  0.31791165758E+03  0.12000000000E+03 0.  0.
<mgrwt>
<rscale>  0 0.27360361E+03</rscale>
<asrwt>0</asrwt>
<pdfrwt beam="1">  1        2 0.57608941E-02 0.27360361E+03</pdfrwt>
<pdfrwt beam="2">  1       -2 0.76889504E-01 0.27360361E+03</pdfrwt>
<totfact> 0.20218816E+03</totfact>
</mgrwt>
</event>
<event>
 5    1  0.1147887E+001  0.2761936E+03  0.7818608E-02  0.1097786E+00
         -1   -1    0    0    0  501 -0.00000000000E+00  0.00000000000E+00  0.11909127040E+02  0.11909127040E+02  0.00000000000E+00 0. -1.
          1   -1    0    0  501    0  0.00000000000E+00 -0.00000000000E+00 -0.16013540581E+04  0.16013540581E+04  0.00000000000E+00 0. -1.
         35    2    1    2    0    0  0.00000000000E+00  0.00000000000E+00 -0.15894449310E+04  0.16132631851E+04  0.27619361986E+03 0.  0.
         25    1    3    3    0    0  0.47678487212E+02 -0.43863104604E+02 -0.92182675452E+03  0.93185931097E+03  0.12000000000E+03 0.  0.
         25    1    3    3    0    0 -0.47678487212E+02  0.43863104604E+02 -0.66761817651E+03  0.68140387414E+03  0.12000000000E+03 0.  0.
<mgrwt>
<rscale>  0 0.27619362E+03</rscale>
<asrwt>0</asrwt>
<pdfrwt beam="1">  1        1 0.24636220E+00 0.27619362E+03</pdfrwt>
<pdfrwt beam="2">  1       -1 0.18321731E-02 0.27619362E+03</pdfrwt>
<totfact> 0.47821489E+03</totfact>
</mgrwt>
</event>
<event>
 5    1  0.1147887E+001  0.2744880E+03  0.7818608E-02  0.1098738E+00
         -1   -1    0    0    0  501 -0.00000000000E+00  0.00000000000E+00  0.81013669661E+02  0.81013669661E+02  0.00000000000E+00 0. -1.
          1   -1    0    0  501    0  0.00000000000E+00 -0.00000000000E+00 -0.23250301418E+03  0.23250301418E+03  0.00000000000E+00 0. -1.
         35    2    1    2    0    0  0.00000000000E+00  0.00000000000E+00 -0.15148934452E+03  0.31351668384E+03  0.27448804991E+03 0.  0.
         25    1    3    3    0    0 -0.54526381305E+02  0.27292310034E+01 -0.32171361841E+02  0.13570398477E+03  0.12000000000E+03 0.  0.
         25    1    3    3    0    0  0.54526381305E+02 -0.27292310034E+01 -0.11931798268E+03  0.17781269907E+03  0.12000000000E+03 0.  0.
<mgrwt>
<rscale>  0 0.27448805E+03</rscale>
<asrwt>0</asrwt>
<pdfrwt beam="1">  1        1 0.35769694E-01 0.27448805E+03</pdfrwt>
<pdfrwt beam="2">  1       -1 0.12463642E-01 0.27448805E+03</pdfrwt>
<totfact> 0.51888702E+03</totfact>
</mgrwt>
</event>
<event>
 5    1  0.1147887E+001  0.2742482E+03  0.7818608E-02  0.1098873E+00
          1   -1    0    0  501    0  0.00000000000E+00  0.00000000000E+00  0.92135371503E+03  0.92135371503E+03  0.00000000000E+00 0. -1.
         -1   -1    0    0    0  501 -0.00000000000E+00 -0.00000000000E+00 -0.20408038926E+02  0.20408038926E+02  0.00000000000E+00 0. -1.
         35    2    1    2    0    0  0.00000000000E+00  0.00000000000E+00  0.90094567610E+03  0.94176175395E+03  0.27424822684E+03 0.  0.
         25    1    3    3    0    0  0.66022726717E+02 -0.66304137286E+01  0.44963413620E+03  0.47007852457E+03  0.12000000000E+03 0.  0.
         25    1    3    3    0    0 -0.66022726717E+02  0.66304137286E+01  0.45131153990E+03  0.47168322938E+03  0.12000000000E+03 0.  0.
<mgrwt>
<rscale>  0 0.27424823E+03</rscale>
<asrwt>0</asrwt>
<pdfrwt beam="1">  1        1 0.14174669E+00 0.27424823E+03</pdfrwt>
<pdfrwt beam="2">  1       -1 0.31396990E-02 0.27424823E+03</pdfrwt>
<totfact> 0.64707427E+03</totfact>
</mgrwt>
</event>
<event>
 5    1  0.1147887E+001  0.2752026E+03  0.7818608E-02  0.1098338E+00
          1   -1    0    0  501    0  0.00000000000E+00  0.00000000000E+00  0.11273944130E+04  0.11273944130E+04  0.00000000000E+00 0. -1.
         -1   -1    0    0    0  501 -0.00000000000E+00 -0.00000000000E+00 -0.16794577995E+02  0.16794577995E+02  0.00000000000E+00 0. -1.
         35    2    1    2    0    0  0.00000000000E+00  0.00000000000E+00  0.11105998350E+04  0.11441889910E+04  0.27520256830E+03 0.  0.
         25    1    3    3    0    0 -0.42385886732E+02  0.52274933983E+02  0.54611421719E+03  0.56317845336E+03  0.12000000000E+03 0.  0.
         25    1    3    3    0    0  0.42385886732E+02 -0.52274933983E+02  0.56448561783E+03  0.58101053764E+03  0.12000000000E+03 0.  0.
<mgrwt>
<rscale>  0 0.27520257E+03</rscale>
<asrwt>0</asrwt>
<pdfrwt beam="1">  1        1 0.17344523E+00 0.27520257E+03</pdfrwt>
<pdfrwt beam="2">  1       -1 0.25837821E-02 0.27520257E+03</pdfrwt>
<totfact> 0.60631200E+03</totfact>
</mgrwt>
</event>
<event>
 5    1  0.1147887E+001  0.2769308E+03  0.7818608E-02  0.1097377E+00
         -2   -1    0    0    0  501 -0.00000000000E+00  0.00000000000E+00  0.83872360198E+02  0.83872360198E+02  0.00000000000E+00 0. -1.
          2   -1    0    0  501    0  0.00000000000E+00 -0.00000000000E+00 -0.22859343560E+03  0.22859343560E+03  0.00000000000E+00 0. -1.
         35    2    1    2    0    0  0.00000000000E+00  0.00000000000E+00 -0.14472107540E+03  0.31246579579E+03  0.27693082869E+03 0.  0.
         25    1    3    3    0    0 -0.17681212498E+02 -0.57538359743E+02 -0.11061336462E+03  0.17395000589E+03  0.12000000000E+03 0.  0.
         25    1    3    3    0    0  0.17681212498E+02  0.57538359743E+02 -0.34107710774E+02  0.13851578990E+03  0.12000000000E+03 0.  0.
<mgrwt>
<rscale>  0 0.27693083E+03</rscale>
<asrwt>0</asrwt>
<pdfrwt beam="1">  1        2 0.35168221E-01 0.27693083E+03</pdfrwt>
<pdfrwt beam="2">  1       -2 0.12903440E-01 0.27693083E+03</pdfrwt>
<totfact> 0.64139958E+03</totfact>
</mgrwt>
</event>
<event>
 5    1  0.1147887E+001  0.2765642E+03  0.7818608E-02  0.1097580E+00
          1   -1    0    0  501    0  0.00000000000E+00  0.00000000000E+00  0.50767826446E+03  0.50767826446E+03  0.00000000000E+00 0.  1.
         -1   -1    0    0    0  501 -0.00000000000E+00 -0.00000000000E+00 -0.37665465093E+02  0.37665465093E+02  0.00000000000E+00 0.  1.
         35    2    1    2    0    0  0.00000000000E+00  0.00000000000E+00  0.47001279936E+03  0.54534372955E+03  0.27656419109E+03 0.  0.
         25    1    3    3    0    0 -0.19553834389E+02  0.20429565583E+02  0.35849880796E+03  0.37910567774E+03  0.12000000000E+03 0.  0.
         25    1    3    3    0    0  0.19553834389E+02 -0.20429565583E+02  0.11151399140E+03  0.16623805180E+03  0.12000000000E+03 0.  0.
<mgrwt>
<rscale>  0 0.27656419E+03</rscale>
<asrwt>0</asrwt>
<pdfrwt beam="1">  1        1 0.78104343E-01 0.27656419E+03</pdfrwt>
<pdfrwt beam="2">  1       -1 0.57946873E-02 0.27656419E+03</pdfrwt>
<totfact> 0.62039775E+03</totfact>
</mgrwt>
</event>
<event>
 5    1  0.1147887E+001  0.2748672E+03  0.7818608E-02  0.1098526E+00
         -2   -1    0    0    0  501 -0.00000000000E+00  0.00000000000E+00  0.20816768496E+02  0.20816768496E+02  0.00000000000E+00 0. -1.
          2   -1    0    0  501    0  0.00000000000E+00 -0.00000000000E+00 -0.90734510704E+03  0.90734510704E+03  0.00000000000E+00 0. -1.
         35    2    1    2    0    0  0.00000000000E+00  0.00000000000E+00 -0.88652833854E+03  0.92816187553E+03  0.27486719003E+03 0.  0.
         25    1    3    3    0    0  0.25823975649E+02 -0.28429883563E+02 -0.62861310026E+03  0.64111587550E+03  0.12000000000E+03 0.  0.
         25    1    3    3    0    0 -0.25823975649E+02  0.28429883563E+02 -0.25791523828E+03  0.28704600003E+03  0.12000000000E+03 0.  0.
<mgrwt>
<rscale>  0 0.27486719E+03</rscale>
<asrwt>0</asrwt>
<pdfrwt beam="1">  1        2 0.13959155E+00 0.27486719E+03</pdfrwt>
<pdfrwt beam="2">  1       -2 0.32025799E-02 0.27486719E+03</pdfrwt>
<totfact> 0.11507383E+04</totfact>
</mgrwt>
</event>
<event>
 5    1  0.1147887E+001  0.2749648E+03  0.7818608E-02  0.1098471E+00
         -1   -1    0    0    0  501 -0.00000000000E+00  0.00000000000E+00  0.13133792798E+02  0.13133792798E+02  0.00000000000E+00 0. -1.
          1   -1    0    0  501    0  0.00000000000E+00 -0.00000000000E+00 -0.14391437787E+04  0.14391437787E+04  0.00000000000E+00 0. -1.
         35    2    1    2    0    0  0.00000000000E+00  0.00000000000E+00 -0.14260099859E+04  0.14522775715E+04  0.27496484282E+03 0.  0.
         25    1    3    3    0    0  0.45828161216E+02  0.87489664632E+01 -0.45835047699E+03  0.47609024831E+03  0.12000000000E+03 0.  0.
         25    1    3    3    0    0 -0.45828161216E+02 -0.87489664632E+01 -0.96765950891E+03  0.97618732319E+03  0.12000000000E+03 0.  0.
<mgrwt>
<rscale>  0 0.27496484E+03</rscale>
<asrwt>0</asrwt>
<pdfrwt beam="1">  1        1 0.22140680E+00 0.27496484E+03</pdfrwt>
<pdfrwt beam="2">  1       -1 0.20205829E-02 0.27496484E+03</pdfrwt>
<totfact> 0.53069105E+03</totfact>
</mgrwt>
</event>
<event>
 5    1  0.1147887E+001  0.2656786E+03  0.7818608E-02  0.1103779E+00
         -2   -1    0    0    0  501 -0.00000000000E+00  0.00000000000E+00  0.45682389284E+02  0.45682389284E+02  0.00000000000E+00 0. -1.
          2   -1    0    0  501    0  0.00000000000E+00 -0.00000000000E+00 -0.38628175267E+03  0.38628175267E+03  0.00000000000E+00 0. -1.
         35    2    1    2    0    0  0.00000000000E+00  0.00000000000E+00 -0.34059936339E+03  0.43196414196E+03  0.26567855313E+03 0.  0.
         25    1    3    3    0    0 -0.30715335388E+02  0.15293872597E+02 -0.24425425673E+03  0.27429450650E+03  0.12000000000E+03 0.  0.
         25    1    3    3    0    0  0.30715335388E+02 -0.15293872597E+02 -0.96345106661E+02  0.15766963546E+03  0.12000000000E+03 0.  0.
<mgrwt>
<rscale>  0 0.26567855E+03</rscale>
<asrwt>0</asrwt>
<pdfrwt beam="1">  1        2 0.59427961E-01 0.26567855E+03</pdfrwt>
<pdfrwt beam="2">  1       -2 0.70280599E-02 0.26567855E+03</pdfrwt>
<totfact> 0.95214750E+03</totfact>
</mgrwt>
</event>
<event>
 5    1  0.1147887E+001  0.2733322E+03  0.7818608E-02  0.1099388E+00
         -1   -1    0    0    0  501 -0.00000000000E+00  0.00000000000E+00  0.10905314332E+03  0.10905314332E+03  0.00000000000E+00 0. -1.
          1   -1    0    0  501    0  0.00000000000E+00 -0.00000000000E+00 -0.17127082810E+03  0.17127082810E+03  0.00000000000E+00 0. -1.
         35    2    1    2    0    0  0.00000000000E+00  0.00000000000E+00 -0.62217684777E+02  0.28032397142E+03  0.27333219468E+03 0.  0.
         25    1    3    3    0    0  0.20053353444E+02 -0.15232695590E+02 -0.93013862001E+02  0.15390175608E+03  0.12000000000E+03 0.  0.
         25    1    3    3    0    0 -0.20053353444E+02  0.15232695590E+02  0.30796177224E+02  0.12642221534E+03  0.12000000000E+03 0.  0.
<mgrwt>
<rscale>  0 0.27333219E+03</rscale>
<asrwt>0</asrwt>
<pdfrwt beam="1">  1        1 0.26349358E-01 0.27333219E+03</pdfrwt>
<pdfrwt beam="2">  1       -1 0.16777407E-01 0.27333219E+03</pdfrwt>
<totfact> 0.47661744E+03</totfact>
</mgrwt>
</event>
<event>
 5    1  0.1147887E+001  0.2753603E+03  0.7818608E-02  0.1098250E+00
         -1   -1    0    0    0  501 -0.00000000000E+00  0.00000000000E+00  0.11442903574E+04  0.11442903574E+04  0.00000000000E+00 0.  1.
          1   -1    0    0  501    0  0.00000000000E+00 -0.00000000000E+00 -0.16565570073E+02  0.16565570073E+02  0.00000000000E+00 0.  1.
         35    2    1    2    0    0  0.00000000000E+00  0.00000000000E+00  0.11277247873E+04  0.11608559275E+04  0.27536028835E+03 0.  0.
         25    1    3    3    0    0  0.18380627979E+02 -0.63890518425E+02  0.61302202047E+03  0.62818456159E+03  0.12000000000E+03 0.  0.
         25    1    3    3    0    0 -0.18380627979E+02  0.63890518425E+02  0.51470276687E+03  0.53267136590E+03  0.12000000000E+03 0.  0.
<mgrwt>
<rscale>  0 0.27536029E+03</rscale>
<asrwt>0</asrwt>
<pdfrwt beam="1">  1        1 0.25485501E-02 0.27536029E+03</pdfrwt>
<pdfrwt beam="2">  1       -1 0.17604461E+00 0.27536029E+03</pdfrwt>
<totfact> 0.10461246E+03</totfact>
</mgrwt>
</event>
<event>
 5    1  0.1147887E+001  0.2710660E+03  0.7818608E-02  0.1100671E+00
          2   -1    0    0  501    0  0.00000000000E+00  0.00000000000E+00  0.25840117941E+03  0.25840117941E+03  0.00000000000E+00 0.  1.
         -2   -1    0    0    0  501 -0.00000000000E+00 -0.00000000000E+00 -0.71087885061E+02  0.71087885061E+02  0.00000000000E+00 0.  1.
         35    2    1    2    0    0  0.00000000000E+00  0.00000000000E+00  0.18731329435E+03  0.32948906447E+03  0.27106599449E+03 0.  0.
         25    1    3    3    0    0  0.53525613648E+02 -0.12736123317E+02  0.56349688330E+02  0.14353566640E+03  0.12000000000E+03 0.  0.
         25    1    3    3    0    0 -0.53525613648E+02  0.12736123317E+02  0.13096360602E+03  0.18595339808E+03  0.12000000000E+03 0.  0.
<mgrwt>
<rscale>  0 0.27106599E+03</rscale>
<asrwt>0</asrwt>
<pdfrwt beam="1">  1        2 0.39754027E-01 0.27106599E+03</pdfrwt>
<pdfrwt beam="2">  1       -2 0.10936598E-01 0.27106599E+03</pdfrwt>
<totfact> 0.73290223E+03</totfact>
</mgrwt>
</event>
<event>
 5    1  0.1147887E+001  0.2756093E+03  0.7818608E-02  0.1098111E+00
          1   -1    0    0  501    0  0.00000000000E+00  0.00000000000E+00  0.97166755613E+03  0.97166755613E+03  0.00000000000E+00 0.  1.
         -1   -1    0    0    0  501 -0.00000000000E+00 -0.00000000000E+00 -0.19543852537E+02  0.19543852537E+02  0.00000000000E+00 0.  1.
         35    2    1    2    0    0  0.00000000000E+00  0.00000000000E+00  0.95212370360E+03  0.99121140867E+03  0.27560934260E+03 0.  0.
         25    1    3    3    0    0  0.26046409376E+02  0.13745399435E+02  0.69549680619E+03  0.70638740000E+03  0.12000000000E+03 0.  0.
         25    1    3    3    0    0 -0.26046409376E+02 -0.13745399435E+02  0.25662689740E+03  0.28482400867E+03  0.12000000000E+03 0.  0.
<mgrwt>
<rscale>  0 0.27560934E+03</rscale>
<asrwt>0</asrwt>
<pdfrwt beam="1">  1        1 0.14948728E+00 0.27560934E+03</pdfrwt>
<pdfrwt beam="2">  1       -1 0.30067473E-02 0.27560934E+03</pdfrwt>
<totfact> 0.63116825E+03</totfact>
</mgrwt>
</event>
<event>
 5    1  0.1147887E+001  0.2749104E+03  0.7818608E-02  0.1098502E+00
         -1   -1    0    0    0  501 -0.00000000000E+00  0.00000000000E+00  0.47935273811E+02  0.47935273811E+02  0.00000000000E+00 0. -1.
          1   -1    0    0  501    0  0.00000000000E+00 -0.00000000000E+00 -0.39415511222E+03  0.39415511222E+03  0.00000000000E+00 0. -1.
         35    2    1    2    0    0  0.00000000000E+00  0.00000000000E+00 -0.34621983841E+03  0.44209038603E+03  0.27491040888E+03 0.  0.
         25    1    3    3    0    0 -0.29360771540E+02 -0.57969075694E+02 -0.14661415333E+03  0.20029522860E+03  0.12000000000E+03 0.  0.
         25    1    3    3    0    0  0.29360771540E+02  0.57969075694E+02 -0.19960568508E+03  0.24179515743E+03  0.12000000000E+03 0.  0.
<mgrwt>
<rscale>  0 0.27491041E+03</rscale>
<asrwt>0</asrwt>
<pdfrwt beam="1">  1        1 0.60639248E-01 0.27491041E+03</pdfrwt>
<pdfrwt beam="2">  1       -1 0.73746576E-02 0.27491041E+03</pdfrwt>
<totfact> 0.59896673E+03</totfact>
</mgrwt>
</event>
<event>
 5    1  0.1147887E+001  0.2751203E+03  0.7818608E-02  0.1098384E+00
         -2   -1    0    0    0  501 -0.00000000000E+00  0.00000000000E+00  0.15410098916E+02  0.15410098916E+02  0.00000000000E+00 0.  1.
          2   -1    0    0  501    0  0.00000000000E+00 -0.00000000000E+00 -0.12279475392E+04  0.12279475392E+04  0.00000000000E+00 0.  1.
         35    2    1    2    0    0  0.00000000000E+00  0.00000000000E+00 -0.12125374403E+04  0.12433576381E+04  0.27512028673E+03 0.  0.
         25    1    3    3    0    0 -0.56079549565E+02  0.36358365172E+02 -0.57246537335E+03  0.58871338551E+03  0.12000000000E+03 0.  0.
         25    1    3    3    0    0  0.56079549565E+02 -0.36358365172E+02 -0.64007206695E+03  0.65464425262E+03  0.12000000000E+03 0.  0.
<mgrwt>
<rscale>  0 0.27512029E+03</rscale>
<asrwt>0</asrwt>
<pdfrwt beam="1">  1        2 0.18891499E+00 0.27512029E+03</pdfrwt>
<pdfrwt beam="2">  1       -2 0.23707847E-02 0.27512029E+03</pdfrwt>
<totfact> 0.11567663E+04</totfact>
</mgrwt>
</event>
<event>
 5    1  0.1147887E+001  0.2736836E+03  0.7818608E-02  0.1099190E+00
          2   -1    0    0  501    0  0.00000000000E+00  0.00000000000E+00  0.11514962586E+04  0.11514962586E+04  0.00000000000E+00 0.  1.
         -2   -1    0    0    0  501 -0.00000000000E+00 -0.00000000000E+00 -0.16262036214E+02  0.16262036214E+02  0.00000000000E+00 0.  1.
         35    2    1    2    0    0  0.00000000000E+00  0.00000000000E+00  0.11352342224E+04  0.11677582949E+04  0.27368356807E+03 0.  0.
         25    1    3    3    0    0 -0.46106574833E+02  0.44130234512E+02  0.49983240462E+03  0.51798236124E+03  0.12000000000E+03 0.  0.
         25    1    3    3    0    0  0.46106574833E+02 -0.44130234512E+02  0.63540181780E+03  0.64977593362E+03  0.12000000000E+03 0.  0.
<mgrwt>
<rscale>  0 0.27368357E+03</rscale>
<asrwt>0</asrwt>
<pdfrwt beam="1">  1        2 0.17715321E+00 0.27368357E+03</pdfrwt>
<pdfrwt beam="2">  1       -2 0.25018526E-02 0.27368357E+03</pdfrwt>
<totfact> 0.11808816E+04</totfact>
</mgrwt>
</event>
<event>
 5    1  0.1147887E+001  0.2756062E+03  0.7818608E-02  0.1098113E+00
          1   -1    0    0  501    0  0.00000000000E+00  0.00000000000E+00  0.40047616354E+03  0.40047616354E+03  0.00000000000E+00 0. -1.
         -1   -1    0    0    0  501 -0.00000000000E+00 -0.00000000000E+00 -0.47417780927E+02  0.47417780927E+02  0.00000000000E+00 0. -1.
         35    2    1    2    0    0  0.00000000000E+00  0.00000000000E+00  0.35305838261E+03  0.44789394447E+03  0.27560617547E+03 0.  0.
         25    1    3    3    0    0 -0.54853365746E+01  0.67347524828E+02  0.18447618776E+03  0.23021129831E+03  0.12000000000E+03 0.  0.
         25    1    3    3    0    0  0.54853365746E+01 -0.67347524828E+02  0.16858219485E+03  0.21768264616E+03  0.12000000000E+03 0.  0.
<mgrwt>
<rscale>  0 0.27560618E+03</rscale>
<asrwt>0</asrwt>
<pdfrwt beam="1">  1        1 0.61611715E-01 0.27560618E+03</pdfrwt>
<pdfrwt beam="2">  1       -1 0.72950435E-02 0.27560618E+03</pdfrwt>
<totfact> 0.59669446E+03</totfact>
</mgrwt>
</event>
<event>
 5    1  0.1147887E+001  0.2751907E+03  0.7818608E-02  0.1098345E+00
         -1   -1    0    0    0  501 -0.00000000000E+00  0.00000000000E+00  0.56127751122E+02  0.56127751122E+02  0.00000000000E+00 0.  1.
          1   -1    0    0  501    0  0.00000000000E+00 -0.00000000000E+00 -0.33731044861E+03  0.33731044861E+03  0.00000000000E+00 0.  1.
         35    2    1    2    0    0  0.00000000000E+00  0.00000000000E+00 -0.28118269749E+03  0.39343819973E+03  0.27519067506E+03 0.  0.
         25    1    3    3    0    0 -0.29683866724E+01 -0.63211897213E+02 -0.17344075647E+03  0.22019593837E+03  0.12000000000E+03 0.  0.
         25    1    3    3    0    0  0.29683866724E+01  0.63211897213E+02 -0.10774194102E+03  0.17324226137E+03  0.12000000000E+03 0.  0.
<mgrwt>
<rscale>  0 0.27519068E+03</rscale>
<asrwt>0</asrwt>
<pdfrwt beam="1">  1        1 0.51893915E-01 0.27519068E+03</pdfrwt>
<pdfrwt beam="2">  1       -1 0.86350387E-02 0.27519068E+03</pdfrwt>
<totfact> 0.57386709E+03</totfact>
</mgrwt>
</event>
<event>
 5    1  0.1147887E+001  0.2738192E+03  0.7818608E-02  0.1099113E+00
         -1   -1    0    0    0  501 -0.00000000000E+00  0.00000000000E+00  0.81882585064E+03  0.81882585064E+03  0.00000000000E+00 0.  1.
          1   -1    0    0  501    0  0.00000000000E+00 -0.00000000000E+00 -0.22891606460E+02  0.22891606460E+02  0.00000000000E+00 0.  1.
         35    2    1    2    0    0  0.00000000000E+00  0.00000000000E+00  0.79593424418E+03  0.84171745710E+03  0.27381920409E+03 0.  0.
         25    1    3    3    0    0  0.48380713775E+02  0.40551583751E+02  0.33971402295E+03  0.36577416776E+03  0.12000000000E+03 0.  0.
         25    1    3    3    0    0 -0.48380713775E+02 -0.40551583751E+02  0.45622022123E+03  0.47594328934E+03  0.12000000000E+03 0.  0.
<mgrwt>
<rscale>  0 0.27381920E+03</rscale>
<asrwt>0</asrwt>
<pdfrwt beam="1">  1        1 0.35217862E-02 0.27381920E+03</pdfrwt>
<pdfrwt beam="2">  1       -1 0.12597319E+00 0.27381920E+03</pdfrwt>
<totfact> 0.15980165E+03</totfact>
</mgrwt>
</event>
<event>
 5    1  0.1147887E+001  0.2759305E+03  0.7818608E-02  0.1097933E+00
          2   -1    0    0  501    0  0.00000000000E+00  0.00000000000E+00  0.24459600882E+03  0.24459600882E+03  0.00000000000E+00 0.  1.
         -2   -1    0    0    0  501 -0.00000000000E+00 -0.00000000000E+00 -0.77819796907E+02  0.77819796907E+02  0.00000000000E+00 0.  1.
         35    2    1    2    0    0  0.00000000000E+00  0.00000000000E+00  0.16677621192E+03  0.32241580573E+03  0.27593051104E+03 0.  0.
         25    1    3    3    0    0 -0.17495259500E+02  0.56749997459E+02  0.44497877030E+02  0.14109113146E+03  0.12000000000E+03 0.  0.
         25    1    3    3    0    0  0.17495259500E+02 -0.56749997459E+02  0.12227833489E+03  0.18132467427E+03  0.12000000000E+03 0.  0.
<mgrwt>
<rscale>  0 0.27593051E+03</rscale>
<asrwt>0</asrwt>
<pdfrwt beam="1">  1        2 0.37630155E-01 0.27593051E+03</pdfrwt>
<pdfrwt beam="2">  1       -2 0.11972277E-01 0.27593051E+03</pdfrwt>
<totfact> 0.67286507E+03</totfact>
</mgrwt>
</event>
<event>
 5    1  0.1147887E+001  0.2749240E+03  0.7818608E-02  0.1098494E+00
          2   -1    0    0  501    0  0.00000000000E+00  0.00000000000E+00  0.16525406638E+03  0.16525406638E+03  0.00000000000E+00 0.  1.
         -2   -1    0    0    0  501 -0.00000000000E+00 -0.00000000000E+00 -0.11434394638E+03  0.11434394638E+03  0.00000000000E+00 0.  1.
         35    2    1    2    0    0  0.00000000000E+00  0.00000000000E+00  0.50910119996E+02  0.27959801276E+03  0.27492400481E+03 0.  0.
         25    1    3    3    0    0 -0.51704890160E+02  0.29016198228E+01 -0.17859958954E+02  0.13191206616E+03  0.12000000000E+03 0.  0.
         25    1    3    3    0    0  0.51704890160E+02 -0.29016198228E+01  0.68770078950E+02  0.14768594660E+03  0.12000000000E+03 0.  0.
<mgrwt>
<rscale>  0 0.27492400E+03</rscale>
<asrwt>0</asrwt>
<pdfrwt beam="1">  1        2 0.25423703E-01 0.27492400E+03</pdfrwt>
<pdfrwt beam="2">  1       -2 0.17591376E-01 0.27492400E+03</pdfrwt>
<totfact> 0.54866074E+03</totfact>
</mgrwt>
</event>
<event>
 5    1  0.1147887E+001  0.2732020E+03  0.7818608E-02  0.1099461E+00
          2   -1    0    0  501    0  0.00000000000E+00  0.00000000000E+00  0.11430505567E+04  0.11430505567E+04  0.00000000000E+00 0. -1.
         -2   -1    0    0    0  501 -0.00000000000E+00 -0.00000000000E+00 -0.16324588433E+02  0.16324588433E+02  0.00000000000E+00 0. -1.
         35    2    1    2    0    0  0.00000000000E+00  0.00000000000E+00  0.11267259683E+04  0.11593751451E+04  0.27320197580E+03 0.  0.
         25    1    3    3    0    0 -0.14283335633E+02  0.31725844775E+02  0.32902682878E+03  0.35195056039E+03  0.12000000000E+03 0.  0.
         25    1    3    3    0    0  0.14283335633E+02 -0.31725844775E+02  0.79769913950E+03  0.80742458475E+03  0.12000000000E+03 0.  0.
<mgrwt>
<rscale>  0 0.27320198E+03</rscale>
<asrwt>0</asrwt>
<pdfrwt beam="1">  1        2 0.17585387E+00 0.27320198E+03</pdfrwt>
<pdfrwt beam="2">  1       -2 0.25114761E-02 0.27320198E+03</pdfrwt>
<totfact> 0.11873928E+04</totfact>
</mgrwt>
</event>
<event>
 5    1  0.1147887E+001  0.2751791E+03  0.7818608E-02  0.1098352E+00
          2   -1    0    0  501    0  0.00000000000E+00  0.00000000000E+00  0.87359355673E+03  0.87359355673E+03  0.00000000000E+00 0.  1.
         -2   -1    0    0    0  501 -0.00000000000E+00 -0.00000000000E+00 -0.21670126491E+02  0.21670126491E+02  0.00000000000E+00 0.  1.
         35    2    1    2    0    0  0.00000000000E+00  0.00000000000E+00  0.85192343024E+03  0.89526368322E+03  0.27517908988E+03 0.  0.
         25    1    3    3    0    0 -0.43632121827E+01 -0.45271113972E+02  0.26452127789E+03  0.29400683298E+03  0.12000000000E+03 0.  0.
         25    1    3    3    0    0  0.43632121827E+01  0.45271113972E+02  0.58740215235E+03  0.60125685025E+03  0.12000000000E+03 0.  0.
<mgrwt>
<rscale>  0 0.27517909E+03</rscale>
<asrwt>0</asrwt>
<pdfrwt beam="1">  1        2 0.13439898E+00 0.27517909E+03</pdfrwt>
<pdfrwt beam="2">  1       -2 0.33338663E-02 0.27517909E+03</pdfrwt>
<totfact> 0.11399348E+04</totfact>
</mgrwt>
</event>
<event>
 5    1  0.1147887E+001  0.2749103E+03  0.7818608E-02  0.1098502E+00
         -2   -1    0    0    0  501 -0.00000000000E+00  0.00000000000E+00  0.79096824632E+02  0.79096824632E+02  0.00000000000E+00 0.  1.
          2   -1    0    0  501    0  0.00000000000E+00 -0.00000000000E+00 -0.23887077216E+03  0.23887077216E+03  0.00000000000E+00 0.  1.
         35    2    1    2    0    0  0.00000000000E+00  0.00000000000E+00 -0.15977394752E+03  0.31796759679E+03  0.27491030955E+03 0.  0.
         25    1    3    3    0    0 -0.31447368698E+02  0.44666616131E+02 -0.12483001691E+03  0.18156700338E+03  0.12000000000E+03 0.  0.
         25    1    3    3    0    0  0.31447368698E+02 -0.44666616131E+02 -0.34943930610E+02  0.13640059340E+03  0.12000000000E+03 0.  0.
<mgrwt>
<rscale>  0 0.27491031E+03</rscale>
<asrwt>0</asrwt>
<pdfrwt beam="1">  1        2 0.36749349E-01 0.27491031E+03</pdfrwt>
<pdfrwt beam="2">  1       -2 0.12168743E-01 0.27491031E+03</pdfrwt>
<totfact> 0.67232948E+03</totfact>
</mgrwt>
</event>
<event>
 5    1  0.1147887E+001  0.2789702E+03  0.7818608E-02  0.1096253E+00
         -2   -1    0    0    0  501 -0.00000000000E+00  0.00000000000E+00  0.80225398013E+02  0.80225398013E+02  0.00000000000E+00 0. -1.
          2   -1    0    0  501    0  0.00000000000E+00 -0.00000000000E+00 -0.24251794948E+03  0.24251794948E+03  0.00000000000E+00 0. -1.
         35    2    1    2    0    0  0.00000000000E+00  0.00000000000E+00 -0.16229255147E+03  0.32274334750E+03  0.27897024230E+03 0.  0.
         25    1    3    3    0    0  0.16292500915E+02 -0.80833198502E+01 -0.16192523837E+01  0.12138124906E+03  0.12000000000E+03 0.  0.
         25    1    3    3    0    0 -0.16292500915E+02  0.80833198502E+01 -0.16067329909E+03  0.20136209843E+03  0.12000000000E+03 0.  0.
<mgrwt>
<rscale>  0 0.27897024E+03</rscale>
<asrwt>0</asrwt>
<pdfrwt beam="1">  1        2 0.37310455E-01 0.27897024E+03</pdfrwt>
<pdfrwt beam="2">  1       -2 0.12342369E-01 0.27897024E+03</pdfrwt>
<totfact> 0.64674673E+03</totfact>
</mgrwt>
</event>
<event>
 5    1  0.1147887E+001  0.2708196E+03  0.7818608E-02  0.1100811E+00
          1   -1    0    0  501    0  0.00000000000E+00  0.00000000000E+00  0.23644680213E+03  0.23644680213E+03  0.00000000000E+00 0.  1.
         -1   -1    0    0    0  501 -0.00000000000E+00 -0.00000000000E+00 -0.77547323170E+02  0.77547323170E+02  0.00000000000E+00 0.  1.
         35    2    1    2    0    0  0.00000000000E+00  0.00000000000E+00  0.15889947896E+03  0.31399412530E+03  0.27081961951E+03 0.  0.
         25    1    3    3    0    0 -0.61487353297E+02  0.87072135754E+01  0.89774868791E+02  0.16222218483E+03  0.12000000000E+03 0.  0.
         25    1    3    3    0    0  0.61487353297E+02 -0.87072135754E+01  0.69124610168E+02  0.15177194047E+03  0.12000000000E+03 0.  0.
<mgrwt>
<rscale>  0 0.27081962E+03</rscale>
<asrwt>0</asrwt>
<pdfrwt beam="1">  1        1 0.36376431E-01 0.27081962E+03</pdfrwt>
<pdfrwt beam="2">  1       -1 0.11930358E-01 0.27081962E+03</pdfrwt>
<totfact> 0.54374768E+03</totfact>
</mgrwt>
</event>
<event>
 5    1  0.1147887E+001  0.2749614E+03  0.7818608E-02  0.1098473E+00
         -2   -1    0    0    0  501 -0.00000000000E+00  0.00000000000E+00  0.15200815097E+03  0.15200815097E+03  0.00000000000E+00 0.  1.
          2   -1    0    0  501    0  0.00000000000E+00 -0.00000000000E+00 -0.12434166166E+03  0.12434166166E+03  0.00000000000E+00 0.  1.
         35    2    1    2    0    0  0.00000000000E+00  0.00000000000E+00  0.27666489304E+02  0.27634981263E+03  0.27496142331E+03 0.  0.
         25    1    3    3    0    0  0.56019360258E+01  0.32641319511E+01  0.80945487416E+02  0.14489378240E+03  0.12000000000E+03 0.  0.
         25    1    3    3    0    0 -0.56019360258E+01 -0.32641319511E+01 -0.53278998112E+02  0.13145603023E+03  0.12000000000E+03 0.  0.
<mgrwt>
<rscale>  0 0.27496142E+03</rscale>
<asrwt>0</asrwt>
<pdfrwt beam="1">  1        2 0.19129486E-01 0.27496142E+03</pdfrwt>
<pdfrwt beam="2">  1       -2 0.23385869E-01 0.27496142E+03</pdfrwt>
<totfact> 0.46482328E+03</totfact>
</mgrwt>
</event>
<event>
 5    1  0.1147887E+001  0.2751152E+03  0.7818608E-02  0.1098387E+00
          2   -1    0    0  501    0  0.00000000000E+00  0.00000000000E+00  0.25187062366E+04  0.25187062366E+04  0.00000000000E+00 0. -1.
         -2   -1    0    0    0  501 -0.00000000000E+00 -0.00000000000E+00 -0.75126236957E+01  0.75126236957E+01  0.00000000000E+00 0. -1.
         35    2    1    2    0    0  0.00000000000E+00  0.00000000000E+00  0.25111936129E+04  0.25262188603E+04  0.27511519155E+03 0.  0.
         25    1    3    3    0    0 -0.46948006421E+01 -0.58202753704E+02  0.15618668704E+04  0.15675578850E+04  0.12000000000E+03 0.  0.
         25    1    3    3    0    0  0.46948006421E+01  0.58202753704E+02  0.94932674244E+03  0.95866097532E+03  0.12000000000E+03 0.  0.
<mgrwt>
<rscale>  0 0.27511519E+03</rscale>
<asrwt>0</asrwt>
<pdfrwt beam="1">  1        2 0.38749260E+00 0.27511519E+03</pdfrwt>
<pdfrwt beam="2">  1       -2 0.11557903E-02 0.27511519E+03</pdfrwt>
<totfact> 0.67640932E+03</totfact>
</mgrwt>
</event>
<event>
 5    1  0.1147887E+001  0.2757840E+03  0.7818608E-02  0.1098014E+00
          1   -1    0    0  501    0  0.00000000000E+00  0.00000000000E+00  0.12810670880E+03  0.12810670880E+03  0.00000000000E+00 0. -1.
         -1   -1    0    0    0  501 -0.00000000000E+00 -0.00000000000E+00 -0.14842470424E+03  0.14842470424E+03  0.00000000000E+00 0. -1.
         35    2    1    2    0    0  0.00000000000E+00  0.00000000000E+00 -0.20317995446E+02  0.27653141304E+03  0.27578397608E+03 0.  0.
         25    1    3    3    0    0  0.47183516730E+02  0.84651773828E+01 -0.58416940695E+02  0.14181143268E+03  0.12000000000E+03 0.  0.
         25    1    3    3    0    0 -0.47183516730E+02 -0.84651773828E+01  0.38098945249E+02  0.13471998036E+03  0.12000000000E+03 0.  0.
<mgrwt>
<rscale>  0 0.27578398E+03</rscale>
<asrwt>0</asrwt>
<pdfrwt beam="1">  1        1 0.19708725E-01 0.27578398E+03</pdfrwt>
<pdfrwt beam="2">  1       -1 0.22834570E-01 0.27578398E+03</pdfrwt>
<totfact> 0.41914214E+03</totfact>
</mgrwt>
</event>
<event>
 5    1  0.1147887E+001  0.2746456E+03  0.7818608E-02  0.1098650E+00
          3   -1    0    0  501    0  0.00000000000E+00  0.00000000000E+00  0.14187670023E+03  0.14187670023E+03  0.00000000000E+00 0.  1.
         -3   -1    0    0    0  501 -0.00000000000E+00 -0.00000000000E+00 -0.13291509328E+03  0.13291509328E+03  0.00000000000E+00 0.  1.
         35    2    1    2    0    0  0.00000000000E+00  0.00000000000E+00  0.89616069507E+01  0.27479179351E+03  0.27464562509E+03 0.  0.
         25    1    3    3    0    0  0.42358050047E+02 -0.50545104743E+02  0.14904737165E+02  0.13773584576E+03  0.12000000000E+03 0.  0.
         25    1    3    3    0    0 -0.42358050047E+02  0.50545104743E+02 -0.59431302146E+01  0.13705594775E+03  0.12000000000E+03 0.  0.
<mgrwt>
<rscale>  0 0.27464563E+03</rscale>
<asrwt>0</asrwt>
<pdfrwt beam="1">  1        3 0.21827185E-01 0.27464563E+03</pdfrwt>
<pdfrwt beam="2">  1       -3 0.20448476E-01 0.27464563E+03</pdfrwt>
<totfact> 0.10533846E+03</totfact>
</mgrwt>
</event>
<event>
 5    1  0.1147887E+001  0.2747885E+03  0.7818608E-02  0.1098570E+00
         -1   -1    0    0    0  501 -0.00000000000E+00  0.00000000000E+00  0.35198794773E+02  0.35198794773E+02  0.00000000000E+00 0. -1.
          1   -1    0    0  501    0  0.00000000000E+00 -0.00000000000E+00 -0.53630196587E+03  0.53630196587E+03  0.00000000000E+00 0. -1.
         35    2    1    2    0    0  0.00000000000E+00  0.00000000000E+00 -0.50110317110E+03  0.57150076064E+03  0.27478852111E+03 0.  0.
         25    1    3    3    0    0 -0.47523000656E+02 -0.40886964684E+02 -0.29919378713E+03  0.32840082480E+03  0.12000000000E+03 0.  0.
         25    1    3    3    0    0  0.47523000656E+02  0.40886964684E+02 -0.20190938397E+03  0.24309993584E+03  0.12000000000E+03 0.  0.
<mgrwt>
<rscale>  0 0.27478852E+03</rscale>
<asrwt>0</asrwt>
<pdfrwt beam="1">  1        1 0.82507994E-01 0.27478852E+03</pdfrwt>
<pdfrwt beam="2">  1       -1 0.54151992E-02 0.27478852E+03</pdfrwt>
<totfact> 0.63811391E+03</totfact>
</mgrwt>
</event>
<event>
 5    1  0.1147887E+001  0.2748147E+03  0.7818608E-02  0.1098555E+00
         -2   -1    0    0    0  501 -0.00000000000E+00  0.00000000000E+00  0.11828102128E+02  0.11828102128E+02  0.00000000000E+00 0.  1.
          2   -1    0    0  501    0  0.00000000000E+00 -0.00000000000E+00 -0.15962644258E+04  0.15962644258E+04  0.00000000000E+00 0.  1.
         35    2    1    2    0    0  0.00000000000E+00  0.00000000000E+00 -0.15844363237E+04  0.16080925279E+04  0.27481469139E+03 0.  0.
         25    1    3    3    0    0 -0.40187074595E+02  0.52953818433E+02 -0.83817084545E+03  0.84932295037E+03  0.12000000000E+03 0.  0.
         25    1    3    3    0    0  0.40187074595E+02 -0.52953818433E+02 -0.74626547823E+03  0.75876957757E+03  0.12000000000E+03 0.  0.
<mgrwt>
<rscale>  0 0.27481469E+03</rscale>
<asrwt>0</asrwt>
<pdfrwt beam="1">  1        2 0.24557916E+00 0.27481469E+03</pdfrwt>
<pdfrwt beam="2">  1       -2 0.18197079E-02 0.27481469E+03</pdfrwt>
<totfact> 0.10769920E+04</totfact>
</mgrwt>
</event>
<event>
 5    1  0.1147887E+001  0.2754888E+03  0.7818608E-02  0.1098179E+00
         -1   -1    0    0    0  501 -0.00000000000E+00  0.00000000000E+00  0.10363993088E+02  0.10363993088E+02  0.00000000000E+00 0. -1.
          1   -1    0    0  501    0  0.00000000000E+00 -0.00000000000E+00 -0.18307154045E+04  0.18307154045E+04  0.00000000000E+00 0. -1.
         35    2    1    2    0    0  0.00000000000E+00  0.00000000000E+00 -0.18203514114E+04  0.18410793976E+04  0.27548881500E+03 0.  0.
         25    1    3    3    0    0 -0.55508489546E+02  0.35164978896E+02 -0.80329988478E+03  0.81486715055E+03  0.12000000000E+03 0.  0.
         25    1    3    3    0    0  0.55508489546E+02 -0.35164978896E+02 -0.10170515266E+04  0.10262122470E+04  0.12000000000E+03 0.  0.
<mgrwt>
<rscale>  0 0.27548882E+03</rscale>
<asrwt>0</asrwt>
<pdfrwt beam="1">  1        1 0.28164857E+00 0.27548882E+03</pdfrwt>
<pdfrwt beam="2">  1       -1 0.15944602E-02 0.27548882E+03</pdfrwt>
<totfact> 0.41494966E+03</totfact>
</mgrwt>
</event>
<event>
 5    1  0.1147887E+001  0.2750798E+03  0.7818608E-02  0.1098407E+00
          2   -1    0    0  501    0  0.00000000000E+00  0.00000000000E+00  0.25607068319E+03  0.25607068319E+03  0.00000000000E+00 0.  1.
         -2   -1    0    0    0  501 -0.00000000000E+00 -0.00000000000E+00 -0.73875001104E+02  0.73875001104E+02  0.00000000000E+00 0.  1.
         35    2    1    2    0    0  0.00000000000E+00  0.00000000000E+00  0.18219568209E+03  0.32994568430E+03  0.27507978482E+03 0.  0.
         25    1    3    3    0    0 -0.36156326581E+02 -0.39516430227E+02  0.42399489372E+02  0.13808166029E+03  0.12000000000E+03 0.  0.
         25    1    3    3    0    0  0.36156326581E+02  0.39516430227E+02  0.13979619272E+03  0.19186402400E+03  0.12000000000E+03 0.  0.
<mgrwt>
<rscale>  0 0.27507978E+03</rscale>
<asrwt>0</asrwt>
<pdfrwt beam="1">  1        2 0.39395489E-01 0.27507978E+03</pdfrwt>
<pdfrwt beam="2">  1       -2 0.11365385E-01 0.27507978E+03</pdfrwt>
<totfact> 0.69621668E+03</totfact>
</mgrwt>
</event>
<event>
 5    1  0.1147887E+001  0.2743081E+03  0.7818608E-02  0.1098839E+00
          2   -1    0    0  501    0  0.00000000000E+00  0.00000000000E+00  0.30845247259E+04  0.30845247259E+04  0.00000000000E+00 0.  1.
         -2   -1    0    0    0  501 -0.00000000000E+00 -0.00000000000E+00 -0.60985821461E+01  0.60985821461E+01  0.00000000000E+00 0.  1.
         35    2    1    2    0    0  0.00000000000E+00  0.00000000000E+00  0.30784261437E+04  0.30906233080E+04  0.27430805619E+03 0.  0.
         25    1    3    3    0    0 -0.36427892044E+02 -0.95086272823E+01  0.21556952252E+04  0.21593608567E+04  0.12000000000E+03 0.  0.
         25    1    3    3    0    0  0.36427892044E+02  0.95086272823E+01  0.92273091851E+03  0.93126245135E+03  0.12000000000E+03 0.  0.
<mgrwt>
<rscale>  0 0.27430806E+03</rscale>
<asrwt>0</asrwt>
<pdfrwt beam="1">  1        2 0.47454102E+00 0.27430806E+03</pdfrwt>
<pdfrwt beam="2">  1       -2 0.93824587E-03 0.27430806E+03</pdfrwt>
<totfact> 0.43384836E+03</totfact>
</mgrwt>
</event>
<event>
 5    1  0.1147887E+001  0.2752466E+03  0.7818608E-02  0.1098314E+00
         -1   -1    0    0    0  501 -0.00000000000E+00  0.00000000000E+00  0.18946078408E+03  0.18946078408E+03  0.00000000000E+00 0. -1.
          1   -1    0    0  501    0  0.00000000000E+00 -0.00000000000E+00 -0.99968803682E+02  0.99968803682E+02  0.00000000000E+00 0. -1.
         35    2    1    2    0    0  0.00000000000E+00  0.00000000000E+00  0.89491980398E+02  0.28942958776E+03  0.27524656531E+03 0.  0.
         25    1    3    3    0    0  0.39640182960E+02  0.54057122696E+02  0.37563865532E+02  0.14249407220E+03  0.12000000000E+03 0.  0.
         25    1    3    3    0    0 -0.39640182960E+02 -0.54057122696E+02  0.51928114866E+02  0.14693551556E+03  0.12000000000E+03 0.  0.
<mgrwt>
<rscale>  0 0.27524657E+03</rscale>
<asrwt>0</asrwt>
<pdfrwt beam="1">  1        1 0.15379816E-01 0.27524657E+03</pdfrwt>
<pdfrwt beam="2">  1       -1 0.29147813E-01 0.27524657E+03</pdfrwt>
<totfact> 0.38487331E+03</totfact>
</mgrwt>
</event>
<event>
 5    1  0.1147887E+001  0.2745262E+03  0.7818608E-02  0.1098717E+00
          1   -1    0    0  501    0  0.00000000000E+00  0.00000000000E+00  0.42312368680E+02  0.42312368680E+02  0.00000000000E+00 0. -1.
         -1   -1    0    0    0  501 -0.00000000000E+00 -0.00000000000E+00 -0.44528728989E+03  0.44528728989E+03  0.00000000000E+00 0. -1.
         35    2    1    2    0    0  0.00000000000E+00  0.00000000000E+00 -0.40297492121E+03  0.48759965857E+03  0.27452620989E+03 0.  0.
         25    1    3    3    0    0  0.45296335267E+02  0.45786717100E+02 -0.17108578824E+03  0.21867448043E+03  0.12000000000E+03 0.  0.
         25    1    3    3    0    0 -0.45296335267E+02 -0.45786717100E+02 -0.23188913297E+03  0.26892517815E+03  0.12000000000E+03 0.  0.
<mgrwt>
<rscale>  0 0.27452621E+03</rscale>
<asrwt>0</asrwt>
<pdfrwt beam="1">  1        1 0.65095948E-02 0.27452621E+03</pdfrwt>
<pdfrwt beam="2">  1       -1 0.68505741E-01 0.27452621E+03</pdfrwt>
<totfact> 0.25780057E+03</totfact>
</mgrwt>
</event>
<event>
 5    1  0.1147887E+001  0.2731580E+03  0.7818608E-02  0.1099486E+00
         -4   -1    0    0    0  501 -0.00000000000E+00  0.00000000000E+00  0.25806020961E+03  0.25806020961E+03  0.00000000000E+00 0.  1.
          4   -1    0    0  501    0  0.00000000000E+00 -0.00000000000E+00 -0.72284793101E+02  0.72284793101E+02  0.00000000000E+00 0.  1.
         35    2    1    2    0    0  0.00000000000E+00  0.00000000000E+00  0.18577541651E+03  0.33034500271E+03  0.27315804114E+03 0.  0.
         25    1    3    3    0    0  0.32652203948E+02  0.19079158927E+02  0.28624997697E+02  0.12903321751E+03  0.12000000000E+03 0.  0.
         25    1    3    3    0    0 -0.32652203948E+02 -0.19079158927E+02  0.15715041881E+03  0.20131178520E+03  0.12000000000E+03 0.  0.
<mgrwt>
<rscale>  0 0.27315804E+03</rscale>
<asrwt>0</asrwt>
<pdfrwt beam="1">  1        4 0.11120738E-01 0.27315804E+03</pdfrwt>
<pdfrwt beam="2">  1       -4 0.39701570E-01 0.27315804E+03</pdfrwt>
<totfact> 0.73227776E+02</totfact>
</mgrwt>
</event>
<event>
 5    1  0.1147887E+001  0.2736696E+03  0.7818608E-02  0.1099198E+00
         -2   -1    0    0    0  501 -0.00000000000E+00  0.00000000000E+00  0.67615071663E+02  0.67615071663E+02  0.00000000000E+00 0. -1.
          2   -1    0    0  501    0  0.00000000000E+00 -0.00000000000E+00 -0.27691705980E+03  0.27691705980E+03  0.00000000000E+00 0. -1.
         35    2    1    2    0    0  0.00000000000E+00  0.00000000000E+00 -0.20930198814E+03  0.34453213147E+03  0.27366963181E+03 0.  0.
         25    1    3    3    0    0  0.21754729960E+01  0.30395062920E+02 -0.31295244174E+02  0.12770272057E+03  0.12000000000E+03 0.  0.
         25    1    3    3    0    0 -0.21754729960E+01 -0.30395062920E+02 -0.17800674397E+03  0.21682941090E+03  0.12000000000E+03 0.  0.
<mgrwt>
<rscale>  0 0.27366963E+03</rscale>
<asrwt>0</asrwt>
<pdfrwt beam="1">  1        2 0.42602626E-01 0.27366963E+03</pdfrwt>
<pdfrwt beam="2">  1       -2 0.10402318E-01 0.27366963E+03</pdfrwt>
<totfact> 0.73723238E+03</totfact>
</mgrwt>
</event>
<event>
 5    1  0.1147887E+001  0.2747033E+03  0.7818608E-02  0.1098618E+00
         -2   -1    0    0    0  501 -0.00000000000E+00  0.00000000000E+00  0.30310446552E+02  0.30310446552E+02  0.00000000000E+00 0. -1.
          2   -1    0    0  501    0  0.00000000000E+00 -0.00000000000E+00 -0.62240845616E+03  0.62240845616E+03  0.00000000000E+00 0. -1.
         35    2    1    2    0    0  0.00000000000E+00  0.00000000000E+00 -0.59209800960E+03  0.65271890271E+03  0.27470331810E+03 0.  0.
         25    1    3    3    0    0  0.29661498799E+02  0.43445079203E+02 -0.39396565621E+03  0.41518215002E+03  0.12000000000E+03 0.  0.
         25    1    3    3    0    0 -0.29661498799E+02 -0.43445079203E+02 -0.19813235339E+03  0.23753675269E+03  0.12000000000E+03 0.  0.
<mgrwt>
<rscale>  0 0.27470332E+03</rscale>
<asrwt>0</asrwt>
<pdfrwt beam="1">  1        2 0.95755137E-01 0.27470332E+03</pdfrwt>
<pdfrwt beam="2">  1       -2 0.46631461E-02 0.27470332E+03</pdfrwt>
<totfact> 0.10474262E+04</totfact>
</mgrwt>
</event>
<event>
 5    1  0.1147887E+001  0.2756677E+03  0.7818608E-02  0.1098079E+00
         -2   -1    0    0    0  501 -0.00000000000E+00  0.00000000000E+00  0.31982578865E+03  0.31982578865E+03  0.00000000000E+00 0.  1.
          2   -1    0    0  501    0  0.00000000000E+00 -0.00000000000E+00 -0.59401629012E+02  0.59401629012E+02  0.00000000000E+00 0.  1.
         35    2    1    2    0    0  0.00000000000E+00  0.00000000000E+00  0.26042415964E+03  0.37922741766E+03  0.27566771915E+03 0.  0.
         25    1    3    3    0    0 -0.83780722852E+01  0.66694269524E+02  0.11791886937E+03  0.18117167946E+03  0.12000000000E+03 0.  0.
         25    1    3    3    0    0  0.83780722852E+01 -0.66694269524E+02  0.14250529026E+03  0.19805573820E+03  0.12000000000E+03 0.  0.
<mgrwt>
<rscale>  0 0.27566772E+03</rscale>
<asrwt>0</asrwt>
<pdfrwt beam="1">  1        2 0.91387124E-02 0.27566772E+03</pdfrwt>
<pdfrwt beam="2">  1       -2 0.49203966E-01 0.27566772E+03</pdfrwt>
<totfact> 0.28372976E+03</totfact>
</mgrwt>
</event>
<event>
 5    1  0.1147887E+001  0.2753722E+03  0.7818608E-02  0.1098244E+00
         -2   -1    0    0    0  501 -0.00000000000E+00  0.00000000000E+00  0.24026923304E+02  0.24026923304E+02  0.00000000000E+00 0.  1.
          2   -1    0    0  501    0  0.00000000000E+00 -0.00000000000E+00 -0.78900941864E+03  0.78900941864E+03  0.00000000000E+00 0.  1.
         35    2    1    2    0    0  0.00000000000E+00  0.00000000000E+00 -0.76498249534E+03  0.81303634195E+03  0.27537224833E+03 0.  0.
         25    1    3    3    0    0  0.78944547304E+01  0.66816976983E+02 -0.39883379322E+03  0.42189480377E+03  0.12000000000E+03 0.  0.
         25    1    3    3    0    0 -0.78944547304E+01 -0.66816976983E+02 -0.36614870212E+03  0.39114153818E+03  0.12000000000E+03 0.  0.
<mgrwt>
<rscale>  0 0.27537225E+03</rscale>
<asrwt>0</asrwt>
<pdfrwt beam="1">  1        2 0.12138604E+00 0.27537225E+03</pdfrwt>
<pdfrwt beam="2">  1       -2 0.36964506E-02 0.27537225E+03</pdfrwt>
<totfact> 0.11141867E+04</totfact>
</mgrwt>
</event>
<event>
 5    1  0.1147887E+001  0.2761776E+03  0.7818608E-02  0.1097795E+00
          2   -1    0    0  501    0  0.00000000000E+00  0.00000000000E+00  0.54784989457E+03  0.54784989457E+03  0.00000000000E+00 0. -1.
         -2   -1    0    0    0  501 -0.00000000000E+00 -0.00000000000E+00 -0.34806090993E+02  0.34806090993E+02  0.00000000000E+00 0. -1.
         35    2    1    2    0    0  0.00000000000E+00  0.00000000000E+00  0.51304380358E+03  0.58265598557E+03  0.27617757535E+03 0.  0.
         25    1    3    3    0    0  0.56295696109E+02  0.28203337688E+02  0.31249418160E+03  0.34061304613E+03  0.12000000000E+03 0.  0.
         25    1    3    3    0    0 -0.56295696109E+02 -0.28203337688E+02  0.20054962198E+03  0.24204293944E+03  0.12000000000E+03 0.  0.
<mgrwt>
<rscale>  0 0.27617758E+03</rscale>
<asrwt>0</asrwt>
<pdfrwt beam="1">  1        2 0.84284593E-01 0.27617758E+03</pdfrwt>
<pdfrwt beam="2">  1       -2 0.53547836E-02 0.27617758E+03</pdfrwt>
<totfact> 0.98378737E+03</totfact>
</mgrwt>
</event>
<event>
 5    1  0.1147887E+001  0.2760852E+03  0.7818608E-02  0.1097847E+00
          2   -1    0    0  501    0  0.00000000000E+00  0.00000000000E+00  0.17846164950E+03  0.17846164950E+03  0.00000000000E+00 0.  1.
         -2   -1    0    0    0  501 -0.00000000000E+00 -0.00000000000E+00 -0.10677789005E+03  0.10677789005E+03  0.00000000000E+00 0.  1.
         35    2    1    2    0    0  0.00000000000E+00  0.00000000000E+00  0.71683759454E+02  0.28523953955E+03  0.27608519257E+03 0.  0.
         25    1    3    3    0    0 -0.69182969616E+01 -0.41086739974E+02 -0.19984739880E+02  0.12858994075E+03  0.12000000000E+03 0.  0.
         25    1    3    3    0    0  0.69182969616E+01  0.41086739974E+02  0.91668499335E+02  0.15664959880E+03  0.12000000000E+03 0.  0.
<mgrwt>
<rscale>  0 0.27608519E+03</rscale>
<asrwt>0</asrwt>
<pdfrwt beam="1">  1        2 0.27455638E-01 0.27608519E+03</pdfrwt>
<pdfrwt beam="2">  1       -2 0.16427368E-01 0.27608519E+03</pdfrwt>
<totfact> 0.56504116E+03</totfact>
</mgrwt>
</event>
<event>
 5    1  0.1147887E+001  0.2739711E+03  0.7818608E-02  0.1099028E+00
         -1   -1    0    0    0  501 -0.00000000000E+00  0.00000000000E+00  0.23500038160E+02  0.23500038160E+02  0.00000000000E+00 0. -1.
          1   -1    0    0  501    0  0.00000000000E+00 -0.00000000000E+00 -0.79851096404E+03  0.79851096404E+03  0.00000000000E+00 0. -1.
         35    2    1    2    0    0  0.00000000000E+00  0.00000000000E+00 -0.77501092588E+03  0.82201100220E+03  0.27397107969E+03 0.  0.
         25    1    3    3    0    0  0.35028617162E+02 -0.30976030263E+02 -0.52754596222E+03  0.54303891271E+03  0.12000000000E+03 0.  0.
         25    1    3    3    0    0 -0.35028617162E+02  0.30976030263E+02 -0.24746496367E+03  0.27897208949E+03  0.12000000000E+03 0.  0.
<mgrwt>
<rscale>  0 0.27397108E+03</rscale>
<asrwt>0</asrwt>
<pdfrwt beam="1">  1        1 0.12284782E+00 0.27397108E+03</pdfrwt>
<pdfrwt beam="2">  1       -1 0.36153910E-02 0.27397108E+03</pdfrwt>
<totfact> 0.65938400E+03</totfact>
</mgrwt>
</event>
<event>
 5    1  0.1147887E+001  0.2693448E+03  0.7818608E-02  0.1101655E+00
          2   -1    0    0  501    0  0.00000000000E+00  0.00000000000E+00  0.55983089602E+03  0.55983089602E+03  0.00000000000E+00 0. -1.
         -2   -1    0    0    0  501 -0.00000000000E+00 -0.00000000000E+00 -0.32396670411E+02  0.32396670411E+02  0.00000000000E+00 0. -1.
         35    2    1    2    0    0  0.00000000000E+00  0.00000000000E+00  0.52743422561E+03  0.59222756643E+03  0.26934481264E+03 0.  0.
         25    1    3    3    0    0 -0.11563970572E+01 -0.13957266456E+02  0.13288535077E+03  0.17959582119E+03  0.12000000000E+03 0.  0.
         25    1    3    3    0    0  0.11563970572E+01  0.13957266456E+02  0.39454887484E+03  0.41263174524E+03  0.12000000000E+03 0.  0.
<mgrwt>
<rscale>  0 0.26934481E+03</rscale>
<asrwt>0</asrwt>
<pdfrwt beam="1">  1        2 0.86127823E-01 0.26934481E+03</pdfrwt>
<pdfrwt beam="2">  1       -2 0.49841035E-02 0.26934481E+03</pdfrwt>
<totfact> 0.10695002E+04</totfact>
</mgrwt>
</event>
<event>
 5    1  0.1147887E+001  0.2753104E+03  0.7818608E-02  0.1098278E+00
         -2   -1    0    0    0  501 -0.00000000000E+00  0.00000000000E+00  0.20679299094E+02  0.20679299094E+02  0.00000000000E+00 0. -1.
          2   -1    0    0  501    0  0.00000000000E+00 -0.00000000000E+00 -0.91632450119E+03  0.91632450119E+03  0.00000000000E+00 0. -1.
         35    2    1    2    0    0  0.00000000000E+00  0.00000000000E+00 -0.89564520210E+03  0.93700380029E+03  0.27531035888E+03 0.  0.
         25    1    3    3    0    0 -0.43263372321E+02  0.49909706678E+02 -0.40137458174E+03  0.42410405925E+03  0.12000000000E+03 0.  0.
         25    1    3    3    0    0  0.43263372321E+02 -0.49909706678E+02 -0.49427062036E+03  0.51289974103E+03  0.12000000000E+03 0.  0.
<mgrwt>
<rscale>  0 0.27531036E+03</rscale>
<asrwt>0</asrwt>
<pdfrwt beam="1">  1        2 0.14097296E+00 0.27531036E+03</pdfrwt>
<pdfrwt beam="2">  1       -2 0.31814315E-02 0.27531036E+03</pdfrwt>
<totfact> 0.11469138E+04</totfact>
</mgrwt>
</event>
<event>
 5    1  0.1147887E+001  0.2746198E+03  0.7818608E-02  0.1098664E+00
          2   -1    0    0  501    0  0.00000000000E+00  0.00000000000E+00  0.75303960272E+02  0.75303960272E+02  0.00000000000E+00 0.  1.
         -2   -1    0    0    0  501 -0.00000000000E+00 -0.00000000000E+00 -0.25037215047E+03  0.25037215047E+03  0.00000000000E+00 0.  1.
         35    2    1    2    0    0  0.00000000000E+00  0.00000000000E+00 -0.17506819020E+03  0.32567611074E+03  0.27461984249E+03 0.  0.
         25    1    3    3    0    0 -0.48786164688E+02  0.22065371973E+02 -0.40289898453E+02  0.13744179285E+03  0.12000000000E+03 0.  0.
         25    1    3    3    0    0  0.48786164688E+02 -0.22065371973E+02 -0.13477829174E+03  0.18823431789E+03  0.12000000000E+03 0.  0.
<mgrwt>
<rscale>  0 0.27461984E+03</rscale>
<asrwt>0</asrwt>
<pdfrwt beam="1">  1        2 0.11585225E-01 0.27461984E+03</pdfrwt>
<pdfrwt beam="2">  1       -2 0.38518793E-01 0.27461984E+03</pdfrwt>
<totfact> 0.34018679E+03</totfact>
</mgrwt>
</event>
<event>
 5    1  0.1147887E+001  0.2746529E+03  0.7818608E-02  0.1098646E+00
          2   -1    0    0  501    0  0.00000000000E+00  0.00000000000E+00  0.87093854948E+03  0.87093854948E+03  0.00000000000E+00 0. -1.
         -2   -1    0    0    0  501 -0.00000000000E+00 -0.00000000000E+00 -0.21653146521E+02  0.21653146521E+02  0.00000000000E+00 0. -1.
         35    2    1    2    0    0  0.00000000000E+00  0.00000000000E+00  0.84928540296E+03  0.89259169601E+03  0.27465294481E+03 0.  0.
         25    1    3    3    0    0 -0.51693372752E+02 -0.12438717218E+02  0.55591705729E+03  0.57120110387E+03  0.12000000000E+03 0.  0.
         25    1    3    3    0    0  0.51693372752E+02  0.12438717218E+02  0.29336834567E+03  0.32139059213E+03  0.12000000000E+03 0.  0.
<mgrwt>
<rscale>  0 0.27465294E+03</rscale>
<asrwt>0</asrwt>
<pdfrwt beam="1">  1        2 0.13399052E+00 0.27465294E+03</pdfrwt>
<pdfrwt beam="2">  1       -2 0.33312540E-02 0.27465294E+03</pdfrwt>
<totfact> 0.11457901E+04</totfact>
</mgrwt>
</event>
<event>
 5    1  0.1147887E+001  0.2753536E+03  0.7818608E-02  0.1098254E+00
         -2   -1    0    0    0  501 -0.00000000000E+00  0.00000000000E+00  0.71070746753E+02  0.71070746753E+02  0.00000000000E+00 0.  1.
          2   -1    0    0  501    0  0.00000000000E+00 -0.00000000000E+00 -0.26670472875E+03  0.26670472875E+03  0.00000000000E+00 0.  1.
         35    2    1    2    0    0  0.00000000000E+00  0.00000000000E+00 -0.19563398200E+03  0.33777547550E+03  0.27535362162E+03 0.  0.
         25    1    3    3    0    0  0.41648489446E+02  0.84843061342E+01 -0.16212592268E+03  0.20613440986E+03  0.12000000000E+03 0.  0.
         25    1    3    3    0    0 -0.41648489446E+02 -0.84843061342E+01 -0.33508059312E+02  0.13164106564E+03  0.12000000000E+03 0.  0.
<mgrwt>
<rscale>  0 0.27535362E+03</rscale>
<asrwt>0</asrwt>
<pdfrwt beam="1">  1        2 0.41031497E-01 0.27535362E+03</pdfrwt>
<pdfrwt beam="2">  1       -2 0.10933961E-01 0.27535362E+03</pdfrwt>
<totfact> 0.70905423E+03</totfact>
</mgrwt>
</event>
<event>
 5    1  0.1147887E+001  0.2745053E+03  0.7818608E-02  0.1098728E+00
         -2   -1    0    0    0  501 -0.00000000000E+00  0.00000000000E+00  0.11945459968E+02  0.11945459968E+02  0.00000000000E+00 0. -1.
          2   -1    0    0  501    0  0.00000000000E+00 -0.00000000000E+00 -0.15770251351E+04  0.15770251351E+04  0.00000000000E+00 0. -1.
         35    2    1    2    0    0  0.00000000000E+00  0.00000000000E+00 -0.15650796751E+04  0.15889705951E+04  0.27450530501E+03 0.  0.
         25    1    3    3    0    0 -0.56816655906E+02 -0.32235310170E+02 -0.85824365549E+03  0.86905087296E+03  0.12000000000E+03 0.  0.
         25    1    3    3    0    0  0.56816655906E+02  0.32235310170E+02 -0.70683601965E+03  0.71991972211E+03  0.12000000000E+03 0.  0.
<mgrwt>
<rscale>  0 0.27450531E+03</rscale>
<asrwt>0</asrwt>
<pdfrwt beam="1">  1        2 0.24261931E+00 0.27450531E+03</pdfrwt>
<pdfrwt beam="2">  1       -2 0.18377626E-02 0.27450531E+03</pdfrwt>
<totfact> 0.10867127E+04</totfact>
</mgrwt>
</event>
<event>
 5    1  0.1147887E+001  0.2761219E+03  0.7818608E-02  0.1097826E+00
         -2   -1    0    0    0  501 -0.00000000000E+00  0.00000000000E+00  0.12854033979E+02  0.12854033979E+02  0.00000000000E+00 0.  1.
          2   -1    0    0  501    0  0.00000000000E+00 -0.00000000000E+00 -0.14828673945E+04  0.14828673945E+04  0.00000000000E+00 0.  1.
         35    2    1    2    0    0  0.00000000000E+00  0.00000000000E+00 -0.14700133605E+04  0.14957214285E+04  0.27612191420E+03 0.  0.
         25    1    3    3    0    0 -0.13019218548E+02  0.66572291398E+02 -0.69323764814E+03  0.70680959730E+03  0.12000000000E+03 0.  0.
         25    1    3    3    0    0  0.13019218548E+02 -0.66572291398E+02 -0.77677571239E+03  0.78891183119E+03  0.12000000000E+03 0.  0.
<mgrwt>
<rscale>  0 0.27612191E+03</rscale>
<asrwt>0</asrwt>
<pdfrwt beam="1">  1        2 0.22813347E+00 0.27612191E+03</pdfrwt>
<pdfrwt beam="2">  1       -2 0.19775435E-02 0.27612191E+03</pdfrwt>
<totfact> 0.10955107E+04</totfact>
</mgrwt>
</event>
<event>
 4    1  0.1147887E+001  0.2536352E+03  0.7818608E-02  0.1111029E+00
         -1   -1    0    0    0  501 -0.00000000000E+00  0.00000000000E+00  0.55660658179E+01  0.55660658179E+01  0.00000000000E+00 0. -1.
          1   -1    0    0  501    0  0.00000000000E+00 -0.00000000000E+00 -0.28894197177E+04  0.28894197177E+04  0.00000000000E+00 0. -1.
         25    1    1    2    0    0  0.32110866998E+02 -0.24648077440E+02 -0.13661593235E+04  0.13720167393E+04  0.12000000000E+03 0.  0.
         25    1    1    2    0    0 -0.32110866998E+02  0.24648077440E+02 -0.15176943283E+04  0.15229690442E+04  0.12000000000E+03 0.  0.
<mgrwt>
<rscale>  0 0.25363517E+03</rscale>
<asrwt>0</asrwt>
<pdfrwt beam="1">  1        1 0.44452488E+00 0.25363517E+03</pdfrwt>
<pdfrwt beam="2">  1       -1 0.85632018E-03 0.25363517E+03</pdfrwt>
<totfact> 0.20373197E+03</totfact>
</mgrwt>
</event>
<event>
 5    1  0.1147887E+001  0.2864546E+03  0.7818608E-02  0.1092215E+00
          1   -1    0    0  501    0  0.00000000000E+00  0.00000000000E+00  0.61278934671E+03  0.61278934671E+03  0.00000000000E+00 0.  1.
         -1   -1    0    0    0  501 -0.00000000000E+00 -0.00000000000E+00 -0.33476520132E+02  0.33476520132E+02  0.00000000000E+00 0.  1.
         35    2    1    2    0    0  0.00000000000E+00  0.00000000000E+00  0.57931282658E+03  0.64626586684E+03  0.28645456814E+03 0.  0.
         25    1    3    3    0    0 -0.41717446808E+02  0.17627044229E+02  0.43346297705E+03  0.45204116022E+03  0.12000000000E+03 0.  0.
         25    1    3    3    0    0  0.41717446808E+02 -0.17627044229E+02  0.14584984952E+03  0.19422470662E+03  0.12000000000E+03 0.  0.
<mgrwt>
<rscale>  0 0.28645457E+03</rscale>
<asrwt>0</asrwt>
<pdfrwt beam="1">  1        1 0.94275276E-01 0.28645457E+03</pdfrwt>
<pdfrwt beam="2">  1       -1 0.51502343E-02 0.28645457E+03</pdfrwt>
<totfact> 0.57358459E+03</totfact>
</mgrwt>
</event>
<event>
 5    1  0.1147887E+001  0.2716604E+03  0.7818608E-02  0.1100333E+00
          2   -1    0    0  501    0  0.00000000000E+00  0.00000000000E+00  0.84808487205E+03  0.84808487205E+03  0.00000000000E+00 0.  1.
         -2   -1    0    0    0  501 -0.00000000000E+00 -0.00000000000E+00 -0.21754714364E+02  0.21754714364E+02  0.00000000000E+00 0.  1.
         35    2    1    2    0    0  0.00000000000E+00  0.00000000000E+00  0.82633015768E+03  0.86983958641E+03  0.27166040674E+03 0.  0.
         25    1    3    3    0    0  0.23613799505E+02 -0.52193268315E+02  0.50190527690E+03  0.51922120119E+03  0.12000000000E+03 0.  0.
         25    1    3    3    0    0 -0.23613799505E+02  0.52193268315E+02  0.32442488078E+03  0.35061838522E+03  0.12000000000E+03 0.  0.
<mgrwt>
<rscale>  0 0.27166041E+03</rscale>
<asrwt>0</asrwt>
<pdfrwt beam="1">  1        2 0.13047457E+00 0.27166041E+03</pdfrwt>
<pdfrwt beam="2">  1       -2 0.33468798E-02 0.27166041E+03</pdfrwt>
<totfact> 0.11777264E+04</totfact>
</mgrwt>
</event>
<event>
 5    1  0.1147887E+001  0.2766275E+03  0.7818608E-02  0.1097545E+00
         -2   -1    0    0    0  501 -0.00000000000E+00  0.00000000000E+00  0.12857361584E+02  0.12857361584E+02  0.00000000000E+00 0.  1.
          2   -1    0    0  501    0  0.00000000000E+00 -0.00000000000E+00 -0.14879179381E+04  0.14879179381E+04  0.00000000000E+00 0.  1.
         35    2    1    2    0    0  0.00000000000E+00  0.00000000000E+00 -0.14750605765E+04  0.15007752997E+04  0.27662753976E+03 0.  0.
         25    1    3    3    0    0 -0.43802504022E+02  0.17115065173E+02 -0.10098281183E+04  0.10180198492E+04  0.12000000000E+03 0.  0.
         25    1    3    3    0    0  0.43802504022E+02 -0.17115065173E+02 -0.46523245823E+03  0.48275545051E+03  0.12000000000E+03 0.  0.
<mgrwt>
<rscale>  0 0.27662754E+03</rscale>
<asrwt>0</asrwt>
<pdfrwt beam="1">  1        2 0.22891046E+00 0.27662754E+03</pdfrwt>
<pdfrwt beam="2">  1       -2 0.19780555E-02 0.27662754E+03</pdfrwt>
<totfact> 0.10883256E+04</totfact>
</mgrwt>
</event>
<event>
 5    1  0.1147887E+001  0.2749881E+03  0.7818608E-02  0.1098458E+00
          2   -1    0    0  501    0  0.00000000000E+00  0.00000000000E+00  0.91226680839E+03  0.91226680839E+03  0.00000000000E+00 0. -1.
         -2   -1    0    0    0  501 -0.00000000000E+00 -0.00000000000E+00 -0.20722681550E+02  0.20722681550E+02  0.00000000000E+00 0. -1.
         35    2    1    2    0    0  0.00000000000E+00  0.00000000000E+00  0.89154412684E+03  0.93298948994E+03  0.27498810563E+03 0.  0.
         25    1    3    3    0    0 -0.43942807063E+02 -0.44004558025E+02  0.53141970855E+03  0.54833774086E+03  0.12000000000E+03 0.  0.
         25    1    3    3    0    0  0.43942807063E+02  0.44004558025E+02  0.36012441829E+03  0.38465174908E+03  0.12000000000E+03 0.  0.
<mgrwt>
<rscale>  0 0.27498811E+03</rscale>
<asrwt>0</asrwt>
<pdfrwt beam="1">  1        2 0.14034871E+00 0.27498811E+03</pdfrwt>
<pdfrwt beam="2">  1       -2 0.31881056E-02 0.27498811E+03</pdfrwt>
<totfact> 0.11501543E+04</totfact>
</mgrwt>
</event>
<event>
 5    1  0.1147887E+001  0.2791330E+03  0.7818608E-02  0.1096163E+00
          1   -1    0    0  501    0  0.00000000000E+00  0.00000000000E+00  0.13615346550E+04  0.13615346550E+04  0.00000000000E+00 0. -1.
         -1   -1    0    0    0  501 -0.00000000000E+00 -0.00000000000E+00 -0.14306510260E+02  0.14306510260E+02  0.00000000000E+00 0. -1.
         35    2    1    2    0    0  0.00000000000E+00  0.00000000000E+00  0.13472281447E+04  0.13758411653E+04  0.27913301139E+03 0.  0.
         25    1    3    3    0    0  0.48052479681E+02 -0.17737118091E+02  0.91784310806E+03  0.92707044887E+03  0.12000000000E+03 0.  0.
         25    1    3    3    0    0 -0.48052479681E+02  0.17737118091E+02  0.42938503669E+03  0.44877071639E+03  0.12000000000E+03 0.  0.
<mgrwt>
<rscale>  0 0.27913301E+03</rscale>
<asrwt>0</asrwt>
<pdfrwt beam="1">  1        1 0.20946677E+00 0.27913301E+03</pdfrwt>
<pdfrwt beam="2">  1       -1 0.22010026E-02 0.27913301E+03</pdfrwt>
<totfact> 0.52804794E+03</totfact>
</mgrwt>
</event>
<event>
 5    1  0.1147887E+001  0.2742456E+03  0.7818608E-02  0.1098874E+00
          1   -1    0    0  501    0  0.00000000000E+00  0.00000000000E+00  0.15906206185E+04  0.15906206185E+04  0.00000000000E+00 0. -1.
         -1   -1    0    0    0  501 -0.00000000000E+00 -0.00000000000E+00 -0.11820959666E+02  0.11820959666E+02  0.00000000000E+00 0. -1.
         35    2    1    2    0    0  0.00000000000E+00  0.00000000000E+00  0.15787996588E+04  0.16024415782E+04  0.27424559924E+03 0.  0.
         25    1    3    3    0    0  0.28016559026E+02  0.39740895820E+02  0.10532071210E+04  0.10611359508E+04  0.12000000000E+03 0.  0.
         25    1    3    3    0    0 -0.28016559026E+02 -0.39740895820E+02  0.52559253786E+03  0.54130562738E+03  0.12000000000E+03 0.  0.
<mgrwt>
<rscale>  0 0.27424560E+03</rscale>
<asrwt>0</asrwt>
<pdfrwt beam="1">  1        1 0.24471069E+00 0.27424560E+03</pdfrwt>
<pdfrwt beam="2">  1       -1 0.18186104E-02 0.27424560E+03</pdfrwt>
<totfact> 0.49132413E+03</totfact>
</mgrwt>
</event>
<event>
 5    1  0.1147887E+001  0.2727249E+03  0.7818608E-02  0.1099730E+00
          1   -1    0    0  501    0  0.00000000000E+00  0.00000000000E+00  0.44184815322E+02  0.44184815322E+02  0.00000000000E+00 0.  1.
         -1   -1    0    0    0  501 -0.00000000000E+00 -0.00000000000E+00 -0.42083946002E+03  0.42083946002E+03  0.00000000000E+00 0.  1.
         35    2    1    2    0    0  0.00000000000E+00  0.00000000000E+00 -0.37665464470E+03  0.46502427534E+03  0.27272487104E+03 0.  0.
         25    1    3    3    0    0  0.55827235470E+02  0.32750240670E+02 -0.18434476826E+03  0.22928639748E+03  0.12000000000E+03 0.  0.
         25    1    3    3    0    0 -0.55827235470E+02 -0.32750240670E+02 -0.19230987644E+03  0.23573787787E+03  0.12000000000E+03 0.  0.
<mgrwt>
<rscale>  0 0.27272487E+03</rscale>
<asrwt>0</asrwt>
<pdfrwt beam="1">  1        1 0.67976641E-02 0.27272487E+03</pdfrwt>
<pdfrwt beam="2">  1       -1 0.64744530E-01 0.27272487E+03</pdfrwt>
<totfact> 0.27153419E+03</totfact>
</mgrwt>
</event>
<event>
 5    1  0.1147887E+001  0.2751296E+03  0.7818608E-02  0.1098379E+00
         -2   -1    0    0    0  501 -0.00000000000E+00  0.00000000000E+00  0.56703778209E+02  0.56703778209E+02  0.00000000000E+00 0.  1.
          2   -1    0    0  501    0  0.00000000000E+00 -0.00000000000E+00 -0.33373558923E+03  0.33373558923E+03  0.00000000000E+00 0.  1.
         35    2    1    2    0    0  0.00000000000E+00  0.00000000000E+00 -0.27703181102E+03  0.39043936743E+03  0.27512956098E+03 0.  0.
         25    1    3    3    0    0  0.89706036536E+01  0.47142039662E+02 -0.20539842751E+03  0.24267541626E+03  0.12000000000E+03 0.  0.
         25    1    3    3    0    0 -0.89706036536E+01 -0.47142039662E+02 -0.71633383503E+02  0.14776395117E+03  0.12000000000E+03 0.  0.
<mgrwt>
<rscale>  0 0.27512956E+03</rscale>
<asrwt>0</asrwt>
<pdfrwt beam="1">  1        2 0.51343938E-01 0.27512956E+03</pdfrwt>
<pdfrwt beam="2">  1       -2 0.87236581E-02 0.27512956E+03</pdfrwt>
<totfact> 0.79708345E+03</totfact>
</mgrwt>
</event>
<event>
 5    1  0.1147887E+001  0.2725192E+03  0.7818608E-02  0.1099846E+00
         -2   -1    0    0    0  501 -0.00000000000E+00  0.00000000000E+00  0.29544973129E+02  0.29544973129E+02  0.00000000000E+00 0. -1.
          2   -1    0    0  501    0  0.00000000000E+00 -0.00000000000E+00 -0.62842073540E+03  0.62842073540E+03  0.00000000000E+00 0. -1.
         35    2    1    2    0    0  0.00000000000E+00  0.00000000000E+00 -0.59887576227E+03  0.65796570853E+03  0.27251916440E+03 0.  0.
         25    1    3    3    0    0  0.63328873417E+02  0.52128605394E+01 -0.27202068894E+03  0.30402791868E+03  0.12000000000E+03 0.  0.
         25    1    3    3    0    0 -0.63328873417E+02 -0.52128605394E+01 -0.32685507333E+03  0.35393778985E+03  0.12000000000E+03 0.  0.
<mgrwt>
<rscale>  0 0.27251916E+03</rscale>
<asrwt>0</asrwt>
<pdfrwt beam="1">  1        2 0.96680113E-01 0.27251916E+03</pdfrwt>
<pdfrwt beam="2">  1       -2 0.45453805E-02 0.27251916E+03</pdfrwt>
<totfact> 0.10762300E+04</totfact>
</mgrwt>
</event>
<event>
 5    1  0.1147887E+001  0.2753889E+03  0.7818608E-02  0.1098234E+00
          1   -1    0    0  501    0  0.00000000000E+00  0.00000000000E+00  0.56415176685E+03  0.56415176685E+03  0.00000000000E+00 0.  1.
         -1   -1    0    0    0  501 -0.00000000000E+00 -0.00000000000E+00 -0.33607542956E+02  0.33607542956E+02  0.00000000000E+00 0.  1.
         35    2    1    2    0    0  0.00000000000E+00  0.00000000000E+00  0.53054422390E+03  0.59775930981E+03  0.27538885045E+03 0.  0.
         25    1    3    3    0    0  0.36967949322E+02 -0.55915732476E+02  0.24756390230E+03  0.28316264609E+03  0.12000000000E+03 0.  0.
         25    1    3    3    0    0 -0.36967949322E+02  0.55915732476E+02  0.28298032160E+03  0.31459666372E+03  0.12000000000E+03 0.  0.
<mgrwt>
<rscale>  0 0.27538885E+03</rscale>
<asrwt>0</asrwt>
<pdfrwt beam="1">  1        1 0.86792572E-01 0.27538885E+03</pdfrwt>
<pdfrwt beam="2">  1       -1 0.51703916E-02 0.27538885E+03</pdfrwt>
<totfact> 0.63861271E+03</totfact>
</mgrwt>
</event>
<event>
 5    1  0.1147887E+001  0.2759417E+03  0.7818608E-02  0.1097926E+00
         -1   -1    0    0    0  501 -0.00000000000E+00  0.00000000000E+00  0.10719658393E+04  0.10719658393E+04  0.00000000000E+00 0.  1.
          1   -1    0    0  501    0  0.00000000000E+00 -0.00000000000E+00 -0.17757984548E+02  0.17757984548E+02  0.00000000000E+00 0.  1.
         35    2    1    2    0    0  0.00000000000E+00  0.00000000000E+00  0.10542078547E+04  0.10897238238E+04  0.27594168087E+03 0.  0.
         25    1    3    3    0    0  0.14439229616E+02  0.54040076839E+02  0.37379243138E+03  0.39654710062E+03  0.12000000000E+03 0.  0.
         25    1    3    3    0    0 -0.14439229616E+02 -0.54040076839E+02  0.68041542332E+03  0.69317672318E+03  0.12000000000E+03 0.  0.
<mgrwt>
<rscale>  0 0.27594168E+03</rscale>
<asrwt>0</asrwt>
<pdfrwt beam="1">  1        1 0.27319985E-02 0.27594168E+03</pdfrwt>
<pdfrwt beam="2">  1       -1 0.16491777E+00 0.27594168E+03</pdfrwt>
<totfact> 0.11389358E+03</totfact>
</mgrwt>
</event>
<event>
 5    1  0.1147887E+001  0.2750762E+03  0.7818608E-02  0.1098409E+00
          2   -1    0    0  501    0  0.00000000000E+00  0.00000000000E+00  0.51879940000E+03  0.51879940000E+03  0.00000000000E+00 0. -1.
         -2   -1    0    0    0  501 -0.00000000000E+00 -0.00000000000E+00 -0.36462514909E+02  0.36462514909E+02  0.00000000000E+00 0. -1.
         35    2    1    2    0    0  0.00000000000E+00  0.00000000000E+00  0.48233688509E+03  0.55526191491E+03  0.27507621386E+03 0.  0.
         25    1    3    3    0    0  0.21722046507E+02 -0.47885790384E+02  0.32565573688E+03  0.35102215769E+03  0.12000000000E+03 0.  0.
         25    1    3    3    0    0 -0.21722046507E+02  0.47885790384E+02  0.15668114821E+03  0.20423975722E+03  0.12000000000E+03 0.  0.
<mgrwt>
<rscale>  0 0.27507621E+03</rscale>
<asrwt>0</asrwt>
<pdfrwt beam="1">  1        2 0.79815287E-01 0.27507621E+03</pdfrwt>
<pdfrwt beam="2">  1       -2 0.56096181E-02 0.27507621E+03</pdfrwt>
<totfact> 0.97452489E+03</totfact>
</mgrwt>
</event>
<event>
 5    1  0.1147887E+001  0.2752735E+03  0.7818608E-02  0.1098299E+00
         -2   -1    0    0    0  501 -0.00000000000E+00  0.00000000000E+00  0.16500201533E+02  0.16500201533E+02  0.00000000000E+00 0. -1.
          2   -1    0    0  501    0  0.00000000000E+00 -0.00000000000E+00 -0.11480999226E+04  0.11480999226E+04  0.00000000000E+00 0. -1.
         35    2    1    2    0    0  0.00000000000E+00  0.00000000000E+00 -0.11315997210E+04  0.11646001241E+04  0.27527353743E+03 0.  0.
         25    1    3    3    0    0 -0.85077790327E+01 -0.99467152485E+01 -0.28604329382E+03  0.31047074803E+03  0.12000000000E+03 0.  0.
         25    1    3    3    0    0  0.85077790327E+01  0.99467152485E+01 -0.84555642723E+03  0.85412937607E+03  0.12000000000E+03 0.  0.
<mgrwt>
<rscale>  0 0.27527354E+03</rscale>
<asrwt>0</asrwt>
<pdfrwt beam="1">  1        2 0.17663082E+00 0.27527354E+03</pdfrwt>
<pdfrwt beam="2">  1       -2 0.25384917E-02 0.27527354E+03</pdfrwt>
<totfact> 0.11611618E+04</totfact>
</mgrwt>
</event>
<event>
 5    1  0.1147887E+001  0.2741833E+03  0.7818608E-02  0.1098909E+00
          2   -1    0    0  501    0  0.00000000000E+00  0.00000000000E+00  0.13887012917E+04  0.13887012917E+04  0.00000000000E+00 0. -1.
         -2   -1    0    0    0  501 -0.00000000000E+00 -0.00000000000E+00 -0.13533597280E+02  0.13533597280E+02  0.00000000000E+00 0. -1.
         35    2    1    2    0    0  0.00000000000E+00  0.00000000000E+00  0.13751676944E+04  0.14022348890E+04  0.27418332571E+03 0.  0.
         25    1    3    3    0    0  0.72790223097E+01 -0.40570458805E+02  0.95308929306E+03  0.96149786627E+03  0.12000000000E+03 0.  0.
         25    1    3    3    0    0 -0.72790223097E+01  0.40570458805E+02  0.42207840133E+03  0.44073702269E+03  0.12000000000E+03 0.  0.
<mgrwt>
<rscale>  0 0.27418333E+03</rscale>
<asrwt>0</asrwt>
<pdfrwt beam="1">  1        2 0.21364624E+00 0.27418333E+03</pdfrwt>
<pdfrwt beam="2">  1       -2 0.20820930E-02 0.27418333E+03</pdfrwt>
<totfact> 0.11414984E+04</totfact>
</mgrwt>
</event>
<event>
 5    1  0.1147887E+001  0.2744136E+03  0.7818608E-02  0.1098780E+00
          1   -1    0    0  501    0  0.00000000000E+00  0.00000000000E+00  0.54368402391E+03  0.54368402391E+03  0.00000000000E+00 0. -1.
         -1   -1    0    0    0  501 -0.00000000000E+00 -0.00000000000E+00 -0.34626181281E+02  0.34626181281E+02  0.00000000000E+00 0. -1.
         35    2    1    2    0    0  0.00000000000E+00  0.00000000000E+00  0.50905784263E+03  0.57831020519E+03  0.27441356797E+03 0.  0.
         25    1    3    3    0    0 -0.54293288069E+02  0.13601409936E+02  0.17875062931E+03  0.22245122378E+03  0.12000000000E+03 0.  0.
         25    1    3    3    0    0  0.54293288069E+02 -0.13601409936E+02  0.33030721332E+03  0.35585898142E+03  0.12000000000E+03 0.  0.
<mgrwt>
<rscale>  0 0.27441357E+03</rscale>
<asrwt>0</asrwt>
<pdfrwt beam="1">  1        1 0.83643689E-01 0.27441357E+03</pdfrwt>
<pdfrwt beam="2">  1       -1 0.53271052E-02 0.27441357E+03</pdfrwt>
<totfact> 0.64203033E+03</totfact>
</mgrwt>
</event>
<event>
 5    1  0.1147887E+001  0.2749990E+03  0.7818608E-02  0.1098452E+00
         -2   -1    0    0    0  501 -0.00000000000E+00  0.00000000000E+00  0.78432251742E+02  0.78432251742E+02  0.00000000000E+00 0.  1.
          2   -1    0    0  501    0  0.00000000000E+00 -0.00000000000E+00 -0.24105027361E+03  0.24105027361E+03  0.00000000000E+00 0.  1.
         35    2    1    2    0    0  0.00000000000E+00  0.00000000000E+00 -0.16261802186E+03  0.31948252535E+03  0.27499902358E+03 0.  0.
         25    1    3    3    0    0 -0.57816820223E+02 -0.29987993463E+02 -0.10018719008E+03  0.16935033956E+03  0.12000000000E+03 0.  0.
         25    1    3    3    0    0  0.57816820223E+02  0.29987993463E+02 -0.62430831789E+02  0.15013218579E+03  0.12000000000E+03 0.  0.
<mgrwt>
<rscale>  0 0.27499902E+03</rscale>
<asrwt>0</asrwt>
<pdfrwt beam="1">  1        2 0.37084657E-01 0.27499902E+03</pdfrwt>
<pdfrwt beam="2">  1       -2 0.12066500E-01 0.27499902E+03</pdfrwt>
<totfact> 0.67489831E+03</totfact>
</mgrwt>
</event>
<event>
 5    1  0.1147887E+001  0.2748267E+03  0.7818608E-02  0.1098549E+00
          1   -1    0    0  501    0  0.00000000000E+00  0.00000000000E+00  0.22075567736E+03  0.22075567736E+03  0.00000000000E+00 0. -1.
         -1   -1    0    0    0  501 -0.00000000000E+00 -0.00000000000E+00 -0.85535413043E+02  0.85535413043E+02  0.00000000000E+00 0. -1.
         35    2    1    2    0    0  0.00000000000E+00  0.00000000000E+00  0.13522026431E+03  0.30629109040E+03  0.27482669480E+03 0.  0.
         25    1    3    3    0    0  0.76403138095E+01 -0.53909372814E+02  0.24190367110E+02  0.13397674699E+03  0.12000000000E+03 0.  0.
         25    1    3    3    0    0 -0.76403138095E+01  0.53909372814E+02  0.11102989720E+03  0.17231434341E+03  0.12000000000E+03 0.  0.
<mgrwt>
<rscale>  0 0.27482669E+03</rscale>
<asrwt>0</asrwt>
<pdfrwt beam="1">  1        1 0.33962412E-01 0.27482669E+03</pdfrwt>
<pdfrwt beam="2">  1       -1 0.13159294E-01 0.27482669E+03</pdfrwt>
<totfact> 0.50860865E+03</totfact>
</mgrwt>
</event>
<event>
 5    1  0.1147887E+001  0.2746650E+03  0.7818608E-02  0.1098639E+00
          2   -1    0    0  501    0  0.00000000000E+00  0.00000000000E+00  0.14814896586E+04  0.14814896586E+04  0.00000000000E+00 0.  1.
         -2   -1    0    0    0  501 -0.00000000000E+00 -0.00000000000E+00 -0.12730570674E+02  0.12730570674E+02  0.00000000000E+00 0.  1.
         35    2    1    2    0    0  0.00000000000E+00  0.00000000000E+00  0.14687590879E+04  0.14942202293E+04  0.27466495082E+03 0.  0.
         25    1    3    3    0    0  0.84584492082E+01  0.58512230476E+02  0.90337345109E+03  0.91322440759E+03  0.12000000000E+03 0.  0.
         25    1    3    3    0    0 -0.84584492082E+01 -0.58512230476E+02  0.56538563684E+03  0.58099582169E+03  0.12000000000E+03 0.  0.
<mgrwt>
<rscale>  0 0.27466495E+03</rscale>
<asrwt>0</asrwt>
<pdfrwt beam="1">  1        2 0.22792135E+00 0.27466495E+03</pdfrwt>
<pdfrwt beam="2">  1       -2 0.19585505E-02 0.27466495E+03</pdfrwt>
<totfact> 0.11129399E+04</totfact>
</mgrwt>
</event>
<event>
 5    1  0.1147887E+001  0.2756795E+03  0.7818608E-02  0.1098072E+00
         -1   -1    0    0    0  501 -0.00000000000E+00  0.00000000000E+00  0.18179005146E+03  0.18179005146E+03  0.00000000000E+00 0.  1.
          1   -1    0    0  501    0  0.00000000000E+00 -0.00000000000E+00 -0.10451507960E+03  0.10451507960E+03  0.00000000000E+00 0.  1.
         35    2    1    2    0    0  0.00000000000E+00  0.00000000000E+00  0.77274971861E+02  0.28630513106E+03  0.27567953641E+03 0.  0.
         25    1    3    3    0    0 -0.12537730054E+02  0.43165312285E+02 -0.14107456292E+02  0.12891648142E+03  0.12000000000E+03 0.  0.
         25    1    3    3    0    0  0.12537730054E+02 -0.43165312285E+02  0.91382428154E+02  0.15738864964E+03  0.12000000000E+03 0.  0.
<mgrwt>
<rscale>  0 0.27567954E+03</rscale>
<asrwt>0</asrwt>
<pdfrwt beam="1">  1        1 0.16079243E-01 0.27567954E+03</pdfrwt>
<pdfrwt beam="2">  1       -1 0.27967700E-01 0.27567954E+03</pdfrwt>
<totfact> 0.38941387E+03</totfact>
</mgrwt>
</event>
<event>
 5    1  0.1147887E+001  0.2752943E+03  0.7818608E-02  0.1098287E+00
          2   -1    0    0  501    0  0.00000000000E+00  0.00000000000E+00  0.33597931579E+02  0.33597931579E+02  0.00000000000E+00 0.  1.
         -2   -1    0    0    0  501 -0.00000000000E+00 -0.00000000000E+00 -0.56392583798E+03  0.56392583798E+03  0.00000000000E+00 0.  1.
         35    2    1    2    0    0  0.00000000000E+00  0.00000000000E+00 -0.53032790640E+03  0.59752376956E+03  0.27529432773E+03 0.  0.
         25    1    3    3    0    0 -0.89009518492E+01  0.66837726926E+02 -0.26411617582E+03  0.29783193753E+03  0.12000000000E+03 0.  0.
         25    1    3    3    0    0  0.89009518492E+01 -0.66837726926E+02 -0.26621173058E+03  0.29969183203E+03  0.12000000000E+03 0.  0.
<mgrwt>
<rscale>  0 0.27529433E+03</rscale>
<asrwt>0</asrwt>
<pdfrwt beam="1">  1        2 0.51689121E-02 0.27529433E+03</pdfrwt>
<pdfrwt beam="2">  1       -2 0.86757829E-01 0.27529433E+03</pdfrwt>
<totfact> 0.17844537E+03</totfact>
</mgrwt>
</event>
<event>
 5    1  0.1147887E+001  0.2737746E+03  0.7818608E-02  0.1099139E+00
         -2   -1    0    0    0  501 -0.00000000000E+00  0.00000000000E+00  0.25323055794E+03  0.25323055794E+03  0.00000000000E+00 0.  1.
          2   -1    0    0  501    0  0.00000000000E+00 -0.00000000000E+00 -0.73996358007E+02  0.73996358007E+02  0.00000000000E+00 0.  1.
         35    2    1    2    0    0  0.00000000000E+00  0.00000000000E+00  0.17923419994E+03  0.32722691595E+03  0.27377464473E+03 0.  0.
         25    1    3    3    0    0 -0.13425316829E+02  0.18498683331E+02  0.15785407005E+02  0.12317312812E+03  0.12000000000E+03 0.  0.
         25    1    3    3    0    0  0.13425316829E+02 -0.18498683331E+02  0.16344879293E+03  0.20405378783E+03  0.12000000000E+03 0.  0.
<mgrwt>
<rscale>  0 0.27377464E+03</rscale>
<asrwt>0</asrwt>
<pdfrwt beam="1">  1        2 0.11384055E-01 0.27377464E+03</pdfrwt>
<pdfrwt beam="2">  1       -2 0.38958547E-01 0.27377464E+03</pdfrwt>
<totfact> 0.34011287E+03</totfact>
</mgrwt>
</event>
<event>
 5    1  0.1147887E+001  0.2754807E+03  0.7818608E-02  0.1098183E+00
          1   -1    0    0  501    0  0.00000000000E+00  0.00000000000E+00  0.27874874168E+02  0.27874874168E+02  0.00000000000E+00 0.  1.
         -1   -1    0    0    0  501 -0.00000000000E+00 -0.00000000000E+00 -0.68062734435E+03  0.68062734435E+03  0.00000000000E+00 0.  1.
         35    2    1    2    0    0  0.00000000000E+00  0.00000000000E+00 -0.65275247018E+03  0.70850221852E+03  0.27548068229E+03 0.  0.
         25    1    3    3    0    0 -0.29899328974E+01  0.90066235663E+01 -0.15418835107E+03  0.19561213299E+03  0.12000000000E+03 0.  0.
         25    1    3    3    0    0  0.29899328974E+01 -0.90066235663E+01 -0.49856411911E+03  0.51289008553E+03  0.12000000000E+03 0.  0.
<mgrwt>
<rscale>  0 0.27548068E+03</rscale>
<asrwt>0</asrwt>
<pdfrwt beam="1">  1        1 0.42884417E-02 0.27548068E+03</pdfrwt>
<pdfrwt beam="2">  1       -1 0.10471191E+00 0.27548068E+03</pdfrwt>
<totfact> 0.18719694E+03</totfact>
</mgrwt>
</event>
<event>
 5    1  0.1147887E+001  0.2747361E+03  0.7818608E-02  0.1098599E+00
         -2   -1    0    0    0  501 -0.00000000000E+00  0.00000000000E+00  0.67116601492E+02  0.67116601492E+02  0.00000000000E+00 0. -1.
          2   -1    0    0  501    0  0.00000000000E+00 -0.00000000000E+00 -0.28115223997E+03  0.28115223997E+03  0.00000000000E+00 0. -1.
         35    2    1    2    0    0  0.00000000000E+00  0.00000000000E+00 -0.21403563848E+03  0.34826884146E+03  0.27473611229E+03 0.  0.
         25    1    3    3    0    0  0.41571014653E+02  0.47140186248E+02 -0.78121091371E+02  0.15637535399E+03  0.12000000000E+03 0.  0.
         25    1    3    3    0    0 -0.41571014653E+02 -0.47140186248E+02 -0.13591454711E+03  0.19189348747E+03  0.12000000000E+03 0.  0.
<mgrwt>
<rscale>  0 0.27473611E+03</rscale>
<asrwt>0</asrwt>
<pdfrwt beam="1">  1        2 0.43254192E-01 0.27473611E+03</pdfrwt>
<pdfrwt beam="2">  1       -2 0.10325631E-01 0.27473611E+03</pdfrwt>
<totfact> 0.73400755E+03</totfact>
</mgrwt>
</event>
<event>
 5    1  0.1147887E+001  0.2753956E+03  0.7818608E-02  0.1098231E+00
         -2   -1    0    0    0  501 -0.00000000000E+00  0.00000000000E+00  0.18524123700E+02  0.18524123700E+02  0.00000000000E+00 0. -1.
          2   -1    0    0  501    0  0.00000000000E+00 -0.00000000000E+00 -0.10235668540E+04  0.10235668540E+04  0.00000000000E+00 0. -1.
         35    2    1    2    0    0  0.00000000000E+00  0.00000000000E+00 -0.10050427303E+04  0.10420909777E+04  0.27539556292E+03 0.  0.
         25    1    3    3    0    0  0.50712848588E+02  0.74914054255E+00 -0.67125138641E+03  0.68377684809E+03  0.12000000000E+03 0.  0.
         25    1    3    3    0    0 -0.50712848588E+02 -0.74914054255E+00 -0.33379134387E+03  0.35831412959E+03  0.12000000000E+03 0.  0.
<mgrwt>
<rscale>  0 0.27539556E+03</rscale>
<asrwt>0</asrwt>
<pdfrwt beam="1">  1        2 0.15747185E+00 0.27539556E+03</pdfrwt>
<pdfrwt beam="2">  1       -2 0.28498647E-02 0.27539556E+03</pdfrwt>
<totfact> 0.11586986E+04</totfact>
</mgrwt>
</event>
<event>
 5    1  0.1147887E+001  0.2749845E+03  0.7818608E-02  0.1098460E+00
         -3   -1    0    0    0  501 -0.00000000000E+00  0.00000000000E+00  0.33889738362E+03  0.33889738362E+03  0.00000000000E+00 0.  1.
          3   -1    0    0  501    0  0.00000000000E+00 -0.00000000000E+00 -0.55781266521E+02  0.55781266521E+02  0.00000000000E+00 0.  1.
         35    2    1    2    0    0  0.00000000000E+00  0.00000000000E+00  0.28311611710E+03  0.39467865014E+03  0.27498454705E+03 0.  0.
         25    1    3    3    0    0 -0.19045149074E+02  0.43681988640E+02  0.73730209304E+02  0.14868415383E+03  0.12000000000E+03 0.  0.
         25    1    3    3    0    0  0.19045149074E+02 -0.43681988640E+02  0.20938590780E+03  0.24599449632E+03  0.12000000000E+03 0.  0.
<mgrwt>
<rscale>  0 0.27498455E+03</rscale>
<asrwt>0</asrwt>
<pdfrwt beam="1">  1        3 0.85817335E-02 0.27498455E+03</pdfrwt>
<pdfrwt beam="2">  1       -3 0.52138058E-01 0.27498455E+03</pdfrwt>
<totfact> 0.88708215E+02</totfact>
</mgrwt>
</event>
<event>
 5    1  0.1147887E+001  0.2607701E+03  0.7818608E-02  0.1106681E+00
         -1   -1    0    0    0  501 -0.00000000000E+00  0.00000000000E+00  0.36952361039E+02  0.36952361039E+02  0.00000000000E+00 0. -1.
          1   -1    0    0  501    0  0.00000000000E+00 -0.00000000000E+00 -0.46005901969E+03  0.46005901969E+03  0.00000000000E+00 0. -1.
         35    2    1    2    0    0  0.00000000000E+00  0.00000000000E+00 -0.42310665865E+03  0.49701138073E+03  0.26077014396E+03 0.  0.
         25    1    3    3    0    0 -0.46277929335E+02 -0.20735056009E+02 -0.20134673974E+03  0.23981680278E+03  0.12000000000E+03 0.  0.
         25    1    3    3    0    0  0.46277929335E+02  0.20735056009E+02 -0.22175991891E+03  0.25719457795E+03  0.12000000000E+03 0.  0.
<mgrwt>
<rscale>  0 0.26077014E+03</rscale>
<asrwt>0</asrwt>
<pdfrwt beam="1">  1        1 0.70778307E-01 0.26077014E+03</pdfrwt>
<pdfrwt beam="2">  1       -1 0.56849789E-02 0.26077014E+03</pdfrwt>
<totfact> 0.72569648E+03</totfact>
</mgrwt>
</event>
<event>
 5    1  0.1147887E+001  0.2715205E+03  0.7818608E-02  0.1100413E+00
          1   -1    0    0  501    0  0.00000000000E+00  0.00000000000E+00  0.56362259184E+02  0.56362259184E+02  0.00000000000E+00 0.  1.
         -1   -1    0    0    0  501 -0.00000000000E+00 -0.00000000000E+00 -0.32700687542E+03  0.32700687542E+03  0.00000000000E+00 0.  1.
         35    2    1    2    0    0  0.00000000000E+00  0.00000000000E+00 -0.27064461623E+03  0.38336913460E+03  0.27152050580E+03 0.  0.
         25    1    3    3    0    0  0.12068746248E+02  0.56521875264E+02 -0.17242339913E+03  0.21787658339E+03  0.12000000000E+03 0.  0.
         25    1    3    3    0    0 -0.12068746248E+02 -0.56521875264E+02 -0.98221217103E+02  0.16549255122E+03  0.12000000000E+03 0.  0.
<mgrwt>
<rscale>  0 0.27152051E+03</rscale>
<asrwt>0</asrwt>
<pdfrwt beam="1">  1        1 0.86711169E-02 0.27152051E+03</pdfrwt>
<pdfrwt beam="2">  1       -1 0.50308749E-01 0.27152051E+03</pdfrwt>
<totfact> 0.31495812E+03</totfact>
</mgrwt>
</event>
<event>
 5    1  0.1147887E+001  0.2741173E+03  0.7818608E-02  0.1098946E+00
         -2   -1    0    0    0  501 -0.00000000000E+00  0.00000000000E+00  0.17665521275E+02  0.17665521275E+02  0.00000000000E+00 0.  1.
          2   -1    0    0  501    0  0.00000000000E+00 -0.00000000000E+00 -0.10633747585E+04  0.10633747585E+04  0.00000000000E+00 0.  1.
         35    2    1    2    0    0  0.00000000000E+00  0.00000000000E+00 -0.10457092372E+04  0.10810402797E+04  0.27411726993E+03 0.  0.
         25    1    3    3    0    0  0.83731162674E+01 -0.41871808600E+02 -0.72245925673E+03  0.73360120984E+03  0.12000000000E+03 0.  0.
         25    1    3    3    0    0 -0.83731162674E+01  0.41871808600E+02 -0.32324998045E+03  0.34743906990E+03  0.12000000000E+03 0.  0.
<mgrwt>
<rscale>  0 0.27411727E+03</rscale>
<asrwt>0</asrwt>
<pdfrwt beam="1">  1        2 0.16359613E+00 0.27411727E+03</pdfrwt>
<pdfrwt beam="2">  1       -2 0.27177723E-02 0.27411727E+03</pdfrwt>
<totfact> 0.11764963E+04</totfact>
</mgrwt>
</event>
<event>
 5    1  0.1147887E+001  0.2752306E+03  0.7818608E-02  0.1098323E+00
          2   -1    0    0  501    0  0.00000000000E+00  0.00000000000E+00  0.32177517691E+03  0.32177517691E+03  0.00000000000E+00 0.  1.
         -2   -1    0    0    0  501 -0.00000000000E+00 -0.00000000000E+00 -0.58854678541E+02  0.58854678541E+02  0.00000000000E+00 0.  1.
         35    2    1    2    0    0  0.00000000000E+00  0.00000000000E+00  0.26292049837E+03  0.38062985545E+03  0.27523062765E+03 0.  0.
         25    1    3    3    0    0  0.53860395396E+02  0.28294622305E+02  0.17145704861E+03  0.21794276166E+03  0.12000000000E+03 0.  0.
         25    1    3    3    0    0 -0.53860395396E+02 -0.28294622305E+02  0.91463449762E+02  0.16268709379E+03  0.12000000000E+03 0.  0.
<mgrwt>
<rscale>  0 0.27523063E+03</rscale>
<asrwt>0</asrwt>
<pdfrwt beam="1">  1        2 0.49503872E-01 0.27523063E+03</pdfrwt>
<pdfrwt beam="2">  1       -2 0.90545661E-02 0.27523063E+03</pdfrwt>
<totfact> 0.78184494E+03</totfact>
</mgrwt>
</event>
<event>
 5    1  0.1147887E+001  0.2759731E+03  0.7818608E-02  0.1097909E+00
         -4   -1    0    0    0  501 -0.00000000000E+00  0.00000000000E+00  0.20471918365E+03  0.20471918365E+03  0.00000000000E+00 0.  1.
          4   -1    0    0  501    0  0.00000000000E+00 -0.00000000000E+00 -0.93006874745E+02  0.93006874745E+02  0.00000000000E+00 0.  1.
         35    2    1    2    0    0  0.00000000000E+00  0.00000000000E+00  0.11171230890E+03  0.29772605839E+03  0.27597312530E+03 0.  0.
         25    1    3    3    0    0  0.44699273641E+02  0.92692542613E+01  0.11040178752E+03  0.16932955686E+03  0.12000000000E+03 0.  0.
         25    1    3    3    0    0 -0.44699273641E+02 -0.92692542613E+01  0.13105213775E+01  0.12839650153E+03  0.12000000000E+03 0.  0.
<mgrwt>
<rscale>  0 0.27597313E+03</rscale>
<asrwt>0</asrwt>
<pdfrwt beam="1">  1        4 0.14308750E-01 0.27597313E+03</pdfrwt>
<pdfrwt beam="2">  1       -4 0.31495259E-01 0.27597313E+03</pdfrwt>
<totfact> 0.74431373E+02</totfact>
</mgrwt>
</event>
<event>
 5    1  0.1147887E+001  0.2755849E+03  0.7818608E-02  0.1098125E+00
         -2   -1    0    0    0  501 -0.00000000000E+00  0.00000000000E+00  0.10419126738E+04  0.10419126738E+04  0.00000000000E+00 0. -1.
          2   -1    0    0  501    0  0.00000000000E+00 -0.00000000000E+00 -0.18222982299E+02  0.18222982299E+02  0.00000000000E+00 0. -1.
         35    2    1    2    0    0  0.00000000000E+00  0.00000000000E+00  0.10236896915E+04  0.10601356561E+04  0.27558487776E+03 0.  0.
         25    1    3    3    0    0 -0.26466474327E+02 -0.52439059351E+02  0.64152598927E+03  0.65529071725E+03  0.12000000000E+03 0.  0.
         25    1    3    3    0    0  0.26466474327E+02  0.52439059351E+02  0.38216370228E+03  0.40484493889E+03  0.12000000000E+03 0.  0.
<mgrwt>
<rscale>  0 0.27558488E+03</rscale>
<asrwt>0</asrwt>
<pdfrwt beam="1">  1        2 0.28035366E-02 0.27558488E+03</pdfrwt>
<pdfrwt beam="2">  1       -2 0.16029421E+00 0.27558488E+03</pdfrwt>
<totfact> 0.91619973E+02</totfact>
</mgrwt>
</event>
<event>
 5    1  0.1147887E+001  0.2742922E+03  0.7818608E-02  0.1098848E+00
          2   -1    0    0  501    0  0.00000000000E+00  0.00000000000E+00  0.80978651514E+03  0.80978651514E+03  0.00000000000E+00 0. -1.
         -2   -1    0    0    0  501 -0.00000000000E+00 -0.00000000000E+00 -0.23227173207E+02  0.23227173207E+02  0.00000000000E+00 0. -1.
         35    2    1    2    0    0  0.00000000000E+00  0.00000000000E+00  0.78655934194E+03  0.83301368835E+03  0.27429219200E+03 0.  0.
         25    1    3    3    0    0  0.17785417109E+01 -0.11563358964E+02  0.59178095484E+03  0.60393838510E+03  0.12000000000E+03 0.  0.
         25    1    3    3    0    0 -0.17785417109E+01  0.11563358964E+02  0.19477838710E+03  0.22907530325E+03  0.12000000000E+03 0.  0.
<mgrwt>
<rscale>  0 0.27429219E+03</rscale>
<asrwt>0</asrwt>
<pdfrwt beam="1">  1        2 0.12458252E+00 0.27429219E+03</pdfrwt>
<pdfrwt beam="2">  1       -2 0.35734119E-02 0.27429219E+03</pdfrwt>
<totfact> 0.11338705E+04</totfact>
</mgrwt>
</event>
<event>
 5    1  0.1147887E+001  0.2740249E+03  0.7818608E-02  0.1098998E+00
          2   -1    0    0  501    0  0.00000000000E+00  0.00000000000E+00  0.17319131868E+03  0.17319131868E+03  0.00000000000E+00 0.  1.
         -2   -1    0    0    0  501 -0.00000000000E+00 -0.00000000000E+00 -0.10839120927E+03  0.10839120927E+03  0.00000000000E+00 0.  1.
         35    2    1    2    0    0  0.00000000000E+00  0.00000000000E+00  0.64800109415E+02  0.28158252795E+03  0.27402493658E+03 0.  0.
         25    1    3    3    0    0 -0.52674328747E+02  0.39535948065E+02  0.38456709599E+02  0.14218507169E+03  0.12000000000E+03 0.  0.
         25    1    3    3    0    0  0.52674328747E+02 -0.39535948065E+02  0.26343399816E+02  0.13939745626E+03  0.12000000000E+03 0.  0.
<mgrwt>
<rscale>  0 0.27402494E+03</rscale>
<asrwt>0</asrwt>
<pdfrwt beam="1">  1        2 0.26644818E-01 0.27402494E+03</pdfrwt>
<pdfrwt beam="2">  1       -2 0.16675571E-01 0.27402494E+03</pdfrwt>
<totfact> 0.56952873E+03</totfact>
</mgrwt>
</event>
<event>
 5    1  0.1147887E+001  0.2742093E+03  0.7818608E-02  0.1098894E+00
          1   -1    0    0  501    0  0.00000000000E+00  0.00000000000E+00  0.27144470201E+02  0.27144470201E+02  0.00000000000E+00 0. -1.
         -1   -1    0    0    0  501 -0.00000000000E+00 -0.00000000000E+00 -0.69250494947E+03  0.69250494947E+03  0.00000000000E+00 0. -1.
         35    2    1    2    0    0  0.00000000000E+00  0.00000000000E+00 -0.66536047927E+03  0.71964941967E+03  0.27420926290E+03 0.  0.
         25    1    3    3    0    0 -0.13212539468E+02  0.12884716609E+02 -0.16551486293E+03  0.20526996120E+03  0.12000000000E+03 0.  0.
         25    1    3    3    0    0  0.13212539468E+02 -0.12884716609E+02 -0.49984561634E+03  0.51437945847E+03  0.12000000000E+03 0.  0.
<mgrwt>
<rscale>  0 0.27420926E+03</rscale>
<asrwt>0</asrwt>
<pdfrwt beam="1">  1        1 0.41760724E-02 0.27420926E+03</pdfrwt>
<pdfrwt beam="2">  1       -1 0.10653922E+00 0.27420926E+03</pdfrwt>
<totfact> 0.18674448E+03</totfact>
</mgrwt>
</event>
<event>
 5    1  0.1147887E+001  0.2739796E+03  0.7818608E-02  0.1099023E+00
          2   -1    0    0  501    0  0.00000000000E+00  0.00000000000E+00  0.66911945868E+03  0.66911945868E+03  0.00000000000E+00 0. -1.
         -2   -1    0    0    0  501 -0.00000000000E+00 -0.00000000000E+00 -0.28046119962E+02  0.28046119962E+02  0.00000000000E+00 0. -1.
         35    2    1    2    0    0  0.00000000000E+00  0.00000000000E+00  0.64107333872E+03  0.69716557864E+03  0.27397959491E+03 0.  0.
         25    1    3    3    0    0  0.25089315759E+01  0.33049227438E+02  0.17507919443E+03  0.21482846761E+03  0.12000000000E+03 0.  0.
         25    1    3    3    0    0 -0.25089315759E+01 -0.33049227438E+02  0.46599414428E+03  0.48233711103E+03  0.12000000000E+03 0.  0.
<mgrwt>
<rscale>  0 0.27397959E+03</rscale>
<asrwt>0</asrwt>
<pdfrwt beam="1">  1        2 0.10294144E+00 0.27397959E+03</pdfrwt>
<pdfrwt beam="2">  1       -2 0.43147882E-02 0.27397959E+03</pdfrwt>
<totfact> 0.10810379E+04</totfact>
</mgrwt>
</event>
<event>
 5    1  0.1147887E+001  0.2755502E+03  0.7818608E-02  0.1098144E+00
         -2   -1    0    0    0  501 -0.00000000000E+00  0.00000000000E+00  0.93711408643E+01  0.93711408643E+01  0.00000000000E+00 0.  1.
          2   -1    0    0  501    0  0.00000000000E+00 -0.00000000000E+00 -0.20255777278E+04  0.20255777278E+04  0.00000000000E+00 0.  1.
         35    2    1    2    0    0  0.00000000000E+00  0.00000000000E+00 -0.20162065869E+04  0.20349488687E+04  0.27555017125E+03 0.  0.
         25    1    3    3    0    0  0.56322031452E+02 -0.34431065061E+02 -0.89749898312E+03  0.90788881157E+03  0.12000000000E+03 0.  0.
         25    1    3    3    0    0 -0.56322031452E+02  0.34431065061E+02 -0.11187076038E+04  0.11270600571E+04  0.12000000000E+03 0.  0.
<mgrwt>
<rscale>  0 0.27555017E+03</rscale>
<asrwt>0</asrwt>
<pdfrwt beam="1">  1        2 0.31162749E+00 0.27555017E+03</pdfrwt>
<pdfrwt beam="2">  1       -2 0.14417133E-02 0.27555017E+03</pdfrwt>
<totfact> 0.90053206E+03</totfact>
</mgrwt>
</event>
<event>
 5    1  0.1147887E+001  0.2754647E+03  0.7818608E-02  0.1098192E+00
          1   -1    0    0  501    0  0.00000000000E+00  0.00000000000E+00  0.98062630530E+03  0.98062630530E+03  0.00000000000E+00 0. -1.
         -1   -1    0    0    0  501 -0.00000000000E+00 -0.00000000000E+00 -0.19344977393E+02  0.19344977393E+02  0.00000000000E+00 0. -1.
         35    2    1    2    0    0  0.00000000000E+00  0.00000000000E+00  0.96128132791E+03  0.99997128270E+03  0.27546465260E+03 0.  0.
         25    1    3    3    0    0  0.15296735697E+02 -0.56462924939E+02  0.60364470892E+03  0.61823052871E+03  0.12000000000E+03 0.  0.
         25    1    3    3    0    0 -0.15296735697E+02  0.56462924939E+02  0.35763661899E+03  0.38174075399E+03  0.12000000000E+03 0.  0.
<mgrwt>
<rscale>  0 0.27546465E+03</rscale>
<asrwt>0</asrwt>
<pdfrwt beam="1">  1        1 0.15086555E+00 0.27546465E+03</pdfrwt>
<pdfrwt beam="2">  1       -1 0.29761511E-02 0.27546465E+03</pdfrwt>
<totfact> 0.63083735E+03</totfact>
</mgrwt>
</event>
<event>
 5    1  0.1147887E+001  0.2752680E+03  0.7818608E-02  0.1098302E+00
          2   -1    0    0  501    0  0.00000000000E+00  0.00000000000E+00  0.25989990960E+02  0.25989990960E+02  0.00000000000E+00 0. -1.
         -2   -1    0    0    0  501 -0.00000000000E+00 -0.00000000000E+00 -0.72886201518E+03  0.72886201518E+03  0.00000000000E+00 0. -1.
         35    2    1    2    0    0  0.00000000000E+00  0.00000000000E+00 -0.70287202422E+03  0.75485200614E+03  0.27526799440E+03 0.  0.
         25    1    3    3    0    0  0.61977067683E+02 -0.65166174187E+00 -0.27880351869E+03  0.30979506712E+03  0.12000000000E+03 0.  0.
         25    1    3    3    0    0 -0.61977067683E+02  0.65166174187E+00 -0.42406850553E+03  0.44505693902E+03  0.12000000000E+03 0.  0.
<mgrwt>
<rscale>  0 0.27526799E+03</rscale>
<asrwt>0</asrwt>
<pdfrwt beam="1">  1        2 0.39984600E-02 0.27526799E+03</pdfrwt>
<pdfrwt beam="2">  1       -2 0.11213262E+00 0.27526799E+03</pdfrwt>
<totfact> 0.13864282E+03</totfact>
</mgrwt>
</event>
<event>
 5    1  0.1147887E+001  0.2743601E+03  0.7818608E-02  0.1098810E+00
          1   -1    0    0  501    0  0.00000000000E+00  0.00000000000E+00  0.38153958545E+02  0.38153958545E+02  0.00000000000E+00 0. -1.
         -1   -1    0    0    0  501 -0.00000000000E+00 -0.00000000000E+00 -0.49322168831E+03  0.49322168831E+03  0.00000000000E+00 0. -1.
         35    2    1    2    0    0  0.00000000000E+00  0.00000000000E+00 -0.45506772977E+03  0.53137564686E+03  0.27436005430E+03 0.  0.
         25    1    3    3    0    0 -0.75733586983E+01 -0.65896709365E+02 -0.21917472985E+03  0.25852909754E+03  0.12000000000E+03 0.  0.
         25    1    3    3    0    0  0.75733586983E+01  0.65896709365E+02 -0.23589299991E+03  0.27284654932E+03  0.12000000000E+03 0.  0.
<mgrwt>
<rscale>  0 0.27436005E+03</rscale>
<asrwt>0</asrwt>
<pdfrwt beam="1">  1        1 0.58698396E-02 0.27436005E+03</pdfrwt>
<pdfrwt beam="2">  1       -1 0.75880262E-01 0.27436005E+03</pdfrwt>
<totfact> 0.24188754E+03</totfact>
</mgrwt>
</event>
<event>
 5    1  0.1147887E+001  0.2757730E+03  0.7818608E-02  0.1098020E+00
          2   -1    0    0  501    0  0.00000000000E+00  0.00000000000E+00  0.22139675676E+04  0.22139675676E+04  0.00000000000E+00 0.  1.
         -2   -1    0    0    0  501 -0.00000000000E+00 -0.00000000000E+00 -0.85876102097E+01  0.85876102097E+01  0.00000000000E+00 0.  1.
         35    2    1    2    0    0  0.00000000000E+00  0.00000000000E+00  0.22053799573E+04  0.22225551778E+04  0.27577302614E+03 0.  0.
         25    1    3    3    0    0  0.53758422559E+02  0.40206073084E+02  0.11857421748E+04  0.11936879832E+04  0.12000000000E+03 0.  0.
         25    1    3    3    0    0 -0.53758422559E+02 -0.40206073084E+02  0.10196377826E+04  0.10288671945E+04  0.12000000000E+03 0.  0.
<mgrwt>
<rscale>  0 0.27577303E+03</rscale>
<asrwt>0</asrwt>
<pdfrwt beam="1">  1        2 0.34060994E+00 0.27577303E+03</pdfrwt>
<pdfrwt beam="2">  1       -2 0.13211726E-02 0.27577303E+03</pdfrwt>
<totfact> 0.81315549E+03</totfact>
</mgrwt>
</event>
<event>
 5    1  0.1147887E+001  0.2749727E+03  0.7818608E-02  0.1098467E+00
         -2   -1    0    0    0  501 -0.00000000000E+00  0.00000000000E+00  0.36828451781E+02  0.36828451781E+02  0.00000000000E+00 0.  1.
          2   -1    0    0  501    0  0.00000000000E+00 -0.00000000000E+00 -0.51325812402E+03  0.51325812402E+03  0.00000000000E+00 0.  1.
         35    2    1    2    0    0  0.00000000000E+00  0.00000000000E+00 -0.47642967224E+03  0.55008657580E+03  0.27497274099E+03 0.  0.
         25    1    3    3    0    0 -0.40809286721E+02  0.20832971587E+02 -0.33628266397E+03  0.35997977815E+03  0.12000000000E+03 0.  0.
         25    1    3    3    0    0  0.40809286721E+02 -0.20832971587E+02 -0.14014700827E+03  0.19010679765E+03  0.12000000000E+03 0.  0.
<mgrwt>
<rscale>  0 0.27497274E+03</rscale>
<asrwt>0</asrwt>
<pdfrwt beam="1">  1        2 0.78962781E-01 0.27497274E+03</pdfrwt>
<pdfrwt beam="2">  1       -2 0.56659162E-02 0.27497274E+03</pdfrwt>
<totfact> 0.97141056E+03</totfact>
</mgrwt>
</event>
<event>
 5    1  0.1147887E+001  0.2791428E+03  0.7818608E-02  0.1096158E+00
         -3   -1    0    0    0  501 -0.00000000000E+00  0.00000000000E+00  0.66011466791E+03  0.66011466791E+03  0.00000000000E+00 0.  1.
          3   -1    0    0  501    0  0.00000000000E+00 -0.00000000000E+00 -0.29510280395E+02  0.29510280395E+02  0.00000000000E+00 0.  1.
         35    2    1    2    0    0  0.00000000000E+00  0.00000000000E+00  0.63060438751E+03  0.68962494830E+03  0.27914275160E+03 0.  0.
         25    1    3    3    0    0 -0.35188901524E+02  0.30657578521E+02  0.18221476437E+03  0.22311514127E+03  0.12000000000E+03 0.  0.
         25    1    3    3    0    0  0.35188901524E+02 -0.30657578521E+02  0.44838962314E+03  0.46650980703E+03  0.12000000000E+03 0.  0.
<mgrwt>
<rscale>  0 0.27914275E+03</rscale>
<asrwt>0</asrwt>
<pdfrwt beam="1">  1        3 0.45400437E-02 0.27914275E+03</pdfrwt>
<pdfrwt beam="2">  1       -3 0.10155609E+00 0.27914275E+03</pdfrwt>
<totfact> 0.58985467E+02</totfact>
</mgrwt>
</event>
<event>
 5    1  0.1147887E+001  0.2744682E+03  0.7818608E-02  0.1098749E+00
          4   -1    0    0  501    0  0.00000000000E+00  0.00000000000E+00  0.28768383301E+03  0.28768383301E+03  0.00000000000E+00 0. -1.
         -4   -1    0    0    0  501 -0.00000000000E+00 -0.00000000000E+00 -0.65464940512E+02  0.65464940512E+02  0.00000000000E+00 0. -1.
         35    2    1    2    0    0  0.00000000000E+00  0.00000000000E+00  0.22221889250E+03  0.35314877352E+03  0.27446824963E+03 0.  0.
         25    1    3    3    0    0  0.57919298832E+01  0.59272141272E+02  0.14941820315E+03  0.20068017495E+03  0.12000000000E+03 0.  0.
         25    1    3    3    0    0 -0.57919298832E+01 -0.59272141272E+02  0.72800689346E+02  0.15246859858E+03  0.12000000000E+03 0.  0.
<mgrwt>
<rscale>  0 0.27446825E+03</rscale>
<asrwt>0</asrwt>
<pdfrwt beam="1">  1        4 0.44259051E-01 0.27446825E+03</pdfrwt>
<pdfrwt beam="2">  1       -4 0.10071529E-01 0.27446825E+03</pdfrwt>
<totfact> 0.69827628E+02</totfact>
</mgrwt>
</event>
<event>
 5    1  0.1147887E+001  0.2602917E+03  0.7818608E-02  0.1106968E+00
         -2   -1    0    0    0  501 -0.00000000000E+00  0.00000000000E+00  0.11593800798E+03  0.11593800798E+03  0.00000000000E+00 0. -1.
          2   -1    0    0  501    0  0.00000000000E+00 -0.00000000000E+00 -0.14609476334E+03  0.14609476334E+03  0.00000000000E+00 0. -1.
         35    2    1    2    0    0  0.00000000000E+00  0.00000000000E+00 -0.30156755362E+02  0.26203277131E+03  0.26029165055E+03 0.  0.
         25    1    3    3    0    0 -0.35959849842E+02 -0.23600351251E+02 -0.41480677374E+02  0.13405496625E+03  0.12000000000E+03 0.  0.
         25    1    3    3    0    0  0.35959849842E+02  0.23600351251E+02  0.11323922012E+02  0.12797780507E+03  0.12000000000E+03 0.  0.
<mgrwt>
<rscale>  0 0.26029165E+03</rscale>
<asrwt>0</asrwt>
<pdfrwt beam="1">  1        2 0.22476117E-01 0.26029165E+03</pdfrwt>
<pdfrwt beam="2">  1       -2 0.17836617E-01 0.26029165E+03</pdfrwt>
<totfact> 0.61424735E+03</totfact>
</mgrwt>
</event>
<event>
 5    1  0.1147887E+001  0.2752464E+03  0.7818608E-02  0.1098314E+00
          2   -1    0    0  501    0  0.00000000000E+00  0.00000000000E+00  0.63149101048E+03  0.63149101048E+03  0.00000000000E+00 0. -1.
         -2   -1    0    0    0  501 -0.00000000000E+00 -0.00000000000E+00 -0.29992739532E+02  0.29992739532E+02  0.00000000000E+00 0. -1.
         35    2    1    2    0    0  0.00000000000E+00  0.00000000000E+00  0.60149827095E+03  0.66148375001E+03  0.27524640157E+03 0.  0.
         25    1    3    3    0    0 -0.64375883114E+02  0.19687889698E+02  0.29383461611E+03  0.32445438655E+03  0.12000000000E+03 0.  0.
         25    1    3    3    0    0  0.64375883114E+02 -0.19687889698E+02  0.30766365484E+03  0.33702936346E+03  0.12000000000E+03 0.  0.
<mgrwt>
<rscale>  0 0.27524640E+03</rscale>
<asrwt>0</asrwt>
<pdfrwt beam="1">  1        2 0.97152454E-01 0.27524640E+03</pdfrwt>
<pdfrwt beam="2">  1       -2 0.46142681E-02 0.27524640E+03</pdfrwt>
<totfact> 0.10463900E+04</totfact>
</mgrwt>
</event>
<event>
 5    1  0.1147887E+001  0.2758935E+03  0.7818608E-02  0.1097953E+00
          2   -1    0    0  501    0  0.00000000000E+00  0.00000000000E+00  0.37989389993E+03  0.37989389993E+03  0.00000000000E+00 0. -1.
         -2   -1    0    0    0  501 -0.00000000000E+00 -0.00000000000E+00 -0.50091099186E+02  0.50091099186E+02  0.00000000000E+00 0. -1.
         35    2    1    2    0    0  0.00000000000E+00  0.00000000000E+00  0.32980280074E+03  0.42998499911E+03  0.27589347960E+03 0.  0.
         25    1    3    3    0    0 -0.49081818395E+01 -0.67429146142E+02  0.15297868317E+03  0.20584765606E+03  0.12000000000E+03 0.  0.
         25    1    3    3    0    0  0.49081818395E+01  0.67429146142E+02  0.17682411757E+03  0.22413734305E+03  0.12000000000E+03 0.  0.
<mgrwt>
<rscale>  0 0.27589348E+03</rscale>
<asrwt>0</asrwt>
<pdfrwt beam="1">  1        2 0.58445214E-01 0.27589348E+03</pdfrwt>
<pdfrwt beam="2">  1       -2 0.77063232E-02 0.27589348E+03</pdfrwt>
<totfact> 0.84150625E+03</totfact>
</mgrwt>
</event>
<event>
 5    1  0.1147887E+001  0.2715193E+03  0.7818608E-02  0.1100413E+00
          1   -1    0    0  501    0  0.00000000000E+00  0.00000000000E+00  0.50637999552E+02  0.50637999552E+02  0.00000000000E+00 0.  1.
         -1   -1    0    0    0  501 -0.00000000000E+00 -0.00000000000E+00 -0.36396944614E+03  0.36396944614E+03  0.00000000000E+00 0.  1.
         35    2    1    2    0    0  0.00000000000E+00  0.00000000000E+00 -0.31333144659E+03  0.41460744569E+03  0.27151931534E+03 0.  0.
         25    1    3    3    0    0 -0.27111485058E+02 -0.57346536323E+02 -0.16071348719E+03  0.21036274103E+03  0.12000000000E+03 0.  0.
         25    1    3    3    0    0  0.27111485058E+02  0.57346536323E+02 -0.15261795940E+03  0.20424470466E+03  0.12000000000E+03 0.  0.
<mgrwt>
<rscale>  0 0.27151932E+03</rscale>
<asrwt>0</asrwt>
<pdfrwt beam="1">  1        1 0.77904616E-02 0.27151932E+03</pdfrwt>
<pdfrwt beam="2">  1       -1 0.55995298E-01 0.27151932E+03</pdfrwt>
<totfact> 0.29810082E+03</totfact>
</mgrwt>
</event>
<event>
 5    1  0.1147887E+001  0.2746949E+03  0.7818608E-02  0.1098622E+00
         -2   -1    0    0    0  501 -0.00000000000E+00  0.00000000000E+00  0.56627927733E+01  0.56627927733E+01  0.00000000000E+00 0. -1.
          2   -1    0    0  501    0  0.00000000000E+00 -0.00000000000E+00 -0.33312743138E+04  0.33312743138E+04  0.00000000000E+00 0. -1.
         35    2    1    2    0    0  0.00000000000E+00  0.00000000000E+00 -0.33256115210E+04  0.33369371065E+04  0.27469485696E+03 0.  0.
         25    1    3    3    0    0  0.53738101528E+02 -0.35027856742E+02 -0.14356771187E+04  0.14421107875E+04  0.12000000000E+03 0.  0.
         25    1    3    3    0    0 -0.53738101528E+02  0.35027856742E+02 -0.18899344023E+04  0.18948263190E+04  0.12000000000E+03 0.  0.
<mgrwt>
<rscale>  0 0.27469486E+03</rscale>
<asrwt>0</asrwt>
<pdfrwt beam="1">  1        2 0.51250435E+00 0.27469486E+03</pdfrwt>
<pdfrwt beam="2">  1       -2 0.87119785E-03 0.27469486E+03</pdfrwt>
<totfact> 0.33990858E+03</totfact>
</mgrwt>
</event>
<event>
 5    1  0.1147887E+001  0.2744455E+03  0.7818608E-02  0.1098762E+00
         -1   -1    0    0    0  501 -0.00000000000E+00  0.00000000000E+00  0.14900024935E+02  0.14900024935E+02  0.00000000000E+00 0. -1.
          1   -1    0    0  501    0  0.00000000000E+00 -0.00000000000E+00 -0.12637618347E+04  0.12637618347E+04  0.00000000000E+00 0. -1.
         35    2    1    2    0    0  0.00000000000E+00  0.00000000000E+00 -0.12488618098E+04  0.12786618597E+04  0.27444549804E+03 0.  0.
         25    1    3    3    0    0  0.65694964729E+02  0.90816319974E+00 -0.57481019336E+03  0.59086666139E+03  0.12000000000E+03 0.  0.
         25    1    3    3    0    0 -0.65694964729E+02 -0.90816319974E+00 -0.67405161645E+03  0.68779519829E+03  0.12000000000E+03 0.  0.
<mgrwt>
<rscale>  0 0.27444550E+03</rscale>
<asrwt>0</asrwt>
<pdfrwt beam="1">  1        1 0.19442486E+00 0.27444550E+03</pdfrwt>
<pdfrwt beam="2">  1       -1 0.22923119E-02 0.27444550E+03</pdfrwt>
<totfact> 0.57998291E+03</totfact>
</mgrwt>
</event>
<event>
 5    1  0.1147887E+001  0.2772583E+03  0.7818608E-02  0.1097196E+00
         -2   -1    0    0    0  501 -0.00000000000E+00  0.00000000000E+00  0.57846685157E+01  0.57846685157E+01  0.00000000000E+00 0. -1.
          2   -1    0    0  501    0  0.00000000000E+00 -0.00000000000E+00 -0.33222376184E+04  0.33222376184E+04  0.00000000000E+00 0. -1.
         35    2    1    2    0    0  0.00000000000E+00  0.00000000000E+00 -0.33164529499E+04  0.33280222869E+04  0.27725831531E+03 0.  0.
         25    1    3    3    0    0  0.31935208875E+02  0.46088430468E+02 -0.11671095874E+04  0.11746015452E+04  0.12000000000E+03 0.  0.
         25    1    3    3    0    0 -0.31935208875E+02 -0.46088430468E+02 -0.21493433625E+04  0.21534207417E+04  0.12000000000E+03 0.  0.
<mgrwt>
<rscale>  0 0.27725832E+03</rscale>
<asrwt>0</asrwt>
<pdfrwt beam="1">  1        2 0.51111374E+00 0.27725832E+03</pdfrwt>
<pdfrwt beam="2">  1       -2 0.88994855E-03 0.27725832E+03</pdfrwt>
<totfact> 0.33385549E+03</totfact>
</mgrwt>
</event>
<event>
 5    1  0.1147887E+001  0.2745728E+03  0.7818608E-02  0.1098691E+00
          2   -1    0    0  501    0  0.00000000000E+00  0.00000000000E+00  0.20856846591E+04  0.20856846591E+04  0.00000000000E+00 0. -1.
         -2   -1    0    0    0  501 -0.00000000000E+00 -0.00000000000E+00 -0.90366258830E+01  0.90366258830E+01  0.00000000000E+00 0. -1.
         35    2    1    2    0    0  0.00000000000E+00  0.00000000000E+00  0.20766480332E+04  0.20947212849E+04  0.27457277340E+03 0.  0.
         25    1    3    3    0    0  0.21307974160E+02  0.11615202112E+02  0.56442677799E+03  0.57755218846E+03  0.12000000000E+03 0.  0.
         25    1    3    3    0    0 -0.21307974160E+02 -0.11615202112E+02  0.15122212552E+04  0.15171690965E+04  0.12000000000E+03 0.  0.
<mgrwt>
<rscale>  0 0.27457277E+03</rscale>
<asrwt>0</asrwt>
<pdfrwt beam="1">  1        2 0.32087418E+00 0.27457277E+03</pdfrwt>
<pdfrwt beam="2">  1       -2 0.13902518E-02 0.27457277E+03</pdfrwt>
<totfact> 0.88279448E+03</totfact>
</mgrwt>
</event>
<event>
 4    1  0.1147887E+001  0.2556547E+03  0.7818608E-02  0.1109782E+00
         -2   -1    0    0    0  501 -0.00000000000E+00  0.00000000000E+00  0.31205692535E+02  0.31205692535E+02  0.00000000000E+00 0. -1.
          2   -1    0    0  501    0  0.00000000000E+00 -0.00000000000E+00 -0.52361698333E+03  0.52361698333E+03  0.00000000000E+00 0. -1.
         25    1    1    2    0    0  0.19201086804E+02  0.37273895244E+02 -0.21694364280E+03  0.25144098543E+03  0.12000000000E+03 0.  0.
         25    1    1    2    0    0 -0.19201086804E+02 -0.37273895244E+02 -0.27546764799E+03  0.30338169044E+03  0.12000000000E+03 0.  0.
<mgrwt>
<rscale>  0 0.25565469E+03</rscale>
<asrwt>0</asrwt>
<pdfrwt beam="1">  1        2 0.80556457E-01 0.25565469E+03</pdfrwt>
<pdfrwt beam="2">  1       -2 0.48008759E-02 0.25565469E+03</pdfrwt>
<totfact> 0.12184799E+04</totfact>
</mgrwt>
</event>
<event>
 5    1  0.1147887E+001  0.2759308E+03  0.7818608E-02  0.1097932E+00
         -2   -1    0    0    0  501 -0.00000000000E+00  0.00000000000E+00  0.53146451051E+01  0.53146451051E+01  0.00000000000E+00 0.  1.
          2   -1    0    0  501    0  0.00000000000E+00 -0.00000000000E+00 -0.35815095700E+04  0.35815095700E+04  0.00000000000E+00 0.  1.
         35    2    1    2    0    0  0.00000000000E+00  0.00000000000E+00 -0.35761949249E+04  0.35868242151E+04  0.27593080513E+03 0.  0.
         25    1    3    3    0    0 -0.58601305080E+02 -0.14089861934E+02 -0.21995347991E+04  0.22036301799E+04  0.12000000000E+03 0.  0.
         25    1    3    3    0    0  0.58601305080E+02  0.14089861934E+02 -0.13766601258E+04  0.13831940353E+04  0.12000000000E+03 0.  0.
<mgrwt>
<rscale>  0 0.27593081E+03</rscale>
<asrwt>0</asrwt>
<pdfrwt beam="1">  1        2 0.55100356E+00 0.27593081E+03</pdfrwt>
<pdfrwt beam="2">  1       -2 0.81763461E-03 0.27593081E+03</pdfrwt>
<totfact> 0.25536409E+03</totfact>
</mgrwt>
</event>
<event>
 5    1  0.1147887E+001  0.2730615E+03  0.7818608E-02  0.1099540E+00
         -1   -1    0    0    0  501 -0.00000000000E+00  0.00000000000E+00  0.99789258199E+03  0.99789258199E+03  0.00000000000E+00 0.  1.
          1   -1    0    0  501    0  0.00000000000E+00 -0.00000000000E+00 -0.18680006203E+02  0.18680006203E+02  0.00000000000E+00 0.  1.
         35    2    1    2    0    0  0.00000000000E+00  0.00000000000E+00  0.97921257579E+03  0.10165725882E+04  0.27306145551E+03 0.  0.
         25    1    3    3    0    0 -0.59950635180E+02  0.77085562448E+01  0.39939757129E+03  0.42139283388E+03  0.12000000000E+03 0.  0.
         25    1    3    3    0    0  0.59950635180E+02 -0.77085562448E+01  0.57981500450E+03  0.59517975431E+03  0.12000000000E+03 0.  0.
<mgrwt>
<rscale>  0 0.27306146E+03</rscale>
<asrwt>0</asrwt>
<pdfrwt beam="1">  1        1 0.28738479E-02 0.27306146E+03</pdfrwt>
<pdfrwt beam="2">  1       -1 0.15352189E+00 0.27306146E+03</pdfrwt>
<totfact> 0.12870937E+03</totfact>
</mgrwt>
</event>
<event>
 5    1  0.1147887E+001  0.2679456E+03  0.7818608E-02  0.1102461E+00
          1   -1    0    0  501    0  0.00000000000E+00  0.00000000000E+00  0.71179266935E+03  0.71179266935E+03  0.00000000000E+00 0. -1.
         -1   -1    0    0    0  501 -0.00000000000E+00 -0.00000000000E+00 -0.25216208720E+02  0.25216208720E+02  0.00000000000E+00 0. -1.
         35    2    1    2    0    0  0.00000000000E+00  0.00000000000E+00  0.68657646063E+03  0.73700887807E+03  0.26794561027E+03 0.  0.
         25    1    3    3    0    0  0.33261282031E+02  0.31207020352E+02  0.23788201262E+03  0.27031101149E+03  0.12000000000E+03 0.  0.
         25    1    3    3    0    0 -0.33261282031E+02 -0.31207020352E+02  0.44869444801E+03  0.46669786658E+03  0.12000000000E+03 0.  0.
<mgrwt>
<rscale>  0 0.26794561E+03</rscale>
<asrwt>0</asrwt>
<pdfrwt beam="1">  1        1 0.10950655E+00 0.26794561E+03</pdfrwt>
<pdfrwt beam="2">  1       -1 0.38794173E-02 0.26794561E+03</pdfrwt>
<totfact> 0.70535649E+03</totfact>
</mgrwt>
</event>
<event>
 5    1  0.1147887E+001  0.2750241E+03  0.7818608E-02  0.1098438E+00
          2   -1    0    0  501    0  0.00000000000E+00  0.00000000000E+00  0.17967019936E+03  0.17967019936E+03  0.00000000000E+00 0.  1.
         -2   -1    0    0    0  501 -0.00000000000E+00 -0.00000000000E+00 -0.10524598905E+03  0.10524598905E+03  0.00000000000E+00 0.  1.
         35    2    1    2    0    0  0.00000000000E+00  0.00000000000E+00  0.74424210315E+02  0.28491618841E+03  0.27502412864E+03 0.  0.
         25    1    3    3    0    0  0.28581011308E+02 -0.41510453260E+02  0.83188264442E+02  0.15446772892E+03  0.12000000000E+03 0.  0.
         25    1    3    3    0    0 -0.28581011308E+02  0.41510453260E+02 -0.87640541274E+01  0.13044845948E+03  0.12000000000E+03 0.  0.
<mgrwt>
<rscale>  0 0.27502413E+03</rscale>
<asrwt>0</asrwt>
<pdfrwt beam="1">  1        2 0.27641569E-01 0.27502413E+03</pdfrwt>
<pdfrwt beam="2">  1       -2 0.16191691E-01 0.27502413E+03</pdfrwt>
<totfact> 0.57443969E+03</totfact>
</mgrwt>
</event>
<event>
 5    1  0.1147887E+001  0.2738272E+03  0.7818608E-02  0.1099109E+00
         -2   -1    0    0    0  501 -0.00000000000E+00  0.00000000000E+00  0.13209777462E+02  0.13209777462E+02  0.00000000000E+00 0.  1.
          2   -1    0    0  501    0  0.00000000000E+00 -0.00000000000E+00 -0.14190495320E+04  0.14190495320E+04  0.00000000000E+00 0.  1.
         35    2    1    2    0    0  0.00000000000E+00  0.00000000000E+00 -0.14058397546E+04  0.14322593095E+04  0.27382716100E+03 0.  0.
         25    1    3    3    0    0  0.11531842496E+02 -0.16584103029E+02 -0.10311247932E+04  0.10382804800E+04  0.12000000000E+03 0.  0.
         25    1    3    3    0    0 -0.11531842496E+02  0.16584103029E+02 -0.37471496135E+03  0.39397882953E+03  0.12000000000E+03 0.  0.
<mgrwt>
<rscale>  0 0.27382716E+03</rscale>
<asrwt>0</asrwt>
<pdfrwt beam="1">  1        2 0.21831520E+00 0.27382716E+03</pdfrwt>
<pdfrwt beam="2">  1       -2 0.20322745E-02 0.27382716E+03</pdfrwt>
<totfact> 0.11388825E+04</totfact>
</mgrwt>
</event>
<event>
 5    1  0.1147887E+001  0.2745319E+03  0.7818608E-02  0.1098714E+00
         -1   -1    0    0    0  501 -0.00000000000E+00  0.00000000000E+00  0.11173879425E+03  0.11173879425E+03  0.00000000000E+00 0. -1.
          1   -1    0    0  501    0  0.00000000000E+00 -0.00000000000E+00 -0.16862486087E+03  0.16862486087E+03  0.00000000000E+00 0. -1.
         35    2    1    2    0    0  0.00000000000E+00  0.00000000000E+00 -0.56886066618E+02  0.28036365512E+03  0.27453188255E+03 0.  0.
         25    1    3    3    0    0 -0.48824321300E+02 -0.42465687362E+02 -0.12141823308E+02  0.13687429571E+03  0.12000000000E+03 0.  0.
         25    1    3    3    0    0  0.48824321300E+02  0.42465687362E+02 -0.44744243310E+02  0.14348935941E+03  0.12000000000E+03 0.  0.
<mgrwt>
<rscale>  0 0.27453188E+03</rscale>
<asrwt>0</asrwt>
<pdfrwt beam="1">  1        1 0.25942286E-01 0.27453188E+03</pdfrwt>
<pdfrwt beam="2">  1       -1 0.17190584E-01 0.27453188E+03</pdfrwt>
<totfact> 0.46761752E+03</totfact>
</mgrwt>
</event>
<event>
 5    1  0.1147887E+001  0.2758519E+03  0.7818608E-02  0.1097976E+00
         -2   -1    0    0    0  501 -0.00000000000E+00  0.00000000000E+00  0.16376692649E+02  0.16376692649E+02  0.00000000000E+00 0.  1.
          2   -1    0    0  501    0  0.00000000000E+00 -0.00000000000E+00 -0.11616247339E+04  0.11616247339E+04  0.00000000000E+00 0.  1.
         35    2    1    2    0    0  0.00000000000E+00  0.00000000000E+00 -0.11452480412E+04  0.11780014265E+04  0.27585192579E+03 0.  0.
         25    1    3    3    0    0 -0.13469994461E+02 -0.22709399632E+02 -0.84021275289E+03  0.84914935536E+03  0.12000000000E+03 0.  0.
         25    1    3    3    0    0  0.13469994461E+02  0.22709399632E+02 -0.30503528835E+03  0.32885207118E+03  0.12000000000E+03 0.  0.
<mgrwt>
<rscale>  0 0.27585193E+03</rscale>
<asrwt>0</asrwt>
<pdfrwt beam="1">  1        2 0.17871154E+00 0.27585193E+03</pdfrwt>
<pdfrwt beam="2">  1       -2 0.25194906E-02 0.27585193E+03</pdfrwt>
<totfact> 0.11533348E+04</totfact>
</mgrwt>
</event>
<event>
 5    1  0.1147887E+001  0.2753114E+03  0.7818608E-02  0.1098278E+00
         -2   -1    0    0    0  501 -0.00000000000E+00  0.00000000000E+00  0.20759145229E+02  0.20759145229E+02  0.00000000000E+00 0. -1.
          2   -1    0    0  501    0  0.00000000000E+00 -0.00000000000E+00 -0.91280678470E+03  0.91280678470E+03  0.00000000000E+00 0. -1.
         35    2    1    2    0    0  0.00000000000E+00  0.00000000000E+00 -0.89204763947E+03  0.93356592993E+03  0.27531137724E+03 0.  0.
         25    1    3    3    0    0  0.25629249986E+01  0.34303975379E+02 -0.24929760617E+03  0.27880571686E+03  0.12000000000E+03 0.  0.
         25    1    3    3    0    0 -0.25629249986E+01 -0.34303975379E+02 -0.64275003330E+03  0.65476021307E+03  0.12000000000E+03 0.  0.
<mgrwt>
<rscale>  0 0.27531138E+03</rscale>
<asrwt>0</asrwt>
<pdfrwt beam="1">  1        2 0.14043184E+00 0.27531138E+03</pdfrwt>
<pdfrwt beam="2">  1       -2 0.31937140E-02 0.27531138E+03</pdfrwt>
<totfact> 0.11462728E+04</totfact>
</mgrwt>
</event>
<event>
 5    1  0.1147887E+001  0.2745369E+03  0.7818608E-02  0.1098711E+00
         -2   -1    0    0    0  501 -0.00000000000E+00  0.00000000000E+00  0.35280826567E+02  0.35280826567E+02  0.00000000000E+00 0.  1.
          2   -1    0    0  501    0  0.00000000000E+00 -0.00000000000E+00 -0.53407556891E+03  0.53407556891E+03  0.00000000000E+00 0.  1.
         35    2    1    2    0    0  0.00000000000E+00  0.00000000000E+00 -0.49879474234E+03  0.56935639547E+03  0.27453690113E+03 0.  0.
         25    1    3    3    0    0 -0.20450516650E+02  0.12044537801E+02 -0.12022726800E+03  0.17151644380E+03  0.12000000000E+03 0.  0.
         25    1    3    3    0    0  0.20450516650E+02 -0.12044537801E+02 -0.37856747434E+03  0.39783995167E+03  0.12000000000E+03 0.  0.
<mgrwt>
<rscale>  0 0.27453690E+03</rscale>
<asrwt>0</asrwt>
<pdfrwt beam="1">  1        2 0.82165463E-01 0.27453690E+03</pdfrwt>
<pdfrwt beam="2">  1       -2 0.54278201E-02 0.27453690E+03</pdfrwt>
<totfact> 0.99169675E+03</totfact>
</mgrwt>
</event>
<event>
 5    1  0.1147887E+001  0.2745823E+03  0.7818608E-02  0.1098685E+00
          2   -1    0    0  501    0  0.00000000000E+00  0.00000000000E+00  0.15289792122E+04  0.15289792122E+04  0.00000000000E+00 0.  1.
         -2   -1    0    0    0  501 -0.00000000000E+00 -0.00000000000E+00 -0.12327741896E+02  0.12327741896E+02  0.00000000000E+00 0.  1.
         35    2    1    2    0    0  0.00000000000E+00  0.00000000000E+00  0.15166514703E+04  0.15413069541E+04  0.27458230892E+03 0.  0.
         25    1    3    3    0    0 -0.46829562654E+02  0.15471944095E+02  0.10103908206E+04  0.10186864087E+04  0.12000000000E+03 0.  0.
         25    1    3    3    0    0  0.46829562654E+02 -0.15471944095E+02  0.50626064969E+03  0.52262054534E+03  0.12000000000E+03 0.  0.
<mgrwt>
<rscale>  0 0.27458231E+03</rscale>
<asrwt>0</asrwt>
<pdfrwt beam="1">  1        2 0.23522742E+00 0.27458231E+03</pdfrwt>
<pdfrwt beam="2">  1       -2 0.18965769E-02 0.27458231E+03</pdfrwt>
<totfact> 0.11005029E+04</totfact>
</mgrwt>
</event>
<event>
 5    1  0.1147887E+001  0.2705601E+03  0.7818608E-02  0.1100959E+00
         -2   -1    0    0    0  501 -0.00000000000E+00  0.00000000000E+00  0.50688083051E+02  0.50688083051E+02  0.00000000000E+00 0. -1.
          2   -1    0    0  501    0  0.00000000000E+00 -0.00000000000E+00 -0.36104535891E+03  0.36104535891E+03  0.00000000000E+00 0. -1.
         35    2    1    2    0    0  0.00000000000E+00  0.00000000000E+00 -0.31035727586E+03  0.41173344197E+03  0.27056013851E+03 0.  0.
         25    1    3    3    0    0  0.46845095207E+02  0.22997477497E+01 -0.92416531529E+02  0.15855777207E+03  0.12000000000E+03 0.  0.
         25    1    3    3    0    0 -0.46845095207E+02 -0.22997477497E+01 -0.21794074433E+03  0.25317566989E+03  0.12000000000E+03 0.  0.
<mgrwt>
<rscale>  0 0.27056014E+03</rscale>
<asrwt>0</asrwt>
<pdfrwt beam="1">  1        2 0.55545440E-01 0.27056014E+03</pdfrwt>
<pdfrwt beam="2">  1       -2 0.77981665E-02 0.27056014E+03</pdfrwt>
<totfact> 0.87219129E+03</totfact>
</mgrwt>
</event>
<event>
 5    1  0.1147887E+001  0.2749619E+03  0.7818608E-02  0.1098473E+00
         -2   -1    0    0    0  501 -0.00000000000E+00  0.00000000000E+00  0.16932038597E+02  0.16932038597E+02  0.00000000000E+00 0.  1.
          2   -1    0    0  501    0  0.00000000000E+00 -0.00000000000E+00 -0.11162867004E+04  0.11162867004E+04  0.00000000000E+00 0.  1.
         35    2    1    2    0    0  0.00000000000E+00  0.00000000000E+00 -0.10993546618E+04  0.11332187390E+04  0.27496188461E+03 0.  0.
         25    1    3    3    0    0  0.40339521462E+02 -0.16062732053E+02 -0.33889365544E+03  0.36212456151E+03  0.12000000000E+03 0.  0.
         25    1    3    3    0    0 -0.40339521462E+02  0.16062732053E+02 -0.76046100641E+03  0.77109417753E+03  0.12000000000E+03 0.  0.
<mgrwt>
<rscale>  0 0.27496188E+03</rscale>
<asrwt>0</asrwt>
<pdfrwt beam="1">  1        2 0.17173646E+00 0.27496188E+03</pdfrwt>
<pdfrwt beam="2">  1       -2 0.26049283E-02 0.27496188E+03</pdfrwt>
<totfact> 0.11660933E+04</totfact>
</mgrwt>
</event>
<event>
 5    1  0.1147887E+001  0.2736976E+03  0.7818608E-02  0.1099182E+00
         -2   -1    0    0    0  501 -0.00000000000E+00  0.00000000000E+00  0.19309134125E+03  0.19309134125E+03  0.00000000000E+00 0.  1.
          2   -1    0    0  501    0  0.00000000000E+00 -0.00000000000E+00 -0.96988268390E+02  0.96988268390E+02  0.00000000000E+00 0.  1.
         35    2    1    2    0    0  0.00000000000E+00  0.00000000000E+00  0.96103072865E+02  0.29007960964E+03  0.27369760561E+03 0.  0.
         25    1    3    3    0    0 -0.27994166046E+01  0.20978796815E+02 -0.17963425363E+02  0.12316911666E+03  0.12000000000E+03 0.  0.
         25    1    3    3    0    0  0.27994166046E+01 -0.20978796815E+02  0.11406649823E+03  0.16691049298E+03  0.12000000000E+03 0.  0.
<mgrwt>
<rscale>  0 0.27369761E+03</rscale>
<asrwt>0</asrwt>
<pdfrwt beam="1">  1        2 0.14921272E-01 0.27369761E+03</pdfrwt>
<pdfrwt beam="2">  1       -2 0.29706360E-01 0.27369761E+03</pdfrwt>
<totfact> 0.40594722E+03</totfact>
</mgrwt>
</event>
<event>
 5    1  0.1147887E+001  0.2755285E+03  0.7818608E-02  0.1098157E+00
          1   -1    0    0  501    0  0.00000000000E+00  0.00000000000E+00  0.13899536417E+03  0.13899536417E+03  0.00000000000E+00 0.  1.
         -1   -1    0    0    0  501 -0.00000000000E+00 -0.00000000000E+00 -0.13654402604E+03  0.13654402604E+03  0.00000000000E+00 0.  1.
         35    2    1    2    0    0  0.00000000000E+00  0.00000000000E+00  0.24513381318E+01  0.27553939021E+03  0.27552848583E+03 0.  0.
         25    1    3    3    0    0 -0.24277359372E+02  0.62964447823E+02 -0.37819992939E+01  0.13772514435E+03  0.12000000000E+03 0.  0.
         25    1    3    3    0    0  0.24277359372E+02 -0.62964447823E+02  0.62333374258E+01  0.13781424586E+03  0.12000000000E+03 0.  0.
<mgrwt>
<rscale>  0 0.27552849E+03</rscale>
<asrwt>0</asrwt>
<pdfrwt beam="1">  1        1 0.21383902E-01 0.27552849E+03</pdfrwt>
<pdfrwt beam="2">  1       -1 0.21006773E-01 0.27552849E+03</pdfrwt>
<totfact> 0.43271092E+03</totfact>
</mgrwt>
</event>
<event>
 5    1  0.1147887E+001  0.2747737E+03  0.7818608E-02  0.1098578E+00
         -2   -1    0    0    0  501 -0.00000000000E+00  0.00000000000E+00  0.10498450933E+03  0.10498450933E+03  0.00000000000E+00 0.  1.
          2   -1    0    0  501    0  0.00000000000E+00 -0.00000000000E+00 -0.17978979518E+03  0.17978979518E+03  0.00000000000E+00 0.  1.
         35    2    1    2    0    0  0.00000000000E+00  0.00000000000E+00 -0.74805285848E+02  0.28477430450E+03  0.27477367726E+03 0.  0.
         25    1    3    3    0    0  0.10586421119E+01  0.52352113621E+02  0.57452805403E+01  0.13105293882E+03  0.12000000000E+03 0.  0.
         25    1    3    3    0    0 -0.10586421119E+01 -0.52352113621E+02 -0.80550566388E+02  0.15372136569E+03  0.12000000000E+03 0.  0.
<mgrwt>
<rscale>  0 0.27477368E+03</rscale>
<asrwt>0</asrwt>
<pdfrwt beam="1">  1        2 0.27659968E-01 0.27477368E+03</pdfrwt>
<pdfrwt beam="2">  1       -2 0.16151463E-01 0.27477368E+03</pdfrwt>
<totfact> 0.57638211E+03</totfact>
</mgrwt>
</event>
<event>
 5    1  0.1147887E+001  0.2753104E+03  0.7818608E-02  0.1098278E+00
         -2   -1    0    0    0  501 -0.00000000000E+00  0.00000000000E+00  0.33435023781E+03  0.33435023781E+03  0.00000000000E+00 0.  1.
          2   -1    0    0  501    0  0.00000000000E+00 -0.00000000000E+00 -0.56673954111E+02  0.56673954111E+02  0.00000000000E+00 0.  1.
         35    2    1    2    0    0  0.00000000000E+00  0.00000000000E+00  0.27767628369E+03  0.39102419192E+03  0.27531037056E+03 0.  0.
         25    1    3    3    0    0 -0.34435776523E+02 -0.57991751864E+02  0.13924989612E+03  0.19580449320E+03  0.12000000000E+03 0.  0.
         25    1    3    3    0    0  0.34435776523E+02  0.57991751864E+02  0.13842638757E+03  0.19521969871E+03  0.12000000000E+03 0.  0.
<mgrwt>
<rscale>  0 0.27531037E+03</rscale>
<asrwt>0</asrwt>
<pdfrwt beam="1">  1        2 0.87190700E-02 0.27531037E+03</pdfrwt>
<pdfrwt beam="2">  1       -2 0.51438497E-01 0.27531037E+03</pdfrwt>
<totfact> 0.27544033E+03</totfact>
</mgrwt>
</event>
<event>
 5    1  0.1147887E+001  0.2739334E+03  0.7818608E-02  0.1099049E+00
          2   -1    0    0  501    0  0.00000000000E+00  0.00000000000E+00  0.28301830083E+02  0.28301830083E+02  0.00000000000E+00 0. -1.
         -2   -1    0    0    0  501 -0.00000000000E+00 -0.00000000000E+00 -0.66285028935E+03  0.66285028935E+03  0.00000000000E+00 0. -1.
         35    2    1    2    0    0  0.00000000000E+00  0.00000000000E+00 -0.63454845926E+03  0.69115211943E+03  0.27393339526E+03 0.  0.
         25    1    3    3    0    0  0.60669036844E+01 -0.54961936023E+02 -0.22622493161E+03  0.26198347546E+03  0.12000000000E+03 0.  0.
         25    1    3    3    0    0 -0.60669036844E+01  0.54961936023E+02 -0.40832352765E+03  0.42916864397E+03  0.12000000000E+03 0.  0.
<mgrwt>
<rscale>  0 0.27393340E+03</rscale>
<asrwt>0</asrwt>
<pdfrwt beam="1">  1        2 0.43541277E-02 0.27393340E+03</pdfrwt>
<pdfrwt beam="2">  1       -2 0.10197697E+00 0.27393340E+03</pdfrwt>
<totfact> 0.15476668E+03</totfact>
</mgrwt>
</event>
<event>
 5    1  0.1147887E+001  0.2755310E+03  0.7818608E-02  0.1098155E+00
         -1   -1    0    0    0  501 -0.00000000000E+00  0.00000000000E+00  0.33254198759E+02  0.33254198759E+02  0.00000000000E+00 0. -1.
          1   -1    0    0  501    0  0.00000000000E+00 -0.00000000000E+00 -0.57073474730E+03  0.57073474730E+03  0.00000000000E+00 0. -1.
         35    2    1    2    0    0  0.00000000000E+00  0.00000000000E+00 -0.53748054855E+03  0.60398894606E+03  0.27553095452E+03 0.  0.
         25    1    3    3    0    0 -0.34537990854E+02 -0.37147112357E+02 -0.36693386673E+03  0.38937545290E+03  0.12000000000E+03 0.  0.
         25    1    3    3    0    0  0.34537990854E+02  0.37147112357E+02 -0.17054668182E+03  0.21461349316E+03  0.12000000000E+03 0.  0.
<mgrwt>
<rscale>  0 0.27553095E+03</rscale>
<asrwt>0</asrwt>
<pdfrwt beam="1">  1        1 0.87805334E-01 0.27553095E+03</pdfrwt>
<pdfrwt beam="2">  1       -1 0.51160313E-02 0.27553095E+03</pdfrwt>
<totfact> 0.63860844E+03</totfact>
</mgrwt>
</event>
<event>
 5    1  0.1147887E+001  0.2742364E+03  0.7818608E-02  0.1098879E+00
         -1   -1    0    0    0  501 -0.00000000000E+00  0.00000000000E+00  0.67383847394E+02  0.67383847394E+02  0.00000000000E+00 0.  1.
          1   -1    0    0  501    0  0.00000000000E+00 -0.00000000000E+00 -0.27901949111E+03  0.27901949111E+03  0.00000000000E+00 0.  1.
         35    2    1    2    0    0  0.00000000000E+00  0.00000000000E+00 -0.21163564371E+03  0.34640333850E+03  0.27423644403E+03 0.  0.
         25    1    3    3    0    0  0.10846916833E+02  0.54357952317E+02 -0.59769527873E+02  0.14506839438E+03  0.12000000000E+03 0.  0.
         25    1    3    3    0    0 -0.10846916833E+02 -0.54357952317E+02 -0.15186611584E+03  0.20133494412E+03  0.12000000000E+03 0.  0.
<mgrwt>
<rscale>  0 0.27423644E+03</rscale>
<asrwt>0</asrwt>
<pdfrwt beam="1">  1        1 0.42926075E-01 0.27423644E+03</pdfrwt>
<pdfrwt beam="2">  1       -1 0.10366746E-01 0.27423644E+03</pdfrwt>
<totfact> 0.54980073E+03</totfact>
</mgrwt>
</event>
<event>
 5    1  0.1147887E+001  0.2749619E+03  0.7818608E-02  0.1098473E+00
          2   -1    0    0  501    0  0.00000000000E+00  0.00000000000E+00  0.97948274482E+02  0.97948274482E+02  0.00000000000E+00 0. -1.
         -2   -1    0    0    0  501 -0.00000000000E+00 -0.00000000000E+00 -0.19296926698E+03  0.19296926698E+03  0.00000000000E+00 0. -1.
         35    2    1    2    0    0  0.00000000000E+00  0.00000000000E+00 -0.95020992502E+02  0.29091754147E+03  0.27496186448E+03 0.  0.
         25    1    3    3    0    0 -0.24966707228E+02  0.44430432761E+02 -0.13483406787E+01  0.13038104865E+03  0.12000000000E+03 0.  0.
         25    1    3    3    0    0  0.24966707228E+02 -0.44430432761E+02 -0.93672651824E+02  0.16053649281E+03  0.12000000000E+03 0.  0.
<mgrwt>
<rscale>  0 0.27496186E+03</rscale>
<asrwt>0</asrwt>
<pdfrwt beam="1">  1        2 0.15068965E-01 0.27496186E+03</pdfrwt>
<pdfrwt beam="2">  1       -2 0.29687579E-01 0.27496186E+03</pdfrwt>
<totfact> 0.40175575E+03</totfact>
</mgrwt>
</event>
<event>
 5    1  0.1147887E+001  0.2741456E+03  0.7818608E-02  0.1098930E+00
         -1   -1    0    0    0  501 -0.00000000000E+00  0.00000000000E+00  0.15722213033E+03  0.15722213033E+03  0.00000000000E+00 0. -1.
          1   -1    0    0  501    0  0.00000000000E+00 -0.00000000000E+00 -0.11950581817E+03  0.11950581817E+03  0.00000000000E+00 0. -1.
         35    2    1    2    0    0  0.00000000000E+00  0.00000000000E+00  0.37716312162E+02  0.27672794850E+03  0.27414564975E+03 0.  0.
         25    1    3    3    0    0 -0.13184323887E+02 -0.17664389828E+02  0.81921446855E+02  0.14695911173E+03  0.12000000000E+03 0.  0.
         25    1    3    3    0    0  0.13184323887E+02  0.17664389828E+02 -0.44205134693E+02  0.12976883677E+03  0.12000000000E+03 0.  0.
<mgrwt>
<rscale>  0 0.27414565E+03</rscale>
<asrwt>0</asrwt>
<pdfrwt beam="1">  1        1 0.18385510E-01 0.27414565E+03</pdfrwt>
<pdfrwt beam="2">  1       -1 0.24188020E-01 0.27414565E+03</pdfrwt>
<totfact> 0.41684987E+03</totfact>
</mgrwt>
</event>
<event>
 5    1  0.1147887E+001  0.2745163E+03  0.7818608E-02  0.1098722E+00
          1   -1    0    0  501    0  0.00000000000E+00  0.00000000000E+00  0.19290671908E+04  0.19290671908E+04  0.00000000000E+00 0.  1.
         -1   -1    0    0    0  501 -0.00000000000E+00 -0.00000000000E+00 -0.97662775848E+01  0.97662775848E+01  0.00000000000E+00 0.  1.
         35    2    1    2    0    0  0.00000000000E+00  0.00000000000E+00  0.19193009132E+04  0.19388334684E+04  0.27451634316E+03 0.  0.
         25    1    3    3    0    0 -0.23772390536E+02 -0.50615050887E+02  0.12155508078E+04  0.12227390466E+04  0.12000000000E+03 0.  0.
         25    1    3    3    0    0  0.23772390536E+02  0.50615050887E+02  0.70375010545E+03  0.71609442174E+03  0.12000000000E+03 0.  0.
<mgrwt>
<rscale>  0 0.27451634E+03</rscale>
<asrwt>0</asrwt>
<pdfrwt beam="1">  1        1 0.29677926E+00 0.27451634E+03</pdfrwt>
<pdfrwt beam="2">  1       -1 0.15025058E-02 0.27451634E+03</pdfrwt>
<totfact> 0.39058202E+03</totfact>
</mgrwt>
</event>
<event>
 5    1  0.1147887E+001  0.2772318E+03  0.7818608E-02  0.1097211E+00
         -2   -1    0    0    0  501 -0.00000000000E+00  0.00000000000E+00  0.26226580574E+02  0.26226580574E+02  0.00000000000E+00 0.  1.
          2   -1    0    0  501    0  0.00000000000E+00 -0.00000000000E+00 -0.73262933071E+03  0.73262933071E+03  0.00000000000E+00 0.  1.
         35    2    1    2    0    0  0.00000000000E+00  0.00000000000E+00 -0.70640275014E+03  0.75885591129E+03  0.27723175989E+03 0.  0.
         25    1    3    3    0    0  0.43785397882E+02  0.39253689936E+01 -0.20625878207E+03  0.24264223616E+03  0.12000000000E+03 0.  0.
         25    1    3    3    0    0 -0.43785397882E+02 -0.39253689936E+01 -0.50014396807E+03  0.51621367512E+03  0.12000000000E+03 0.  0.
<mgrwt>
<rscale>  0 0.27723176E+03</rscale>
<asrwt>0</asrwt>
<pdfrwt beam="1">  1        2 0.11271221E+00 0.27723176E+03</pdfrwt>
<pdfrwt beam="2">  1       -2 0.40348582E-02 0.27723176E+03</pdfrwt>
<totfact> 0.10718191E+04</totfact>
</mgrwt>
</event>
<event>
 5    1  0.1147887E+001  0.2738582E+03  0.7818608E-02  0.1099092E+00
         -2   -1    0    0    0  501 -0.00000000000E+00  0.00000000000E+00  0.29499023062E+02  0.29499023062E+02  0.00000000000E+00 0.  1.
          2   -1    0    0  501    0  0.00000000000E+00 -0.00000000000E+00 -0.63559975856E+03  0.63559975856E+03  0.00000000000E+00 0.  1.
         35    2    1    2    0    0  0.00000000000E+00  0.00000000000E+00 -0.60610073550E+03  0.66509878163E+03  0.27385815260E+03 0.  0.
         25    1    3    3    0    0  0.24235456697E+02 -0.13819793740E+02 -0.44818439939E+03  0.46480920808E+03  0.12000000000E+03 0.  0.
         25    1    3    3    0    0 -0.24235456697E+02  0.13819793740E+02 -0.15791633612E+03  0.20028957355E+03  0.12000000000E+03 0.  0.
<mgrwt>
<rscale>  0 0.27385815E+03</rscale>
<asrwt>0</asrwt>
<pdfrwt beam="1">  1        2 0.97784570E-01 0.27385815E+03</pdfrwt>
<pdfrwt beam="2">  1       -2 0.45383116E-02 0.27385815E+03</pdfrwt>
<totfact> 0.10646365E+04</totfact>
</mgrwt>
</event>
<event>
 5    1  0.1147887E+001  0.2749980E+03  0.7818608E-02  0.1098453E+00
          1   -1    0    0  501    0  0.00000000000E+00  0.00000000000E+00  0.66628212332E+02  0.66628212332E+02  0.00000000000E+00 0. -1.
         -1   -1    0    0    0  501 -0.00000000000E+00 -0.00000000000E+00 -0.28375329475E+03  0.28375329475E+03  0.00000000000E+00 0. -1.
         35    2    1    2    0    0  0.00000000000E+00  0.00000000000E+00 -0.21712508241E+03  0.35038150708E+03  0.27499799834E+03 0.  0.
         25    1    3    3    0    0  0.22201175436E+02  0.31257817573E+00 -0.18927589717E+03  0.22520736033E+03  0.12000000000E+03 0.  0.
         25    1    3    3    0    0 -0.22201175436E+02 -0.31257817573E+00 -0.27849185243E+02  0.12517414675E+03  0.12000000000E+03 0.  0.
<mgrwt>
<rscale>  0 0.27499800E+03</rscale>
<asrwt>0</asrwt>
<pdfrwt beam="1">  1        1 0.10250495E-01 0.27499800E+03</pdfrwt>
<pdfrwt beam="2">  1       -1 0.43654352E-01 0.27499800E+03</pdfrwt>
<totfact> 0.32579971E+03</totfact>
</mgrwt>
</event>
<event>
 5    1  0.1147887E+001  0.2749533E+03  0.7818608E-02  0.1098478E+00
         -2   -1    0    0    0  501 -0.00000000000E+00  0.00000000000E+00  0.15985409516E+03  0.15985409516E+03  0.00000000000E+00 0.  1.
          2   -1    0    0  501    0  0.00000000000E+00 -0.00000000000E+00 -0.11823176136E+03  0.11823176136E+03  0.00000000000E+00 0.  1.
         35    2    1    2    0    0  0.00000000000E+00  0.00000000000E+00  0.41622333802E+02  0.27808585652E+03  0.27495331408E+03 0.  0.
         25    1    3    3    0    0  0.31431480906E+02 -0.49192184697E+02 -0.12611082597E+02  0.13404047311E+03  0.12000000000E+03 0.  0.
         25    1    3    3    0    0 -0.31431480906E+02  0.49192184697E+02  0.54233416399E+02  0.14404538341E+03  0.12000000000E+03 0.  0.
<mgrwt>
<rscale>  0 0.27495331E+03</rscale>
<asrwt>0</asrwt>
<pdfrwt beam="1">  1        2 0.18189502E-01 0.27495331E+03</pdfrwt>
<pdfrwt beam="2">  1       -2 0.24592938E-01 0.27495331E+03</pdfrwt>
<totfact> 0.45105189E+03</totfact>
</mgrwt>
</event>
<event>
 5    1  0.1147887E+001  0.2767607E+03  0.7818608E-02  0.1097471E+00
         -1   -1    0    0    0  501 -0.00000000000E+00  0.00000000000E+00  0.28498874663E+02  0.28498874663E+02  0.00000000000E+00 0. -1.
          1   -1    0    0  501    0  0.00000000000E+00 -0.00000000000E+00 -0.67192546428E+03  0.67192546428E+03  0.00000000000E+00 0. -1.
         35    2    1    2    0    0  0.00000000000E+00  0.00000000000E+00 -0.64342658961E+03  0.70042433894E+03  0.27676068788E+03 0.  0.
         25    1    3    3    0    0 -0.20943569548E+02  0.42090805946E+02 -0.44923244063E+03  0.46735431395E+03  0.12000000000E+03 0.  0.
         25    1    3    3    0    0  0.20943569548E+02 -0.42090805946E+02 -0.19419414898E+03  0.23307002499E+03  0.12000000000E+03 0.  0.
<mgrwt>
<rscale>  0 0.27676069E+03</rscale>
<asrwt>0</asrwt>
<pdfrwt beam="1">  1        1 0.10337315E+00 0.27676069E+03</pdfrwt>
<pdfrwt beam="2">  1       -1 0.43844424E-02 0.27676069E+03</pdfrwt>
<totfact> 0.63985093E+03</totfact>
</mgrwt>
</event>
<event>
 5    1  0.1147887E+001  0.2745850E+03  0.7818608E-02  0.1098684E+00
         -1   -1    0    0    0  501 -0.00000000000E+00  0.00000000000E+00  0.38481995587E+02  0.38481995587E+02  0.00000000000E+00 0.  1.
          1   -1    0    0  501    0  0.00000000000E+00 -0.00000000000E+00 -0.48981944717E+03  0.48981944717E+03  0.00000000000E+00 0.  1.
         35    2    1    2    0    0  0.00000000000E+00  0.00000000000E+00 -0.45133745158E+03  0.52830144276E+03  0.27458499452E+03 0.  0.
         25    1    3    3    0    0 -0.26960563185E+02  0.78018767805E+01 -0.34209039908E+03  0.36361185678E+03  0.12000000000E+03 0.  0.
         25    1    3    3    0    0  0.26960563185E+02 -0.78018767805E+01 -0.10924705251E+03  0.16468958598E+03  0.12000000000E+03 0.  0.
<mgrwt>
<rscale>  0 0.27458499E+03</rscale>
<asrwt>0</asrwt>
<pdfrwt beam="1">  1        1 0.75356833E-01 0.27458499E+03</pdfrwt>
<pdfrwt beam="2">  1       -1 0.59203074E-02 0.27458499E+03</pdfrwt>
<totfact> 0.62978730E+03</totfact>
</mgrwt>
</event>
<event>
 5    1  0.1147887E+001  0.2774209E+03  0.7818608E-02  0.1097106E+00
          2   -1    0    0  501    0  0.00000000000E+00  0.00000000000E+00  0.59426379948E+02  0.59426379948E+02  0.00000000000E+00 0.  1.
         -2   -1    0    0    0  501 -0.00000000000E+00 -0.00000000000E+00 -0.32377191665E+03  0.32377191665E+03  0.00000000000E+00 0.  1.
         35    2    1    2    0    0  0.00000000000E+00  0.00000000000E+00 -0.26434553670E+03  0.38319829660E+03  0.27742092881E+03 0.  0.
         25    1    3    3    0    0  0.65818261143E+02 -0.13389982381E+02 -0.10710865251E+03  0.17430891707E+03  0.12000000000E+03 0.  0.
         25    1    3    3    0    0 -0.65818261143E+02  0.13389982381E+02 -0.15723688419E+03  0.20888937953E+03  0.12000000000E+03 0.  0.
<mgrwt>
<rscale>  0 0.27742093E+03</rscale>
<asrwt>0</asrwt>
<pdfrwt beam="1">  1        2 0.91425201E-02 0.27742093E+03</pdfrwt>
<pdfrwt beam="2">  1       -2 0.49811063E-01 0.27742093E+03</pdfrwt>
<totfact> 0.27679254E+03</totfact>
</mgrwt>
</event>
<event>
 5    1  0.1147887E+001  0.2744858E+03  0.7818608E-02  0.1098739E+00
         -1   -1    0    0    0  501 -0.00000000000E+00  0.00000000000E+00  0.28432320634E+03  0.28432320634E+03  0.00000000000E+00 0.  1.
          1   -1    0    0  501    0  0.00000000000E+00 -0.00000000000E+00 -0.66247207591E+02  0.66247207591E+02  0.00000000000E+00 0.  1.
         35    2    1    2    0    0  0.00000000000E+00  0.00000000000E+00  0.21807599875E+03  0.35057041393E+03  0.27448583551E+03 0.  0.
         25    1    3    3    0    0 -0.63658096979E+02  0.19417631391E+02  0.10585250519E+03  0.17330363693E+03  0.12000000000E+03 0.  0.
         25    1    3    3    0    0  0.63658096979E+02 -0.19417631391E+02  0.11222349356E+03  0.17726677700E+03  0.12000000000E+03 0.  0.
<mgrwt>
<rscale>  0 0.27448584E+03</rscale>
<asrwt>0</asrwt>
<pdfrwt beam="1">  1        1 0.10191878E-01 0.27448584E+03</pdfrwt>
<pdfrwt beam="2">  1       -1 0.43742031E-01 0.27448584E+03</pdfrwt>
<totfact> 0.32711545E+03</totfact>
</mgrwt>
</event>
<event>
 5    1  0.1147887E+001  0.2783458E+03  0.7818608E-02  0.1096596E+00
          1   -1    0    0  501    0  0.00000000000E+00  0.00000000000E+00  0.12257311285E+03  0.12257311285E+03  0.00000000000E+00 0. -1.
         -1   -1    0    0    0  501 -0.00000000000E+00 -0.00000000000E+00 -0.15802070395E+03  0.15802070395E+03  0.00000000000E+00 0. -1.
         35    2    1    2    0    0  0.00000000000E+00  0.00000000000E+00 -0.35447591100E+02  0.28059381680E+03  0.27834575318E+03 0.  0.
         25    1    3    3    0    0  0.25013249624E+02  0.65457741433E+02 -0.99995999354E+01  0.13932110597E+03  0.12000000000E+03 0.  0.
         25    1    3    3    0    0 -0.25013249624E+02 -0.65457741433E+02 -0.25447991165E+02  0.14127271083E+03  0.12000000000E+03 0.  0.
<mgrwt>
<rscale>  0 0.27834575E+03</rscale>
<asrwt>0</asrwt>
<pdfrwt beam="1">  1        1 0.18857402E-01 0.27834575E+03</pdfrwt>
<pdfrwt beam="2">  1       -1 0.24310878E-01 0.27834575E+03</pdfrwt>
<totfact> 0.40020204E+03</totfact>
</mgrwt>
</event>
<event>
 5    1  0.1147887E+001  0.2748172E+03  0.7818608E-02  0.1098554E+00
          4   -1    0    0  501    0  0.00000000000E+00  0.00000000000E+00  0.31184390321E+03  0.31184390321E+03  0.00000000000E+00 0.  1.
         -4   -1    0    0    0  501 -0.00000000000E+00 -0.00000000000E+00 -0.60546697905E+02  0.60546697905E+02  0.00000000000E+00 0.  1.
         35    2    1    2    0    0  0.00000000000E+00  0.00000000000E+00  0.25129720531E+03  0.37239060112E+03  0.27481716541E+03 0.  0.
         25    1    3    3    0    0  0.22962424735E+02 -0.61650945552E+02  0.14240998707E+03  0.19750624409E+03  0.12000000000E+03 0.  0.
         25    1    3    3    0    0 -0.22962424735E+02  0.61650945552E+02  0.10888721823E+03  0.17488435702E+03  0.12000000000E+03 0.  0.
<mgrwt>
<rscale>  0 0.27481717E+03</rscale>
<asrwt>0</asrwt>
<pdfrwt beam="1">  1        4 0.47975984E-01 0.27481717E+03</pdfrwt>
<pdfrwt beam="2">  1       -4 0.93148768E-02 0.27481717E+03</pdfrwt>
<totfact> 0.67687221E+02</totfact>
</mgrwt>
</event>
<event>
 5    1  0.1147887E+001  0.2792341E+03  0.7818608E-02  0.1096108E+00
         -2   -1    0    0    0  501 -0.00000000000E+00  0.00000000000E+00  0.27229654379E+02  0.27229654379E+02  0.00000000000E+00 0.  1.
          2   -1    0    0  501    0  0.00000000000E+00 -0.00000000000E+00 -0.71587121790E+03  0.71587121790E+03  0.00000000000E+00 0.  1.
         35    2    1    2    0    0  0.00000000000E+00  0.00000000000E+00 -0.68864156352E+03  0.74310087228E+03  0.27923413719E+03 0.  0.
         25    1    3    3    0    0  0.62768122827E+02  0.87495101774E+01 -0.25700489461E+03  0.29063363023E+03  0.12000000000E+03 0.  0.
         25    1    3    3    0    0 -0.62768122827E+02 -0.87495101774E+01 -0.43163666891E+03  0.45246724204E+03  0.12000000000E+03 0.  0.
<mgrwt>
<rscale>  0 0.27923414E+03</rscale>
<asrwt>0</asrwt>
<pdfrwt beam="1">  1        2 0.11013402E+00 0.27923414E+03</pdfrwt>
<pdfrwt beam="2">  1       -2 0.41891780E-02 0.27923414E+03</pdfrwt>
<totfact> 0.10423566E+04</totfact>
</mgrwt>
</event>
<event>
 5    1  0.1147887E+001  0.2750089E+03  0.7818608E-02  0.1098447E+00
         -1   -1    0    0    0  501 -0.00000000000E+00  0.00000000000E+00  0.65866518617E+02  0.65866518617E+02  0.00000000000E+00 0.  1.
          1   -1    0    0  501    0  0.00000000000E+00 -0.00000000000E+00 -0.28705745183E+03  0.28705745183E+03  0.00000000000E+00 0.  1.
         35    2    1    2    0    0  0.00000000000E+00  0.00000000000E+00 -0.22119093321E+03  0.35292397045E+03  0.27500890891E+03 0.  0.
         25    1    3    3    0    0 -0.56883084603E+02  0.19044404443E+02 -0.71901762731E+02  0.15221116299E+03  0.12000000000E+03 0.  0.
         25    1    3    3    0    0  0.56883084603E+02 -0.19044404443E+02 -0.14928917048E+03  0.20071280746E+03  0.12000000000E+03 0.  0.
<mgrwt>
<rscale>  0 0.27500891E+03</rscale>
<asrwt>0</asrwt>
<pdfrwt beam="1">  1        1 0.44162684E-01 0.27500891E+03</pdfrwt>
<pdfrwt beam="2">  1       -1 0.10133311E-01 0.27500891E+03</pdfrwt>
<totfact> 0.54962408E+03</totfact>
</mgrwt>
</event>
<event>
 5    1  0.1147887E+001  0.2744583E+03  0.7818608E-02  0.1098755E+00
          2   -1    0    0  501    0  0.00000000000E+00  0.00000000000E+00  0.39017904420E+03  0.39017904420E+03  0.00000000000E+00 0.  1.
         -2   -1    0    0    0  501 -0.00000000000E+00 -0.00000000000E+00 -0.48264615557E+02  0.48264615557E+02  0.00000000000E+00 0.  1.
         35    2    1    2    0    0  0.00000000000E+00  0.00000000000E+00  0.34191442864E+03  0.43844365976E+03  0.27445831426E+03 0.  0.
         25    1    3    3    0    0  0.50194803161E+02 -0.29291781040E+02  0.11908645952E+03  0.17877111496E+03  0.12000000000E+03 0.  0.
         25    1    3    3    0    0 -0.50194803161E+02  0.29291781040E+02  0.22282796912E+03  0.25967254480E+03  0.12000000000E+03 0.  0.
<mgrwt>
<rscale>  0 0.27445831E+03</rscale>
<asrwt>0</asrwt>
<pdfrwt beam="1">  1        2 0.60027543E-01 0.27445831E+03</pdfrwt>
<pdfrwt beam="2">  1       -2 0.74253257E-02 0.27445831E+03</pdfrwt>
<totfact> 0.86597434E+03</totfact>
</mgrwt>
</event>
<event>
 5    1  0.1147887E+001  0.2756495E+03  0.7818608E-02  0.1098089E+00
         -2   -1    0    0    0  501 -0.00000000000E+00  0.00000000000E+00  0.42894474107E+02  0.42894474107E+02  0.00000000000E+00 0.  1.
          2   -1    0    0  501    0  0.00000000000E+00 -0.00000000000E+00 -0.44284625618E+03  0.44284625618E+03  0.00000000000E+00 0.  1.
         35    2    1    2    0    0  0.00000000000E+00  0.00000000000E+00 -0.39995178208E+03  0.48574073029E+03  0.27564946776E+03 0.  0.
         25    1    3    3    0    0 -0.54986023370E+02 -0.24502054514E+02 -0.14504133696E+03  0.19763806028E+03  0.12000000000E+03 0.  0.
         25    1    3    3    0    0  0.54986023370E+02  0.24502054514E+02 -0.25491044511E+03  0.28810267002E+03  0.12000000000E+03 0.  0.
<mgrwt>
<rscale>  0 0.27564947E+03</rscale>
<asrwt>0</asrwt>
<pdfrwt beam="1">  1        2 0.68130197E-01 0.27564947E+03</pdfrwt>
<pdfrwt beam="2">  1       -2 0.65991495E-02 0.27564947E+03</pdfrwt>
<totfact> 0.90553253E+03</totfact>
</mgrwt>
</event>
<event>
 5    1  0.1147887E+001  0.2742788E+03  0.7818608E-02  0.1098855E+00
         -2   -1    0    0    0  501 -0.00000000000E+00  0.00000000000E+00  0.67410304689E+01  0.67410304689E+01  0.00000000000E+00 0.  1.
          2   -1    0    0  501    0  0.00000000000E+00 -0.00000000000E+00 -0.27899616975E+04  0.27899616975E+04  0.00000000000E+00 0.  1.
         35    2    1    2    0    0  0.00000000000E+00  0.00000000000E+00 -0.27832206671E+04  0.27967027280E+04  0.27427881296E+03 0.  0.
         25    1    3    3    0    0 -0.26305380275E+02 -0.48264397774E+02 -0.17711900705E+04  0.17761012615E+04  0.12000000000E+03 0.  0.
         25    1    3    3    0    0  0.26305380275E+02  0.48264397774E+02 -0.10120305965E+04  0.10206014665E+04  0.12000000000E+03 0.  0.
<mgrwt>
<rscale>  0 0.27427881E+03</rscale>
<asrwt>0</asrwt>
<pdfrwt beam="1">  1        2 0.42922536E+00 0.27427881E+03</pdfrwt>
<pdfrwt beam="2">  1       -2 0.10370804E-02 0.27427881E+03</pdfrwt>
<totfact> 0.55828186E+03</totfact>
</mgrwt>
</event>
<event>
 5    1  0.1147887E+001  0.2746981E+03  0.7818608E-02  0.1098620E+00
          3   -1    0    0  501    0  0.00000000000E+00  0.00000000000E+00  0.21936628915E+03  0.21936628915E+03  0.00000000000E+00 0. -1.
         -3   -1    0    0    0  501 -0.00000000000E+00 -0.00000000000E+00 -0.85996659099E+02  0.85996659099E+02  0.00000000000E+00 0. -1.
         35    2    1    2    0    0  0.00000000000E+00  0.00000000000E+00  0.13336963005E+03  0.30536294825E+03  0.27469814696E+03 0.  0.
         25    1    3    3    0    0 -0.83069944521E+01 -0.64970930566E+02  0.51998659982E+02  0.14626718229E+03  0.12000000000E+03 0.  0.
         25    1    3    3    0    0  0.83069944521E+01  0.64970930566E+02  0.81370970067E+02  0.15909576596E+03  0.12000000000E+03 0.  0.
<mgrwt>
<rscale>  0 0.27469815E+03</rscale>
<asrwt>0</asrwt>
<pdfrwt beam="1">  1        3 0.33748660E-01 0.27469815E+03</pdfrwt>
<pdfrwt beam="2">  1       -3 0.13230255E-01 0.27469815E+03</pdfrwt>
<totfact> 0.10073692E+03</totfact>
</mgrwt>
</event>
<event>
 5    1  0.1147887E+001  0.2888906E+03  0.7818608E-02  0.1090930E+00
          2   -1    0    0  501    0  0.00000000000E+00  0.00000000000E+00  0.11730818161E+04  0.11730818161E+04  0.00000000000E+00 0.  1.
         -2   -1    0    0    0  501 -0.00000000000E+00 -0.00000000000E+00 -0.17786015793E+02  0.17786015793E+02  0.00000000000E+00 0.  1.
         35    2    1    2    0    0  0.00000000000E+00  0.00000000000E+00  0.11552958003E+04  0.11908678318E+04  0.28889064856E+03 0.  0.
         25    1    3    3    0    0 -0.52732375172E+02  0.23243386054E+02  0.80876727339E+03  0.81964959641E+03  0.12000000000E+03 0.  0.
         25    1    3    3    0    0  0.52732375172E+02 -0.23243386054E+02  0.34652852688E+03  0.37121823544E+03  0.12000000000E+03 0.  0.
<mgrwt>
<rscale>  0 0.28889065E+03</rscale>
<asrwt>0</asrwt>
<pdfrwt beam="1">  1        2 0.18047407E+00 0.28889065E+03</pdfrwt>
<pdfrwt beam="2">  1       -2 0.27363110E-02 0.28889065E+03</pdfrwt>
<totfact> 0.10062782E+04</totfact>
</mgrwt>
</event>
<event>
 5    1  0.1147887E+001  0.2750623E+03  0.7818608E-02  0.1098417E+00
          1   -1    0    0  501    0  0.00000000000E+00  0.00000000000E+00  0.39767972620E+03  0.39767972620E+03  0.00000000000E+00 0. -1.
         -1   -1    0    0    0  501 -0.00000000000E+00 -0.00000000000E+00 -0.47562939568E+02  0.47562939568E+02  0.00000000000E+00 0. -1.
         35    2    1    2    0    0  0.00000000000E+00  0.00000000000E+00  0.35011678663E+03  0.44524266576E+03  0.27506229683E+03 0.  0.
         25    1    3    3    0    0  0.50412270448E+02  0.12604156016E+01  0.24693715193E+03  0.27914322965E+03  0.12000000000E+03 0.  0.
         25    1    3    3    0    0 -0.50412270448E+02 -0.12604156016E+01  0.10317963470E+03  0.16609943611E+03  0.12000000000E+03 0.  0.
<mgrwt>
<rscale>  0 0.27506230E+03</rscale>
<asrwt>0</asrwt>
<pdfrwt beam="1">  1        1 0.61181494E-01 0.27506230E+03</pdfrwt>
<pdfrwt beam="2">  1       -1 0.73173756E-02 0.27506230E+03</pdfrwt>
<totfact> 0.59925080E+03</totfact>
</mgrwt>
</event>
<event>
 4    1  0.1147887E+001  0.3145214E+03  0.7818608E-02  0.1078199E+00
         -3   -1    0    0    0  501 -0.00000000000E+00  0.00000000000E+00  0.33029317595E+02  0.33029317595E+02  0.00000000000E+00 0. -1.
          3   -1    0    0  501    0  0.00000000000E+00 -0.00000000000E+00 -0.74875669963E+03  0.74875669963E+03  0.00000000000E+00 0. -1.
         25    1    1    2    0    0 -0.76803084212E+02 -0.14027042266E+02 -0.19609756635E+03  0.24279564903E+03  0.12000000000E+03 0.  0.
         25    1    1    2    0    0  0.76803084212E+02  0.14027042266E+02 -0.51962981569E+03  0.53899036820E+03  0.12000000000E+03 0.  0.
<mgrwt>
<rscale>  0 0.31452137E+03</rscale>
<asrwt>0</asrwt>
<pdfrwt beam="1">  1        3 0.11519333E+00 0.31452137E+03</pdfrwt>
<pdfrwt beam="2">  1       -3 0.50814339E-02 0.31452137E+03</pdfrwt>
<totfact> 0.37167875E+02</totfact>
</mgrwt>
</event>
<event>
 5    1  0.1147887E+001  0.2767627E+03  0.7818608E-02  0.1097470E+00
          2   -1    0    0  501    0  0.00000000000E+00  0.00000000000E+00  0.83510259879E+03  0.83510259879E+03  0.00000000000E+00 0. -1.
         -2   -1    0    0    0  501 -0.00000000000E+00 -0.00000000000E+00 -0.22930600933E+02  0.22930600933E+02  0.00000000000E+00 0. -1.
         35    2    1    2    0    0  0.00000000000E+00  0.00000000000E+00  0.81217199785E+03  0.85803319972E+03  0.27676274627E+03 0.  0.
         25    1    3    3    0    0 -0.16356461003E+02  0.66335911561E+02  0.43406004032E+03  0.45549545067E+03  0.12000000000E+03 0.  0.
         25    1    3    3    0    0  0.16356461003E+02 -0.66335911561E+02  0.37811195754E+03  0.40253774905E+03  0.12000000000E+03 0.  0.
<mgrwt>
<rscale>  0 0.27676275E+03</rscale>
<asrwt>0</asrwt>
<pdfrwt beam="1">  1        2 0.12847730E+00 0.27676275E+03</pdfrwt>
<pdfrwt beam="2">  1       -2 0.35277854E-02 0.27676275E+03</pdfrwt>
<totfact> 0.11113337E+04</totfact>
</mgrwt>
</event>
<event>
 5    1  0.1147887E+001  0.2753743E+03  0.7818608E-02  0.1098243E+00
         -3   -1    0    0    0  501 -0.00000000000E+00  0.00000000000E+00  0.43719830795E+03  0.43719830795E+03  0.00000000000E+00 0. -1.
          3   -1    0    0  501    0  0.00000000000E+00 -0.00000000000E+00 -0.43361919607E+02  0.43361919607E+02  0.00000000000E+00 0. -1.
         35    2    1    2    0    0  0.00000000000E+00  0.00000000000E+00  0.39383638834E+03  0.48056022756E+03  0.27537434798E+03 0.  0.
         25    1    3    3    0    0 -0.26655042547E+02 -0.44117571166E+02  0.27300418856E+03  0.30263532238E+03  0.12000000000E+03 0.  0.
         25    1    3    3    0    0  0.26655042547E+02  0.44117571166E+02  0.12083219978E+03  0.17792490518E+03  0.12000000000E+03 0.  0.
<mgrwt>
<rscale>  0 0.27537435E+03</rscale>
<asrwt>0</asrwt>
<pdfrwt beam="1">  1        3 0.66710648E-02 0.27537435E+03</pdfrwt>
<pdfrwt beam="2">  1       -3 0.67261275E-01 0.27537435E+03</pdfrwt>
<totfact> 0.78950669E+02</totfact>
</mgrwt>
</event>
<event>
 5    1  0.1147887E+001  0.2753696E+03  0.7818608E-02  0.1098245E+00
          3   -1    0    0  501    0  0.00000000000E+00  0.00000000000E+00  0.27772812955E+03  0.27772812955E+03  0.00000000000E+00 0. -1.
         -3   -1    0    0    0  501 -0.00000000000E+00 -0.00000000000E+00 -0.68257788732E+02  0.68257788732E+02  0.00000000000E+00 0. -1.
         35    2    1    2    0    0  0.00000000000E+00  0.00000000000E+00  0.20947034082E+03  0.34598591828E+03  0.27536962789E+03 0.  0.
         25    1    3    3    0    0  0.50938665583E+01 -0.54571562516E+02  0.55219483794E+02  0.14301466464E+03  0.12000000000E+03 0.  0.
         25    1    3    3    0    0 -0.50938665583E+01  0.54571562516E+02  0.15425085702E+03  0.20297125364E+03  0.12000000000E+03 0.  0.
<mgrwt>
<rscale>  0 0.27536963E+03</rscale>
<asrwt>0</asrwt>
<pdfrwt beam="1">  1        3 0.42727404E-01 0.27536963E+03</pdfrwt>
<pdfrwt beam="2">  1       -3 0.10501198E-01 0.27536963E+03</pdfrwt>
<totfact> 0.94438775E+02</totfact>
</mgrwt>
</event>
<event>
 5    1  0.1147887E+001  0.2732078E+03  0.7818608E-02  0.1099458E+00
         -3   -1    0    0    0  501 -0.00000000000E+00  0.00000000000E+00  0.23896746346E+03  0.23896746346E+03  0.00000000000E+00 0. -1.
          3   -1    0    0  501    0  0.00000000000E+00 -0.00000000000E+00 -0.78088537295E+02  0.78088537295E+02  0.00000000000E+00 0. -1.
         35    2    1    2    0    0  0.00000000000E+00  0.00000000000E+00  0.16087892617E+03  0.31705600076E+03  0.27320775745E+03 0.  0.
         25    1    3    3    0    0 -0.60163133988E+02  0.19231155745E+01  0.51142591078E+02  0.14366233218E+03  0.12000000000E+03 0.  0.
         25    1    3    3    0    0  0.60163133988E+02 -0.19231155745E+01  0.10973633509E+03  0.17339366858E+03  0.12000000000E+03 0.  0.
<mgrwt>
<rscale>  0 0.27320776E+03</rscale>
<asrwt>0</asrwt>
<pdfrwt beam="1">  1        3 0.12013621E-01 0.27320776E+03</pdfrwt>
<pdfrwt beam="2">  1       -3 0.36764225E-01 0.27320776E+03</pdfrwt>
<totfact> 0.10071322E+03</totfact>
</mgrwt>
</event>
<event>
 5    1  0.1147887E+001  0.2749282E+03  0.7818608E-02  0.1098492E+00
          2   -1    0    0  501    0  0.00000000000E+00  0.00000000000E+00  0.11644572535E+04  0.11644572535E+04  0.00000000000E+00 0. -1.
         -2   -1    0    0    0  501 -0.00000000000E+00 -0.00000000000E+00 -0.16227622731E+02  0.16227622731E+02  0.00000000000E+00 0. -1.
         35    2    1    2    0    0  0.00000000000E+00  0.00000000000E+00  0.11482296308E+04  0.11806848762E+04  0.27492815786E+03 0.  0.
         25    1    3    3    0    0  0.92788373423E+01  0.65283278802E+02  0.52180449717E+03  0.53947005160E+03  0.12000000000E+03 0.  0.
         25    1    3    3    0    0 -0.92788373423E+01 -0.65283278802E+02  0.62642513360E+03  0.64121482462E+03  0.12000000000E+03 0.  0.
<mgrwt>
<rscale>  0 0.27492816E+03</rscale>
<asrwt>0</asrwt>
<pdfrwt beam="1">  1        2 0.17914720E+00 0.27492816E+03</pdfrwt>
<pdfrwt beam="2">  1       -2 0.24965583E-02 0.27492816E+03</pdfrwt>
<totfact> 0.11645661E+04</totfact>
</mgrwt>
</event>
<event>
 5    1  0.1147887E+001  0.2749269E+03  0.7818608E-02  0.1098492E+00
         -2   -1    0    0    0  501 -0.00000000000E+00  0.00000000000E+00  0.52303520220E+03  0.52303520220E+03  0.00000000000E+00 0. -1.
          2   -1    0    0  501    0  0.00000000000E+00 -0.00000000000E+00 -0.36127976080E+02  0.36127976080E+02  0.00000000000E+00 0. -1.
         35    2    1    2    0    0  0.00000000000E+00  0.00000000000E+00  0.48690722612E+03  0.55916317828E+03  0.27492692319E+03 0.  0.
         25    1    3    3    0    0  0.61376829035E+02  0.25111540604E+02  0.22326825515E+03  0.26200461517E+03  0.12000000000E+03 0.  0.
         25    1    3    3    0    0 -0.61376829035E+02 -0.25111540604E+02  0.26363897096E+03  0.29715856310E+03  0.12000000000E+03 0.  0.
<mgrwt>
<rscale>  0 0.27492692E+03</rscale>
<asrwt>0</asrwt>
<pdfrwt beam="1">  1        2 0.55581505E-02 0.27492692E+03</pdfrwt>
<pdfrwt beam="2">  1       -2 0.80466949E-01 0.27492692E+03</pdfrwt>
<totfact> 0.19177451E+03</totfact>
</mgrwt>
</event>
<event>
 5    1  0.1147887E+001  0.2842132E+03  0.7818608E-02  0.1093410E+00
          1   -1    0    0  501    0  0.00000000000E+00  0.00000000000E+00  0.94500085690E+03  0.94500085690E+03  0.00000000000E+00 0.  1.
         -1   -1    0    0    0  501 -0.00000000000E+00 -0.00000000000E+00 -0.21369601111E+02  0.21369601111E+02  0.00000000000E+00 0.  1.
         35    2    1    2    0    0  0.00000000000E+00  0.00000000000E+00  0.92363125578E+03  0.96637045801E+03  0.28421323939E+03 0.  0.
         25    1    3    3    0    0 -0.66785360343E+02  0.11943100530E+01  0.33769439283E+03  0.36455344420E+03  0.12000000000E+03 0.  0.
         25    1    3    3    0    0  0.66785360343E+02 -0.11943100530E+01  0.58593686296E+03  0.60181701381E+03  0.12000000000E+03 0.  0.
<mgrwt>
<rscale>  0 0.28421324E+03</rscale>
<asrwt>0</asrwt>
<pdfrwt beam="1">  1        1 0.14538472E+00 0.28421324E+03</pdfrwt>
<pdfrwt beam="2">  1       -1 0.32876317E-02 0.28421324E+03</pdfrwt>
<totfact> 0.58001576E+03</totfact>
</mgrwt>
</event>
<event>
 5    1  0.1147887E+001  0.2750243E+03  0.7818608E-02  0.1098438E+00
         -3   -1    0    0    0  501 -0.00000000000E+00  0.00000000000E+00  0.24817736038E+03  0.24817736038E+03  0.00000000000E+00 0.  1.
          3   -1    0    0  501    0  0.00000000000E+00 -0.00000000000E+00 -0.76193878418E+02  0.76193878418E+02  0.00000000000E+00 0.  1.
         35    2    1    2    0    0  0.00000000000E+00  0.00000000000E+00  0.17198348196E+03  0.32437123880E+03  0.27502433073E+03 0.  0.
         25    1    3    3    0    0 -0.49645540026E+02 -0.40605947314E+02  0.10946421426E+03  0.17463085869E+03  0.12000000000E+03 0.  0.
         25    1    3    3    0    0  0.49645540026E+02  0.40605947314E+02  0.62519267697E+02  0.14974038011E+03  0.12000000000E+03 0.  0.
<mgrwt>
<rscale>  0 0.27502433E+03</rscale>
<asrwt>0</asrwt>
<pdfrwt beam="1">  1        3 0.11722135E-01 0.27502433E+03</pdfrwt>
<pdfrwt beam="2">  1       -3 0.38181132E-01 0.27502433E+03</pdfrwt>
<totfact> 0.97676587E+02</totfact>
</mgrwt>
</event>
<event>
 5    1  0.1147887E+001  0.2753777E+03  0.7818608E-02  0.1098241E+00
         -2   -1    0    0    0  501 -0.00000000000E+00  0.00000000000E+00  0.66344210449E+01  0.66344210449E+01  0.00000000000E+00 0. -1.
          2   -1    0    0  501    0  0.00000000000E+00 -0.00000000000E+00 -0.28575552296E+04  0.28575552296E+04  0.00000000000E+00 0. -1.
         35    2    1    2    0    0  0.00000000000E+00  0.00000000000E+00 -0.28509208085E+04  0.28641896506E+04  0.27537773731E+03 0.  0.
         25    1    3    3    0    0 -0.13861166929E+02  0.59458445903E+02 -0.11256701710E+04  0.11336934209E+04  0.12000000000E+03 0.  0.
         25    1    3    3    0    0  0.13861166929E+02 -0.59458445903E+02 -0.17252506375E+04  0.17304962297E+04  0.12000000000E+03 0.  0.
<mgrwt>
<rscale>  0 0.27537774E+03</rscale>
<asrwt>0</asrwt>
<pdfrwt beam="1">  1        2 0.43962247E+00 0.27537774E+03</pdfrwt>
<pdfrwt beam="2">  1       -2 0.10206834E-02 0.27537774E+03</pdfrwt>
<totfact> 0.52247045E+03</totfact>
</mgrwt>
</event>
<event>
 5    1  0.1147887E+001  0.2751460E+03  0.7818608E-02  0.1098370E+00
         -2   -1    0    0    0  501 -0.00000000000E+00  0.00000000000E+00  0.70238227060E+01  0.70238227060E+01  0.00000000000E+00 0. -1.
          2   -1    0    0  501    0  0.00000000000E+00 -0.00000000000E+00 -0.26945908228E+04  0.26945908228E+04  0.00000000000E+00 0. -1.
         35    2    1    2    0    0  0.00000000000E+00  0.00000000000E+00 -0.26875670001E+04  0.27016146455E+04  0.27514598456E+03 0.  0.
         25    1    3    3    0    0 -0.59860407514E+02  0.30007406426E+02 -0.14078813390E+04  0.14145718708E+04  0.12000000000E+03 0.  0.
         25    1    3    3    0    0  0.59860407514E+02 -0.30007406426E+02 -0.12796856611E+04  0.12870427747E+04  0.12000000000E+03 0.  0.
<mgrwt>
<rscale>  0 0.27514598E+03</rscale>
<asrwt>0</asrwt>
<pdfrwt beam="1">  1        2 0.41455274E+00 0.27514598E+03</pdfrwt>
<pdfrwt beam="2">  1       -2 0.10805873E-02 0.27514598E+03</pdfrwt>
<totfact> 0.59560654E+03</totfact>
</mgrwt>
</event>
<event>
 5    1  0.1147887E+001  0.2741094E+03  0.7818608E-02  0.1098950E+00
         -1   -1    0    0    0  501 -0.00000000000E+00  0.00000000000E+00  0.31350848196E+04  0.31350848196E+04  0.00000000000E+00 0. -1.
          1   -1    0    0  501    0  0.00000000000E+00 -0.00000000000E+00 -0.59915430767E+01  0.59915430767E+01  0.00000000000E+00 0. -1.
         35    2    1    2    0    0  0.00000000000E+00  0.00000000000E+00  0.31290932766E+04  0.31410763627E+04  0.27410943615E+03 0.  0.
         25    1    3    3    0    0  0.37528147448E+02 -0.40403467956E+02  0.19845220137E+04  0.19889113668E+04  0.12000000000E+03 0.  0.
         25    1    3    3    0    0 -0.37528147448E+02  0.40403467956E+02  0.11445712629E+04  0.11521649959E+04  0.12000000000E+03 0.  0.
<mgrwt>
<rscale>  0 0.27410944E+03</rscale>
<asrwt>0</asrwt>
<pdfrwt beam="1">  1        1 0.92177836E-03 0.27410944E+03</pdfrwt>
<pdfrwt beam="2">  1       -1 0.48231943E+00 0.27410944E+03</pdfrwt>
<totfact> 0.43953674E+01</totfact>
</mgrwt>
</event>
<event>
 5    1  0.1147887E+001  0.2679555E+03  0.7818608E-02  0.1102455E+00
          2   -1    0    0  501    0  0.00000000000E+00  0.00000000000E+00  0.26034729676E+03  0.26034729676E+03  0.00000000000E+00 0. -1.
         -2   -1    0    0    0  501 -0.00000000000E+00 -0.00000000000E+00 -0.68946502561E+02  0.68946502561E+02  0.00000000000E+00 0. -1.
         35    2    1    2    0    0  0.00000000000E+00  0.00000000000E+00  0.19140079420E+03  0.32929379932E+03  0.26795548558E+03 0.  0.
         25    1    3    3    0    0  0.43426975061E+02  0.10599975894E+02  0.14411040166E+03  0.19278503448E+03  0.12000000000E+03 0.  0.
         25    1    3    3    0    0 -0.43426975061E+02 -0.10599975894E+02  0.47290392536E+02  0.13650876484E+03  0.12000000000E+03 0.  0.
<mgrwt>
<rscale>  0 0.26795549E+03</rscale>
<asrwt>0</asrwt>
<pdfrwt beam="1">  1        2 0.40053430E-01 0.26795549E+03</pdfrwt>
<pdfrwt beam="2">  1       -2 0.10607154E-01 0.26795549E+03</pdfrwt>
<totfact> 0.76308759E+03</totfact>
</mgrwt>
</event>
<event>
 5    1  0.1147887E+001  0.2752311E+03  0.7818608E-02  0.1098322E+00
          1   -1    0    0  501    0  0.00000000000E+00  0.00000000000E+00  0.13335650502E+04  0.13335650502E+04  0.00000000000E+00 0.  1.
         -1   -1    0    0    0  501 -0.00000000000E+00 -0.00000000000E+00 -0.14201066746E+02  0.14201066746E+02  0.00000000000E+00 0.  1.
         35    2    1    2    0    0  0.00000000000E+00  0.00000000000E+00  0.13193639834E+04  0.13477661169E+04  0.27523114859E+03 0.  0.
         25    1    3    3    0    0  0.52464292593E+02 -0.36529949231E+02  0.55567637761E+03  0.57206920544E+03  0.12000000000E+03 0.  0.
         25    1    3    3    0    0 -0.52464292593E+02  0.36529949231E+02  0.76368760584E+03  0.77569691149E+03  0.12000000000E+03 0.  0.
<mgrwt>
<rscale>  0 0.27523115E+03</rscale>
<asrwt>0</asrwt>
<pdfrwt beam="1">  1        1 0.20516376E+00 0.27523115E+03</pdfrwt>
<pdfrwt beam="2">  1       -1 0.21847805E-02 0.27523115E+03</pdfrwt>
<totfact> 0.55753073E+03</totfact>
</mgrwt>
</event>
<event>
 5    1  0.1147887E+001  0.2742718E+03  0.7818608E-02  0.1098859E+00
          1   -1    0    0  501    0  0.00000000000E+00  0.00000000000E+00  0.38469069933E+02  0.38469069933E+02  0.00000000000E+00 0. -1.
         -1   -1    0    0    0  501 -0.00000000000E+00 -0.00000000000E+00 -0.48886691683E+03  0.48886691683E+03  0.00000000000E+00 0. -1.
         35    2    1    2    0    0  0.00000000000E+00  0.00000000000E+00 -0.45039784689E+03  0.52733598676E+03  0.27427180395E+03 0.  0.
         25    1    3    3    0    0  0.25359987806E+02  0.26193885289E+02 -0.33185128814E+03  0.35475981459E+03  0.12000000000E+03 0.  0.
         25    1    3    3    0    0 -0.25359987806E+02 -0.26193885289E+02 -0.11854655875E+03  0.17257617217E+03  0.12000000000E+03 0.  0.
<mgrwt>
<rscale>  0 0.27427180E+03</rscale>
<asrwt>0</asrwt>
<pdfrwt beam="1">  1        1 0.59183185E-02 0.27427180E+03</pdfrwt>
<pdfrwt beam="2">  1       -1 0.75210294E-01 0.27427180E+03</pdfrwt>
<totfact> 0.24352626E+03</totfact>
</mgrwt>
</event>
<event>
 5    1  0.1147887E+001  0.2770559E+03  0.7818608E-02  0.1097308E+00
         -2   -1    0    0    0  501 -0.00000000000E+00  0.00000000000E+00  0.11813388415E+02  0.11813388415E+02  0.00000000000E+00 0. -1.
          2   -1    0    0  501    0  0.00000000000E+00 -0.00000000000E+00 -0.16244276904E+04  0.16244276904E+04  0.00000000000E+00 0. -1.
         35    2    1    2    0    0  0.00000000000E+00  0.00000000000E+00 -0.16126143020E+04  0.16362410788E+04  0.27705591680E+03 0.  0.
         25    1    3    3    0    0  0.63047064261E+02  0.22627081618E+02 -0.70349199047E+03  0.71678999560E+03  0.12000000000E+03 0.  0.
         25    1    3    3    0    0 -0.63047064261E+02 -0.22627081618E+02 -0.90912231151E+03  0.91945108321E+03  0.12000000000E+03 0.  0.
<mgrwt>
<rscale>  0 0.27705592E+03</rscale>
<asrwt>0</asrwt>
<pdfrwt beam="1">  1        2 0.24991194E+00 0.27705592E+03</pdfrwt>
<pdfrwt beam="2">  1       -2 0.18174445E-02 0.27705592E+03</pdfrwt>
<totfact> 0.10426902E+04</totfact>
</mgrwt>
</event>
<event>
 5    1  0.1147887E+001  0.2750025E+03  0.7818608E-02  0.1098450E+00
         -2   -1    0    0    0  501 -0.00000000000E+00  0.00000000000E+00  0.57897494637E+02  0.57897494637E+02  0.00000000000E+00 0. -1.
          2   -1    0    0  501    0  0.00000000000E+00 -0.00000000000E+00 -0.32655294357E+03  0.32655294357E+03  0.00000000000E+00 0. -1.
         35    2    1    2    0    0  0.00000000000E+00  0.00000000000E+00 -0.26865544893E+03  0.38445043821E+03  0.27500252580E+03 0.  0.
         25    1    3    3    0    0 -0.48170630528E+01 -0.62172612183E+02 -0.99575414029E+02  0.16794017054E+03  0.12000000000E+03 0.  0.
         25    1    3    3    0    0  0.48170630528E+01  0.62172612183E+02 -0.16908003490E+03  0.21651026767E+03  0.12000000000E+03 0.  0.
<mgrwt>
<rscale>  0 0.27500253E+03</rscale>
<asrwt>0</asrwt>
<pdfrwt beam="1">  1        2 0.50238914E-01 0.27500253E+03</pdfrwt>
<pdfrwt beam="2">  1       -2 0.89073070E-02 0.27500253E+03</pdfrwt>
<totfact> 0.78965746E+03</totfact>
</mgrwt>
</event>
<event>
 5    1  0.1147887E+001  0.2753784E+03  0.7818608E-02  0.1098240E+00
          1   -1    0    0  501    0  0.00000000000E+00  0.00000000000E+00  0.15887372416E+03  0.15887372416E+03  0.00000000000E+00 0.  1.
         -1   -1    0    0    0  501 -0.00000000000E+00 -0.00000000000E+00 -0.11932948083E+03  0.11932948083E+03  0.00000000000E+00 0.  1.
         35    2    1    2    0    0  0.00000000000E+00  0.00000000000E+00  0.39544243330E+02  0.27820320499E+03  0.27537842342E+03 0.  0.
         25    1    3    3    0    0  0.18595049973E+02 -0.30354157160E+02  0.77729304081E+02  0.14733972802E+03  0.12000000000E+03 0.  0.
         25    1    3    3    0    0 -0.18595049973E+02  0.30354157160E+02 -0.38185060751E+02  0.13086347697E+03  0.12000000000E+03 0.  0.
<mgrwt>
<rscale>  0 0.27537842E+03</rscale>
<asrwt>0</asrwt>
<pdfrwt beam="1">  1        1 0.24442112E-01 0.27537842E+03</pdfrwt>
<pdfrwt beam="2">  1       -1 0.18358382E-01 0.27537842E+03</pdfrwt>
<totfact> 0.45388270E+03</totfact>
</mgrwt>
</event>
<event>
 5    1  0.1147887E+001  0.2753496E+03  0.7818608E-02  0.1098256E+00
          2   -1    0    0  501    0  0.00000000000E+00  0.00000000000E+00  0.11184417823E+04  0.11184417823E+04  0.00000000000E+00 0.  1.
         -2   -1    0    0    0  501 -0.00000000000E+00 -0.00000000000E+00 -0.16947101523E+02  0.16947101523E+02  0.00000000000E+00 0.  1.
         35    2    1    2    0    0  0.00000000000E+00  0.00000000000E+00  0.11014946808E+04  0.11353888839E+04  0.27534957006E+03 0.  0.
         25    1    3    3    0    0 -0.18239438414E+01  0.13704427804E+02  0.27837487017E+03  0.30345297240E+03  0.12000000000E+03 0.  0.
         25    1    3    3    0    0  0.18239438414E+01 -0.13704427804E+02  0.82311981064E+03  0.83193591147E+03  0.12000000000E+03 0.  0.
<mgrwt>
<rscale>  0 0.27534957E+03</rscale>
<asrwt>0</asrwt>
<pdfrwt beam="1">  1        2 0.17206791E+00 0.27534957E+03</pdfrwt>
<pdfrwt beam="2">  1       -2 0.26072473E-02 0.27534957E+03</pdfrwt>
<totfact> 0.11612376E+04</totfact>
</mgrwt>
</event>
<event>
 5    1  0.1147887E+001  0.2739958E+03  0.7818608E-02  0.1099014E+00
         -4   -1    0    0    0  501 -0.00000000000E+00  0.00000000000E+00  0.75896041364E+02  0.75896041364E+02  0.00000000000E+00 0. -1.
          4   -1    0    0  501    0  0.00000000000E+00 -0.00000000000E+00 -0.24729115931E+03  0.24729115931E+03  0.00000000000E+00 0. -1.
         35    2    1    2    0    0  0.00000000000E+00  0.00000000000E+00 -0.17139511794E+03  0.32318720067E+03  0.27399576680E+03 0.  0.
         25    1    3    3    0    0  0.11894120853E+02  0.48702721111E+02 -0.34895459568E+02  0.13465184088E+03  0.12000000000E+03 0.  0.
         25    1    3    3    0    0 -0.11894120853E+02 -0.48702721111E+02 -0.13649965838E+03  0.18853535979E+03  0.12000000000E+03 0.  0.
<mgrwt>
<rscale>  0 0.27399577E+03</rscale>
<asrwt>0</asrwt>
<pdfrwt beam="1">  1        4 0.38044794E-01 0.27399577E+03</pdfrwt>
<pdfrwt beam="2">  1       -4 0.11676314E-01 0.27399577E+03</pdfrwt>
<totfact> 0.73299921E+02</totfact>
</mgrwt>
</event>
<event>
 5    1  0.1147887E+001  0.2750654E+03  0.7818608E-02  0.1098415E+00
         -2   -1    0    0    0  501 -0.00000000000E+00  0.00000000000E+00  0.24461641656E+02  0.24461641656E+02  0.00000000000E+00 0.  1.
          2   -1    0    0  501    0  0.00000000000E+00 -0.00000000000E+00 -0.77326120813E+03  0.77326120813E+03  0.00000000000E+00 0.  1.
         35    2    1    2    0    0  0.00000000000E+00  0.00000000000E+00 -0.74879956647E+03  0.79772284978E+03  0.27506536372E+03 0.  0.
         25    1    3    3    0    0  0.40121632437E+02  0.13495621949E+02 -0.52574502163E+03  0.54092486074E+03  0.12000000000E+03 0.  0.
         25    1    3    3    0    0 -0.40121632437E+02 -0.13495621949E+02 -0.22305454484E+03  0.25679798904E+03  0.12000000000E+03 0.  0.
<mgrwt>
<rscale>  0 0.27506536E+03</rscale>
<asrwt>0</asrwt>
<pdfrwt beam="1">  1        2 0.11896326E+00 0.27506536E+03</pdfrwt>
<pdfrwt beam="2">  1       -2 0.37633297E-02 0.27506536E+03</pdfrwt>
<totfact> 0.11125087E+04</totfact>
</mgrwt>
</event>
<event>
 5    1  0.1147887E+001  0.2744576E+03  0.7818608E-02  0.1098755E+00
         -2   -1    0    0    0  501 -0.00000000000E+00  0.00000000000E+00  0.50154403134E+03  0.50154403134E+03  0.00000000000E+00 0. -1.
          2   -1    0    0  501    0  0.00000000000E+00 -0.00000000000E+00 -0.37547533922E+02  0.37547533922E+02  0.00000000000E+00 0. -1.
         35    2    1    2    0    0  0.00000000000E+00  0.00000000000E+00  0.46399649741E+03  0.53909156526E+03  0.27445758528E+03 0.  0.
         25    1    3    3    0    0 -0.64682268140E+02 -0.13021953006E+02  0.21460925002E+03  0.25457905897E+03  0.12000000000E+03 0.  0.
         25    1    3    3    0    0  0.64682268140E+02  0.13021953006E+02  0.24938724740E+03  0.28451250629E+03  0.12000000000E+03 0.  0.
<mgrwt>
<rscale>  0 0.27445759E+03</rscale>
<asrwt>0</asrwt>
<pdfrwt beam="1">  1        2 0.57765440E-02 0.27445759E+03</pdfrwt>
<pdfrwt beam="2">  1       -2 0.77160615E-01 0.27445759E+03</pdfrwt>
<totfact> 0.19994437E+03</totfact>
</mgrwt>
</event>
<event>
 5    1  0.1147887E+001  0.2791995E+03  0.7818608E-02  0.1096127E+00
          1   -1    0    0  501    0  0.00000000000E+00  0.00000000000E+00  0.81472196073E+03  0.81472196073E+03  0.00000000000E+00 0. -1.
         -1   -1    0    0    0  501 -0.00000000000E+00 -0.00000000000E+00 -0.23919922678E+02  0.23919922678E+02  0.00000000000E+00 0. -1.
         35    2    1    2    0    0  0.00000000000E+00  0.00000000000E+00  0.79080203806E+03  0.83864188341E+03  0.27919947210E+03 0.  0.
         25    1    3    3    0    0  0.59304318399E+02  0.18871389193E+02  0.29070214411E+03  0.32059455407E+03  0.12000000000E+03 0.  0.
         25    1    3    3    0    0 -0.59304318399E+02 -0.18871389193E+02  0.50009989395E+03  0.51804732934E+03  0.12000000000E+03 0.  0.
<mgrwt>
<rscale>  0 0.27919947E+03</rscale>
<asrwt>0</asrwt>
<pdfrwt beam="1">  1        1 0.12534182E+00 0.27919947E+03</pdfrwt>
<pdfrwt beam="2">  1       -1 0.36799887E-02 0.27919947E+03</pdfrwt>
<totfact> 0.62292869E+03</totfact>
</mgrwt>
</event>
<event>
 5    1  0.1147887E+001  0.2754691E+03  0.7818608E-02  0.1098190E+00
          2   -1    0    0  501    0  0.00000000000E+00  0.00000000000E+00  0.20717860949E+04  0.20717860949E+04  0.00000000000E+00 0.  1.
         -2   -1    0    0    0  501 -0.00000000000E+00 -0.00000000000E+00 -0.91567418470E+01  0.91567418470E+01  0.00000000000E+00 0.  1.
         35    2    1    2    0    0  0.00000000000E+00  0.00000000000E+00  0.20626293531E+04  0.20809428368E+04  0.27546913027E+03 0.  0.
         25    1    3    3    0    0  0.12123408909E+02  0.61695509604E+02  0.84359715614E+03  0.85440591922E+03  0.12000000000E+03 0.  0.
         25    1    3    3    0    0 -0.12123408909E+02 -0.61695509604E+02  0.12190321969E+04  0.12265369175E+04  0.12000000000E+03 0.  0.
<mgrwt>
<rscale>  0 0.27546913E+03</rscale>
<asrwt>0</asrwt>
<pdfrwt beam="1">  1        2 0.31873595E+00 0.27546913E+03</pdfrwt>
<pdfrwt beam="2">  1       -2 0.14087312E-02 0.27546913E+03</pdfrwt>
<totfact> 0.88070105E+03</totfact>
</mgrwt>
</event>
<event>
 5    1  0.1147887E+001  0.2749619E+03  0.7818608E-02  0.1098473E+00
          2   -1    0    0  501    0  0.00000000000E+00  0.00000000000E+00  0.35792298525E+02  0.35792298525E+02  0.00000000000E+00 0.  1.
         -2   -1    0    0    0  501 -0.00000000000E+00 -0.00000000000E+00 -0.52807487649E+03  0.52807487649E+03  0.00000000000E+00 0.  1.
         35    2    1    2    0    0  0.00000000000E+00  0.00000000000E+00 -0.49228257797E+03  0.56386717502E+03  0.27496191462E+03 0.  0.
         25    1    3    3    0    0  0.66346139546E+02 -0.61977210091E+01 -0.26213046989E+03  0.29589289485E+03  0.12000000000E+03 0.  0.
         25    1    3    3    0    0 -0.66346139546E+02  0.61977210091E+01 -0.23015210808E+03  0.26797428017E+03  0.12000000000E+03 0.  0.
<mgrwt>
<rscale>  0 0.27496191E+03</rscale>
<asrwt>0</asrwt>
<pdfrwt beam="1">  1        2 0.55065079E-02 0.27496191E+03</pdfrwt>
<pdfrwt beam="2">  1       -2 0.81242283E-01 0.27496191E+03</pdfrwt>
<totfact> 0.19006546E+03</totfact>
</mgrwt>
</event>
<event>
 5    1  0.1147887E+001  0.2745989E+03  0.7818608E-02  0.1098676E+00
          3   -1    0    0  501    0  0.00000000000E+00  0.00000000000E+00  0.19132049135E+03  0.19132049135E+03  0.00000000000E+00 0.  1.
         -3   -1    0    0    0  501 -0.00000000000E+00 -0.00000000000E+00 -0.98531742094E+02  0.98531742094E+02  0.00000000000E+00 0.  1.
         35    2    1    2    0    0  0.00000000000E+00  0.00000000000E+00  0.92788749252E+02  0.28985223344E+03  0.27459891705E+03 0.  0.
         25    1    3    3    0    0 -0.45996330500E+02  0.44053729308E+01  0.97193217501E+02  0.16118806177E+03  0.12000000000E+03 0.  0.
         25    1    3    3    0    0  0.45996330500E+02 -0.44053729308E+01 -0.44044682484E+01  0.12866417167E+03  0.12000000000E+03 0.  0.
<mgrwt>
<rscale>  0 0.27459892E+03</rscale>
<asrwt>0</asrwt>
<pdfrwt beam="1">  1        3 0.29433922E-01 0.27459892E+03</pdfrwt>
<pdfrwt beam="2">  1       -3 0.15158730E-01 0.27459892E+03</pdfrwt>
<totfact> 0.10311707E+03</totfact>
</mgrwt>
</event>
<event>
 4    1  0.1147887E+001  0.2445435E+03  0.7818608E-02  0.1116803E+00
         -2   -1    0    0    0  501 -0.00000000000E+00  0.00000000000E+00  0.10311644201E+03  0.10311644201E+03  0.00000000000E+00 0.  1.
          2   -1    0    0  501    0  0.00000000000E+00 -0.00000000000E+00 -0.14498544557E+03  0.14498544557E+03  0.00000000000E+00 0.  1.
         25    1    1    2    0    0  0.99221950962E+00 -0.21845055006E+02 -0.29554745305E+02  0.12550567277E+03  0.12000000000E+03 0.  0.
         25    1    1    2    0    0 -0.99221950962E+00  0.21845055006E+02 -0.12314258255E+02  0.12259621480E+03  0.12000000000E+03 0.  0.
<mgrwt>
<rscale>  0 0.24454352E+03</rscale>
<asrwt>0</asrwt>
<pdfrwt beam="1">  1        2 0.22305453E-01 0.24454352E+03</pdfrwt>
<pdfrwt beam="2">  1       -2 0.15864068E-01 0.24454352E+03</pdfrwt>
<totfact> 0.75161278E+03</totfact>
</mgrwt>
</event>
<event>
 5    1  0.1147887E+001  0.2740406E+03  0.7818608E-02  0.1098989E+00
         -2   -1    0    0    0  501 -0.00000000000E+00  0.00000000000E+00  0.84165676341E+01  0.84165676341E+01  0.00000000000E+00 0. -1.
          2   -1    0    0  501    0  0.00000000000E+00 -0.00000000000E+00 -0.22306665550E+04  0.22306665550E+04  0.00000000000E+00 0. -1.
         35    2    1    2    0    0  0.00000000000E+00  0.00000000000E+00 -0.22222499874E+04  0.22390831226E+04  0.27404055123E+03 0.  0.
         25    1    3    3    0    0 -0.33246562556E+02  0.52165018604E+02 -0.91984978853E+03  0.92970433824E+03  0.12000000000E+03 0.  0.
         25    1    3    3    0    0  0.33246562556E+02 -0.52165018604E+02 -0.13024001989E+04  0.13093787844E+04  0.12000000000E+03 0.  0.
<mgrwt>
<rscale>  0 0.27404055E+03</rscale>
<asrwt>0</asrwt>
<pdfrwt beam="1">  1        2 0.34317972E+00 0.27404055E+03</pdfrwt>
<pdfrwt beam="2">  1       -2 0.12948556E-02 0.27404055E+03</pdfrwt>
<totfact> 0.82037895E+03</totfact>
</mgrwt>
</event>
<event>
 5    1  0.1147887E+001  0.2750780E+03  0.7818608E-02  0.1098408E+00
          2   -1    0    0  501    0  0.00000000000E+00  0.00000000000E+00  0.38252094986E+03  0.38252094986E+03  0.00000000000E+00 0.  1.
         -2   -1    0    0    0  501 -0.00000000000E+00 -0.00000000000E+00 -0.49453441104E+02  0.49453441104E+02  0.00000000000E+00 0.  1.
         35    2    1    2    0    0  0.00000000000E+00  0.00000000000E+00  0.33306750876E+03  0.43197439097E+03  0.27507800541E+03 0.  0.
         25    1    3    3    0    0  0.27725824700E+02  0.61160380189E+02  0.16218640694E+03  0.21263523710E+03  0.12000000000E+03 0.  0.
         25    1    3    3    0    0 -0.27725824700E+02 -0.61160380189E+02  0.17088110182E+03  0.21933915387E+03  0.12000000000E+03 0.  0.
<mgrwt>
<rscale>  0 0.27507801E+03</rscale>
<asrwt>0</asrwt>
<pdfrwt beam="1">  1        2 0.58849375E-01 0.27507801E+03</pdfrwt>
<pdfrwt beam="2">  1       -2 0.76082220E-02 0.27507801E+03</pdfrwt>
<totfact> 0.85198870E+03</totfact>
</mgrwt>
</event>
<event>
 5    1  0.1147887E+001  0.2758320E+03  0.7818608E-02  0.1097987E+00
         -2   -1    0    0    0  501 -0.00000000000E+00  0.00000000000E+00  0.25691574051E+02  0.25691574051E+02  0.00000000000E+00 0.  1.
          2   -1    0    0  501    0  0.00000000000E+00 -0.00000000000E+00 -0.74035266880E+03  0.74035266880E+03  0.00000000000E+00 0.  1.
         35    2    1    2    0    0  0.00000000000E+00  0.00000000000E+00 -0.71466109475E+03  0.76604424286E+03  0.27583201710E+03 0.  0.
         25    1    3    3    0    0 -0.56380409888E+01 -0.33328497663E+02 -0.19353974078E+03  0.23021773938E+03  0.12000000000E+03 0.  0.
         25    1    3    3    0    0  0.56380409888E+01  0.33328497663E+02 -0.52112135397E+03  0.53582650348E+03  0.12000000000E+03 0.  0.
<mgrwt>
<rscale>  0 0.27583202E+03</rscale>
<asrwt>0</asrwt>
<pdfrwt beam="1">  1        2 0.11390040E+00 0.27583202E+03</pdfrwt>
<pdfrwt beam="2">  1       -2 0.39525501E-02 0.27583202E+03</pdfrwt>
<totfact> 0.10911524E+04</totfact>
</mgrwt>
</event>
<event>
 5    1  0.1147887E+001  0.2780085E+03  0.7818608E-02  0.1096782E+00
          2   -1    0    0  501    0  0.00000000000E+00  0.00000000000E+00  0.11303569148E+03  0.11303569148E+03  0.00000000000E+00 0. -1.
         -2   -1    0    0    0  501 -0.00000000000E+00 -0.00000000000E+00 -0.17093881191E+03  0.17093881191E+03  0.00000000000E+00 0. -1.
         35    2    1    2    0    0  0.00000000000E+00  0.00000000000E+00 -0.57903120431E+02  0.28397450339E+03  0.27800853804E+03 0.  0.
         25    1    3    3    0    0  0.22620300934E+02  0.46184228706E+02  0.19795998206E+02  0.13204750108E+03  0.12000000000E+03 0.  0.
         25    1    3    3    0    0 -0.22620300934E+02 -0.46184228706E+02 -0.77699118637E+02  0.15192700231E+03  0.12000000000E+03 0.  0.
<mgrwt>
<rscale>  0 0.27800854E+03</rscale>
<asrwt>0</asrwt>
<pdfrwt beam="1">  1        2 0.17390106E-01 0.27800854E+03</pdfrwt>
<pdfrwt beam="2">  1       -2 0.26298279E-01 0.27800854E+03</pdfrwt>
<totfact> 0.42223238E+03</totfact>
</mgrwt>
</event>
<event>
 5    1  0.1147887E+001  0.2747524E+03  0.7818608E-02  0.1098590E+00
          2   -1    0    0  501    0  0.00000000000E+00  0.00000000000E+00  0.17295351320E+03  0.17295351320E+03  0.00000000000E+00 0.  1.
         -2   -1    0    0    0  501 -0.00000000000E+00 -0.00000000000E+00 -0.10911726557E+03  0.10911726557E+03  0.00000000000E+00 0.  1.
         35    2    1    2    0    0  0.00000000000E+00  0.00000000000E+00  0.63836247629E+02  0.28207077877E+03  0.27475235708E+03 0.  0.
         25    1    3    3    0    0 -0.19304065899E+02  0.56279232594E+02  0.63263596160E+02  0.14812927321E+03  0.12000000000E+03 0.  0.
         25    1    3    3    0    0  0.19304065899E+02 -0.56279232594E+02  0.57265146896E+00  0.13394150556E+03  0.12000000000E+03 0.  0.
<mgrwt>
<rscale>  0 0.27475236E+03</rscale>
<asrwt>0</asrwt>
<pdfrwt beam="1">  1        2 0.26608233E-01 0.27475236E+03</pdfrwt>
<pdfrwt beam="2">  1       -2 0.16787272E-01 0.27475236E+03</pdfrwt>
<totfact> 0.56411915E+03</totfact>
</mgrwt>
</event>
<event>
 5    1  0.1147887E+001  0.2731053E+03  0.7818608E-02  0.1099515E+00
         -1   -1    0    0    0  501 -0.00000000000E+00  0.00000000000E+00  0.38211494739E+02  0.38211494739E+02  0.00000000000E+00 0.  1.
          1   -1    0    0  501    0  0.00000000000E+00 -0.00000000000E+00 -0.48798458089E+03  0.48798458089E+03  0.00000000000E+00 0.  1.
         35    2    1    2    0    0  0.00000000000E+00  0.00000000000E+00 -0.44977308615E+03  0.52619607563E+03  0.27310525623E+03 0.  0.
         25    1    3    3    0    0  0.26556989090E+01 -0.10981069671E+02 -0.34854179836E+03  0.36879401003E+03  0.12000000000E+03 0.  0.
         25    1    3    3    0    0 -0.26556989090E+01  0.10981069671E+02 -0.10123128779E+03  0.15740206560E+03  0.12000000000E+03 0.  0.
<mgrwt>
<rscale>  0 0.27310526E+03</rscale>
<asrwt>0</asrwt>
<pdfrwt beam="1">  1        1 0.75074553E-01 0.27310526E+03</pdfrwt>
<pdfrwt beam="2">  1       -1 0.58786913E-02 0.27310526E+03</pdfrwt>
<totfact> 0.63957836E+03</totfact>
</mgrwt>
</event>
<event>
 5    1  0.1147887E+001  0.2727495E+03  0.7818608E-02  0.1099716E+00
          2   -1    0    0  501    0  0.00000000000E+00  0.00000000000E+00  0.56765514022E+03  0.56765514022E+03  0.00000000000E+00 0. -1.
         -2   -1    0    0    0  501 -0.00000000000E+00 -0.00000000000E+00 -0.32762976986E+02  0.32762976986E+02  0.00000000000E+00 0. -1.
         35    2    1    2    0    0  0.00000000000E+00  0.00000000000E+00  0.53489216324E+03  0.60041811721E+03  0.27274949896E+03 0.  0.
         25    1    3    3    0    0 -0.62854093189E+02  0.15140756631E+02  0.25805665568E+03  0.29184433708E+03  0.12000000000E+03 0.  0.
         25    1    3    3    0    0  0.62854093189E+02 -0.15140756631E+02  0.27683550755E+03  0.30857378013E+03  0.12000000000E+03 0.  0.
<mgrwt>
<rscale>  0 0.27274950E+03</rscale>
<asrwt>0</asrwt>
<pdfrwt beam="1">  1        2 0.87331553E-01 0.27274950E+03</pdfrwt>
<pdfrwt beam="2">  1       -2 0.50404584E-02 0.27274950E+03</pdfrwt>
<totfact> 0.10353329E+04</totfact>
</mgrwt>
</event>
<event>
 5    1  0.1147887E+001  0.2779269E+03  0.7818608E-02  0.1096827E+00
          4   -1    0    0  501    0  0.00000000000E+00  0.00000000000E+00  0.50949308217E+03  0.50949308217E+03  0.00000000000E+00 0.  1.
         -4   -1    0    0    0  501 -0.00000000000E+00 -0.00000000000E+00 -0.37902058593E+02  0.37902058593E+02  0.00000000000E+00 0.  1.
         35    2    1    2    0    0  0.00000000000E+00  0.00000000000E+00  0.47159102358E+03  0.54739514076E+03  0.27792687278E+03 0.  0.
         25    1    3    3    0    0 -0.56822824148E+02  0.33290210552E+02  0.28297329119E+03  0.31434209866E+03  0.12000000000E+03 0.  0.
         25    1    3    3    0    0  0.56822824148E+02 -0.33290210552E+02  0.18861773239E+03  0.23305304210E+03  0.12000000000E+03 0.  0.
<mgrwt>
<rscale>  0 0.27792687E+03</rscale>
<asrwt>0</asrwt>
<pdfrwt beam="1">  1        4 0.78383546E-01 0.27792687E+03</pdfrwt>
<pdfrwt beam="2">  1       -4 0.58310863E-02 0.27792687E+03</pdfrwt>
<totfact> 0.51864296E+02</totfact>
</mgrwt>
</event>
<event>
 5    1  0.1147887E+001  0.2759025E+03  0.7818608E-02  0.1097948E+00
         -2   -1    0    0    0  501 -0.00000000000E+00  0.00000000000E+00  0.21203302917E+02  0.21203302917E+02  0.00000000000E+00 0. -1.
          2   -1    0    0  501    0  0.00000000000E+00 -0.00000000000E+00 -0.89752720960E+03  0.89752720960E+03  0.00000000000E+00 0. -1.
         35    2    1    2    0    0  0.00000000000E+00  0.00000000000E+00 -0.87632390668E+03  0.91873051252E+03  0.27590245596E+03 0.  0.
         25    1    3    3    0    0  0.32333791699E+02 -0.52786650796E+02 -0.53226576379E+03  0.54912543912E+03  0.12000000000E+03 0.  0.
         25    1    3    3    0    0 -0.32333791699E+02  0.52786650796E+02 -0.34405814289E+03  0.36960507340E+03  0.12000000000E+03 0.  0.
<mgrwt>
<rscale>  0 0.27590246E+03</rscale>
<asrwt>0</asrwt>
<pdfrwt beam="1">  1        2 0.13808110E+00 0.27590246E+03</pdfrwt>
<pdfrwt beam="2">  1       -2 0.32620469E-02 0.27590246E+03</pdfrwt>
<totfact> 0.11361662E+04</totfact>
</mgrwt>
</event>
<event>
 5    1  0.1147887E+001  0.2749230E+03  0.7818608E-02  0.1098495E+00
          1   -1    0    0  501    0  0.00000000000E+00  0.00000000000E+00  0.26490148675E+03  0.26490148675E+03  0.00000000000E+00 0. -1.
         -1   -1    0    0    0  501 -0.00000000000E+00 -0.00000000000E+00 -0.71330902251E+02  0.71330902251E+02  0.00000000000E+00 0. -1.
         35    2    1    2    0    0  0.00000000000E+00  0.00000000000E+00  0.19357058450E+03  0.33623238900E+03  0.27492298600E+03 0.  0.
         25    1    3    3    0    0  0.54513327281E+02 -0.37515598882E+02  0.10998803694E+03  0.17571707737E+03  0.12000000000E+03 0.  0.
         25    1    3    3    0    0 -0.54513327281E+02  0.37515598882E+02  0.83582547560E+02  0.16051531163E+03  0.12000000000E+03 0.  0.
<mgrwt>
<rscale>  0 0.27492299E+03</rscale>
<asrwt>0</asrwt>
<pdfrwt beam="1">  1        1 0.40754074E-01 0.27492299E+03</pdfrwt>
<pdfrwt beam="2">  1       -1 0.10973985E-01 0.27492299E+03</pdfrwt>
<totfact> 0.53726629E+03</totfact>
</mgrwt>
</event>
<event>
 5    1  0.1147887E+001  0.2758772E+03  0.7818608E-02  0.1097962E+00
         -1   -1    0    0    0  501 -0.00000000000E+00  0.00000000000E+00  0.49474970839E+02  0.49474970839E+02  0.00000000000E+00 0. -1.
          1   -1    0    0  501    0  0.00000000000E+00 -0.00000000000E+00 -0.38457952268E+03  0.38457952268E+03  0.00000000000E+00 0. -1.
         35    2    1    2    0    0  0.00000000000E+00  0.00000000000E+00 -0.33510455184E+03  0.43405449352E+03  0.27587722392E+03 0.  0.
         25    1    3    3    0    0  0.32593166542E+02 -0.37395378899E+01 -0.26130614349E+03  0.28940836076E+03  0.12000000000E+03 0.  0.
         25    1    3    3    0    0 -0.32593166542E+02  0.37395378899E+01 -0.73798408352E+02  0.14464613277E+03  0.12000000000E+03 0.  0.
<mgrwt>
<rscale>  0 0.27587722E+03</rscale>
<asrwt>0</asrwt>
<pdfrwt beam="1">  1        1 0.59166079E-01 0.27587722E+03</pdfrwt>
<pdfrwt beam="2">  1       -1 0.76115342E-02 0.27587722E+03</pdfrwt>
<totfact> 0.58912067E+03</totfact>
</mgrwt>
</event>
<event>
 5    1  0.1147887E+001  0.2769402E+03  0.7818608E-02  0.1097372E+00
          2   -1    0    0  501    0  0.00000000000E+00  0.00000000000E+00  0.82435345628E+03  0.82435345628E+03  0.00000000000E+00 0.  1.
         -2   -1    0    0    0  501 -0.00000000000E+00 -0.00000000000E+00 -0.23259405957E+02  0.23259405957E+02  0.00000000000E+00 0.  1.
         35    2    1    2    0    0  0.00000000000E+00  0.00000000000E+00  0.80109405032E+03  0.84761286223E+03  0.27694022237E+03 0.  0.
         25    1    3    3    0    0 -0.35230172719E+02 -0.56517946659E+02  0.45686006988E+03  0.47702889516E+03  0.12000000000E+03 0.  0.
         25    1    3    3    0    0  0.35230172719E+02  0.56517946659E+02  0.34423398044E+03  0.37058396708E+03  0.12000000000E+03 0.  0.
<mgrwt>
<rscale>  0 0.27694022E+03</rscale>
<asrwt>0</asrwt>
<pdfrwt beam="1">  1        2 0.12682359E+00 0.27694022E+03</pdfrwt>
<pdfrwt beam="2">  1       -2 0.35783708E-02 0.27694022E+03</pdfrwt>
<totfact> 0.11062805E+04</totfact>
</mgrwt>
</event>
<event>
 5    1  0.1147887E+001  0.2747673E+03  0.7818608E-02  0.1098582E+00
          2   -1    0    0  501    0  0.00000000000E+00  0.00000000000E+00  0.63334802400E+03  0.63334802400E+03  0.00000000000E+00 0.  1.
         -2   -1    0    0    0  501 -0.00000000000E+00 -0.00000000000E+00 -0.29800774471E+02  0.29800774471E+02  0.00000000000E+00 0.  1.
         35    2    1    2    0    0  0.00000000000E+00  0.00000000000E+00  0.60354724953E+03  0.66314879847E+03  0.27476725878E+03 0.  0.
         25    1    3    3    0    0 -0.22605388483E+02 -0.47130698315E+02  0.20104230805E+03  0.23989646921E+03  0.12000000000E+03 0.  0.
         25    1    3    3    0    0  0.22605388483E+02  0.47130698315E+02  0.40250494148E+03  0.42325232926E+03  0.12000000000E+03 0.  0.
<mgrwt>
<rscale>  0 0.27476726E+03</rscale>
<asrwt>0</asrwt>
<pdfrwt beam="1">  1        2 0.97438148E-01 0.27476726E+03</pdfrwt>
<pdfrwt beam="2">  1       -2 0.45847350E-02 0.27476726E+03</pdfrwt>
<totfact> 0.10528937E+04</totfact>
</mgrwt>
</event>
<event>
 5    1  0.1147887E+001  0.2757903E+03  0.7818608E-02  0.1098011E+00
         -1   -1    0    0    0  501 -0.00000000000E+00  0.00000000000E+00  0.12192310039E+03  0.12192310039E+03  0.00000000000E+00 0. -1.
          1   -1    0    0  501    0  0.00000000000E+00 -0.00000000000E+00 -0.15595958312E+03  0.15595958312E+03  0.00000000000E+00 0. -1.
         35    2    1    2    0    0  0.00000000000E+00  0.00000000000E+00 -0.34036482731E+02  0.27788268351E+03  0.27579032549E+03 0.  0.
         25    1    3    3    0    0  0.52555183058E+02 -0.42484503776E+02 -0.10030528555E+02  0.13808545119E+03  0.12000000000E+03 0.  0.
         25    1    3    3    0    0 -0.52555183058E+02  0.42484503776E+02 -0.24005954176E+02  0.13979723232E+03  0.12000000000E+03 0.  0.
<mgrwt>
<rscale>  0 0.27579033E+03</rscale>
<asrwt>0</asrwt>
<pdfrwt beam="1">  1        1 0.23993782E-01 0.27579033E+03</pdfrwt>
<pdfrwt beam="2">  1       -1 0.18757400E-01 0.27579033E+03</pdfrwt>
<totfact> 0.44888886E+03</totfact>
</mgrwt>
</event>
<event>
 5    1  0.1147887E+001  0.2759514E+03  0.7818608E-02  0.1097921E+00
          1   -1    0    0  501    0  0.00000000000E+00  0.00000000000E+00  0.11190052159E+02  0.11190052159E+02  0.00000000000E+00 0. -1.
         -1   -1    0    0    0  501 -0.00000000000E+00 -0.00000000000E+00 -0.17012699068E+04  0.17012699068E+04  0.00000000000E+00 0. -1.
         35    2    1    2    0    0  0.00000000000E+00  0.00000000000E+00 -0.16900798547E+04  0.17124599590E+04  0.27595143771E+03 0.  0.
         25    1    3    3    0    0 -0.58439400591E+02  0.17923937283E+02 -0.65878047290E+03  0.67240474607E+03  0.12000000000E+03 0.  0.
         25    1    3    3    0    0  0.58439400591E+02 -0.17923937283E+02 -0.10312993818E+04  0.10400552129E+04  0.12000000000E+03 0.  0.
<mgrwt>
<rscale>  0 0.27595144E+03</rscale>
<asrwt>0</asrwt>
<pdfrwt beam="1">  1        1 0.17215462E-02 0.27595144E+03</pdfrwt>
<pdfrwt beam="2">  1       -1 0.26173388E+00 0.27595144E+03</pdfrwt>
<totfact> 0.50102163E+02</totfact>
</mgrwt>
</event>
<event>
 5    1  0.1147887E+001  0.2751252E+03  0.7818608E-02  0.1098382E+00
          1   -1    0    0  501    0  0.00000000000E+00  0.00000000000E+00  0.36440970153E+03  0.36440970153E+03  0.00000000000E+00 0. -1.
         -1   -1    0    0    0  501 -0.00000000000E+00 -0.00000000000E+00 -0.51929121001E+02  0.51929121001E+02  0.00000000000E+00 0. -1.
         35    2    1    2    0    0  0.00000000000E+00  0.00000000000E+00  0.31248058052E+03  0.41633882253E+03  0.27512524773E+03 0.  0.
         25    1    3    3    0    0 -0.19515747845E+02  0.64363018161E+02  0.15641258852E+03  0.20829872868E+03  0.12000000000E+03 0.  0.
         25    1    3    3    0    0  0.19515747845E+02 -0.64363018161E+02  0.15606799200E+03  0.20804009385E+03  0.12000000000E+03 0.  0.
<mgrwt>
<rscale>  0 0.27512525E+03</rscale>
<asrwt>0</asrwt>
<pdfrwt beam="1">  1        1 0.56063029E-01 0.27512525E+03</pdfrwt>
<pdfrwt beam="2">  1       -1 0.79890958E-02 0.27512525E+03</pdfrwt>
<totfact> 0.58601713E+03</totfact>
</mgrwt>
</event>
<event>
 5    1  0.1147887E+001  0.2754498E+03  0.7818608E-02  0.1098200E+00
          2   -1    0    0  501    0  0.00000000000E+00  0.00000000000E+00  0.17251240587E+03  0.17251240587E+03  0.00000000000E+00 0.  1.
         -2   -1    0    0    0  501 -0.00000000000E+00 -0.00000000000E+00 -0.10995237679E+03  0.10995237679E+03  0.00000000000E+00 0.  1.
         35    2    1    2    0    0  0.00000000000E+00  0.00000000000E+00  0.62560029083E+02  0.28246478266E+03  0.27544980705E+03 0.  0.
         25    1    3    3    0    0  0.26302127068E+02  0.41048890356E+02 -0.16723860776E+02  0.13060053908E+03  0.12000000000E+03 0.  0.
         25    1    3    3    0    0 -0.26302127068E+02 -0.41048890356E+02  0.79283889858E+02  0.15186424358E+03  0.12000000000E+03 0.  0.
<mgrwt>
<rscale>  0 0.27544981E+03</rscale>
<asrwt>0</asrwt>
<pdfrwt beam="1">  1        2 0.26540370E-01 0.27544981E+03</pdfrwt>
<pdfrwt beam="2">  1       -2 0.16915750E-01 0.27544981E+03</pdfrwt>
<totfact> 0.55859852E+03</totfact>
</mgrwt>
</event>
<event>
 5    1  0.1147887E+001  0.2747365E+03  0.7818608E-02  0.1098599E+00
         -2   -1    0    0    0  501 -0.00000000000E+00  0.00000000000E+00  0.36539549337E+02  0.36539549337E+02  0.00000000000E+00 0. -1.
          2   -1    0    0  501    0  0.00000000000E+00 -0.00000000000E+00 -0.51642763637E+03  0.51642763637E+03  0.00000000000E+00 0. -1.
         35    2    1    2    0    0  0.00000000000E+00  0.00000000000E+00 -0.47988808703E+03  0.55296718570E+03  0.27473647809E+03 0.  0.
         25    1    3    3    0    0  0.53268541216E+02 -0.21684138797E+02 -0.17132558104E+03  0.21693361675E+03  0.12000000000E+03 0.  0.
         25    1    3    3    0    0 -0.53268541216E+02  0.21684138797E+02 -0.30856250599E+03  0.33603356895E+03  0.12000000000E+03 0.  0.
<mgrwt>
<rscale>  0 0.27473648E+03</rscale>
<asrwt>0</asrwt>
<pdfrwt beam="1">  1        2 0.79450398E-01 0.27473648E+03</pdfrwt>
<pdfrwt beam="2">  1       -2 0.56214696E-02 0.27473648E+03</pdfrwt>
<totfact> 0.97636299E+03</totfact>
</mgrwt>
</event>
<event>
 5    1  0.1147887E+001  0.2752829E+03  0.7818608E-02  0.1098294E+00
         -4   -1    0    0    0  501 -0.00000000000E+00  0.00000000000E+00  0.47388856802E+03  0.47388856802E+03  0.00000000000E+00 0.  1.
          4   -1    0    0  501    0  0.00000000000E+00 -0.00000000000E+00 -0.39978117927E+02  0.39978117927E+02  0.00000000000E+00 0.  1.
         35    2    1    2    0    0  0.00000000000E+00  0.00000000000E+00  0.43391045009E+03  0.51386668594E+03  0.27528293123E+03 0.  0.
         25    1    3    3    0    0  0.73310202302E+01 -0.49738013413E+02  0.13310884355E+03  0.18613322666E+03  0.12000000000E+03 0.  0.
         25    1    3    3    0    0 -0.73310202302E+01  0.49738013413E+02  0.30080160654E+03  0.32773345929E+03  0.12000000000E+03 0.  0.
<mgrwt>
<rscale>  0 0.27528293E+03</rscale>
<asrwt>0</asrwt>
<pdfrwt beam="1">  1        4 0.61504800E-02 0.27528293E+03</pdfrwt>
<pdfrwt beam="2">  1       -4 0.72905930E-01 0.27528293E+03</pdfrwt>
<totfact> 0.55713189E+02</totfact>
</mgrwt>
</event>
<event>
 5    1  0.1147887E+001  0.2748726E+03  0.7818608E-02  0.1098523E+00
          2   -1    0    0  501    0  0.00000000000E+00  0.00000000000E+00  0.80197861403E+03  0.80197861403E+03  0.00000000000E+00 0. -1.
         -2   -1    0    0    0  501 -0.00000000000E+00 -0.00000000000E+00 -0.23552671854E+02  0.23552671854E+02  0.00000000000E+00 0. -1.
         35    2    1    2    0    0  0.00000000000E+00  0.00000000000E+00  0.77842594218E+03  0.82553128589E+03  0.27487261872E+03 0.  0.
         25    1    3    3    0    0  0.13524445024E+02 -0.60931395013E+02  0.46236060660E+03  0.48173942754E+03  0.12000000000E+03 0.  0.
         25    1    3    3    0    0 -0.13524445024E+02  0.60931395013E+02  0.31606533558E+03  0.34379185835E+03  0.12000000000E+03 0.  0.
<mgrwt>
<rscale>  0 0.27487262E+03</rscale>
<asrwt>0</asrwt>
<pdfrwt beam="1">  1        2 0.12338130E+00 0.27487262E+03</pdfrwt>
<pdfrwt beam="2">  1       -2 0.36234886E-02 0.27487262E+03</pdfrwt>
<totfact> 0.11243831E+04</totfact>
</mgrwt>
</event>
<event>
 5    1  0.1147887E+001  0.2742963E+03  0.7818608E-02  0.1098846E+00
          2   -1    0    0  501    0  0.00000000000E+00  0.00000000000E+00  0.20662234076E+04  0.20662234076E+04  0.00000000000E+00 0. -1.
         -2   -1    0    0    0  501 -0.00000000000E+00 -0.00000000000E+00 -0.91033780946E+01  0.91033780946E+01  0.00000000000E+00 0. -1.
         35    2    1    2    0    0  0.00000000000E+00  0.00000000000E+00  0.20571200295E+04  0.20753267857E+04  0.27429628439E+03 0.  0.
         25    1    3    3    0    0  0.80597184899E+01 -0.58701734793E+01  0.53183615500E+03  0.54529727100E+03  0.12000000000E+03 0.  0.
         25    1    3    3    0    0 -0.80597184899E+01  0.58701734793E+01  0.15252838745E+04  0.15300295147E+04  0.12000000000E+03 0.  0.
<mgrwt>
<rscale>  0 0.27429628E+03</rscale>
<asrwt>0</asrwt>
<pdfrwt beam="1">  1        2 0.31788015E+00 0.27429628E+03</pdfrwt>
<pdfrwt beam="2">  1       -2 0.14005214E-02 0.27429628E+03</pdfrwt>
<totfact> 0.89424975E+03</totfact>
</mgrwt>
</event>
<event>
 5    1  0.1147887E+001  0.2748646E+03  0.7818608E-02  0.1098527E+00
          2   -1    0    0  501    0  0.00000000000E+00  0.00000000000E+00  0.22868232325E+03  0.22868232325E+03  0.00000000000E+00 0. -1.
         -2   -1    0    0    0  501 -0.00000000000E+00 -0.00000000000E+00 -0.82593333843E+02  0.82593333843E+02  0.00000000000E+00 0. -1.
         35    2    1    2    0    0  0.00000000000E+00  0.00000000000E+00  0.14608898941E+03  0.31127565709E+03  0.27486458825E+03 0.  0.
         25    1    3    3    0    0 -0.35260886582E+02 -0.52033107157E+02  0.99284102374E+02  0.16795269378E+03  0.12000000000E+03 0.  0.
         25    1    3    3    0    0  0.35260886582E+02  0.52033107157E+02  0.46804887031E+02  0.14332296331E+03  0.12000000000E+03 0.  0.
<mgrwt>
<rscale>  0 0.27486459E+03</rscale>
<asrwt>0</asrwt>
<pdfrwt beam="1">  1        2 0.35181896E-01 0.27486459E+03</pdfrwt>
<pdfrwt beam="2">  1       -2 0.12706667E-01 0.27486459E+03</pdfrwt>
<totfact> 0.65715723E+03</totfact>
</mgrwt>
</event>
<event>
 5    1  0.1147887E+001  0.2751910E+03  0.7818608E-02  0.1098345E+00
         -2   -1    0    0    0  501 -0.00000000000E+00  0.00000000000E+00  0.14054264693E+02  0.14054264693E+02  0.00000000000E+00 0.  1.
          2   -1    0    0  501    0  0.00000000000E+00 -0.00000000000E+00 -0.13471014913E+04  0.13471014913E+04  0.00000000000E+00 0.  1.
         35    2    1    2    0    0  0.00000000000E+00  0.00000000000E+00 -0.13330472266E+04  0.13611557559E+04  0.27519099496E+03 0.  0.
         25    1    3    3    0    0 -0.39610538471E+02 -0.11403871032E+02 -0.92981310126E+03  0.93843030978E+03  0.12000000000E+03 0.  0.
         25    1    3    3    0    0  0.39610538471E+02  0.11403871032E+02 -0.40323412530E+03  0.42272544617E+03  0.12000000000E+03 0.  0.
<mgrwt>
<rscale>  0 0.27519099E+03</rscale>
<asrwt>0</asrwt>
<pdfrwt beam="1">  1        2 0.20724645E+00 0.27519099E+03</pdfrwt>
<pdfrwt beam="2">  1       -2 0.21621939E-02 0.27519099E+03</pdfrwt>
<totfact> 0.11378274E+04</totfact>
</mgrwt>
</event>
<event>
 5    1  0.1147887E+001  0.2759648E+03  0.7818608E-02  0.1097914E+00
         -1   -1    0    0    0  501 -0.00000000000E+00  0.00000000000E+00  0.60102763748E+02  0.60102763748E+02  0.00000000000E+00 0.  1.
          1   -1    0    0  501    0  0.00000000000E+00 -0.00000000000E+00 -0.31677653096E+03  0.31677653096E+03  0.00000000000E+00 0.  1.
         35    2    1    2    0    0  0.00000000000E+00  0.00000000000E+00 -0.25667376722E+03  0.37687929471E+03  0.27596481661E+03 0.  0.
         25    1    3    3    0    0 -0.65547803831E+02  0.54239375816E+01 -0.15250636234E+03  0.20490027877E+03  0.12000000000E+03 0.  0.
         25    1    3    3    0    0  0.65547803831E+02 -0.54239375816E+01 -0.10416740488E+03  0.17197901594E+03  0.12000000000E+03 0.  0.
<mgrwt>
<rscale>  0 0.27596482E+03</rscale>
<asrwt>0</asrwt>
<pdfrwt beam="1">  1        1 0.48734851E-01 0.27596482E+03</pdfrwt>
<pdfrwt beam="2">  1       -1 0.92465790E-02 0.27596482E+03</pdfrwt>
<totfact> 0.55930037E+03</totfact>
</mgrwt>
</event>
<event>
 5    1  0.1147887E+001  0.2725817E+03  0.7818608E-02  0.1099811E+00
          2   -1    0    0  501    0  0.00000000000E+00  0.00000000000E+00  0.63572866896E+01  0.63572866896E+01  0.00000000000E+00 0.  1.
         -2   -1    0    0    0  501 -0.00000000000E+00 -0.00000000000E+00 -0.29218754658E+04  0.29218754658E+04  0.00000000000E+00 0.  1.
         35    2    1    2    0    0  0.00000000000E+00  0.00000000000E+00 -0.29155181791E+04  0.29282327525E+04  0.27258173092E+03 0.  0.
         25    1    3    3    0    0 -0.22402554085E+02  0.55162851874E+02 -0.11880398633E+04  0.11955682881E+04  0.12000000000E+03 0.  0.
         25    1    3    3    0    0  0.22402554085E+02 -0.55162851874E+02 -0.17274783157E+04  0.17326644643E+04  0.12000000000E+03 0.  0.
<mgrwt>
<rscale>  0 0.27258173E+03</rscale>
<asrwt>0</asrwt>
<pdfrwt beam="1">  1        2 0.97804453E-03 0.27258173E+03</pdfrwt>
<pdfrwt beam="2">  1       -2 0.44951911E+00 0.27258173E+03</pdfrwt>
<totfact> 0.64072223E+01</totfact>
</mgrwt>
</event>
<event>
 5    1  0.1147887E+001  0.2758334E+03  0.7818608E-02  0.1097987E+00
         -2   -1    0    0    0  501 -0.00000000000E+00  0.00000000000E+00  0.35884719110E+02  0.35884719110E+02  0.00000000000E+00 0.  1.
          2   -1    0    0  501    0  0.00000000000E+00 -0.00000000000E+00 -0.53005877623E+03  0.53005877623E+03  0.00000000000E+00 0.  1.
         35    2    1    2    0    0  0.00000000000E+00  0.00000000000E+00 -0.49417405712E+03  0.56594349534E+03  0.27583335764E+03 0.  0.
         25    1    3    3    0    0 -0.39952595361E+01 -0.62294044927E+02 -0.19186078156E+03  0.23474895023E+03  0.12000000000E+03 0.  0.
         25    1    3    3    0    0  0.39952595361E+01  0.62294044927E+02 -0.30231327556E+03  0.33119454511E+03  0.12000000000E+03 0.  0.
<mgrwt>
<rscale>  0 0.27583336E+03</rscale>
<asrwt>0</asrwt>
<pdfrwt beam="1">  1        2 0.81547497E-01 0.27583336E+03</pdfrwt>
<pdfrwt beam="2">  1       -2 0.55207265E-02 0.27583336E+03</pdfrwt>
<totfact> 0.97479945E+03</totfact>
</mgrwt>
</event>
<event>
 5    1  0.1147887E+001  0.2746753E+03  0.7818608E-02  0.1098633E+00
         -2   -1    0    0    0  501 -0.00000000000E+00  0.00000000000E+00  0.15569188878E+02  0.15569188878E+02  0.00000000000E+00 0.  1.
          2   -1    0    0  501    0  0.00000000000E+00 -0.00000000000E+00 -0.12114717039E+04  0.12114717039E+04  0.00000000000E+00 0.  1.
         35    2    1    2    0    0  0.00000000000E+00  0.00000000000E+00 -0.11959025150E+04  0.12270408928E+04  0.27467531216E+03 0.  0.
         25    1    3    3    0    0  0.92608297621E+01  0.26985246291E+02 -0.86775433563E+03  0.87647678434E+03  0.12000000000E+03 0.  0.
         25    1    3    3    0    0 -0.92608297621E+01 -0.26985246291E+02 -0.32814817940E+03  0.35056410845E+03  0.12000000000E+03 0.  0.
<mgrwt>
<rscale>  0 0.27467531E+03</rscale>
<asrwt>0</asrwt>
<pdfrwt beam="1">  1        2 0.18638022E+00 0.27467531E+03</pdfrwt>
<pdfrwt beam="2">  1       -2 0.23952603E-02 0.27467531E+03</pdfrwt>
<totfact> 0.11639775E+04</totfact>
</mgrwt>
</event>
<event>
 5    1  0.1147887E+001  0.2754165E+03  0.7818608E-02  0.1098219E+00
          2   -1    0    0  501    0  0.00000000000E+00  0.00000000000E+00  0.11228669146E+04  0.11228669146E+04  0.00000000000E+00 0. -1.
         -2   -1    0    0    0  501 -0.00000000000E+00 -0.00000000000E+00 -0.16888516724E+02  0.16888516724E+02  0.00000000000E+00 0. -1.
         35    2    1    2    0    0  0.00000000000E+00  0.00000000000E+00  0.11059783979E+04  0.11397554313E+04  0.27541646041E+03 0.  0.
         25    1    3    3    0    0  0.63274236429E+01 -0.43100160082E+02  0.33931925975E+03  0.36253995659E+03  0.12000000000E+03 0.  0.
         25    1    3    3    0    0 -0.63274236429E+01  0.43100160082E+02  0.76665913811E+03  0.77721547471E+03  0.12000000000E+03 0.  0.
<mgrwt>
<rscale>  0 0.27541646E+03</rscale>
<asrwt>0</asrwt>
<pdfrwt beam="1">  1        2 0.17274870E+00 0.27541646E+03</pdfrwt>
<pdfrwt beam="2">  1       -2 0.25982342E-02 0.27541646E+03</pdfrwt>
<totfact> 0.11603058E+04</totfact>
</mgrwt>
</event>
<event>
 5    1  0.1147887E+001  0.2730603E+03  0.7818608E-02  0.1099541E+00
         -2   -1    0    0    0  501 -0.00000000000E+00  0.00000000000E+00  0.11033930962E+03  0.11033930962E+03  0.00000000000E+00 0.  1.
          2   -1    0    0  501    0  0.00000000000E+00 -0.00000000000E+00 -0.16893776898E+03  0.16893776898E+03  0.00000000000E+00 0.  1.
         35    2    1    2    0    0  0.00000000000E+00  0.00000000000E+00 -0.58598459364E+02  0.27927707860E+03  0.27306026293E+03 0.  0.
         25    1    3    3    0    0  0.10935855457E+02  0.48656363920E+02  0.13528248776E+02  0.13065239454E+03  0.12000000000E+03 0.  0.
         25    1    3    3    0    0 -0.10935855457E+02 -0.48656363920E+02 -0.72126708140E+02  0.14862468406E+03  0.12000000000E+03 0.  0.
<mgrwt>
<rscale>  0 0.27306026E+03</rscale>
<asrwt>0</asrwt>
<pdfrwt beam="1">  1        2 0.25990426E-01 0.27306026E+03</pdfrwt>
<pdfrwt beam="2">  1       -2 0.16975278E-01 0.27306026E+03</pdfrwt>
<totfact> 0.56822451E+03</totfact>
</mgrwt>
</event>
<event>
 5    1  0.1147887E+001  0.2755882E+03  0.7818608E-02  0.1098123E+00
         -2   -1    0    0    0  501 -0.00000000000E+00  0.00000000000E+00  0.59368941851E+02  0.59368941851E+02  0.00000000000E+00 0.  1.
          2   -1    0    0  501    0  0.00000000000E+00 -0.00000000000E+00 -0.31981718775E+03  0.31981718775E+03  0.00000000000E+00 0.  1.
         35    2    1    2    0    0  0.00000000000E+00  0.00000000000E+00 -0.26044824590E+03  0.37918612960E+03  0.27558815666E+03 0.  0.
         25    1    3    3    0    0  0.45835043222E+02  0.47182694148E+02 -0.10803173776E+03  0.17434997613E+03  0.12000000000E+03 0.  0.
         25    1    3    3    0    0 -0.45835043222E+02 -0.47182694148E+02 -0.15241650814E+03  0.20483615347E+03  0.12000000000E+03 0.  0.
<mgrwt>
<rscale>  0 0.27558816E+03</rscale>
<asrwt>0</asrwt>
<pdfrwt beam="1">  1        2 0.49202644E-01 0.27558816E+03</pdfrwt>
<pdfrwt beam="2">  1       -2 0.91336833E-02 0.27558816E+03</pdfrwt>
<totfact> 0.77630939E+03</totfact>
</mgrwt>
</event>
<event>
 5    1  0.1147887E+001  0.2746263E+03  0.7818608E-02  0.1098661E+00
         -2   -1    0    0    0  501 -0.00000000000E+00  0.00000000000E+00  0.42643483332E+02  0.42643483332E+02  0.00000000000E+00 0.  1.
          2   -1    0    0  501    0  0.00000000000E+00 -0.00000000000E+00 -0.44215195843E+03  0.44215195843E+03  0.00000000000E+00 0.  1.
         35    2    1    2    0    0  0.00000000000E+00  0.00000000000E+00 -0.39950847510E+03  0.48479544177E+03  0.27462628912E+03 0.  0.
         25    1    3    3    0    0 -0.65150649011E+02  0.14485891805E+02 -0.20094045772E+03  0.24337525691E+03  0.12000000000E+03 0.  0.
         25    1    3    3    0    0  0.65150649011E+02 -0.14485891805E+02 -0.19856801738E+03  0.24142018485E+03  0.12000000000E+03 0.  0.
<mgrwt>
<rscale>  0 0.27462629E+03</rscale>
<asrwt>0</asrwt>
<pdfrwt beam="1">  1        2 0.68023383E-01 0.27462629E+03</pdfrwt>
<pdfrwt beam="2">  1       -2 0.65605355E-02 0.27462629E+03</pdfrwt>
<totfact> 0.91521338E+03</totfact>
</mgrwt>
</event>
<event>
 5    1  0.1147887E+001  0.2736819E+03  0.7818608E-02  0.1099191E+00
         -2   -1    0    0    0  501 -0.00000000000E+00  0.00000000000E+00  0.11335252640E+02  0.11335252640E+02  0.00000000000E+00 0.  1.
          2   -1    0    0  501    0  0.00000000000E+00 -0.00000000000E+00 -0.16519650406E+04  0.16519650406E+04  0.00000000000E+00 0.  1.
         35    2    1    2    0    0  0.00000000000E+00  0.00000000000E+00 -0.16406297879E+04  0.16633002932E+04  0.27368186705E+03 0.  0.
         25    1    3    3    0    0  0.22633726957E+02  0.11572828033E+02 -0.11889552038E+04  0.11952659505E+04  0.12000000000E+03 0.  0.
         25    1    3    3    0    0 -0.22633726957E+02 -0.11572828033E+02 -0.45167458417E+03  0.46803434268E+03  0.12000000000E+03 0.  0.
<mgrwt>
<rscale>  0 0.27368187E+03</rscale>
<asrwt>0</asrwt>
<pdfrwt beam="1">  1        2 0.25414833E+00 0.27368187E+03</pdfrwt>
<pdfrwt beam="2">  1       -2 0.17438860E-02 0.27368187E+03</pdfrwt>
<totfact> 0.10711260E+04</totfact>
</mgrwt>
</event>
<event>
 5    1  0.1147887E+001  0.2738418E+03  0.7818608E-02  0.1099101E+00
         -1   -1    0    0    0  501 -0.00000000000E+00  0.00000000000E+00  0.34182264023E+02  0.34182264023E+02  0.00000000000E+00 0.  1.
          1   -1    0    0  501    0  0.00000000000E+00 -0.00000000000E+00 -0.54845198364E+03  0.54845198364E+03  0.00000000000E+00 0.  1.
         35    2    1    2    0    0  0.00000000000E+00  0.00000000000E+00 -0.51426971962E+03  0.58263424766E+03  0.27384178285E+03 0.  0.
         25    1    3    3    0    0  0.11012970711E+02 -0.56173817830E+02 -0.18752044119E+03  0.22987104907E+03  0.12000000000E+03 0.  0.
         25    1    3    3    0    0 -0.11012970711E+02  0.56173817830E+02 -0.32674927843E+03  0.35276319860E+03  0.12000000000E+03 0.  0.
<mgrwt>
<rscale>  0 0.27384178E+03</rscale>
<asrwt>0</asrwt>
<pdfrwt beam="1">  1        1 0.84377232E-01 0.27384178E+03</pdfrwt>
<pdfrwt beam="2">  1       -1 0.52588096E-02 0.27384178E+03</pdfrwt>
<totfact> 0.64684670E+03</totfact>
</mgrwt>
</event>
<event>
 5    1  0.1147887E+001  0.2746441E+03  0.7818608E-02  0.1098651E+00
          1   -1    0    0  501    0  0.00000000000E+00  0.00000000000E+00  0.91307395882E+03  0.91307395882E+03  0.00000000000E+00 0. -1.
         -1   -1    0    0    0  501 -0.00000000000E+00 -0.00000000000E+00 -0.20652593320E+02  0.20652593320E+02  0.00000000000E+00 0. -1.
         35    2    1    2    0    0  0.00000000000E+00  0.00000000000E+00  0.89242136550E+03  0.93372655214E+03  0.27464409801E+03 0.  0.
         25    1    3    3    0    0 -0.22297748578E+02 -0.54454004126E+02  0.33897412598E+03  0.36437053426E+03  0.12000000000E+03 0.  0.
         25    1    3    3    0    0  0.22297748578E+02  0.54454004126E+02  0.55344723953E+03  0.56935601788E+03  0.12000000000E+03 0.  0.
<mgrwt>
<rscale>  0 0.27464410E+03</rscale>
<asrwt>0</asrwt>
<pdfrwt beam="1">  1        1 0.14047289E+00 0.27464410E+03</pdfrwt>
<pdfrwt beam="2">  1       -1 0.31773228E-02 0.27464410E+03</pdfrwt>
<totfact> 0.64531416E+03</totfact>
</mgrwt>
</event>
<event>
 5    1  0.1147887E+001  0.2745850E+03  0.7818608E-02  0.1098684E+00
          2   -1    0    0  501    0  0.00000000000E+00  0.00000000000E+00  0.25019476112E+03  0.25019476112E+03  0.00000000000E+00 0.  1.
         -2   -1    0    0    0  501 -0.00000000000E+00 -0.00000000000E+00 -0.75338230137E+02  0.75338230137E+02  0.00000000000E+00 0.  1.
         35    2    1    2    0    0  0.00000000000E+00  0.00000000000E+00  0.17485653099E+03  0.32553299126E+03  0.27458499954E+03 0.  0.
         25    1    3    3    0    0  0.52076287574E+02 -0.13364530917E+02  0.13423374438E+03  0.18790755319E+03  0.12000000000E+03 0.  0.
         25    1    3    3    0    0 -0.52076287574E+02  0.13364530917E+02  0.40622786609E+02  0.13762543808E+03  0.12000000000E+03 0.  0.
<mgrwt>
<rscale>  0 0.27458500E+03</rscale>
<asrwt>0</asrwt>
<pdfrwt beam="1">  1        2 0.38491501E-01 0.27458500E+03</pdfrwt>
<pdfrwt beam="2">  1       -2 0.11590497E-01 0.27458500E+03</pdfrwt>
<totfact> 0.69168506E+03</totfact>
</mgrwt>
</event>
<event>
 5    1  0.1147887E+001  0.2755639E+03  0.7818608E-02  0.1098137E+00
         -1   -1    0    0    0  501 -0.00000000000E+00  0.00000000000E+00  0.17375741753E+02  0.17375741753E+02  0.00000000000E+00 0. -1.
          1   -1    0    0  501    0  0.00000000000E+00 -0.00000000000E+00 -0.10925498185E+04  0.10925498185E+04  0.00000000000E+00 0. -1.
         35    2    1    2    0    0  0.00000000000E+00  0.00000000000E+00 -0.10751740768E+04  0.11099255603E+04  0.27556388370E+03 0.  0.
         25    1    3    3    0    0  0.58427980514E+02 -0.30086003404E+02 -0.47203510949E+03  0.49146326525E+03  0.12000000000E+03 0.  0.
         25    1    3    3    0    0 -0.58427980514E+02  0.30086003404E+02 -0.60313896730E+03  0.61846229504E+03  0.12000000000E+03 0.  0.
<mgrwt>
<rscale>  0 0.27556388E+03</rscale>
<asrwt>0</asrwt>
<pdfrwt beam="1">  1        1 0.16808456E+00 0.27556388E+03</pdfrwt>
<pdfrwt beam="2">  1       -1 0.26731914E-02 0.27556388E+03</pdfrwt>
<totfact> 0.61095903E+03</totfact>
</mgrwt>
</event>
<event>
 5    1  0.1147887E+001  0.2751133E+03  0.7818608E-02  0.1098388E+00
          2   -1    0    0  501    0  0.00000000000E+00  0.00000000000E+00  0.95999231174E+03  0.95999231174E+03  0.00000000000E+00 0.  1.
         -2   -1    0    0    0  501 -0.00000000000E+00 -0.00000000000E+00 -0.19710397690E+02  0.19710397690E+02  0.00000000000E+00 0.  1.
         35    2    1    2    0    0  0.00000000000E+00  0.00000000000E+00  0.94028191405E+03  0.97970270943E+03  0.27511328753E+03 0.  0.
         25    1    3    3    0    0  0.44466601543E+02  0.50381026439E+02  0.46120002540E+03  0.48127018389E+03  0.12000000000E+03 0.  0.
         25    1    3    3    0    0 -0.44466601543E+02 -0.50381026439E+02  0.47908188865E+03  0.49843252553E+03  0.12000000000E+03 0.  0.
<mgrwt>
<rscale>  0 0.27511329E+03</rscale>
<asrwt>0</asrwt>
<pdfrwt beam="1">  1        2 0.14769109E+00 0.27511329E+03</pdfrwt>
<pdfrwt beam="2">  1       -2 0.30323696E-02 0.27511329E+03</pdfrwt>
<totfact> 0.11560284E+04</totfact>
</mgrwt>
</event>
<event>
 5    1  0.1147887E+001  0.2759042E+03  0.7818608E-02  0.1097947E+00
          2   -1    0    0  501    0  0.00000000000E+00  0.00000000000E+00  0.11367473807E+03  0.11367473807E+03  0.00000000000E+00 0. -1.
         -2   -1    0    0    0  501 -0.00000000000E+00 -0.00000000000E+00 -0.16741433478E+03  0.16741433478E+03  0.00000000000E+00 0. -1.
         35    2    1    2    0    0  0.00000000000E+00  0.00000000000E+00 -0.53739596706E+02  0.28108907285E+03  0.27590419102E+03 0.  0.
         25    1    3    3    0    0  0.67070417890E+02 -0.78096414021E+01 -0.35475379813E+02  0.14218978173E+03  0.12000000000E+03 0.  0.
         25    1    3    3    0    0 -0.67070417890E+02  0.78096414021E+01 -0.18264216893E+02  0.13889929112E+03  0.12000000000E+03 0.  0.
<mgrwt>
<rscale>  0 0.27590419E+03</rscale>
<asrwt>0</asrwt>
<pdfrwt beam="1">  1        2 0.17488421E-01 0.27590419E+03</pdfrwt>
<pdfrwt beam="2">  1       -2 0.25756051E-01 0.27590419E+03</pdfrwt>
<totfact> 0.43516558E+03</totfact>
</mgrwt>
</event>
<event>
 5    1  0.1147887E+001  0.2749150E+03  0.7818608E-02  0.1098499E+00
         -2   -1    0    0    0  501 -0.00000000000E+00  0.00000000000E+00  0.27897815038E+03  0.27897815038E+03  0.00000000000E+00 0. -1.
          2   -1    0    0  501    0  0.00000000000E+00 -0.00000000000E+00 -0.67727773509E+02  0.67727773509E+02  0.00000000000E+00 0. -1.
         35    2    1    2    0    0  0.00000000000E+00  0.00000000000E+00  0.21125037687E+03  0.34670592389E+03  0.27491503402E+03 0.  0.
         25    1    3    3    0    0  0.53688836550E+01 -0.64307084358E+02  0.82703568455E+02  0.15938665642E+03  0.12000000000E+03 0.  0.
         25    1    3    3    0    0 -0.53688836550E+01  0.64307084358E+02  0.12854680842E+03  0.18731926747E+03  0.12000000000E+03 0.  0.
<mgrwt>
<rscale>  0 0.27491503E+03</rscale>
<asrwt>0</asrwt>
<pdfrwt beam="1">  1        2 0.10419658E-01 0.27491503E+03</pdfrwt>
<pdfrwt beam="2">  1       -2 0.42919715E-01 0.27491503E+03</pdfrwt>
<totfact> 0.31501530E+03</totfact>
</mgrwt>
</event>
<event>
 5    1  0.1147887E+001  0.2744749E+03  0.7818608E-02  0.1098745E+00
          2   -1    0    0  501    0  0.00000000000E+00  0.00000000000E+00  0.68528047893E+03  0.68528047893E+03  0.00000000000E+00 0.  1.
         -2   -1    0    0    0  501 -0.00000000000E+00 -0.00000000000E+00 -0.27483805328E+02  0.27483805328E+02  0.00000000000E+00 0.  1.
         35    2    1    2    0    0  0.00000000000E+00  0.00000000000E+00  0.65779667361E+03  0.71276428426E+03  0.27447488248E+03 0.  0.
         25    1    3    3    0    0 -0.11100595524E+02 -0.62950773088E+02  0.28044870477E+03  0.31166889332E+03  0.12000000000E+03 0.  0.
         25    1    3    3    0    0  0.11100595524E+02  0.62950773088E+02  0.37734796883E+03  0.40109539094E+03  0.12000000000E+03 0.  0.
<mgrwt>
<rscale>  0 0.27447488E+03</rscale>
<asrwt>0</asrwt>
<pdfrwt beam="1">  1        2 0.10542775E+00 0.27447488E+03</pdfrwt>
<pdfrwt beam="2">  1       -2 0.42282782E-02 0.27447488E+03</pdfrwt>
<totfact> 0.10831584E+04</totfact>
</mgrwt>
</event>
<event>
 5    1  0.1147887E+001  0.2762779E+03  0.7818608E-02  0.1097739E+00
          2   -1    0    0  501    0  0.00000000000E+00  0.00000000000E+00  0.56751276229E+03  0.56751276229E+03  0.00000000000E+00 0.  1.
         -2   -1    0    0    0  501 -0.00000000000E+00 -0.00000000000E+00 -0.33624567177E+02  0.33624567177E+02  0.00000000000E+00 0.  1.
         35    2    1    2    0    0  0.00000000000E+00  0.00000000000E+00  0.53388819512E+03  0.60113732947E+03  0.27627791080E+03 0.  0.
         25    1    3    3    0    0 -0.59774992376E+02 -0.20954023545E+02  0.32327490872E+03  0.35059775730E+03  0.12000000000E+03 0.  0.
         25    1    3    3    0    0  0.59774992376E+02  0.20954023545E+02  0.21061328639E+03  0.25053957217E+03  0.12000000000E+03 0.  0.
<mgrwt>
<rscale>  0 0.27627791E+03</rscale>
<asrwt>0</asrwt>
<pdfrwt beam="1">  1        2 0.87309649E-01 0.27627791E+03</pdfrwt>
<pdfrwt beam="2">  1       -2 0.51730108E-02 0.27627791E+03</pdfrwt>
<totfact> 0.99602428E+03</totfact>
</mgrwt>
</event>
<event>
 5    1  0.1147887E+001  0.2752455E+03  0.7818608E-02  0.1098314E+00
         -3   -1    0    0    0  501 -0.00000000000E+00  0.00000000000E+00  0.36976226395E+03  0.36976226395E+03  0.00000000000E+00 0.  1.
          3   -1    0    0  501    0  0.00000000000E+00 -0.00000000000E+00 -0.51222173303E+02  0.51222173303E+02  0.00000000000E+00 0.  1.
         35    2    1    2    0    0  0.00000000000E+00  0.00000000000E+00  0.31854009064E+03  0.42098443725E+03  0.27524553958E+03 0.  0.
         25    1    3    3    0    0 -0.20493496563E+02 -0.30185592149E+02  0.72629327379E+02  0.14493506329E+03  0.12000000000E+03 0.  0.
         25    1    3    3    0    0  0.20493496563E+02  0.30185592149E+02  0.24591076327E+03  0.27604937396E+03  0.12000000000E+03 0.  0.
<mgrwt>
<rscale>  0 0.27524554E+03</rscale>
<asrwt>0</asrwt>
<pdfrwt beam="1">  1        3 0.78803346E-02 0.27524554E+03</pdfrwt>
<pdfrwt beam="2">  1       -3 0.56886500E-01 0.27524554E+03</pdfrwt>
<totfact> 0.85407185E+02</totfact>
</mgrwt>
</event>
<event>
 5    1  0.1147887E+001  0.2745507E+03  0.7818608E-02  0.1098703E+00
         -2   -1    0    0    0  501 -0.00000000000E+00  0.00000000000E+00  0.61176982707E+02  0.61176982707E+02  0.00000000000E+00 0. -1.
          2   -1    0    0  501    0  0.00000000000E+00 -0.00000000000E+00 -0.30803283216E+03  0.30803283216E+03  0.00000000000E+00 0. -1.
         35    2    1    2    0    0  0.00000000000E+00  0.00000000000E+00 -0.24685584946E+03  0.36920981487E+03  0.27455068200E+03 0.  0.
         25    1    3    3    0    0 -0.54294577421E+02 -0.31484352815E+02 -0.93197210462E+02  0.16439247442E+03  0.12000000000E+03 0.  0.
         25    1    3    3    0    0  0.54294577421E+02  0.31484352815E+02 -0.15365863899E+03  0.20481734045E+03  0.12000000000E+03 0.  0.
<mgrwt>
<rscale>  0 0.27455068E+03</rscale>
<asrwt>0</asrwt>
<pdfrwt beam="1">  1        2 0.47389667E-01 0.27455068E+03</pdfrwt>
<pdfrwt beam="2">  1       -2 0.94118434E-02 0.27455068E+03</pdfrwt>
<totfact> 0.77077914E+03</totfact>
</mgrwt>
</event>
<event>
 5    1  0.1147887E+001  0.2785622E+03  0.7818608E-02  0.1096477E+00
         -2   -1    0    0    0  501 -0.00000000000E+00  0.00000000000E+00  0.13409358830E+03  0.13409358830E+03  0.00000000000E+00 0. -1.
          2   -1    0    0  501    0  0.00000000000E+00 -0.00000000000E+00 -0.14466926721E+03  0.14466926721E+03  0.00000000000E+00 0. -1.
         35    2    1    2    0    0  0.00000000000E+00  0.00000000000E+00 -0.10575678915E+02  0.27876285551E+03  0.27856217372E+03 0.  0.
         25    1    3    3    0    0  0.38566145972E+02 -0.58890787387E+02  0.13312057903E+01  0.13913031504E+03  0.12000000000E+03 0.  0.
         25    1    3    3    0    0 -0.38566145972E+02  0.58890787387E+02 -0.11906884705E+02  0.13963254047E+03  0.12000000000E+03 0.  0.
<mgrwt>
<rscale>  0 0.27856217E+03</rscale>
<asrwt>0</asrwt>
<pdfrwt beam="1">  1        2 0.22256810E-01 0.27856217E+03</pdfrwt>
<pdfrwt beam="2">  1       -2 0.20629783E-01 0.27856217E+03</pdfrwt>
<totfact> 0.48616872E+03</totfact>
</mgrwt>
</event>
<event>
 5    1  0.1147887E+001  0.2745655E+03  0.7818608E-02  0.1098695E+00
          1   -1    0    0  501    0  0.00000000000E+00  0.00000000000E+00  0.18944023950E+04  0.18944023950E+04  0.00000000000E+00 0.  1.
         -1   -1    0    0    0  501 -0.00000000000E+00 -0.00000000000E+00 -0.99485483861E+01  0.99485483861E+01  0.00000000000E+00 0.  1.
         35    2    1    2    0    0  0.00000000000E+00  0.00000000000E+00  0.18844538466E+04  0.19043509434E+04  0.27456550322E+03 0.  0.
         25    1    3    3    0    0  0.63972933075E+02  0.18411049245E+02  0.96913505396E+03  0.97880246001E+03  0.12000000000E+03 0.  0.
         25    1    3    3    0    0 -0.63972933075E+02 -0.18411049245E+02  0.91531879262E+03  0.92554848335E+03  0.12000000000E+03 0.  0.
<mgrwt>
<rscale>  0 0.27456550E+03</rscale>
<asrwt>0</asrwt>
<pdfrwt beam="1">  1        1 0.29144624E+00 0.27456550E+03</pdfrwt>
<pdfrwt beam="2">  1       -1 0.15305474E-02 0.27456550E+03</pdfrwt>
<totfact> 0.40042426E+03</totfact>
</mgrwt>
</event>
<event>
 5    1  0.1147887E+001  0.2780009E+03  0.7818608E-02  0.1096786E+00
          3   -1    0    0  501    0  0.00000000000E+00  0.00000000000E+00  0.56238743534E+02  0.56238743534E+02  0.00000000000E+00 0.  1.
         -3   -1    0    0    0  501 -0.00000000000E+00 -0.00000000000E+00 -0.34355551452E+03  0.34355551452E+03  0.00000000000E+00 0.  1.
         35    2    1    2    0    0  0.00000000000E+00  0.00000000000E+00 -0.28731677098E+03  0.39979425805E+03  0.27800093863E+03 0.  0.
         25    1    3    3    0    0 -0.54241261484E+02 -0.25549972639E+01 -0.79788303110E+02  0.15399615505E+03  0.12000000000E+03 0.  0.
         25    1    3    3    0    0  0.54241261484E+02  0.25549972639E+01 -0.20752846787E+03  0.24579810299E+03  0.12000000000E+03 0.  0.
<mgrwt>
<rscale>  0 0.27800094E+03</rscale>
<asrwt>0</asrwt>
<pdfrwt beam="1">  1        3 0.86521143E-02 0.27800094E+03</pdfrwt>
<pdfrwt beam="2">  1       -3 0.52854695E-01 0.27800094E+03</pdfrwt>
<totfact> 0.85221337E+02</totfact>
</mgrwt>
</event>
<event>
 5    1  0.1147887E+001  0.2746951E+03  0.7818608E-02  0.1098622E+00
          2   -1    0    0  501    0  0.00000000000E+00  0.00000000000E+00  0.81953892727E+02  0.81953892727E+02  0.00000000000E+00 0. -1.
         -2   -1    0    0    0  501 -0.00000000000E+00 -0.00000000000E+00 -0.23018251071E+03  0.23018251071E+03  0.00000000000E+00 0. -1.
         35    2    1    2    0    0  0.00000000000E+00  0.00000000000E+00 -0.14822861798E+03  0.31213640344E+03  0.27469512402E+03 0.  0.
         25    1    3    3    0    0 -0.35702566418E+02 -0.42783951798E+02 -0.32221716920E+02  0.13617407544E+03  0.12000000000E+03 0.  0.
         25    1    3    3    0    0  0.35702566418E+02  0.42783951798E+02 -0.11600690106E+03  0.17596232800E+03  0.12000000000E+03 0.  0.
<mgrwt>
<rscale>  0 0.27469512E+03</rscale>
<asrwt>0</asrwt>
<pdfrwt beam="1">  1        2 0.12608291E-01 0.27469512E+03</pdfrwt>
<pdfrwt beam="2">  1       -2 0.35412693E-01 0.27469512E+03</pdfrwt>
<totfact> 0.35953771E+03</totfact>
</mgrwt>
</event>
<event>
 5    1  0.1147887E+001  0.2750878E+03  0.7818608E-02  0.1098403E+00
         -2   -1    0    0    0  501 -0.00000000000E+00  0.00000000000E+00  0.38504962820E+02  0.38504962820E+02  0.00000000000E+00 0.  1.
          2   -1    0    0  501    0  0.00000000000E+00 -0.00000000000E+00 -0.49132157271E+03  0.49132157271E+03  0.00000000000E+00 0.  1.
         35    2    1    2    0    0  0.00000000000E+00  0.00000000000E+00 -0.45281660989E+03  0.52982653553E+03  0.27508775974E+03 0.  0.
         25    1    3    3    0    0  0.47907838361E+02  0.28398590916E+02 -0.29890162762E+03  0.32686973542E+03  0.12000000000E+03 0.  0.
         25    1    3    3    0    0 -0.47907838361E+02 -0.28398590916E+02 -0.15391498228E+03  0.20295680011E+03  0.12000000000E+03 0.  0.
<mgrwt>
<rscale>  0 0.27508776E+03</rscale>
<asrwt>0</asrwt>
<pdfrwt beam="1">  1        2 0.75587929E-01 0.27508776E+03</pdfrwt>
<pdfrwt beam="2">  1       -2 0.59238408E-02 0.27508776E+03</pdfrwt>
<totfact> 0.95290077E+03</totfact>
</mgrwt>
</event>
<event>
 5    1  0.1147887E+001  0.2801345E+03  0.7818608E-02  0.1095616E+00
          4   -1    0    0  501    0  0.00000000000E+00  0.00000000000E+00  0.70479593356E+02  0.70479593356E+02  0.00000000000E+00 0.  1.
         -4   -1    0    0    0  501 -0.00000000000E+00 -0.00000000000E+00 -0.27836186226E+03  0.27836186226E+03  0.00000000000E+00 0.  1.
         35    2    1    2    0    0  0.00000000000E+00  0.00000000000E+00 -0.20788226890E+03  0.34884145561E+03  0.28013447383E+03 0.  0.
         25    1    3    3    0    0  0.52616342036E+02  0.45425736049E+02 -0.12843374234E+03  0.18901640965E+03  0.12000000000E+03 0.  0.
         25    1    3    3    0    0 -0.52616342036E+02 -0.45425736049E+02 -0.79448526558E+02  0.15982504596E+03  0.12000000000E+03 0.  0.
<mgrwt>
<rscale>  0 0.28013447E+03</rscale>
<asrwt>0</asrwt>
<pdfrwt beam="1">  1        4 0.10843014E-01 0.28013447E+03</pdfrwt>
<pdfrwt beam="2">  1       -4 0.42824902E-01 0.28013447E+03</pdfrwt>
<totfact> 0.65971780E+02</totfact>
</mgrwt>
</event>
<event>
 5    1  0.1147887E+001  0.2725951E+03  0.7818608E-02  0.1099803E+00
         -3   -1    0    0    0  501 -0.00000000000E+00  0.00000000000E+00  0.74721948762E+02  0.74721948762E+02  0.00000000000E+00 0. -1.
          3   -1    0    0  501    0  0.00000000000E+00 -0.00000000000E+00 -0.24861538965E+03  0.24861538965E+03  0.00000000000E+00 0. -1.
         35    2    1    2    0    0  0.00000000000E+00  0.00000000000E+00 -0.17389344088E+03  0.32333733841E+03  0.27259513133E+03 0.  0.
         25    1    3    3    0    0 -0.46108111845E+02  0.45078356063E+02 -0.92118399959E+02  0.16445004036E+03  0.12000000000E+03 0.  0.
         25    1    3    3    0    0  0.46108111845E+02 -0.45078356063E+02 -0.81775040925E+02  0.15888729805E+03  0.12000000000E+03 0.  0.
<mgrwt>
<rscale>  0 0.27259513E+03</rscale>
<asrwt>0</asrwt>
<pdfrwt beam="1">  1        3 0.38248521E-01 0.27259513E+03</pdfrwt>
<pdfrwt beam="2">  1       -3 0.11495685E-01 0.27259513E+03</pdfrwt>
<totfact> 0.10053839E+03</totfact>
</mgrwt>
</event>
<event>
 5    1  0.1147887E+001  0.2751728E+03  0.7818608E-02  0.1098355E+00
          1   -1    0    0  501    0  0.00000000000E+00  0.00000000000E+00  0.29442742069E+03  0.29442742069E+03  0.00000000000E+00 0.  1.
         -1   -1    0    0    0  501 -0.00000000000E+00 -0.00000000000E+00 -0.64294344719E+02  0.64294344719E+02  0.00000000000E+00 0.  1.
         35    2    1    2    0    0  0.00000000000E+00  0.00000000000E+00  0.23013307597E+03  0.35872176541E+03  0.27517280447E+03 0.  0.
         25    1    3    3    0    0 -0.36247504755E+02 -0.52681326773E+02  0.14243686901E+03  0.19691994679E+03  0.12000000000E+03 0.  0.
         25    1    3    3    0    0  0.36247504755E+02  0.52681326773E+02  0.87696206959E+02  0.16180181861E+03  0.12000000000E+03 0.  0.
<mgrwt>
<rscale>  0 0.27517280E+03</rscale>
<asrwt>0</asrwt>
<pdfrwt beam="1">  1        1 0.45296525E-01 0.27517280E+03</pdfrwt>
<pdfrwt beam="2">  1       -1 0.98914378E-02 0.27517280E+03</pdfrwt>
<totfact> 0.55265910E+03</totfact>
</mgrwt>
</event>
<event>
 5    1  0.1147887E+001  0.2746910E+03  0.7818608E-02  0.1098624E+00
         -4   -1    0    0    0  501 -0.00000000000E+00  0.00000000000E+00  0.34977357274E+03  0.34977357274E+03  0.00000000000E+00 0. -1.
          4   -1    0    0  501    0  0.00000000000E+00 -0.00000000000E+00 -0.53931422831E+02  0.53931422831E+02  0.00000000000E+00 0. -1.
         35    2    1    2    0    0  0.00000000000E+00  0.00000000000E+00  0.29584214991E+03  0.40370499558E+03  0.27469100056E+03 0.  0.
         25    1    3    3    0    0 -0.28560119689E+01  0.38562390546E+02  0.67846717559E+02  0.14317259463E+03  0.12000000000E+03 0.  0.
         25    1    3    3    0    0  0.28560119689E+01 -0.38562390546E+02  0.22799543235E+03  0.26053240095E+03  0.12000000000E+03 0.  0.
<mgrwt>
<rscale>  0 0.27469100E+03</rscale>
<asrwt>0</asrwt>
<pdfrwt beam="1">  1        4 0.82971422E-02 0.27469100E+03</pdfrwt>
<pdfrwt beam="2">  1       -4 0.53811317E-01 0.27469100E+03</pdfrwt>
<totfact> 0.64896010E+02</totfact>
</mgrwt>
</event>
<event>
 5    1  0.1147887E+001  0.2755655E+03  0.7818608E-02  0.1098136E+00
          2   -1    0    0  501    0  0.00000000000E+00  0.00000000000E+00  0.15426183951E+04  0.15426183951E+04  0.00000000000E+00 0. -1.
         -2   -1    0    0    0  501 -0.00000000000E+00 -0.00000000000E+00 -0.12306409075E+02  0.12306409075E+02  0.00000000000E+00 0. -1.
         35    2    1    2    0    0  0.00000000000E+00  0.00000000000E+00  0.15303119861E+04  0.15549248042E+04  0.27556554950E+03 0.  0.
         25    1    3    3    0    0 -0.46520081698E+02 -0.46637007634E+02  0.67684066703E+03  0.69054501448E+03  0.12000000000E+03 0.  0.
         25    1    3    3    0    0  0.46520081698E+02  0.46637007634E+02  0.85347131903E+03  0.86437978973E+03  0.12000000000E+03 0.  0.
<mgrwt>
<rscale>  0 0.27556555E+03</rscale>
<asrwt>0</asrwt>
<pdfrwt beam="1">  1        2 0.23732575E+00 0.27556555E+03</pdfrwt>
<pdfrwt beam="2">  1       -2 0.18932949E-02 0.27556555E+03</pdfrwt>
<totfact> 0.10850663E+04</totfact>
</mgrwt>
</event>
<event>
 5    1  0.1147887E+001  0.2765810E+03  0.7818608E-02  0.1097571E+00
         -2   -1    0    0    0  501 -0.00000000000E+00  0.00000000000E+00  0.24901207366E+02  0.24901207366E+02  0.00000000000E+00 0. -1.
          2   -1    0    0  501    0  0.00000000000E+00 -0.00000000000E+00 -0.76800530228E+03  0.76800530228E+03  0.00000000000E+00 0. -1.
         35    2    1    2    0    0  0.00000000000E+00  0.00000000000E+00 -0.74310409491E+03  0.79290650965E+03  0.27658097759E+03 0.  0.
         25    1    3    3    0    0 -0.37702274338E+02 -0.51331390600E+02 -0.29746353223E+03  0.32701823521E+03  0.12000000000E+03 0.  0.
         25    1    3    3    0    0  0.37702274338E+02  0.51331390600E+02 -0.44564056269E+03  0.46588827444E+03  0.12000000000E+03 0.  0.
<mgrwt>
<rscale>  0 0.27658098E+03</rscale>
<asrwt>0</asrwt>
<pdfrwt beam="1">  1        2 0.11815466E+00 0.27658098E+03</pdfrwt>
<pdfrwt beam="2">  1       -2 0.38309550E-02 0.27658098E+03</pdfrwt>
<totfact> 0.10926818E+04</totfact>
</mgrwt>
</event>
<event>
 5    1  0.1147887E+001  0.2757995E+03  0.7818608E-02  0.1098006E+00
          1   -1    0    0  501    0  0.00000000000E+00  0.00000000000E+00  0.31872809191E+03  0.31872809191E+03  0.00000000000E+00 0. -1.
         -1   -1    0    0    0  501 -0.00000000000E+00 -0.00000000000E+00 -0.59663226357E+02  0.59663226357E+02  0.00000000000E+00 0. -1.
         35    2    1    2    0    0  0.00000000000E+00  0.00000000000E+00  0.25906486555E+03  0.37839131827E+03  0.27579953803E+03 0.  0.
         25    1    3    3    0    0  0.21558787618E+02 -0.24269627659E+02  0.47642951138E+02  0.13313018795E+03  0.12000000000E+03 0.  0.
         25    1    3    3    0    0 -0.21558787618E+02  0.24269627659E+02  0.21142191442E+03  0.24526113032E+03  0.12000000000E+03 0.  0.
<mgrwt>
<rscale>  0 0.27579954E+03</rscale>
<asrwt>0</asrwt>
<pdfrwt beam="1">  1        1 0.49035090E-01 0.27579954E+03</pdfrwt>
<pdfrwt beam="2">  1       -1 0.91789581E-02 0.27579954E+03</pdfrwt>
<totfact> 0.56127879E+03</totfact>
</mgrwt>
</event>
<event>
 5    1  0.1147887E+001  0.2755450E+03  0.7818608E-02  0.1098147E+00
          2   -1    0    0  501    0  0.00000000000E+00  0.00000000000E+00  0.22280715774E+03  0.22280715774E+03  0.00000000000E+00 0. -1.
         -2   -1    0    0    0  501 -0.00000000000E+00 -0.00000000000E+00 -0.85191421620E+02  0.85191421620E+02  0.00000000000E+00 0. -1.
         35    2    1    2    0    0  0.00000000000E+00  0.00000000000E+00  0.13761573612E+03  0.30799857936E+03  0.27554497647E+03 0.  0.
         25    1    3    3    0    0  0.87818822458E+00 -0.65907748702E+02  0.86003373265E+02  0.16168235144E+03  0.12000000000E+03 0.  0.
         25    1    3    3    0    0 -0.87818822458E+00  0.65907748702E+02  0.51612362852E+02  0.14631622792E+03  0.12000000000E+03 0.  0.
<mgrwt>
<rscale>  0 0.27554498E+03</rscale>
<asrwt>0</asrwt>
<pdfrwt beam="1">  1        2 0.34278024E-01 0.27554498E+03</pdfrwt>
<pdfrwt beam="2">  1       -2 0.13106373E-01 0.27554498E+03</pdfrwt>
<totfact> 0.64285553E+03</totfact>
</mgrwt>
</event>
<event>
 5    1  0.1147887E+001  0.2742203E+03  0.7818608E-02  0.1098888E+00
          2   -1    0    0  501    0  0.00000000000E+00  0.00000000000E+00  0.57316977016E+03  0.57316977016E+03  0.00000000000E+00 0.  1.
         -2   -1    0    0    0  501 -0.00000000000E+00 -0.00000000000E+00 -0.32798647526E+02  0.32798647526E+02  0.00000000000E+00 0.  1.
         35    2    1    2    0    0  0.00000000000E+00  0.00000000000E+00  0.54037112264E+03  0.60596841769E+03  0.27422030023E+03 0.  0.
         25    1    3    3    0    0 -0.44394933645E+02  0.18501324711E+02  0.37111221786E+03  0.39298535264E+03  0.12000000000E+03 0.  0.
         25    1    3    3    0    0  0.44394933645E+02 -0.18501324711E+02  0.16925890478E+03  0.21298306505E+03  0.12000000000E+03 0.  0.
<mgrwt>
<rscale>  0 0.27422030E+03</rscale>
<asrwt>0</asrwt>
<pdfrwt beam="1">  1        2 0.88179957E-01 0.27422030E+03</pdfrwt>
<pdfrwt beam="2">  1       -2 0.50459462E-02 0.27422030E+03</pdfrwt>
<totfact> 0.10224306E+04</totfact>
</mgrwt>
</event>
<event>
 5    1  0.1147887E+001  0.2772313E+03  0.7818608E-02  0.1097211E+00
          2   -1    0    0  501    0  0.00000000000E+00  0.00000000000E+00  0.10462257557E+02  0.10462257557E+02  0.00000000000E+00 0.  1.
         -2   -1    0    0    0  501 -0.00000000000E+00 -0.00000000000E+00 -0.18365348268E+04  0.18365348268E+04  0.00000000000E+00 0.  1.
         35    2    1    2    0    0  0.00000000000E+00  0.00000000000E+00 -0.18260725692E+04  0.18469970843E+04  0.27723131404E+03 0.  0.
         25    1    3    3    0    0 -0.34633706810E+02 -0.33619626804E+01 -0.51310403464E+03  0.52809709979E+03  0.12000000000E+03 0.  0.
         25    1    3    3    0    0  0.34633706810E+02  0.33619626804E+01 -0.13129685346E+04  0.13188999845E+04  0.12000000000E+03 0.  0.
<mgrwt>
<rscale>  0 0.27723131E+03</rscale>
<asrwt>0</asrwt>
<pdfrwt beam="1">  1        2 0.16095770E-02 0.27723131E+03</pdfrwt>
<pdfrwt beam="2">  1       -2 0.28254401E+00 0.27723131E+03</pdfrwt>
<totfact> 0.34281877E+02</totfact>
</mgrwt>
</event>
<event>
 5    1  0.1147887E+001  0.2750061E+03  0.7818608E-02  0.1098448E+00
          2   -1    0    0  501    0  0.00000000000E+00  0.00000000000E+00  0.11904164127E+04  0.11904164127E+04  0.00000000000E+00 0.  1.
         -2   -1    0    0    0  501 -0.00000000000E+00 -0.00000000000E+00 -0.15882747387E+02  0.15882747387E+02  0.00000000000E+00 0.  1.
         35    2    1    2    0    0  0.00000000000E+00  0.00000000000E+00  0.11745336653E+04  0.12062991601E+04  0.27500605934E+03 0.  0.
         25    1    3    3    0    0 -0.64678040350E+02 -0.17949249715E+02  0.59291615783E+03  0.60865014144E+03  0.12000000000E+03 0.  0.
         25    1    3    3    0    0  0.64678040350E+02  0.17949249715E+02  0.58161750751E+03  0.59764901866E+03  0.12000000000E+03 0.  0.
<mgrwt>
<rscale>  0 0.27500606E+03</rscale>
<asrwt>0</asrwt>
<pdfrwt beam="1">  1        2 0.18314092E+00 0.27500606E+03</pdfrwt>
<pdfrwt beam="2">  1       -2 0.24435005E-02 0.27500606E+03</pdfrwt>
<totfact> 0.11617621E+04</totfact>
</mgrwt>
</event>
<event>
 5    1  0.1147887E+001  0.2755114E+03  0.7818608E-02  0.1098166E+00
         -1   -1    0    0    0  501 -0.00000000000E+00  0.00000000000E+00  0.21280774588E+02  0.21280774588E+02  0.00000000000E+00 0. -1.
          1   -1    0    0  501    0  0.00000000000E+00 -0.00000000000E+00 -0.89172636505E+03  0.89172636505E+03  0.00000000000E+00 0. -1.
         35    2    1    2    0    0  0.00000000000E+00  0.00000000000E+00 -0.87044559046E+03  0.91300713964E+03  0.27551136288E+03 0.  0.
         25    1    3    3    0    0 -0.21758230369E+02  0.63898038081E+02 -0.42031117780E+03  0.44228708555E+03  0.12000000000E+03 0.  0.
         25    1    3    3    0    0  0.21758230369E+02 -0.63898038081E+02 -0.45013441266E+03  0.47072005409E+03  0.12000000000E+03 0.  0.
<mgrwt>
<rscale>  0 0.27551136E+03</rscale>
<asrwt>0</asrwt>
<pdfrwt beam="1">  1        1 0.13718865E+00 0.27551136E+03</pdfrwt>
<pdfrwt beam="2">  1       -1 0.32739659E-02 0.27551136E+03</pdfrwt>
<totfact> 0.64168099E+03</totfact>
</mgrwt>
</event>
<event>
 4    1  0.1147887E+001  0.2579924E+03  0.7818608E-02  0.1108355E+00
          2   -1    0    0  501    0  0.00000000000E+00  0.00000000000E+00  0.29303445278E+03  0.29303445278E+03  0.00000000000E+00 0.  1.
         -2   -1    0    0    0  501 -0.00000000000E+00 -0.00000000000E+00 -0.56785183242E+02  0.56785183242E+02  0.00000000000E+00 0.  1.
         25    1    1    2    0    0 -0.17326999236E+02 -0.19034180191E+02  0.64270300453E+02  0.13853951219E+03  0.12000000000E+03 0.  0.
         25    1    1    2    0    0  0.17326999236E+02  0.19034180191E+02  0.17197896908E+03  0.21128012383E+03  0.12000000000E+03 0.  0.
<mgrwt>
<rscale>  0 0.25799236E+03</rscale>
<asrwt>0</asrwt>
<pdfrwt beam="1">  1        2 0.45082222E-01 0.25799236E+03</pdfrwt>
<pdfrwt beam="2">  1       -2 0.87361822E-02 0.25799236E+03</pdfrwt>
<totfact> 0.91223658E+03</totfact>
</mgrwt>
</event>
<event>
 4    1  0.1147887E+001  0.3032553E+03  0.7818608E-02  0.1083625E+00
          2   -1    0    0  501    0  0.00000000000E+00  0.00000000000E+00  0.44539084466E+02  0.44539084466E+02  0.00000000000E+00 0.  1.
         -2   -1    0    0    0  501 -0.00000000000E+00 -0.00000000000E+00 -0.51619720660E+03  0.51619720660E+03  0.00000000000E+00 0.  1.
         25    1    1    2    0    0  0.53915934496E+02 -0.27467831434E+02 -0.10600551936E+03  0.17116827945E+03  0.12000000000E+03 0.  0.
         25    1    1    2    0    0 -0.53915934496E+02  0.27467831434E+02 -0.36565260277E+03  0.38956801161E+03  0.12000000000E+03 0.  0.
<mgrwt>
<rscale>  0 0.30325534E+03</rscale>
<asrwt>0</asrwt>
<pdfrwt beam="1">  1        2 0.68521672E-02 0.30325534E+03</pdfrwt>
<pdfrwt beam="2">  1       -2 0.79414951E-01 0.30325534E+03</pdfrwt>
<totfact> 0.15065067E+03</totfact>
</mgrwt>
</event>
<event>
 5    1  0.1147887E+001  0.2751612E+03  0.7818608E-02  0.1098362E+00
         -2   -1    0    0    0  501 -0.00000000000E+00  0.00000000000E+00  0.12862374981E+03  0.12862374981E+03  0.00000000000E+00 0. -1.
          2   -1    0    0  501    0  0.00000000000E+00 -0.00000000000E+00 -0.14716115383E+03  0.14716115383E+03  0.00000000000E+00 0. -1.
         35    2    1    2    0    0  0.00000000000E+00  0.00000000000E+00 -0.18537404023E+02  0.27578490364E+03  0.27516118499E+03 0.  0.
         25    1    3    3    0    0  0.39666178154E+02 -0.22592397193E+02  0.40286241447E+02  0.13456152255E+03  0.12000000000E+03 0.  0.
         25    1    3    3    0    0 -0.39666178154E+02  0.22592397193E+02 -0.58823645470E+02  0.14122338109E+03  0.12000000000E+03 0.  0.
<mgrwt>
<rscale>  0 0.27516118E+03</rscale>
<asrwt>0</asrwt>
<pdfrwt beam="1">  1        2 0.22640177E-01 0.27516118E+03</pdfrwt>
<pdfrwt beam="2">  1       -2 0.19788269E-01 0.27516118E+03</pdfrwt>
<totfact> 0.51192166E+03</totfact>
</mgrwt>
</event>
<event>
 5    1  0.1147887E+001  0.2750939E+03  0.7818608E-02  0.1098399E+00
          2   -1    0    0  501    0  0.00000000000E+00  0.00000000000E+00  0.89223934805E+02  0.89223934805E+02  0.00000000000E+00 0.  1.
         -2   -1    0    0    0  501 -0.00000000000E+00 -0.00000000000E+00 -0.21204135322E+03  0.21204135322E+03  0.00000000000E+00 0.  1.
         35    2    1    2    0    0  0.00000000000E+00  0.00000000000E+00 -0.12281741841E+03  0.30126528802E+03  0.27509390306E+03 0.  0.
         25    1    3    3    0    0 -0.38362686932E+02  0.22386404690E+02 -0.11667042506E+03  0.17316129749E+03  0.12000000000E+03 0.  0.
         25    1    3    3    0    0  0.38362686932E+02 -0.22386404690E+02 -0.61469933507E+01  0.12810399053E+03  0.12000000000E+03 0.  0.
<mgrwt>
<rscale>  0 0.27509390E+03</rscale>
<asrwt>0</asrwt>
<pdfrwt beam="1">  1        2 0.13726759E-01 0.27509390E+03</pdfrwt>
<pdfrwt beam="2">  1       -2 0.32621747E-01 0.27509390E+03</pdfrwt>
<totfact> 0.37795878E+03</totfact>
</mgrwt>
</event>
<event>
 5    1  0.1147887E+001  0.2749273E+03  0.7818608E-02  0.1098492E+00
         -2   -1    0    0    0  501 -0.00000000000E+00  0.00000000000E+00  0.12704297533E+02  0.12704297533E+02  0.00000000000E+00 0. -1.
          2   -1    0    0  501    0  0.00000000000E+00 -0.00000000000E+00 -0.14873912313E+04  0.14873912313E+04  0.00000000000E+00 0. -1.
         35    2    1    2    0    0  0.00000000000E+00  0.00000000000E+00 -0.14746869338E+04  0.15000955289E+04  0.27492734132E+03 0.  0.
         25    1    3    3    0    0  0.65418804159E+02 -0.10946977060E+02 -0.68365898432E+03  0.69727258879E+03  0.12000000000E+03 0.  0.
         25    1    3    3    0    0 -0.65418804159E+02  0.10946977060E+02 -0.79102794947E+03  0.80282294006E+03  0.12000000000E+03 0.  0.
<mgrwt>
<rscale>  0 0.27492734E+03</rscale>
<asrwt>0</asrwt>
<pdfrwt beam="1">  1        2 0.22882939E+00 0.27492734E+03</pdfrwt>
<pdfrwt beam="2">  1       -2 0.19545076E-02 0.27492734E+03</pdfrwt>
<totfact> 0.11082420E+04</totfact>
</mgrwt>
</event>
<event>
 5    1  0.1147887E+001  0.2735635E+03  0.7818608E-02  0.1099257E+00
          2   -1    0    0  501    0  0.00000000000E+00  0.00000000000E+00  0.57017326195E+03  0.57017326195E+03  0.00000000000E+00 0. -1.
         -2   -1    0    0    0  501 -0.00000000000E+00 -0.00000000000E+00 -0.32813275666E+02  0.32813275666E+02  0.00000000000E+00 0. -1.
         35    2    1    2    0    0  0.00000000000E+00  0.00000000000E+00  0.53735998628E+03  0.60298653761E+03  0.27356353867E+03 0.  0.
         25    1    3    3    0    0 -0.53959108637E+02 -0.26052925931E+02  0.32777996716E+03  0.35416104702E+03  0.12000000000E+03 0.  0.
         25    1    3    3    0    0  0.53959108637E+02  0.26052925931E+02  0.20958001912E+03  0.24882549059E+03  0.12000000000E+03 0.  0.
<mgrwt>
<rscale>  0 0.27356354E+03</rscale>
<asrwt>0</asrwt>
<pdfrwt beam="1">  1        2 0.87718956E-01 0.27356354E+03</pdfrwt>
<pdfrwt beam="2">  1       -2 0.50481967E-02 0.27356354E+03</pdfrwt>
<totfact> 0.10278104E+04</totfact>
</mgrwt>
</event>
<event>
 5    1  0.1147887E+001  0.2742417E+03  0.7818608E-02  0.1098876E+00
         -2   -1    0    0    0  501 -0.00000000000E+00  0.00000000000E+00  0.13613697296E+02  0.13613697296E+02  0.00000000000E+00 0.  1.
          2   -1    0    0  501    0  0.00000000000E+00 -0.00000000000E+00 -0.13811183420E+04  0.13811183420E+04  0.00000000000E+00 0.  1.
         35    2    1    2    0    0  0.00000000000E+00  0.00000000000E+00 -0.13675046447E+04  0.13947320393E+04  0.27424169660E+03 0.  0.
         25    1    3    3    0    0 -0.25551939977E+02 -0.30647267796E+02 -0.41415960182E+03  0.43303617913E+03  0.12000000000E+03 0.  0.
         25    1    3    3    0    0  0.25551939977E+02  0.30647267796E+02 -0.95334504291E+03  0.96169586019E+03  0.12000000000E+03 0.  0.
<mgrwt>
<rscale>  0 0.27424170E+03</rscale>
<asrwt>0</asrwt>
<pdfrwt beam="1">  1        2 0.21247979E+00 0.27424170E+03</pdfrwt>
<pdfrwt beam="2">  1       -2 0.20944145E-02 0.27424170E+03</pdfrwt>
<totfact> 0.11424336E+04</totfact>
</mgrwt>
</event>
<event>
 5    1  0.1147887E+001  0.2775867E+03  0.7818608E-02  0.1097014E+00
          2   -1    0    0  501    0  0.00000000000E+00  0.00000000000E+00  0.70498070929E+03  0.70498070929E+03  0.00000000000E+00 0.  1.
         -2   -1    0    0    0  501 -0.00000000000E+00 -0.00000000000E+00 -0.27325001592E+02  0.27325001592E+02  0.00000000000E+00 0.  1.
         35    2    1    2    0    0  0.00000000000E+00  0.00000000000E+00  0.67765570769E+03  0.73230571088E+03  0.27758673602E+03 0.  0.
         25    1    3    3    0    0 -0.46098700903E+02 -0.47365232285E+02  0.28013092028E+03  0.31183631596E+03  0.12000000000E+03 0.  0.
         25    1    3    3    0    0  0.46098700903E+02  0.47365232285E+02  0.39752478742E+03  0.42046939492E+03  0.12000000000E+03 0.  0.
<mgrwt>
<rscale>  0 0.27758674E+03</rscale>
<asrwt>0</asrwt>
<pdfrwt beam="1">  1        2 0.10845856E+00 0.27758674E+03</pdfrwt>
<pdfrwt beam="2">  1       -2 0.42038469E-02 0.27758674E+03</pdfrwt>
<totfact> 0.10562292E+04</totfact>
</mgrwt>
</event>
<event>
 5    1  0.1147887E+001  0.2787038E+03  0.7818608E-02  0.1096399E+00
          2   -1    0    0  501    0  0.00000000000E+00  0.00000000000E+00  0.44294120224E+03  0.44294120224E+03  0.00000000000E+00 0. -1.
         -2   -1    0    0    0  501 -0.00000000000E+00 -0.00000000000E+00 -0.43840922353E+02  0.43840922353E+02  0.00000000000E+00 0. -1.
         35    2    1    2    0    0  0.00000000000E+00  0.00000000000E+00  0.39910027988E+03  0.48678212459E+03  0.27870379154E+03 0.  0.
         25    1    3    3    0    0  0.11599676984E+02 -0.27034743743E+02  0.31211425180E+03  0.33567951390E+03  0.12000000000E+03 0.  0.
         25    1    3    3    0    0 -0.11599676984E+02  0.27034743743E+02  0.86986028084E+02  0.15110261069E+03  0.12000000000E+03 0.  0.
<mgrwt>
<rscale>  0 0.27870379E+03</rscale>
<asrwt>0</asrwt>
<pdfrwt beam="1">  1        2 0.68144797E-01 0.27870379E+03</pdfrwt>
<pdfrwt beam="2">  1       -2 0.67447576E-02 0.27870379E+03</pdfrwt>
<totfact> 0.87568251E+03</totfact>
</mgrwt>
</event>
<event>
 5    1  0.1147887E+001  0.2751950E+03  0.7818608E-02  0.1098343E+00
          1   -1    0    0  501    0  0.00000000000E+00  0.00000000000E+00  0.11937619869E+04  0.11937619869E+04  0.00000000000E+00 0.  1.
         -1   -1    0    0    0  501 -0.00000000000E+00 -0.00000000000E+00 -0.15860008512E+02  0.15860008512E+02  0.00000000000E+00 0.  1.
         35    2    1    2    0    0  0.00000000000E+00  0.00000000000E+00  0.11779019784E+04  0.12096219954E+04  0.27519502374E+03 0.  0.
         25    1    3    3    0    0 -0.25238659063E+01  0.63416237214E+02  0.49016579364E+03  0.50861625445E+03  0.12000000000E+03 0.  0.
         25    1    3    3    0    0  0.25238659063E+01 -0.63416237214E+02  0.68773618475E+03  0.70100574096E+03  0.12000000000E+03 0.  0.
<mgrwt>
<rscale>  0 0.27519502E+03</rscale>
<asrwt>0</asrwt>
<pdfrwt beam="1">  1        1 0.18365562E+00 0.27519502E+03</pdfrwt>
<pdfrwt beam="2">  1       -1 0.24400022E-02 0.27519502E+03</pdfrwt>
<totfact> 0.59193904E+03</totfact>
</mgrwt>
</event>
<event>
 5    1  0.1147887E+001  0.2753788E+03  0.7818608E-02  0.1098240E+00
         -1   -1    0    0    0  501 -0.00000000000E+00  0.00000000000E+00  0.70788731704E+03  0.70788731704E+03  0.00000000000E+00 0.  1.
          1   -1    0    0  501    0  0.00000000000E+00 -0.00000000000E+00 -0.26781617311E+02  0.26781617311E+02  0.00000000000E+00 0.  1.
         35    2    1    2    0    0  0.00000000000E+00  0.00000000000E+00  0.68110569973E+03  0.73466893435E+03  0.27537877350E+03 0.  0.
         25    1    3    3    0    0  0.27033294398E+02  0.49180116440E+02  0.24041485534E+03  0.27449733246E+03  0.12000000000E+03 0.  0.
         25    1    3    3    0    0 -0.27033294398E+02 -0.49180116440E+02  0.44069084439E+03  0.46017160189E+03  0.12000000000E+03 0.  0.
<mgrwt>
<rscale>  0 0.27537877E+03</rscale>
<asrwt>0</asrwt>
<pdfrwt beam="1">  1        1 0.41202493E-02 0.27537877E+03</pdfrwt>
<pdfrwt beam="2">  1       -1 0.10890573E+00 0.27537877E+03</pdfrwt>
<totfact> 0.18096850E+03</totfact>
</mgrwt>
</event>
<event>
 5    1  0.1147887E+001  0.2738743E+03  0.7818608E-02  0.1099082E+00
         -2   -1    0    0    0  501 -0.00000000000E+00  0.00000000000E+00  0.98875619237E+01  0.98875619237E+01  0.00000000000E+00 0.  1.
          2   -1    0    0  501    0  0.00000000000E+00 -0.00000000000E+00 -0.18965025870E+04  0.18965025870E+04  0.00000000000E+00 0.  1.
         35    2    1    2    0    0  0.00000000000E+00  0.00000000000E+00 -0.18866150251E+04  0.19063901489E+04  0.27387432715E+03 0.  0.
         25    1    3    3    0    0 -0.61844069237E+00  0.22522154970E+02 -0.51172781091E+03  0.52609218051E+03  0.12000000000E+03 0.  0.
         25    1    3    3    0    0  0.61844069237E+00 -0.22522154970E+02 -0.13748872142E+04  0.13802979684E+04  0.12000000000E+03 0.  0.
<mgrwt>
<rscale>  0 0.27387433E+03</rscale>
<asrwt>0</asrwt>
<pdfrwt beam="1">  1        2 0.29176975E+00 0.27387433E+03</pdfrwt>
<pdfrwt beam="2">  1       -2 0.15211627E-02 0.27387433E+03</pdfrwt>
<totfact> 0.97328853E+03</totfact>
</mgrwt>
</event>
<event>
 5    1  0.1147887E+001  0.2773820E+03  0.7818608E-02  0.1097127E+00
         -2   -1    0    0    0  501 -0.00000000000E+00  0.00000000000E+00  0.27321421029E+03  0.27321421029E+03  0.00000000000E+00 0.  1.
          2   -1    0    0  501    0  0.00000000000E+00 -0.00000000000E+00 -0.70403337610E+02  0.70403337610E+02  0.00000000000E+00 0.  1.
         35    2    1    2    0    0  0.00000000000E+00  0.00000000000E+00  0.20281087268E+03  0.34361754790E+03  0.27738199139E+03 0.  0.
         25    1    3    3    0    0  0.40374601473E+01  0.42452673446E+02  0.16944482123E+03  0.21196716257E+03  0.12000000000E+03 0.  0.
         25    1    3    3    0    0 -0.40374601473E+01 -0.42452673446E+02  0.33366051446E+02  0.13165038532E+03  0.12000000000E+03 0.  0.
<mgrwt>
<rscale>  0 0.27738199E+03</rscale>
<asrwt>0</asrwt>
<pdfrwt beam="1">  1        2 0.10831283E-01 0.27738199E+03</pdfrwt>
<pdfrwt beam="2">  1       -2 0.42032955E-01 0.27738199E+03</pdfrwt>
<totfact> 0.31275036E+03</totfact>
</mgrwt>
</event>
<event>
 5    1  0.1147887E+001  0.2751046E+03  0.7818608E-02  0.1098393E+00
         -2   -1    0    0    0  501 -0.00000000000E+00  0.00000000000E+00  0.21501055189E+02  0.21501055189E+02  0.00000000000E+00 0.  1.
          2   -1    0    0  501    0  0.00000000000E+00 -0.00000000000E+00 -0.87998630363E+03  0.87998630363E+03  0.00000000000E+00 0.  1.
         35    2    1    2    0    0  0.00000000000E+00  0.00000000000E+00 -0.85848524844E+03  0.90148735882E+03  0.27510459160E+03 0.  0.
         25    1    3    3    0    0 -0.34057768045E+02  0.57971162106E+02 -0.42853312020E+03  0.45006801965E+03  0.12000000000E+03 0.  0.
         25    1    3    3    0    0  0.34057768045E+02 -0.57971162106E+02 -0.42995212824E+03  0.45141933917E+03  0.12000000000E+03 0.  0.
<mgrwt>
<rscale>  0 0.27510459E+03</rscale>
<asrwt>0</asrwt>
<pdfrwt beam="1">  1        2 0.13538248E+00 0.27510459E+03</pdfrwt>
<pdfrwt beam="2">  1       -2 0.33078552E-02 0.27510459E+03</pdfrwt>
<totfact> 0.11422670E+04</totfact>
</mgrwt>
</event>
<event>
 5    1  0.1147887E+001  0.2752813E+03  0.7818608E-02  0.1098294E+00
          2   -1    0    0  501    0  0.00000000000E+00  0.00000000000E+00  0.10695555424E+03  0.10695555424E+03  0.00000000000E+00 0. -1.
         -2   -1    0    0    0  501 -0.00000000000E+00 -0.00000000000E+00 -0.17712916791E+03  0.17712916791E+03  0.00000000000E+00 0. -1.
         35    2    1    2    0    0  0.00000000000E+00  0.00000000000E+00 -0.70173613663E+02  0.28408472215E+03  0.27528129850E+03 0.  0.
         25    1    3    3    0    0  0.14604228247E+02  0.63056949431E+02 -0.15629514501E+02  0.13723608883E+03  0.12000000000E+03 0.  0.
         25    1    3    3    0    0 -0.14604228247E+02 -0.63056949431E+02 -0.54544099162E+02  0.14684863332E+03  0.12000000000E+03 0.  0.
<mgrwt>
<rscale>  0 0.27528130E+03</rscale>
<asrwt>0</asrwt>
<pdfrwt beam="1">  1        2 0.16454701E-01 0.27528130E+03</pdfrwt>
<pdfrwt beam="2">  1       -2 0.27250641E-01 0.27528130E+03</pdfrwt>
<totfact> 0.42260065E+03</totfact>
</mgrwt>
</event>
<event>
 5    1  0.1147887E+001  0.2759894E+03  0.7818608E-02  0.1097900E+00
         -1   -1    0    0    0  501 -0.00000000000E+00  0.00000000000E+00  0.11751956464E+03  0.11751956464E+03  0.00000000000E+00 0.  1.
          1   -1    0    0  501    0  0.00000000000E+00 -0.00000000000E+00 -0.16203716167E+03  0.16203716167E+03  0.00000000000E+00 0.  1.
         35    2    1    2    0    0  0.00000000000E+00  0.00000000000E+00 -0.44517597022E+02  0.27955672631E+03  0.27598939614E+03 0.  0.
         25    1    3    3    0    0  0.39266808798E+02 -0.33158900346E+02  0.23053540013E+02  0.13256266689E+03  0.12000000000E+03 0.  0.
         25    1    3    3    0    0 -0.39266808798E+02  0.33158900346E+02 -0.67571137035E+02  0.14699405942E+03  0.12000000000E+03 0.  0.
<mgrwt>
<rscale>  0 0.27598940E+03</rscale>
<asrwt>0</asrwt>
<pdfrwt beam="1">  1        1 0.24928794E-01 0.27598940E+03</pdfrwt>
<pdfrwt beam="2">  1       -1 0.18079933E-01 0.27598940E+03</pdfrwt>
<totfact> 0.45369688E+03</totfact>
</mgrwt>
</event>
<event>
 5    1  0.1147887E+001  0.2754253E+03  0.7818608E-02  0.1098214E+00
         -2   -1    0    0    0  501 -0.00000000000E+00  0.00000000000E+00  0.32281543507E+02  0.32281543507E+02  0.00000000000E+00 0. -1.
          2   -1    0    0  501    0  0.00000000000E+00 -0.00000000000E+00 -0.58748025540E+03  0.58748025540E+03  0.00000000000E+00 0. -1.
         35    2    1    2    0    0  0.00000000000E+00  0.00000000000E+00 -0.55519871189E+03  0.61976179891E+03  0.27542526699E+03 0.  0.
         25    1    3    3    0    0  0.63142592433E+02  0.23772163998E+02 -0.26959083806E+03  0.30270666119E+03  0.12000000000E+03 0.  0.
         25    1    3    3    0    0 -0.63142592433E+02 -0.23772163998E+02 -0.28560787383E+03  0.31705513772E+03  0.12000000000E+03 0.  0.
<mgrwt>
<rscale>  0 0.27542527E+03</rscale>
<asrwt>0</asrwt>
<pdfrwt beam="1">  1        2 0.90381581E-01 0.27542527E+03</pdfrwt>
<pdfrwt beam="2">  1       -2 0.49663911E-02 0.27542527E+03</pdfrwt>
<totfact> 0.10182511E+04</totfact>
</mgrwt>
</event>
<event>
 5    1  0.1147887E+001  0.2747801E+03  0.7818608E-02  0.1098575E+00
         -1   -1    0    0    0  501 -0.00000000000E+00  0.00000000000E+00  0.44709939223E+02  0.44709939223E+02  0.00000000000E+00 0. -1.
          1   -1    0    0  501    0  0.00000000000E+00 -0.00000000000E+00 -0.42218870701E+03  0.42218870701E+03  0.00000000000E+00 0. -1.
         35    2    1    2    0    0  0.00000000000E+00  0.00000000000E+00 -0.37747876779E+03  0.46689864623E+03  0.27478014070E+03 0.  0.
         25    1    3    3    0    0  0.33641796021E+02  0.53942703810E+02 -0.22415583357E+03  0.26208285609E+03  0.12000000000E+03 0.  0.
         25    1    3    3    0    0 -0.33641796021E+02 -0.53942703810E+02 -0.15332293422E+03  0.20481579014E+03  0.12000000000E+03 0.  0.
<mgrwt>
<rscale>  0 0.27478014E+03</rscale>
<asrwt>0</asrwt>
<pdfrwt beam="1">  1        1 0.64952106E-01 0.27478014E+03</pdfrwt>
<pdfrwt beam="2">  1       -1 0.68784525E-02 0.27478014E+03</pdfrwt>
<totfact> 0.60951787E+03</totfact>
</mgrwt>
</event>
<event>
 5    1  0.1147887E+001  0.2731578E+03  0.7818608E-02  0.1099486E+00
          3   -1    0    0  501    0  0.00000000000E+00  0.00000000000E+00  0.36209616827E+02  0.36209616827E+02  0.00000000000E+00 0. -1.
         -3   -1    0    0    0  501 -0.00000000000E+00 -0.00000000000E+00 -0.51516120191E+03  0.51516120191E+03  0.00000000000E+00 0. -1.
         35    2    1    2    0    0  0.00000000000E+00  0.00000000000E+00 -0.47895158509E+03  0.55137081874E+03  0.27315775461E+03 0.  0.
         25    1    3    3    0    0 -0.33523474019E+01  0.63042468672E+02 -0.27253241865E+03  0.30440024689E+03  0.12000000000E+03 0.  0.
         25    1    3    3    0    0  0.33523474019E+01 -0.63042468672E+02 -0.20641916644E+03  0.24697057185E+03  0.12000000000E+03 0.  0.
<mgrwt>
<rscale>  0 0.27315775E+03</rscale>
<asrwt>0</asrwt>
<pdfrwt beam="1">  1        3 0.55707106E-02 0.27315775E+03</pdfrwt>
<pdfrwt beam="2">  1       -3 0.79255566E-01 0.27315775E+03</pdfrwt>
<totfact> 0.74075082E+02</totfact>
</mgrwt>
</event>
<event>
 5    1  0.1147887E+001  0.2726731E+03  0.7818608E-02  0.1099759E+00
         -2   -1    0    0    0  501 -0.00000000000E+00  0.00000000000E+00  0.33520124163E+02  0.33520124163E+02  0.00000000000E+00 0.  1.
          2   -1    0    0  501    0  0.00000000000E+00 -0.00000000000E+00 -0.55452224123E+03  0.55452224123E+03  0.00000000000E+00 0.  1.
         35    2    1    2    0    0  0.00000000000E+00  0.00000000000E+00 -0.52100211707E+03  0.58804236540E+03  0.27267309642E+03 0.  0.
         25    1    3    3    0    0 -0.41971727964E+01  0.58910173104E+02 -0.31754380411E+03  0.34456072365E+03  0.12000000000E+03 0.  0.
         25    1    3    3    0    0  0.41971727964E+01 -0.58910173104E+02 -0.20345831296E+03  0.24348164175E+03  0.12000000000E+03 0.  0.
<mgrwt>
<rscale>  0 0.27267310E+03</rscale>
<asrwt>0</asrwt>
<pdfrwt beam="1">  1        2 0.85311118E-01 0.27267310E+03</pdfrwt>
<pdfrwt beam="2">  1       -2 0.51569420E-02 0.27267310E+03</pdfrwt>
<totfact> 0.10270838E+04</totfact>
</mgrwt>
</event>
<event>
 5    1  0.1147887E+001  0.2753319E+03  0.7818608E-02  0.1098266E+00
          1   -1    0    0  501    0  0.00000000000E+00  0.00000000000E+00  0.11512285811E+03  0.11512285811E+03  0.00000000000E+00 0. -1.
         -1   -1    0    0    0  501 -0.00000000000E+00 -0.00000000000E+00 -0.16462342510E+03  0.16462342510E+03  0.00000000000E+00 0. -1.
         35    2    1    2    0    0  0.00000000000E+00  0.00000000000E+00 -0.49500566985E+02  0.27974628322E+03  0.27533193938E+03 0.  0.
         25    1    3    3    0    0  0.51490716144E+02  0.23691926578E+02  0.12433157744E+02  0.13329360317E+03  0.12000000000E+03 0.  0.
         25    1    3    3    0    0 -0.51490716144E+02 -0.23691926578E+02 -0.61933724730E+02  0.14645268005E+03  0.12000000000E+03 0.  0.
<mgrwt>
<rscale>  0 0.27533194E+03</rscale>
<asrwt>0</asrwt>
<pdfrwt beam="1">  1        1 0.17711209E-01 0.27533194E+03</pdfrwt>
<pdfrwt beam="2">  1       -1 0.25326681E-01 0.27533194E+03</pdfrwt>
<totfact> 0.40540879E+03</totfact>
</mgrwt>
</event>
<event>
 5    1  0.1147887E+001  0.2743853E+03  0.7818608E-02  0.1098796E+00
          2   -1    0    0  501    0  0.00000000000E+00  0.00000000000E+00  0.16267501235E+04  0.16267501235E+04  0.00000000000E+00 0.  1.
         -2   -1    0    0    0  501 -0.00000000000E+00 -0.00000000000E+00 -0.11570200856E+02  0.11570200856E+02  0.00000000000E+00 0.  1.
         35    2    1    2    0    0  0.00000000000E+00  0.00000000000E+00  0.16151799227E+04  0.16383203244E+04  0.27438531791E+03 0.  0.
         25    1    3    3    0    0 -0.28484449762E+02  0.42781695751E+02  0.55566516192E+03  0.57079366635E+03  0.12000000000E+03 0.  0.
         25    1    3    3    0    0  0.28484449762E+02 -0.42781695751E+02  0.10595147607E+04  0.10675266580E+04  0.12000000000E+03 0.  0.
<mgrwt>
<rscale>  0 0.27438532E+03</rscale>
<asrwt>0</asrwt>
<pdfrwt beam="1">  1        2 0.25026907E+00 0.27438532E+03</pdfrwt>
<pdfrwt beam="2">  1       -2 0.17800322E-02 0.27438532E+03</pdfrwt>
<totfact> 0.10717959E+04</totfact>
</mgrwt>
</event>
<event>
 5    1  0.1147887E+001  0.2745119E+03  0.7818608E-02  0.1098725E+00
          1   -1    0    0  501    0  0.00000000000E+00  0.00000000000E+00  0.12172641682E+02  0.12172641682E+02  0.00000000000E+00 0.  1.
         -1   -1    0    0    0  501 -0.00000000000E+00 -0.00000000000E+00 -0.15476673913E+04  0.15476673913E+04  0.00000000000E+00 0.  1.
         35    2    1    2    0    0  0.00000000000E+00  0.00000000000E+00 -0.15354947496E+04  0.15598400330E+04  0.27451193487E+03 0.  0.
         25    1    3    3    0    0 -0.43314684191E+02 -0.43187659264E+02 -0.91785559760E+03  0.92768541749E+03  0.12000000000E+03 0.  0.
         25    1    3    3    0    0  0.43314684191E+02  0.43187659264E+02 -0.61763915198E+03  0.63215461546E+03  0.12000000000E+03 0.  0.
<mgrwt>
<rscale>  0 0.27451193E+03</rscale>
<asrwt>0</asrwt>
<pdfrwt beam="1">  1        1 0.18727158E-02 0.27451193E+03</pdfrwt>
<pdfrwt beam="2">  1       -1 0.23810246E+00 0.27451193E+03</pdfrwt>
<totfact> 0.62665567E+02</totfact>
</mgrwt>
</event>
<event>
 4    1  0.1147887E+001  0.2930284E+03  0.7818608E-02  0.1088778E+00
          2   -1    0    0  501    0  0.00000000000E+00  0.00000000000E+00  0.79385908164E+03  0.79385908164E+03  0.00000000000E+00 0. -1.
         -2   -1    0    0    0  501 -0.00000000000E+00 -0.00000000000E+00 -0.27040584419E+02  0.27040584419E+02  0.00000000000E+00 0. -1.
         25    1    1    2    0    0  0.33928066682E+01  0.15030797528E+01  0.61867369032E+03  0.63021496768E+03  0.12000000000E+03 0.  0.
         25    1    1    2    0    0 -0.33928066682E+01 -0.15030797528E+01  0.14814480689E+03  0.19068469838E+03  0.12000000000E+03 0.  0.
<mgrwt>
<rscale>  0 0.29302842E+03</rscale>
<asrwt>0</asrwt>
<pdfrwt beam="1">  1        2 0.12213215E+00 0.29302842E+03</pdfrwt>
<pdfrwt beam="2">  1       -2 0.41600905E-02 0.29302842E+03</pdfrwt>
<totfact> 0.92734314E+03</totfact>
</mgrwt>
</event>
<event>
 5    1  0.1147887E+001  0.2753951E+03  0.7818608E-02  0.1098231E+00
          1   -1    0    0  501    0  0.00000000000E+00  0.00000000000E+00  0.89225722486E+03  0.89225722486E+03  0.00000000000E+00 0.  1.
         -1   -1    0    0    0  501 -0.00000000000E+00 -0.00000000000E+00 -0.21250172802E+02  0.21250172802E+02  0.00000000000E+00 0.  1.
         35    2    1    2    0    0  0.00000000000E+00  0.00000000000E+00  0.87100705206E+03  0.91350739766E+03  0.27539513585E+03 0.  0.
         25    1    3    3    0    0 -0.48711186237E+02 -0.31853052155E+02  0.54912128046E+03  0.56508546013E+03  0.12000000000E+03 0.  0.
         25    1    3    3    0    0  0.48711186237E+02  0.31853052155E+02  0.32188577160E+03  0.34842193753E+03  0.12000000000E+03 0.  0.
<mgrwt>
<rscale>  0 0.27539514E+03</rscale>
<asrwt>0</asrwt>
<pdfrwt beam="1">  1        1 0.13727031E+00 0.27539514E+03</pdfrwt>
<pdfrwt beam="2">  1       -1 0.32692580E-02 0.27539514E+03</pdfrwt>
<totfact> 0.64242167E+03</totfact>
</mgrwt>
</event>
<event>
 5    1  0.1147887E+001  0.2755314E+03  0.7818608E-02  0.1098155E+00
         -2   -1    0    0    0  501 -0.00000000000E+00  0.00000000000E+00  0.68882386136E+03  0.68882386136E+03  0.00000000000E+00 0.  1.
          2   -1    0    0  501    0  0.00000000000E+00 -0.00000000000E+00 -0.27553324036E+02  0.27553324036E+02  0.00000000000E+00 0.  1.
         35    2    1    2    0    0  0.00000000000E+00  0.00000000000E+00  0.66127053732E+03  0.71637718540E+03  0.27553139245E+03 0.  0.
         25    1    3    3    0    0 -0.25547702615E+02 -0.54322317358E+02  0.41185253127E+03  0.43315829299E+03  0.12000000000E+03 0.  0.
         25    1    3    3    0    0  0.25547702615E+02  0.54322317358E+02  0.24941800605E+03  0.28321889240E+03  0.12000000000E+03 0.  0.
<mgrwt>
<rscale>  0 0.27553139E+03</rscale>
<asrwt>0</asrwt>
<pdfrwt beam="1">  1        2 0.42389735E-02 0.27553139E+03</pdfrwt>
<pdfrwt beam="2">  1       -2 0.10597289E+00 0.27553139E+03</pdfrwt>
<totfact> 0.14658609E+03</totfact>
</mgrwt>
</event>
<event>
 5    1  0.1147887E+001  0.2752020E+03  0.7818608E-02  0.1098339E+00
         -2   -1    0    0    0  501 -0.00000000000E+00  0.00000000000E+00  0.15880404060E+02  0.15880404060E+02  0.00000000000E+00 0. -1.
          2   -1    0    0  501    0  0.00000000000E+00 -0.00000000000E+00 -0.11922896499E+04  0.11922896499E+04  0.00000000000E+00 0. -1.
         35    2    1    2    0    0  0.00000000000E+00  0.00000000000E+00 -0.11764092459E+04  0.12081700540E+04  0.27520204503E+03 0.  0.
         25    1    3    3    0    0 -0.37048268827E+02  0.56193474104E+02 -0.57969113664E+03  0.59579534629E+03  0.12000000000E+03 0.  0.
         25    1    3    3    0    0  0.37048268827E+02 -0.56193474104E+02 -0.59671810924E+03  0.61237470771E+03  0.12000000000E+03 0.  0.
<mgrwt>
<rscale>  0 0.27520205E+03</rscale>
<asrwt>0</asrwt>
<pdfrwt beam="1">  1        2 0.18342923E+00 0.27520205E+03</pdfrwt>
<pdfrwt beam="2">  1       -2 0.24431384E-02 0.27520205E+03</pdfrwt>
<totfact> 0.11591865E+04</totfact>
</mgrwt>
</event>
<event>
 5    1  0.1147887E+001  0.2752297E+03  0.7818608E-02  0.1098323E+00
          2   -1    0    0  501    0  0.00000000000E+00  0.00000000000E+00  0.10217903480E+03  0.10217903480E+03  0.00000000000E+00 0. -1.
         -2   -1    0    0    0  501 -0.00000000000E+00 -0.00000000000E+00 -0.18533989267E+03  0.18533989267E+03  0.00000000000E+00 0. -1.
         35    2    1    2    0    0  0.00000000000E+00  0.00000000000E+00 -0.83160857873E+02  0.28751892747E+03  0.27522973199E+03 0.  0.
         25    1    3    3    0    0 -0.53938569591E+02  0.21299462047E+02 -0.77386430668E+02  0.15411585261E+03  0.12000000000E+03 0.  0.
         25    1    3    3    0    0  0.53938569591E+02 -0.21299462047E+02 -0.57744272056E+01  0.13340307486E+03  0.12000000000E+03 0.  0.
<mgrwt>
<rscale>  0 0.27522973E+03</rscale>
<asrwt>0</asrwt>
<pdfrwt beam="1">  1        2 0.15719852E-01 0.27522973E+03</pdfrwt>
<pdfrwt beam="2">  1       -2 0.28513830E-01 0.27522973E+03</pdfrwt>
<totfact> 0.41108576E+03</totfact>
</mgrwt>
</event>
<event>
 5    1  0.1147887E+001  0.2746672E+03  0.7818608E-02  0.1098638E+00
          1   -1    0    0  501    0  0.00000000000E+00  0.00000000000E+00  0.13277969179E+04  0.13277969179E+04  0.00000000000E+00 0.  1.
         -1   -1    0    0    0  501 -0.00000000000E+00 -0.00000000000E+00 -0.14204367795E+02  0.14204367795E+02  0.00000000000E+00 0.  1.
         35    2    1    2    0    0  0.00000000000E+00  0.00000000000E+00  0.13135925501E+04  0.13420012857E+04  0.27466718609E+03 0.  0.
         25    1    3    3    0    0  0.99758040570E+00 -0.12148396401E+02  0.97763173413E+03  0.98504435752E+03  0.12000000000E+03 0.  0.
         25    1    3    3    0    0 -0.99758040570E+00  0.12148396401E+02  0.33596081595E+03  0.35695692815E+03  0.12000000000E+03 0.  0.
<mgrwt>
<rscale>  0 0.27466719E+03</rscale>
<asrwt>0</asrwt>
<pdfrwt beam="1">  1        1 0.20427635E+00 0.27466719E+03</pdfrwt>
<pdfrwt beam="2">  1       -1 0.21852884E-02 0.27466719E+03</pdfrwt>
<totfact> 0.56238049E+03</totfact>
</mgrwt>
</event>
<event>
 5    1  0.1147887E+001  0.2765768E+03  0.7818608E-02  0.1097573E+00
         -1   -1    0    0    0  501 -0.00000000000E+00  0.00000000000E+00  0.97218175743E+03  0.97218175743E+03  0.00000000000E+00 0.  1.
          1   -1    0    0  501    0  0.00000000000E+00 -0.00000000000E+00 -0.19670885245E+02  0.19670885245E+02  0.00000000000E+00 0.  1.
         35    2    1    2    0    0  0.00000000000E+00  0.00000000000E+00  0.95251087219E+03  0.99185264268E+03  0.27657675816E+03 0.  0.
         25    1    3    3    0    0 -0.35343888510E+01  0.63990144693E+02  0.38721675184E+03  0.41041935069E+03  0.12000000000E+03 0.  0.
         25    1    3    3    0    0  0.35343888510E+01 -0.63990144693E+02  0.56529412035E+03  0.58143329198E+03  0.12000000000E+03 0.  0.
<mgrwt>
<rscale>  0 0.27657676E+03</rscale>
<asrwt>0</asrwt>
<pdfrwt beam="1">  1        1 0.30262908E-02 0.27657676E+03</pdfrwt>
<pdfrwt beam="2">  1       -1 0.14956639E+00 0.27657676E+03</pdfrwt>
<totfact> 0.12823596E+03</totfact>
</mgrwt>
</event>
<event>
 5    1  0.1147887E+001  0.2749704E+03  0.7818608E-02  0.1098468E+00
         -1   -1    0    0    0  501 -0.00000000000E+00  0.00000000000E+00  0.33691837780E+02  0.33691837780E+02  0.00000000000E+00 0. -1.
          1   -1    0    0  501    0  0.00000000000E+00 -0.00000000000E+00 -0.56103161540E+03  0.56103161540E+03  0.00000000000E+00 0. -1.
         35    2    1    2    0    0  0.00000000000E+00  0.00000000000E+00 -0.52733977762E+03  0.59472345318E+03  0.27497044332E+03 0.  0.
         25    1    3    3    0    0 -0.24421920095E+02 -0.40403833389E+02 -0.36679302524E+03  0.38880075012E+03  0.12000000000E+03 0.  0.
         25    1    3    3    0    0  0.24421920095E+02  0.40403833389E+02 -0.16054675239E+03  0.20592270306E+03  0.12000000000E+03 0.  0.
<mgrwt>
<rscale>  0 0.27497044E+03</rscale>
<asrwt>0</asrwt>
<pdfrwt beam="1">  1        1 0.86312543E-01 0.27497044E+03</pdfrwt>
<pdfrwt beam="2">  1       -1 0.51833605E-02 0.27497044E+03</pdfrwt>
<totfact> 0.64102398E+03</totfact>
</mgrwt>
</event>
<event>
 5    1  0.1147887E+001  0.2755143E+03  0.7818608E-02  0.1098164E+00
         -2   -1    0    0    0  501 -0.00000000000E+00  0.00000000000E+00  0.49669413245E+01  0.49669413245E+01  0.00000000000E+00 0. -1.
          2   -1    0    0  501    0  0.00000000000E+00 -0.00000000000E+00 -0.38206690841E+04  0.38206690841E+04  0.00000000000E+00 0. -1.
         35    2    1    2    0    0  0.00000000000E+00  0.00000000000E+00 -0.38157021428E+04  0.38256360254E+04  0.27551434925E+03 0.  0.
         25    1    3    3    0    0 -0.21701148979E+02 -0.48251190304E+02 -0.24933360661E+04  0.24967827010E+04  0.12000000000E+03 0.  0.
         25    1    3    3    0    0  0.21701148979E+02  0.48251190304E+02 -0.13223660766E+04  0.13288533244E+04  0.12000000000E+03 0.  0.
<mgrwt>
<rscale>  0 0.27551435E+03</rscale>
<asrwt>0</asrwt>
<pdfrwt beam="1">  1        2 0.58779606E+00 0.27551435E+03</pdfrwt>
<pdfrwt beam="2">  1       -2 0.76414376E-03 0.27551435E+03</pdfrwt>
<totfact> 0.19159053E+03</totfact>
</mgrwt>
</event>
<event>
 5    1  0.1147887E+001  0.2740915E+03  0.7818608E-02  0.1098961E+00
          1   -1    0    0  501    0  0.00000000000E+00  0.00000000000E+00  0.33059316106E+02  0.33059316106E+02  0.00000000000E+00 0. -1.
         -1   -1    0    0    0  501 -0.00000000000E+00 -0.00000000000E+00 -0.56811615295E+03  0.56811615295E+03  0.00000000000E+00 0. -1.
         35    2    1    2    0    0  0.00000000000E+00  0.00000000000E+00 -0.53505683684E+03  0.60117546905E+03  0.27409145543E+03 0.  0.
         25    1    3    3    0    0 -0.25921001093E+02  0.13978368331E+02 -0.13750506452E+03  0.18486464196E+03  0.12000000000E+03 0.  0.
         25    1    3    3    0    0  0.25921001093E+02 -0.13978368331E+02 -0.39755177232E+03  0.41631082709E+03  0.12000000000E+03 0.  0.
<mgrwt>
<rscale>  0 0.27409146E+03</rscale>
<asrwt>0</asrwt>
<pdfrwt beam="1">  1        1 0.50860488E-02 0.27409146E+03</pdfrwt>
<pdfrwt beam="2">  1       -1 0.87402482E-01 0.27409146E+03</pdfrwt>
<totfact> 0.21958531E+03</totfact>
</mgrwt>
</event>
<event>
 5    1  0.1147887E+001  0.2740425E+03  0.7818608E-02  0.1098988E+00
         -1   -1    0    0    0  501 -0.00000000000E+00  0.00000000000E+00  0.48053001386E+03  0.48053001386E+03  0.00000000000E+00 0. -1.
          1   -1    0    0  501    0  0.00000000000E+00 -0.00000000000E+00 -0.39071072074E+02  0.39071072074E+02  0.00000000000E+00 0. -1.
         35    2    1    2    0    0  0.00000000000E+00  0.00000000000E+00  0.44145894178E+03  0.51960108593E+03  0.27404249893E+03 0.  0.
         25    1    3    3    0    0 -0.13665378048E+01 -0.55349836462E+02  0.15212061609E+03  0.20150968627E+03  0.12000000000E+03 0.  0.
         25    1    3    3    0    0  0.13665378048E+01  0.55349836462E+02  0.28933832569E+03  0.31809139966E+03  0.12000000000E+03 0.  0.
<mgrwt>
<rscale>  0 0.27404250E+03</rscale>
<asrwt>0</asrwt>
<pdfrwt beam="1">  1        1 0.60109345E-02 0.27404250E+03</pdfrwt>
<pdfrwt beam="2">  1       -1 0.73927690E-01 0.27404250E+03</pdfrwt>
<totfact> 0.24685095E+03</totfact>
</mgrwt>
</event>
<event>
 5    1  0.1147887E+001  0.2745187E+03  0.7818608E-02  0.1098721E+00
          1   -1    0    0  501    0  0.00000000000E+00  0.00000000000E+00  0.25660797176E+03  0.25660797176E+03  0.00000000000E+00 0.  1.
         -1   -1    0    0    0  501 -0.00000000000E+00 -0.00000000000E+00 -0.73419871669E+02  0.73419871669E+02  0.00000000000E+00 0.  1.
         35    2    1    2    0    0  0.00000000000E+00  0.00000000000E+00  0.18318810009E+03  0.33002784343E+03  0.27451866498E+03 0.  0.
         25    1    3    3    0    0  0.55838445882E+02 -0.19772655125E+02  0.54907386672E+02  0.14465030605E+03  0.12000000000E+03 0.  0.
         25    1    3    3    0    0 -0.55838445882E+02  0.19772655125E+02  0.12828071342E+03  0.18537753738E+03  0.12000000000E+03 0.  0.
<mgrwt>
<rscale>  0 0.27451866E+03</rscale>
<asrwt>0</asrwt>
<pdfrwt beam="1">  1        1 0.39478149E-01 0.27451866E+03</pdfrwt>
<pdfrwt beam="2">  1       -1 0.11295365E-01 0.27451866E+03</pdfrwt>
<totfact> 0.53456703E+03</totfact>
</mgrwt>
</event>
<event>
 5    1  0.1147887E+001  0.2751423E+03  0.7818608E-02  0.1098372E+00
          1   -1    0    0  501    0  0.00000000000E+00  0.00000000000E+00  0.33096189059E+03  0.33096189059E+03  0.00000000000E+00 0. -1.
         -1   -1    0    0    0  501 -0.00000000000E+00 -0.00000000000E+00 -0.57184298784E+02  0.57184298784E+02  0.00000000000E+00 0. -1.
         35    2    1    2    0    0  0.00000000000E+00  0.00000000000E+00  0.27377759181E+03  0.38814618938E+03  0.27514231690E+03 0.  0.
         25    1    3    3    0    0 -0.59324287302E+02 -0.31163235893E+02  0.14527099373E+03  0.19998544936E+03  0.12000000000E+03 0.  0.
         25    1    3    3    0    0  0.59324287302E+02  0.31163235893E+02  0.12850659808E+03  0.18816074002E+03  0.12000000000E+03 0.  0.
<mgrwt>
<rscale>  0 0.27514232E+03</rscale>
<asrwt>0</asrwt>
<pdfrwt beam="1">  1        1 0.50917213E-01 0.27514232E+03</pdfrwt>
<pdfrwt beam="2">  1       -1 0.87975846E-02 0.27514232E+03</pdfrwt>
<totfact> 0.57123851E+03</totfact>
</mgrwt>
</event>
<event>
 5    1  0.1147887E+001  0.2734950E+03  0.7818608E-02  0.1099296E+00
         -2   -1    0    0    0  501 -0.00000000000E+00  0.00000000000E+00  0.80105810074E+03  0.80105810074E+03  0.00000000000E+00 0. -1.
          2   -1    0    0  501    0  0.00000000000E+00 -0.00000000000E+00 -0.23343966533E+02  0.23343966533E+02  0.00000000000E+00 0. -1.
         35    2    1    2    0    0  0.00000000000E+00  0.00000000000E+00  0.77771413421E+03  0.82440206728E+03  0.27349496153E+03 0.  0.
         25    1    3    3    0    0 -0.52153761685E+02 -0.13931297951E+02  0.50106834461E+03  0.51805750828E+03  0.12000000000E+03 0.  0.
         25    1    3    3    0    0  0.52153761685E+02  0.13931297951E+02  0.27664578960E+03  0.30634455899E+03  0.12000000000E+03 0.  0.
<mgrwt>
<rscale>  0 0.27349496E+03</rscale>
<asrwt>0</asrwt>
<pdfrwt beam="1">  1        2 0.35913801E-02 0.27349496E+03</pdfrwt>
<pdfrwt beam="2">  1       -2 0.12323969E+00 0.27349496E+03</pdfrwt>
<totfact> 0.12752866E+03</totfact>
</mgrwt>
</event>
<event>
 5    1  0.1147887E+001  0.2740017E+03  0.7818608E-02  0.1099011E+00
          1   -1    0    0  501    0  0.00000000000E+00  0.00000000000E+00  0.36949240797E+03  0.36949240797E+03  0.00000000000E+00 0. -1.
         -1   -1    0    0    0  501 -0.00000000000E+00 -0.00000000000E+00 -0.50797330627E+02  0.50797330627E+02  0.00000000000E+00 0. -1.
         35    2    1    2    0    0  0.00000000000E+00  0.00000000000E+00  0.31869507735E+03  0.42028973860E+03  0.27400166431E+03 0.  0.
         25    1    3    3    0    0 -0.29145994840E+02 -0.57886841642E+02  0.13941560595E+03  0.19503098891E+03  0.12000000000E+03 0.  0.
         25    1    3    3    0    0  0.29145994840E+02  0.57886841642E+02  0.17927947139E+03  0.22525874969E+03  0.12000000000E+03 0.  0.
<mgrwt>
<rscale>  0 0.27400166E+03</rscale>
<asrwt>0</asrwt>
<pdfrwt beam="1">  1        1 0.56844984E-01 0.27400166E+03</pdfrwt>
<pdfrwt beam="2">  1       -1 0.78149742E-02 0.27400166E+03</pdfrwt>
<totfact> 0.59539328E+03</totfact>
</mgrwt>
</event>
<event>
 5    1  0.1147887E+001  0.2742109E+03  0.7818608E-02  0.1098893E+00
          1   -1    0    0  501    0  0.00000000000E+00  0.00000000000E+00  0.41213325162E+03  0.41213325162E+03  0.00000000000E+00 0. -1.
         -1   -1    0    0    0  501 -0.00000000000E+00 -0.00000000000E+00 -0.45611243869E+02  0.45611243869E+02  0.00000000000E+00 0. -1.
         35    2    1    2    0    0  0.00000000000E+00  0.00000000000E+00  0.36652200775E+03  0.45774449549E+03  0.27421094250E+03 0.  0.
         25    1    3    3    0    0 -0.64940285590E+02 -0.11818631784E+02  0.17257354045E+03  0.22031465592E+03  0.12000000000E+03 0.  0.
         25    1    3    3    0    0  0.64940285590E+02  0.11818631784E+02  0.19394846730E+03  0.23742983957E+03  0.12000000000E+03 0.  0.
<mgrwt>
<rscale>  0 0.27421094E+03</rscale>
<asrwt>0</asrwt>
<pdfrwt beam="1">  1        1 0.63405113E-01 0.27421094E+03</pdfrwt>
<pdfrwt beam="2">  1       -1 0.70171147E-02 0.27421094E+03</pdfrwt>
<totfact> 0.60996095E+03</totfact>
</mgrwt>
</event>
<event>
 5    1  0.1147887E+001  0.2791590E+03  0.7818608E-02  0.1096149E+00
         -4   -1    0    0    0  501 -0.00000000000E+00  0.00000000000E+00  0.52841665871E+03  0.52841665871E+03  0.00000000000E+00 0.  1.
          4   -1    0    0  501    0  0.00000000000E+00 -0.00000000000E+00 -0.36869464526E+02  0.36869464526E+02  0.00000000000E+00 0.  1.
         35    2    1    2    0    0  0.00000000000E+00  0.00000000000E+00  0.49154719418E+03  0.56528612323E+03  0.27915901743E+03 0.  0.
         25    1    3    3    0    0 -0.63726641517E+02  0.26593081051E+02  0.28166527848E+03  0.31385284116E+03  0.12000000000E+03 0.  0.
         25    1    3    3    0    0  0.63726641517E+02 -0.26593081051E+02  0.20988191570E+03  0.25143328208E+03  0.12000000000E+03 0.  0.
<mgrwt>
<rscale>  0 0.27915902E+03</rscale>
<asrwt>0</asrwt>
<pdfrwt beam="1">  1        4 0.56722257E-02 0.27915902E+03</pdfrwt>
<pdfrwt beam="2">  1       -4 0.81294865E-01 0.27915902E+03</pdfrwt>
<totfact> 0.50041700E+02</totfact>
</mgrwt>
</event>
<event>
 5    1  0.1147887E+001  0.2745208E+03  0.7818608E-02  0.1098720E+00
          2   -1    0    0  501    0  0.00000000000E+00  0.00000000000E+00  0.18482035256E+04  0.18482035256E+04  0.00000000000E+00 0.  1.
         -2   -1    0    0    0  501 -0.00000000000E+00 -0.00000000000E+00 -0.10193904678E+02  0.10193904678E+02  0.00000000000E+00 0.  1.
         35    2    1    2    0    0  0.00000000000E+00  0.00000000000E+00  0.18380096210E+04  0.18583974303E+04  0.27452075016E+03 0.  0.
         25    1    3    3    0    0 -0.18700176646E+02 -0.63029108532E+02  0.84545390516E+03  0.85645471034E+03  0.12000000000E+03 0.  0.
         25    1    3    3    0    0  0.18700176646E+02  0.63029108532E+02  0.99255571581E+03  0.10019427200E+04  0.12000000000E+03 0.  0.
<mgrwt>
<rscale>  0 0.27452075E+03</rscale>
<asrwt>0</asrwt>
<pdfrwt beam="1">  1        2 0.28433874E+00 0.27452075E+03</pdfrwt>
<pdfrwt beam="2">  1       -2 0.15682945E-02 0.27452075E+03</pdfrwt>
<totfact> 0.98675195E+03</totfact>
</mgrwt>
</event>
<event>
 5    1  0.1147887E+001  0.2745928E+03  0.7818608E-02  0.1098679E+00
          1   -1    0    0  501    0  0.00000000000E+00  0.00000000000E+00  0.32590138936E+04  0.32590138936E+04  0.00000000000E+00 0.  1.
         -1   -1    0    0    0  501 -0.00000000000E+00 -0.00000000000E+00 -0.57840500167E+01  0.57840500167E+01  0.00000000000E+00 0.  1.
         35    2    1    2    0    0  0.00000000000E+00  0.00000000000E+00  0.32532298436E+04  0.32647979436E+04  0.27459278480E+03 0.  0.
         25    1    3    3    0    0 -0.80691447085E+01  0.28941616133E+02  0.23347771233E+04  0.23380519549E+04  0.12000000000E+03 0.  0.
         25    1    3    3    0    0  0.80691447085E+01 -0.28941616133E+02  0.91845272027E+03  0.92674598873E+03  0.12000000000E+03 0.  0.
<mgrwt>
<rscale>  0 0.27459278E+03</rscale>
<asrwt>0</asrwt>
<pdfrwt beam="1">  1        1 0.50138529E+00 0.27459278E+03</pdfrwt>
<pdfrwt beam="2">  1       -1 0.88985645E-03 0.27459278E+03</pdfrwt>
<totfact> 0.10537971E+03</totfact>
</mgrwt>
</event>
<event>
 5    1  0.1147887E+001  0.2753930E+03  0.7818608E-02  0.1098232E+00
         -2   -1    0    0    0  501 -0.00000000000E+00  0.00000000000E+00  0.46126394339E+02  0.46126394339E+02  0.00000000000E+00 0.  1.
          2   -1    0    0  501    0  0.00000000000E+00 -0.00000000000E+00 -0.41105141584E+03  0.41105141584E+03  0.00000000000E+00 0.  1.
         35    2    1    2    0    0  0.00000000000E+00  0.00000000000E+00 -0.36492502150E+03  0.45717781018E+03  0.27539295344E+03 0.  0.
         25    1    3    3    0    0 -0.59279140979E+02 -0.31252520391E+02 -0.19631042136E+03  0.23964247979E+03  0.12000000000E+03 0.  0.
         25    1    3    3    0    0  0.59279140979E+02  0.31252520391E+02 -0.16861460014E+03  0.21753533039E+03  0.12000000000E+03 0.  0.
<mgrwt>
<rscale>  0 0.27539295E+03</rscale>
<asrwt>0</asrwt>
<pdfrwt beam="1">  1        2 0.63238678E-01 0.27539295E+03</pdfrwt>
<pdfrwt beam="2">  1       -2 0.70963686E-02 0.27539295E+03</pdfrwt>
<totfact> 0.87801832E+03</totfact>
</mgrwt>
</event>
<event>
 5    1  0.1147887E+001  0.2743023E+03  0.7818608E-02  0.1098842E+00
          1   -1    0    0  501    0  0.00000000000E+00  0.00000000000E+00  0.88789139724E+03  0.88789139724E+03  0.00000000000E+00 0. -1.
         -1   -1    0    0    0  501 -0.00000000000E+00 -0.00000000000E+00 -0.21185510992E+02  0.21185510992E+02  0.00000000000E+00 0. -1.
         35    2    1    2    0    0  0.00000000000E+00  0.00000000000E+00  0.86670588625E+03  0.90907690824E+03  0.27430226362E+03 0.  0.
         25    1    3    3    0    0 -0.46687339216E+02  0.47141782161E+02  0.42376040956E+03  0.44539301744E+03  0.12000000000E+03 0.  0.
         25    1    3    3    0    0  0.46687339216E+02 -0.47141782161E+02  0.44294547669E+03  0.46368389080E+03  0.12000000000E+03 0.  0.
<mgrwt>
<rscale>  0 0.27430226E+03</rscale>
<asrwt>0</asrwt>
<pdfrwt beam="1">  1        1 0.13659865E+00 0.27430226E+03</pdfrwt>
<pdfrwt beam="2">  1       -1 0.32593101E-02 0.27430226E+03</pdfrwt>
<totfact> 0.65040844E+03</totfact>
</mgrwt>
</event>
<event>
 5    1  0.1147887E+001  0.2753346E+03  0.7818608E-02  0.1098265E+00
         -1   -1    0    0    0  501 -0.00000000000E+00  0.00000000000E+00  0.74261184149E+02  0.74261184149E+02  0.00000000000E+00 0. -1.
          1   -1    0    0  501    0  0.00000000000E+00 -0.00000000000E+00 -0.25521126227E+03  0.25521126227E+03  0.00000000000E+00 0. -1.
         35    2    1    2    0    0  0.00000000000E+00  0.00000000000E+00 -0.18095007812E+03  0.32947244642E+03  0.27533463672E+03 0.  0.
         25    1    3    3    0    0 -0.13533984538E+02 -0.60331143994E+02 -0.58160060149E+02  0.14698846305E+03  0.12000000000E+03 0.  0.
         25    1    3    3    0    0  0.13533984538E+02  0.60331143994E+02 -0.12279001797E+03  0.18248398337E+03  0.12000000000E+03 0.  0.
<mgrwt>
<rscale>  0 0.27533464E+03</rscale>
<asrwt>0</asrwt>
<pdfrwt beam="1">  1        1 0.39263271E-01 0.27533464E+03</pdfrwt>
<pdfrwt beam="2">  1       -1 0.11424798E-01 0.27533464E+03</pdfrwt>
<totfact> 0.52882991E+03</totfact>
</mgrwt>
</event>
<event>
 5    1  0.1147887E+001  0.2758151E+03  0.7818608E-02  0.1097997E+00
         -2   -1    0    0    0  501 -0.00000000000E+00  0.00000000000E+00  0.98035344352E+02  0.98035344352E+02  0.00000000000E+00 0. -1.
          2   -1    0    0  501    0  0.00000000000E+00 -0.00000000000E+00 -0.19399634344E+03  0.19399634344E+03  0.00000000000E+00 0. -1.
         35    2    1    2    0    0  0.00000000000E+00  0.00000000000E+00 -0.95960999087E+02  0.29203168779E+03  0.27581514340E+03 0.  0.
         25    1    3    3    0    0  0.26074952566E+02  0.25837012525E+02  0.12575205097E+02  0.12611736657E+03  0.12000000000E+03 0.  0.
         25    1    3    3    0    0 -0.26074952566E+02 -0.25837012525E+02 -0.10853620418E+03  0.16591432122E+03  0.12000000000E+03 0.  0.
<mgrwt>
<rscale>  0 0.27581514E+03</rscale>
<asrwt>0</asrwt>
<pdfrwt beam="1">  1        2 0.29845591E-01 0.27581514E+03</pdfrwt>
<pdfrwt beam="2">  1       -2 0.15082361E-01 0.27581514E+03</pdfrwt>
<totfact> 0.59393634E+03</totfact>
</mgrwt>
</event>
<event>
 5    1  0.1147887E+001  0.2749991E+03  0.7818608E-02  0.1098452E+00
          3   -1    0    0  501    0  0.00000000000E+00  0.00000000000E+00  0.20220643990E+03  0.20220643990E+03  0.00000000000E+00 0. -1.
         -3   -1    0    0    0  501 -0.00000000000E+00 -0.00000000000E+00 -0.93499154075E+02  0.93499154075E+02  0.00000000000E+00 0. -1.
         35    2    1    2    0    0  0.00000000000E+00  0.00000000000E+00  0.10870728583E+03  0.29570559398E+03  0.27499913512E+03 0.  0.
         25    1    3    3    0    0  0.27311538429E+02  0.43911314318E+02  0.83288517216E+01  0.13093316397E+03  0.12000000000E+03 0.  0.
         25    1    3    3    0    0 -0.27311538429E+02 -0.43911314318E+02  0.10037843410E+03  0.16477243000E+03  0.12000000000E+03 0.  0.
<mgrwt>
<rscale>  0 0.27499914E+03</rscale>
<asrwt>0</asrwt>
<pdfrwt beam="1">  1        3 0.31108683E-01 0.27499914E+03</pdfrwt>
<pdfrwt beam="2">  1       -3 0.14384485E-01 0.27499914E+03</pdfrwt>
<totfact> 0.10179571E+03</totfact>
</mgrwt>
</event>
<event>
 5    1  0.1147887E+001  0.2754990E+03  0.7818608E-02  0.1098173E+00
          1   -1    0    0  501    0  0.00000000000E+00  0.00000000000E+00  0.84032639509E+02  0.84032639509E+02  0.00000000000E+00 0. -1.
         -1   -1    0    0    0  501 -0.00000000000E+00 -0.00000000000E+00 -0.22580415038E+03  0.22580415038E+03  0.00000000000E+00 0. -1.
         35    2    1    2    0    0  0.00000000000E+00  0.00000000000E+00 -0.14177151087E+03  0.30983678989E+03  0.27549895658E+03 0.  0.
         25    1    3    3    0    0 -0.59676931691E+01  0.28709060657E+02 -0.13943426274E+03  0.18628402280E+03  0.12000000000E+03 0.  0.
         25    1    3    3    0    0  0.59676931691E+01 -0.28709060657E+02 -0.23372481281E+01  0.12355276708E+03  0.12000000000E+03 0.  0.
<mgrwt>
<rscale>  0 0.27549896E+03</rscale>
<asrwt>0</asrwt>
<pdfrwt beam="1">  1        1 0.12928099E-01 0.27549896E+03</pdfrwt>
<pdfrwt beam="2">  1       -1 0.34739100E-01 0.27549896E+03</pdfrwt>
<totfact> 0.35807224E+03</totfact>
</mgrwt>
</event>
<event>
 5    1  0.1147887E+001  0.2753379E+03  0.7818608E-02  0.1098263E+00
         -4   -1    0    0    0  501 -0.00000000000E+00  0.00000000000E+00  0.38568217196E+03  0.38568217196E+03  0.00000000000E+00 0. -1.
          4   -1    0    0  501    0  0.00000000000E+00 -0.00000000000E+00 -0.49140814441E+02  0.49140814441E+02  0.00000000000E+00 0. -1.
         35    2    1    2    0    0  0.00000000000E+00  0.00000000000E+00  0.33654135752E+03  0.43482298640E+03  0.27533787277E+03 0.  0.
         25    1    3    3    0    0  0.62227894238E+02 -0.26050653488E+02  0.17038276933E+03  0.21904619480E+03  0.12000000000E+03 0.  0.
         25    1    3    3    0    0 -0.62227894238E+02  0.26050653488E+02  0.16615858819E+03  0.21577679161E+03  0.12000000000E+03 0.  0.
<mgrwt>
<rscale>  0 0.27533787E+03</rscale>
<asrwt>0</asrwt>
<pdfrwt beam="1">  1        4 0.75601255E-02 0.27533787E+03</pdfrwt>
<pdfrwt beam="2">  1       -4 0.59335717E-01 0.27533787E+03</pdfrwt>
<totfact> 0.61760540E+02</totfact>
</mgrwt>
</event>
<event>
 4    1  0.1147887E+001  0.3723124E+03  0.7818608E-02  0.1053812E+00
         -2   -1    0    0    0  501 -0.00000000000E+00  0.00000000000E+00  0.13431319160E+02  0.13431319160E+02  0.00000000000E+00 0. -1.
          2   -1    0    0  501    0  0.00000000000E+00 -0.00000000000E+00 -0.25800994818E+04  0.25800994818E+04  0.00000000000E+00 0. -1.
         25    1    1    2    0    0  0.87736672350E+02  0.11099505612E+03 -0.11762039165E+04  0.11907448423E+04  0.12000000000E+03 0.  0.
         25    1    1    2    0    0 -0.87736672350E+02 -0.11099505612E+03 -0.13904642461E+04  0.14027859586E+04  0.12000000000E+03 0.  0.
<mgrwt>
<rscale>  0 0.37231245E+03</rscale>
<asrwt>0</asrwt>
<pdfrwt beam="1">  1        2 0.39693842E+00 0.37231245E+03</pdfrwt>
<pdfrwt beam="2">  1       -2 0.20663566E-02 0.37231245E+03</pdfrwt>
<totfact> 0.26486472E+03</totfact>
</mgrwt>
</event>
<event>
 5    1  0.1147887E+001  0.2755584E+03  0.7818608E-02  0.1098140E+00
          1   -1    0    0  501    0  0.00000000000E+00  0.00000000000E+00  0.48971027863E+02  0.48971027863E+02  0.00000000000E+00 0.  1.
         -1   -1    0    0    0  501 -0.00000000000E+00 -0.00000000000E+00 -0.38763952094E+03  0.38763952094E+03  0.00000000000E+00 0.  1.
         35    2    1    2    0    0  0.00000000000E+00  0.00000000000E+00 -0.33866849307E+03  0.43661054880E+03  0.27555838423E+03 0.  0.
         25    1    3    3    0    0 -0.61787782931E+02 -0.97630494463E+00 -0.21314163084E+03  0.25228562798E+03  0.12000000000E+03 0.  0.
         25    1    3    3    0    0  0.61787782931E+02  0.97630494463E+00 -0.12552686223E+03  0.18432492081E+03  0.12000000000E+03 0.  0.
<mgrwt>
<rscale>  0 0.27555838E+03</rscale>
<asrwt>0</asrwt>
<pdfrwt beam="1">  1        1 0.75340043E-02 0.27555838E+03</pdfrwt>
<pdfrwt beam="2">  1       -1 0.59636850E-01 0.27555838E+03</pdfrwt>
<totfact> 0.27678590E+03</totfact>
</mgrwt>
</event>
<event>
 5    1  0.1147887E+001  0.2748416E+03  0.7818608E-02  0.1098540E+00
         -1   -1    0    0    0  501 -0.00000000000E+00  0.00000000000E+00  0.62557254037E+02  0.62557254037E+02  0.00000000000E+00 0. -1.
          1   -1    0    0  501    0  0.00000000000E+00 -0.00000000000E+00 -0.30187498916E+03  0.30187498916E+03  0.00000000000E+00 0. -1.
         35    2    1    2    0    0  0.00000000000E+00  0.00000000000E+00 -0.23931773512E+03  0.36443224320E+03  0.27484155715E+03 0.  0.
         25    1    3    3    0    0  0.37194082086E+02 -0.16794812246E+02 -0.19006043217E+03  0.22844787882E+03  0.12000000000E+03 0.  0.
         25    1    3    3    0    0 -0.37194082086E+02  0.16794812246E+02 -0.49257302950E+02  0.13598436438E+03  0.12000000000E+03 0.  0.
<mgrwt>
<rscale>  0 0.27484156E+03</rscale>
<asrwt>0</asrwt>
<pdfrwt beam="1">  1        1 0.46442306E-01 0.27484156E+03</pdfrwt>
<pdfrwt beam="2">  1       -1 0.96241929E-02 0.27484156E+03</pdfrwt>
<totfact> 0.55867232E+03</totfact>
</mgrwt>
</event>
<event>
 5    1  0.1147887E+001  0.2759980E+03  0.7818608E-02  0.1097895E+00
         -2   -1    0    0    0  501 -0.00000000000E+00  0.00000000000E+00  0.62235104414E+02  0.62235104414E+02  0.00000000000E+00 0. -1.
          2   -1    0    0  501    0  0.00000000000E+00 -0.00000000000E+00 -0.30599659936E+03  0.30599659936E+03  0.00000000000E+00 0. -1.
         35    2    1    2    0    0  0.00000000000E+00  0.00000000000E+00 -0.24376149495E+03  0.36823170377E+03  0.27599804573E+03 0.  0.
         25    1    3    3    0    0  0.43371958533E+02 -0.22185608777E+02 -0.18545285046E+03  0.22619922141E+03  0.12000000000E+03 0.  0.
         25    1    3    3    0    0 -0.43371958533E+02  0.22185608777E+02 -0.58308644482E+02  0.14203248236E+03  0.12000000000E+03 0.  0.
<mgrwt>
<rscale>  0 0.27599805E+03</rscale>
<asrwt>0</asrwt>
<pdfrwt beam="1">  1        2 0.47076399E-01 0.27599805E+03</pdfrwt>
<pdfrwt beam="2">  1       -2 0.95746316E-02 0.27599805E+03</pdfrwt>
<totfact> 0.75566213E+03</totfact>
</mgrwt>
</event>
<event>
 5    1  0.1147887E+001  0.2737837E+03  0.7818608E-02  0.1099133E+00
         -2   -1    0    0    0  501 -0.00000000000E+00  0.00000000000E+00  0.11203695570E+02  0.11203695570E+02  0.00000000000E+00 0.  1.
          2   -1    0    0  501    0  0.00000000000E+00 -0.00000000000E+00 -0.16726068133E+04  0.16726068133E+04  0.00000000000E+00 0.  1.
         35    2    1    2    0    0  0.00000000000E+00  0.00000000000E+00 -0.16614031177E+04  0.16838105089E+04  0.27378369232E+03 0.  0.
         25    1    3    3    0    0 -0.38235732514E+01 -0.22842531949E+02 -0.45143245617E+03  0.46768329397E+03  0.12000000000E+03 0.  0.
         25    1    3    3    0    0  0.38235732514E+01  0.22842531949E+02 -0.12099706616E+04  0.12161272149E+04  0.12000000000E+03 0.  0.
<mgrwt>
<rscale>  0 0.27378369E+03</rscale>
<asrwt>0</asrwt>
<pdfrwt beam="1">  1        2 0.25732416E+00 0.27378369E+03</pdfrwt>
<pdfrwt beam="2">  1       -2 0.17236452E-02 0.27378369E+03</pdfrwt>
<totfact> 0.10626451E+04</totfact>
</mgrwt>
</event>
<event>
 5    1  0.1147887E+001  0.2805469E+03  0.7818608E-02  0.1095391E+00
          1   -1    0    0  501    0  0.00000000000E+00  0.00000000000E+00  0.18668056969E+04  0.18668056969E+04  0.00000000000E+00 0. -1.
         -1   -1    0    0    0  501 -0.00000000000E+00 -0.00000000000E+00 -0.10540275351E+02  0.10540275351E+02  0.00000000000E+00 0. -1.
         35    2    1    2    0    0  0.00000000000E+00  0.00000000000E+00  0.18562654215E+04  0.18773459722E+04  0.28054693777E+03 0.  0.
         25    1    3    3    0    0 -0.19889343657E+02 -0.37343385628E+02  0.13232586921E+04  0.13293621330E+04  0.12000000000E+03 0.  0.
         25    1    3    3    0    0  0.19889343657E+02  0.37343385628E+02  0.53300672946E+03  0.54798383926E+03  0.12000000000E+03 0.  0.
<mgrwt>
<rscale>  0 0.28054694E+03</rscale>
<asrwt>0</asrwt>
<pdfrwt beam="1">  1        1 0.28720061E+00 0.28054694E+03</pdfrwt>
<pdfrwt beam="2">  1       -1 0.16215823E-02 0.28054694E+03</pdfrwt>
<totfact> 0.38358789E+03</totfact>
</mgrwt>
</event>
<event>
 5    1  0.1147887E+001  0.2629360E+03  0.7818608E-02  0.1105392E+00
         -2   -1    0    0    0  501 -0.00000000000E+00  0.00000000000E+00  0.45110374264E+01  0.45110374264E+01  0.00000000000E+00 0. -1.
          2   -1    0    0  501    0  0.00000000000E+00 -0.00000000000E+00 -0.38314555839E+04  0.38314555839E+04  0.00000000000E+00 0. -1.
         35    2    1    2    0    0  0.00000000000E+00  0.00000000000E+00 -0.38269445465E+04  0.38359666213E+04  0.26293603432E+03 0.  0.
         25    1    3    3    0    0  0.41305401520E+02 -0.76036185238E+01 -0.14252562038E+04  0.14309155103E+04  0.12000000000E+03 0.  0.
         25    1    3    3    0    0 -0.41305401520E+02  0.76036185238E+01 -0.24016883427E+04  0.24050511110E+04  0.12000000000E+03 0.  0.
<mgrwt>
<rscale>  0 0.26293603E+03</rscale>
<asrwt>0</asrwt>
<pdfrwt beam="1">  1        2 0.58945604E+00 0.26293603E+03</pdfrwt>
<pdfrwt beam="2">  1       -2 0.69400418E-03 0.26293603E+03</pdfrwt>
<totfact> 0.21677559E+03</totfact>
</mgrwt>
</event>
<event>
 5    1  0.1147887E+001  0.2740696E+03  0.7818608E-02  0.1098973E+00
          1   -1    0    0  501    0  0.00000000000E+00  0.00000000000E+00  0.58284520911E+02  0.58284520911E+02  0.00000000000E+00 0.  1.
         -1   -1    0    0    0  501 -0.00000000000E+00 -0.00000000000E+00 -0.32218736925E+03  0.32218736925E+03  0.00000000000E+00 0.  1.
         35    2    1    2    0    0  0.00000000000E+00  0.00000000000E+00 -0.26390284834E+03  0.38047189016E+03  0.27406960036E+03 0.  0.
         25    1    3    3    0    0 -0.20636766171E+01 -0.13947908182E+02 -0.22170174472E+03  0.25248854730E+03  0.12000000000E+03 0.  0.
         25    1    3    3    0    0  0.20636766171E+01  0.13947908182E+02 -0.42201103618E+02  0.12798334286E+03  0.12000000000E+03 0.  0.
<mgrwt>
<rscale>  0 0.27406960E+03</rscale>
<asrwt>0</asrwt>
<pdfrwt beam="1">  1        1 0.89668492E-02 0.27406960E+03</pdfrwt>
<pdfrwt beam="2">  1       -1 0.49567289E-01 0.27406960E+03</pdfrwt>
<totfact> 0.30944044E+03</totfact>
</mgrwt>
</event>
<event>
 5    1  0.1147887E+001  0.2750213E+03  0.7818608E-02  0.1098440E+00
          1   -1    0    0  501    0  0.00000000000E+00  0.00000000000E+00  0.30712110766E+02  0.30712110766E+02  0.00000000000E+00 0.  1.
         -1   -1    0    0    0  501 -0.00000000000E+00 -0.00000000000E+00 -0.61569148061E+03  0.61569148061E+03  0.00000000000E+00 0.  1.
         35    2    1    2    0    0  0.00000000000E+00  0.00000000000E+00 -0.58497936984E+03  0.64640359138E+03  0.27502134426E+03 0.  0.
         25    1    3    3    0    0  0.50774010278E+02 -0.25086020862E+01 -0.39560911767E+03  0.41652234896E+03  0.12000000000E+03 0.  0.
         25    1    3    3    0    0 -0.50774010278E+02  0.25086020862E+01 -0.18937025218E+03  0.22988124242E+03  0.12000000000E+03 0.  0.
<mgrwt>
<rscale>  0 0.27502134E+03</rscale>
<asrwt>0</asrwt>
<pdfrwt beam="1">  1        1 0.47249406E-02 0.27502134E+03</pdfrwt>
<pdfrwt beam="2">  1       -1 0.94721756E-01 0.27502134E+03</pdfrwt>
<totfact> 0.20448195E+03</totfact>
</mgrwt>
</event>
<event>
 5    1  0.1147887E+001  0.2746859E+03  0.7818608E-02  0.1098627E+00
          2   -1    0    0  501    0  0.00000000000E+00  0.00000000000E+00  0.32407594971E+03  0.32407594971E+03  0.00000000000E+00 0. -1.
         -2   -1    0    0    0  501 -0.00000000000E+00 -0.00000000000E+00 -0.58205754742E+02  0.58205754742E+02  0.00000000000E+00 0. -1.
         35    2    1    2    0    0  0.00000000000E+00  0.00000000000E+00  0.26587019497E+03  0.38228170445E+03  0.27468589514E+03 0.  0.
         25    1    3    3    0    0  0.55891921983E+01  0.31686480445E+02  0.51454215080E+02  0.13447233307E+03  0.12000000000E+03 0.  0.
         25    1    3    3    0    0 -0.55891921983E+01 -0.31686480445E+02  0.21441597989E+03  0.24780937138E+03  0.12000000000E+03 0.  0.
<mgrwt>
<rscale>  0 0.27468590E+03</rscale>
<asrwt>0</asrwt>
<pdfrwt beam="1">  1        2 0.49857837E-01 0.27468590E+03</pdfrwt>
<pdfrwt beam="2">  1       -2 0.89547317E-02 0.27468590E+03</pdfrwt>
<totfact> 0.78949017E+03</totfact>
</mgrwt>
</event>
<event>
 5    1  0.1147887E+001  0.2745997E+03  0.7818608E-02  0.1098676E+00
         -1   -1    0    0    0  501 -0.00000000000E+00  0.00000000000E+00  0.22903198915E+02  0.22903198915E+02  0.00000000000E+00 0. -1.
          1   -1    0    0  501    0  0.00000000000E+00 -0.00000000000E+00 -0.82308349737E+03  0.82308349737E+03  0.00000000000E+00 0. -1.
         35    2    1    2    0    0  0.00000000000E+00  0.00000000000E+00 -0.80018029845E+03  0.84598669628E+03  0.27459967271E+03 0.  0.
         25    1    3    3    0    0 -0.10707713809E+02  0.38922079405E+02 -0.23644015773E+03  0.26820427213E+03  0.12000000000E+03 0.  0.
         25    1    3    3    0    0  0.10707713809E+02 -0.38922079405E+02 -0.56374014072E+03  0.57778242415E+03  0.12000000000E+03 0.  0.
<mgrwt>
<rscale>  0 0.27459967E+03</rscale>
<asrwt>0</asrwt>
<pdfrwt beam="1">  1        1 0.12662821E+00 0.27459967E+03</pdfrwt>
<pdfrwt beam="2">  1       -1 0.35235696E-02 0.27459967E+03</pdfrwt>
<totfact> 0.65363307E+03</totfact>
</mgrwt>
</event>
<event>
 5    1  0.1147887E+001  0.2748034E+03  0.7818608E-02  0.1098562E+00
         -1   -1    0    0    0  501 -0.00000000000E+00  0.00000000000E+00  0.31197821541E+02  0.31197821541E+02  0.00000000000E+00 0. -1.
          1   -1    0    0  501    0  0.00000000000E+00 -0.00000000000E+00 -0.60514555675E+03  0.60514555675E+03  0.00000000000E+00 0. -1.
         35    2    1    2    0    0  0.00000000000E+00  0.00000000000E+00 -0.57394773521E+03  0.63634337829E+03  0.27480337032E+03 0.  0.
         25    1    3    3    0    0 -0.22259497758E+02  0.24036836099E+02 -0.15183204283E+03  0.19628098217E+03  0.12000000000E+03 0.  0.
         25    1    3    3    0    0  0.22259497758E+02 -0.24036836099E+02 -0.42211569237E+03  0.44006239612E+03  0.12000000000E+03 0.  0.
<mgrwt>
<rscale>  0 0.27480337E+03</rscale>
<asrwt>0</asrwt>
<pdfrwt beam="1">  1        1 0.93099309E-01 0.27480337E+03</pdfrwt>
<pdfrwt beam="2">  1       -1 0.47996653E-02 0.27480337E+03</pdfrwt>
<totfact> 0.64805070E+03</totfact>
</mgrwt>
</event>
<event>
 5    1  0.1147887E+001  0.2751841E+03  0.7818608E-02  0.1098349E+00
         -4   -1    0    0    0  501 -0.00000000000E+00  0.00000000000E+00  0.21979657550E+03  0.21979657550E+03  0.00000000000E+00 0. -1.
          4   -1    0    0  501    0  0.00000000000E+00 -0.00000000000E+00 -0.86132246235E+02  0.86132246235E+02  0.00000000000E+00 0. -1.
         35    2    1    2    0    0  0.00000000000E+00  0.00000000000E+00  0.13366432927E+03  0.30592882174E+03  0.27518410392E+03 0.  0.
         25    1    3    3    0    0 -0.52581967161E+00  0.52881797913E+01 -0.77721605338E+01  0.12036879916E+03  0.12000000000E+03 0.  0.
         25    1    3    3    0    0  0.52581967161E+00 -0.52881797913E+01  0.14143648980E+03  0.18556002258E+03  0.12000000000E+03 0.  0.
<mgrwt>
<rscale>  0 0.27518410E+03</rscale>
<asrwt>0</asrwt>
<pdfrwt beam="1">  1        4 0.13251115E-01 0.27518410E+03</pdfrwt>
<pdfrwt beam="2">  1       -4 0.33814858E-01 0.27518410E+03</pdfrwt>
<totfact> 0.74185442E+02</totfact>
</mgrwt>
</event>
<event>
 5    1  0.1147887E+001  0.2732904E+03  0.7818608E-02  0.1099411E+00
         -2   -1    0    0    0  501 -0.00000000000E+00  0.00000000000E+00  0.11274672189E+03  0.11274672189E+03  0.00000000000E+00 0.  1.
          2   -1    0    0  501    0  0.00000000000E+00 -0.00000000000E+00 -0.16560940451E+03  0.16560940451E+03  0.00000000000E+00 0.  1.
         35    2    1    2    0    0  0.00000000000E+00  0.00000000000E+00 -0.52862682622E+02  0.27835612639E+03  0.27329044968E+03 0.  0.
         25    1    3    3    0    0  0.56006927504E+02  0.91992955447E+00 -0.60734916864E+02  0.14569266394E+03  0.12000000000E+03 0.  0.
         25    1    3    3    0    0 -0.56006927504E+02 -0.91992955447E+00  0.78722342424E+01  0.13266346246E+03  0.12000000000E+03 0.  0.
<mgrwt>
<rscale>  0 0.27329045E+03</rscale>
<asrwt>0</asrwt>
<pdfrwt beam="1">  1        2 0.25478370E-01 0.27329045E+03</pdfrwt>
<pdfrwt beam="2">  1       -2 0.17345650E-01 0.27329045E+03</pdfrwt>
<totfact> 0.56032416E+03</totfact>
</mgrwt>
</event>
<event>
 4    1  0.1147887E+001  0.3339573E+03  0.7818608E-02  0.1069399E+00
          4   -1    0    0  501    0  0.00000000000E+00  0.00000000000E+00  0.59326914322E+03  0.59326914322E+03  0.00000000000E+00 0.  1.
         -4   -1    0    0    0  501 -0.00000000000E+00 -0.00000000000E+00 -0.46997004779E+02  0.46997004779E+02  0.00000000000E+00 0.  1.
         25    1    1    2    0    0  0.23618881522E+02 -0.39285375043E+02  0.68607636684E+02  0.14563035421E+03  0.12000000000E+03 0.  0.
         25    1    1    2    0    0 -0.23618881522E+02  0.39285375043E+02  0.47766450176E+03  0.49463579379E+03  0.12000000000E+03 0.  0.
<mgrwt>
<rscale>  0 0.33395732E+03</rscale>
<asrwt>0</asrwt>
<pdfrwt beam="1">  1        4 0.91272170E-01 0.33395732E+03</pdfrwt>
<pdfrwt beam="2">  1       -4 0.72303089E-02 0.33395732E+03</pdfrwt>
<totfact> 0.26322667E+02</totfact>
</mgrwt>
</event>
<event>
 5    1  0.1147887E+001  0.2749584E+03  0.7818608E-02  0.1098475E+00
          2   -1    0    0  501    0  0.00000000000E+00  0.00000000000E+00  0.12777332904E+04  0.12777332904E+04  0.00000000000E+00 0.  1.
         -2   -1    0    0    0  501 -0.00000000000E+00 -0.00000000000E+00 -0.14792233036E+02  0.14792233036E+02  0.00000000000E+00 0.  1.
         35    2    1    2    0    0  0.00000000000E+00  0.00000000000E+00  0.12629410573E+04  0.12925255234E+04  0.27495838659E+03 0.  0.
         25    1    3    3    0    0 -0.24482991572E+02  0.29726423920E+02  0.88969197032E+03  0.89857380287E+03  0.12000000000E+03 0.  0.
         25    1    3    3    0    0  0.24482991572E+02 -0.29726423920E+02  0.37324908702E+03  0.39395172054E+03  0.12000000000E+03 0.  0.
<mgrwt>
<rscale>  0 0.27495839E+03</rscale>
<asrwt>0</asrwt>
<pdfrwt beam="1">  1        2 0.19657426E+00 0.27495839E+03</pdfrwt>
<pdfrwt beam="2">  1       -2 0.22757292E-02 0.27495839E+03</pdfrwt>
<totfact> 0.11523873E+04</totfact>
</mgrwt>
</event>
<event>
 5    1  0.1147887E+001  0.2753243E+03  0.7818608E-02  0.1098270E+00
          2   -1    0    0  501    0  0.00000000000E+00  0.00000000000E+00  0.17388712393E+04  0.17388712393E+04  0.00000000000E+00 0. -1.
         -2   -1    0    0    0  501 -0.00000000000E+00 -0.00000000000E+00 -0.10898374533E+02  0.10898374533E+02  0.00000000000E+00 0. -1.
         35    2    1    2    0    0  0.00000000000E+00  0.00000000000E+00  0.17279728648E+04  0.17497696138E+04  0.27532431808E+03 0.  0.
         25    1    3    3    0    0 -0.58096016596E+02 -0.14571476670E+02  0.66672668078E+03  0.68008230527E+03  0.12000000000E+03 0.  0.
         25    1    3    3    0    0  0.58096016596E+02  0.14571476670E+02  0.10612461840E+04  0.10696873086E+04  0.12000000000E+03 0.  0.
<mgrwt>
<rscale>  0 0.27532432E+03</rscale>
<asrwt>0</asrwt>
<pdfrwt beam="1">  1        2 0.26751843E+00 0.27532432E+03</pdfrwt>
<pdfrwt beam="2">  1       -2 0.16766744E-02 0.27532432E+03</pdfrwt>
<totfact> 0.10212504E+04</totfact>
</mgrwt>
</event>
<event>
 5    1  0.1147887E+001  0.2739174E+03  0.7818608E-02  0.1099058E+00
          1   -1    0    0  501    0  0.00000000000E+00  0.00000000000E+00  0.31215773108E+03  0.31215773108E+03  0.00000000000E+00 0.  1.
         -1   -1    0    0    0  501 -0.00000000000E+00 -0.00000000000E+00 -0.60090398044E+02  0.60090398044E+02  0.00000000000E+00 0.  1.
         35    2    1    2    0    0  0.00000000000E+00  0.00000000000E+00  0.25206733304E+03  0.37224812913E+03  0.27391737669E+03 0.  0.
         25    1    3    3    0    0 -0.43778983698E+02  0.49242183147E+02  0.13151867702E+03  0.18983823224E+03  0.12000000000E+03 0.  0.
         25    1    3    3    0    0  0.43778983698E+02 -0.49242183147E+02  0.12054865602E+03  0.18240989689E+03  0.12000000000E+03 0.  0.
<mgrwt>
<rscale>  0 0.27391738E+03</rscale>
<asrwt>0</asrwt>
<pdfrwt beam="1">  1        1 0.48024265E-01 0.27391738E+03</pdfrwt>
<pdfrwt beam="2">  1       -1 0.92446768E-02 0.27391738E+03</pdfrwt>
<totfact> 0.56979004E+03</totfact>
</mgrwt>
</event>
<event>
 5    1  0.1147887E+001  0.2751092E+03  0.7818608E-02  0.1098391E+00
          2   -1    0    0  501    0  0.00000000000E+00  0.00000000000E+00  0.27351617260E+03  0.27351617260E+03  0.00000000000E+00 0. -1.
         -2   -1    0    0    0  501 -0.00000000000E+00 -0.00000000000E+00 -0.69177872070E+02  0.69177872070E+02  0.00000000000E+00 0. -1.
         35    2    1    2    0    0  0.00000000000E+00  0.00000000000E+00  0.20433830053E+03  0.34269404467E+03  0.27510919139E+03 0.  0.
         25    1    3    3    0    0 -0.16807986415E+02 -0.47089002313E+00  0.21071283879E+02  0.12299076855E+03  0.12000000000E+03 0.  0.
         25    1    3    3    0    0  0.16807986415E+02  0.47089002313E+00  0.18326701665E+03  0.21970327611E+03  0.12000000000E+03 0.  0.
<mgrwt>
<rscale>  0 0.27510919E+03</rscale>
<asrwt>0</asrwt>
<pdfrwt beam="1">  1        2 0.42079411E-01 0.27510919E+03</pdfrwt>
<pdfrwt beam="2">  1       -2 0.10642750E-01 0.27510919E+03</pdfrwt>
<totfact> 0.72048871E+03</totfact>
</mgrwt>
</event>
<event>
 5    1  0.1147887E+001  0.2751037E+03  0.7818608E-02  0.1098394E+00
          2   -1    0    0  501    0  0.00000000000E+00  0.00000000000E+00  0.10388225504E+03  0.10388225504E+03  0.00000000000E+00 0.  1.
         -2   -1    0    0    0  501 -0.00000000000E+00 -0.00000000000E+00 -0.18213421227E+03  0.18213421227E+03  0.00000000000E+00 0.  1.
         35    2    1    2    0    0  0.00000000000E+00  0.00000000000E+00 -0.78251957234E+02  0.28601646731E+03  0.27510370910E+03 0.  0.
         25    1    3    3    0    0  0.30445336571E+02  0.24064197428E+02 -0.96208461361E+02  0.15862557219E+03  0.12000000000E+03 0.  0.
         25    1    3    3    0    0 -0.30445336571E+02 -0.24064197428E+02  0.17956504126E+02  0.12739089511E+03  0.12000000000E+03 0.  0.
<mgrwt>
<rscale>  0 0.27510371E+03</rscale>
<asrwt>0</asrwt>
<pdfrwt beam="1">  1        2 0.15981886E-01 0.27510371E+03</pdfrwt>
<pdfrwt beam="2">  1       -2 0.28020648E-01 0.27510371E+03</pdfrwt>
<totfact> 0.41600758E+03</totfact>
</mgrwt>
</event>
<event>
 5    1  0.1147887E+001  0.2765283E+03  0.7818608E-02  0.1097600E+00
          1   -1    0    0  501    0  0.00000000000E+00  0.00000000000E+00  0.70128735907E+02  0.70128735907E+02  0.00000000000E+00 0. -1.
         -1   -1    0    0    0  501 -0.00000000000E+00 -0.00000000000E+00 -0.27259823608E+03  0.27259823608E+03  0.00000000000E+00 0. -1.
         35    2    1    2    0    0  0.00000000000E+00  0.00000000000E+00 -0.20246950017E+03  0.34272697198E+03  0.27652826045E+03 0.  0.
         25    1    3    3    0    0  0.45325724990E+02  0.49257887521E+02 -0.12028307850E+03  0.18261648284E+03  0.12000000000E+03 0.  0.
         25    1    3    3    0    0 -0.45325724990E+02 -0.49257887521E+02 -0.82186421667E+02  0.16011048915E+03  0.12000000000E+03 0.  0.
<mgrwt>
<rscale>  0 0.27652826E+03</rscale>
<asrwt>0</asrwt>
<pdfrwt beam="1">  1        1 0.10789036E-01 0.27652826E+03</pdfrwt>
<pdfrwt beam="2">  1       -1 0.41938190E-01 0.27652826E+03</pdfrwt>
<totfact> 0.32696065E+03</totfact>
</mgrwt>
</event>
<event>
 5    1  0.1147887E+001  0.2750797E+03  0.7818608E-02  0.1098407E+00
         -2   -1    0    0    0  501 -0.00000000000E+00  0.00000000000E+00  0.45793736955E+03  0.45793736955E+03  0.00000000000E+00 0.  1.
          2   -1    0    0  501    0  0.00000000000E+00 -0.00000000000E+00 -0.41309613644E+02  0.41309613644E+02  0.00000000000E+00 0.  1.
         35    2    1    2    0    0  0.00000000000E+00  0.00000000000E+00  0.41662775590E+03  0.49924698319E+03  0.27507973978E+03 0.  0.
         25    1    3    3    0    0 -0.21141265793E+02 -0.45777983710E+02  0.28896319392E+03  0.31692633900E+03  0.12000000000E+03 0.  0.
         25    1    3    3    0    0  0.21141265793E+02  0.45777983710E+02  0.12766456198E+03  0.18232064419E+03  0.12000000000E+03 0.  0.
<mgrwt>
<rscale>  0 0.27507974E+03</rscale>
<asrwt>0</asrwt>
<pdfrwt beam="1">  1        2 0.63553255E-02 0.27507974E+03</pdfrwt>
<pdfrwt beam="2">  1       -2 0.70451899E-01 0.27507974E+03</pdfrwt>
<totfact> 0.21502121E+03</totfact>
</mgrwt>
</event>
<event>
 5    1  0.1147887E+001  0.2747207E+03  0.7818608E-02  0.1098608E+00
          1   -1    0    0  501    0  0.00000000000E+00  0.00000000000E+00  0.62540988957E+02  0.62540988957E+02  0.00000000000E+00 0.  1.
         -1   -1    0    0    0  501 -0.00000000000E+00 -0.00000000000E+00 -0.30168810681E+03  0.30168810681E+03  0.00000000000E+00 0.  1.
         35    2    1    2    0    0  0.00000000000E+00  0.00000000000E+00 -0.23914711785E+03  0.36422909576E+03  0.27472074954E+03 0.  0.
         25    1    3    3    0    0 -0.35449099110E+02  0.18523258450E+02 -0.48569684740E+02  0.13549451652E+03  0.12000000000E+03 0.  0.
         25    1    3    3    0    0  0.35449099110E+02 -0.18523258450E+02 -0.19057743311E+03  0.22873457924E+03  0.12000000000E+03 0.  0.
<mgrwt>
<rscale>  0 0.27472075E+03</rscale>
<asrwt>0</asrwt>
<pdfrwt beam="1">  1        1 0.96216905E-02 0.27472075E+03</pdfrwt>
<pdfrwt beam="2">  1       -1 0.46413555E-01 0.27472075E+03</pdfrwt>
<totfact> 0.31744005E+03</totfact>
</mgrwt>
</event>
<event>
 5    1  0.1147887E+001  0.2756188E+03  0.7818608E-02  0.1098106E+00
         -2   -1    0    0    0  501 -0.00000000000E+00  0.00000000000E+00  0.25041299360E+02  0.25041299360E+02  0.00000000000E+00 0. -1.
          2   -1    0    0  501    0  0.00000000000E+00 -0.00000000000E+00 -0.75840445600E+03  0.75840445600E+03  0.00000000000E+00 0. -1.
         35    2    1    2    0    0  0.00000000000E+00  0.00000000000E+00 -0.73336315664E+03  0.78344575536E+03  0.27561881662E+03 0.  0.
         25    1    3    3    0    0  0.34634120870E+02 -0.41385479324E+02 -0.48315991924E+03  0.50075521744E+03  0.12000000000E+03 0.  0.
         25    1    3    3    0    0 -0.34634120870E+02  0.41385479324E+02 -0.25020323739E+03  0.28269053792E+03  0.12000000000E+03 0.  0.
<mgrwt>
<rscale>  0 0.27561882E+03</rscale>
<asrwt>0</asrwt>
<pdfrwt beam="1">  1        2 0.11667760E+00 0.27561882E+03</pdfrwt>
<pdfrwt beam="2">  1       -2 0.38525078E-02 0.27561882E+03</pdfrwt>
<totfact> 0.11005545E+04</totfact>
</mgrwt>
</event>
<event>
 5    1  0.1147887E+001  0.2753024E+03  0.7818608E-02  0.1098283E+00
         -1   -1    0    0    0  501 -0.00000000000E+00  0.00000000000E+00  0.78621691763E+01  0.78621691763E+01  0.00000000000E+00 0. -1.
          1   -1    0    0  501    0  0.00000000000E+00 -0.00000000000E+00 -0.24100039641E+04  0.24100039641E+04  0.00000000000E+00 0. -1.
         35    2    1    2    0    0  0.00000000000E+00  0.00000000000E+00 -0.24021417950E+04  0.24178661333E+04  0.27530244373E+03 0.  0.
         25    1    3    3    0    0  0.57127366825E+02  0.24379082213E+02 -0.97037416606E+03  0.97973664719E+03  0.12000000000E+03 0.  0.
         25    1    3    3    0    0 -0.57127366825E+02 -0.24379082213E+02 -0.14317676289E+04  0.14381294861E+04  0.12000000000E+03 0.  0.
<mgrwt>
<rscale>  0 0.27530244E+03</rscale>
<asrwt>0</asrwt>
<pdfrwt beam="1">  1        1 0.37076936E+00 0.27530244E+03</pdfrwt>
<pdfrwt beam="2">  1       -1 0.12095660E-02 0.27530244E+03</pdfrwt>
<totfact> 0.25969356E+03</totfact>
</mgrwt>
</event>
<event>
 5    1  0.1147887E+001  0.2735562E+03  0.7818608E-02  0.1099261E+00
         -2   -1    0    0    0  501 -0.00000000000E+00  0.00000000000E+00  0.20055744827E+03  0.20055744827E+03  0.00000000000E+00 0. -1.
          2   -1    0    0  501    0  0.00000000000E+00 -0.00000000000E+00 -0.93281256670E+02  0.93281256670E+02  0.00000000000E+00 0. -1.
         35    2    1    2    0    0  0.00000000000E+00  0.00000000000E+00  0.10727619160E+03  0.29383870494E+03  0.27355621586E+03 0.  0.
         25    1    3    3    0    0 -0.48832140246E+02  0.34693076273E+02  0.24814526064E+02  0.13639629088E+03  0.12000000000E+03 0.  0.
         25    1    3    3    0    0  0.48832140246E+02 -0.34693076273E+02  0.82461665541E+02  0.15744241406E+03  0.12000000000E+03 0.  0.
<mgrwt>
<rscale>  0 0.27355622E+03</rscale>
<asrwt>0</asrwt>
<pdfrwt beam="1">  1        2 0.14350963E-01 0.27355622E+03</pdfrwt>
<pdfrwt beam="2">  1       -2 0.30854992E-01 0.27355622E+03</pdfrwt>
<totfact> 0.39684134E+03</totfact>
</mgrwt>
</event>
<event>
 5    1  0.1147887E+001  0.2756146E+03  0.7818608E-02  0.1098109E+00
         -2   -1    0    0    0  501 -0.00000000000E+00  0.00000000000E+00  0.44630824664E+02  0.44630824664E+02  0.00000000000E+00 0. -1.
          2   -1    0    0  501    0  0.00000000000E+00 -0.00000000000E+00 -0.42550980303E+03  0.42550980303E+03  0.00000000000E+00 0. -1.
         35    2    1    2    0    0  0.00000000000E+00  0.00000000000E+00 -0.38087897836E+03  0.47014062769E+03  0.27561461073E+03 0.  0.
         25    1    3    3    0    0 -0.25316505847E+02 -0.46862897834E+02 -0.26187516815E+03  0.29294310088E+03  0.12000000000E+03 0.  0.
         25    1    3    3    0    0  0.25316505847E+02  0.46862897834E+02 -0.11900381021E+03  0.17719752681E+03  0.12000000000E+03 0.  0.
<mgrwt>
<rscale>  0 0.27561461E+03</rscale>
<asrwt>0</asrwt>
<pdfrwt beam="1">  1        2 0.65463050E-01 0.27561461E+03</pdfrwt>
<pdfrwt beam="2">  1       -2 0.68662804E-02 0.27561461E+03</pdfrwt>
<totfact> 0.88979673E+03</totfact>
</mgrwt>
</event>
<event>
 5    1  0.1147887E+001  0.2751994E+03  0.7818608E-02  0.1098340E+00
         -1   -1    0    0    0  501 -0.00000000000E+00  0.00000000000E+00  0.24398355567E+02  0.24398355567E+02  0.00000000000E+00 0. -1.
          1   -1    0    0  501    0  0.00000000000E+00 -0.00000000000E+00 -0.77602274626E+03  0.77602274626E+03  0.00000000000E+00 0. -1.
         35    2    1    2    0    0  0.00000000000E+00  0.00000000000E+00 -0.75162439070E+03  0.80042110183E+03  0.27519941054E+03 0.  0.
         25    1    3    3    0    0  0.55757111405E+02 -0.36155885796E+02 -0.34427455808E+03  0.37059556782E+03  0.12000000000E+03 0.  0.
         25    1    3    3    0    0 -0.55757111405E+02  0.36155885796E+02 -0.40734983262E+03  0.42982553401E+03  0.12000000000E+03 0.  0.
<mgrwt>
<rscale>  0 0.27519941E+03</rscale>
<asrwt>0</asrwt>
<pdfrwt beam="1">  1        1 0.11938811E+00 0.27519941E+03</pdfrwt>
<pdfrwt beam="2">  1       -1 0.37535934E-02 0.27519941E+03</pdfrwt>
<totfact> 0.65161648E+03</totfact>
</mgrwt>
</event>
<event>
 5    1  0.1147887E+001  0.2748365E+03  0.7818608E-02  0.1098543E+00
          1   -1    0    0  501    0  0.00000000000E+00  0.00000000000E+00  0.66479604602E+03  0.66479604602E+03  0.00000000000E+00 0.  1.
         -1   -1    0    0    0  501 -0.00000000000E+00 -0.00000000000E+00 -0.28405367289E+02  0.28405367289E+02  0.00000000000E+00 0.  1.
         35    2    1    2    0    0  0.00000000000E+00  0.00000000000E+00  0.63639067873E+03  0.69320141331E+03  0.27483650310E+03 0.  0.
         25    1    3    3    0    0  0.12179395671E+02  0.65843790086E+02  0.31865689603E+03  0.34702443683E+03  0.12000000000E+03 0.  0.
         25    1    3    3    0    0 -0.12179395671E+02 -0.65843790086E+02  0.31773378270E+03  0.34617697648E+03  0.12000000000E+03 0.  0.
<mgrwt>
<rscale>  0 0.27483650E+03</rscale>
<asrwt>0</asrwt>
<pdfrwt beam="1">  1        1 0.10227630E+00 0.27483650E+03</pdfrwt>
<pdfrwt beam="2">  1       -1 0.43700570E-02 0.27483650E+03</pdfrwt>
<totfact> 0.65279983E+03</totfact>
</mgrwt>
</event>
<event>
 5    1  0.1147887E+001  0.2745514E+03  0.7818608E-02  0.1098703E+00
         -1   -1    0    0    0  501 -0.00000000000E+00  0.00000000000E+00  0.20245051232E+02  0.20245051232E+02  0.00000000000E+00 0. -1.
          1   -1    0    0  501    0  0.00000000000E+00 -0.00000000000E+00 -0.93082571161E+03  0.93082571161E+03  0.00000000000E+00 0. -1.
         35    2    1    2    0    0  0.00000000000E+00  0.00000000000E+00 -0.91058066038E+03  0.95107076284E+03  0.27455137384E+03 0.  0.
         25    1    3    3    0    0 -0.16921555835E+02 -0.61114466542E+02 -0.52656117069E+03  0.54377199592E+03  0.12000000000E+03 0.  0.
         25    1    3    3    0    0  0.16921555835E+02  0.61114466542E+02 -0.38401948969E+03  0.40729876692E+03  0.12000000000E+03 0.  0.
<mgrwt>
<rscale>  0 0.27455137E+03</rscale>
<asrwt>0</asrwt>
<pdfrwt beam="1">  1        1 0.14320396E+00 0.27455137E+03</pdfrwt>
<pdfrwt beam="2">  1       -1 0.31146232E-02 0.27455137E+03</pdfrwt>
<totfact> 0.64382597E+03</totfact>
</mgrwt>
</event>
<event>
 5    1  0.1147887E+001  0.2758477E+03  0.7818608E-02  0.1097979E+00
          1   -1    0    0  501    0  0.00000000000E+00  0.00000000000E+00  0.38724905985E+03  0.38724905985E+03  0.00000000000E+00 0. -1.
         -1   -1    0    0    0  501 -0.00000000000E+00 -0.00000000000E+00 -0.49123391913E+02  0.49123391913E+02  0.00000000000E+00 0. -1.
         35    2    1    2    0    0  0.00000000000E+00  0.00000000000E+00  0.33812566794E+03  0.43637245177E+03  0.27584769229E+03 0.  0.
         25    1    3    3    0    0 -0.42182217200E+02 -0.52501084891E+02  0.15428348777E+03  0.20673436570E+03  0.12000000000E+03 0.  0.
         25    1    3    3    0    0  0.42182217200E+02  0.52501084891E+02  0.18384218017E+03  0.22963808607E+03  0.12000000000E+03 0.  0.
<mgrwt>
<rscale>  0 0.27584769E+03</rscale>
<asrwt>0</asrwt>
<pdfrwt beam="1">  1        1 0.59576776E-01 0.27584769E+03</pdfrwt>
<pdfrwt beam="2">  1       -1 0.75574452E-02 0.27584769E+03</pdfrwt>
<totfact> 0.59031367E+03</totfact>
</mgrwt>
</event>
<event>
 5    1  0.1147887E+001  0.2756405E+03  0.7818608E-02  0.1098094E+00
         -2   -1    0    0    0  501 -0.00000000000E+00  0.00000000000E+00  0.14251868510E+02  0.14251868510E+02  0.00000000000E+00 0. -1.
          2   -1    0    0  501    0  0.00000000000E+00 -0.00000000000E+00 -0.13327675093E+04  0.13327675093E+04  0.00000000000E+00 0. -1.
         35    2    1    2    0    0  0.00000000000E+00  0.00000000000E+00 -0.13185156408E+04  0.13470193778E+04  0.27564054344E+03 0.  0.
         25    1    3    3    0    0 -0.35815700620E+02 -0.43922601532E+02 -0.84095922457E+03  0.85136618251E+03  0.12000000000E+03 0.  0.
         25    1    3    3    0    0  0.35815700620E+02  0.43922601532E+02 -0.47755641622E+03  0.49565319529E+03  0.12000000000E+03 0.  0.
<mgrwt>
<rscale>  0 0.27564054E+03</rscale>
<asrwt>0</asrwt>
<pdfrwt beam="1">  1        2 0.20504116E+00 0.27564054E+03</pdfrwt>
<pdfrwt beam="2">  1       -2 0.21925951E-02 0.27564054E+03</pdfrwt>
<totfact> 0.11350753E+04</totfact>
</mgrwt>
</event>
<event>
 5    1  0.1147887E+001  0.2765081E+03  0.7818608E-02  0.1097612E+00
         -1   -1    0    0    0  501 -0.00000000000E+00  0.00000000000E+00  0.26676662054E+02  0.26676662054E+02  0.00000000000E+00 0. -1.
          1   -1    0    0  501    0  0.00000000000E+00 -0.00000000000E+00 -0.71651351593E+03  0.71651351593E+03  0.00000000000E+00 0. -1.
         35    2    1    2    0    0  0.00000000000E+00  0.00000000000E+00 -0.68983685388E+03  0.74319017799E+03  0.27650814760E+03 0.  0.
         25    1    3    3    0    0  0.45419891942E+02 -0.25868815231E+02 -0.22525903740E+03  0.26052599892E+03  0.12000000000E+03 0.  0.
         25    1    3    3    0    0 -0.45419891942E+02  0.25868815231E+02 -0.46457781648E+03  0.48266417906E+03  0.12000000000E+03 0.  0.
<mgrwt>
<rscale>  0 0.27650815E+03</rscale>
<asrwt>0</asrwt>
<pdfrwt beam="1">  1        1 0.11023284E+00 0.27650815E+03</pdfrwt>
<pdfrwt beam="2">  1       -1 0.41041021E-02 0.27650815E+03</pdfrwt>
<totfact> 0.64300984E+03</totfact>
</mgrwt>
</event>
<event>
 5    1  0.1147887E+001  0.2752805E+03  0.7818608E-02  0.1098295E+00
          1   -1    0    0  501    0  0.00000000000E+00  0.00000000000E+00  0.24671043705E+02  0.24671043705E+02  0.00000000000E+00 0. -1.
         -1   -1    0    0    0  501 -0.00000000000E+00 -0.00000000000E+00 -0.76789759125E+03  0.76789759125E+03  0.00000000000E+00 0. -1.
         35    2    1    2    0    0  0.00000000000E+00  0.00000000000E+00 -0.74322654755E+03  0.79256863496E+03  0.27528047541E+03 0.  0.
         25    1    3    3    0    0 -0.54005964182E+02  0.12813033870E+02 -0.48177596485E+03  0.49958872917E+03  0.12000000000E+03 0.  0.
         25    1    3    3    0    0  0.54005964182E+02 -0.12813033870E+02 -0.26145058270E+03  0.29297990579E+03  0.12000000000E+03 0.  0.
<mgrwt>
<rscale>  0 0.27528048E+03</rscale>
<asrwt>0</asrwt>
<pdfrwt beam="1">  1        1 0.37955452E-02 0.27528048E+03</pdfrwt>
<pdfrwt beam="2">  1       -1 0.11813809E+00 0.27528048E+03</pdfrwt>
<totfact> 0.16792058E+03</totfact>
</mgrwt>
</event>
<event>
 5    1  0.1147887E+001  0.2739165E+03  0.7818608E-02  0.1099059E+00
         -2   -1    0    0    0  501 -0.00000000000E+00  0.00000000000E+00  0.11642591283E+02  0.11642591283E+02  0.00000000000E+00 0.  1.
          2   -1    0    0  501    0  0.00000000000E+00 -0.00000000000E+00 -0.16111155907E+04  0.16111155907E+04  0.00000000000E+00 0.  1.
         35    2    1    2    0    0  0.00000000000E+00  0.00000000000E+00 -0.15994729994E+04  0.16227581820E+04  0.27391648605E+03 0.  0.
         25    1    3    3    0    0  0.28127640517E+02 -0.51097911836E+02 -0.98285328619E+03  0.99186830926E+03  0.12000000000E+03 0.  0.
         25    1    3    3    0    0 -0.28127640517E+02  0.51097911836E+02 -0.61661971322E+03  0.63088987270E+03  0.12000000000E+03 0.  0.
<mgrwt>
<rscale>  0 0.27391649E+03</rscale>
<asrwt>0</asrwt>
<pdfrwt beam="1">  1        2 0.24786389E+00 0.27391649E+03</pdfrwt>
<pdfrwt beam="2">  1       -2 0.17911682E-02 0.27391649E+03</pdfrwt>
<totfact> 0.10824191E+04</totfact>
</mgrwt>
</event>
<event>
 5    1  0.1147887E+001  0.2750548E+03  0.7818608E-02  0.1098421E+00
         -1   -1    0    0    0  501 -0.00000000000E+00  0.00000000000E+00  0.16115872661E+04  0.16115872661E+04  0.00000000000E+00 0. -1.
          1   -1    0    0  501    0  0.00000000000E+00 -0.00000000000E+00 -0.11736120654E+02  0.11736120654E+02  0.00000000000E+00 0. -1.
         35    2    1    2    0    0  0.00000000000E+00  0.00000000000E+00  0.15998511454E+04  0.16233233868E+04  0.27505477709E+03 0.  0.
         25    1    3    3    0    0 -0.54794937527E+02 -0.29611035297E+02  0.65126486561E+03  0.66515052715E+03  0.12000000000E+03 0.  0.
         25    1    3    3    0    0  0.54794937527E+02  0.29611035297E+02  0.94858627983E+03  0.95817285960E+03  0.12000000000E+03 0.  0.
<mgrwt>
<rscale>  0 0.27505478E+03</rscale>
<asrwt>0</asrwt>
<pdfrwt beam="1">  1        1 0.18055583E-02 0.27505478E+03</pdfrwt>
<pdfrwt beam="2">  1       -1 0.24793633E+00 0.27505478E+03</pdfrwt>
<totfact> 0.57181485E+02</totfact>
</mgrwt>
</event>
<event>
 5    1  0.1147887E+001  0.2751282E+03  0.7818608E-02  0.1098380E+00
          1   -1    0    0  501    0  0.00000000000E+00  0.00000000000E+00  0.19214640519E+03  0.19214640519E+03  0.00000000000E+00 0.  1.
         -1   -1    0    0    0  501 -0.00000000000E+00 -0.00000000000E+00 -0.98486784327E+02  0.98486784327E+02  0.00000000000E+00 0.  1.
         35    2    1    2    0    0  0.00000000000E+00  0.00000000000E+00  0.93659620863E+02  0.29063318952E+03  0.27512819970E+03 0.  0.
         25    1    3    3    0    0  0.31245828464E+01 -0.10250580514E+01  0.11779510845E+03  0.16818591301E+03  0.12000000000E+03 0.  0.
         25    1    3    3    0    0 -0.31245828464E+01  0.10250580514E+01 -0.24135487585E+02  0.12244727650E+03  0.12000000000E+03 0.  0.
<mgrwt>
<rscale>  0 0.27512820E+03</rscale>
<asrwt>0</asrwt>
<pdfrwt beam="1">  1        1 0.29560985E-01 0.27512820E+03</pdfrwt>
<pdfrwt beam="2">  1       -1 0.15151813E-01 0.27512820E+03</pdfrwt>
<totfact> 0.48484094E+03</totfact>
</mgrwt>
</event>
<event>
 5    1  0.1147887E+001  0.2749317E+03  0.7818608E-02  0.1098490E+00
          1   -1    0    0  501    0  0.00000000000E+00  0.00000000000E+00  0.13299510269E+03  0.13299510269E+03  0.00000000000E+00 0.  1.
         -1   -1    0    0    0  501 -0.00000000000E+00 -0.00000000000E+00 -0.14208692715E+03  0.14208692715E+03  0.00000000000E+00 0.  1.
         35    2    1    2    0    0  0.00000000000E+00  0.00000000000E+00 -0.90918244584E+01  0.27508202985E+03  0.27493174039E+03 0.  0.
         25    1    3    3    0    0 -0.50727849551E+02  0.43636212184E+02 -0.89564660160E+01  0.13768678955E+03  0.12000000000E+03 0.  0.
         25    1    3    3    0    0  0.50727849551E+02 -0.43636212184E+02 -0.13535844240E+00  0.13739524029E+03  0.12000000000E+03 0.  0.
<mgrwt>
<rscale>  0 0.27493174E+03</rscale>
<asrwt>0</asrwt>
<pdfrwt beam="1">  1        1 0.20460785E-01 0.27493174E+03</pdfrwt>
<pdfrwt beam="2">  1       -1 0.21859527E-01 0.27493174E+03</pdfrwt>
<totfact> 0.42905798E+03</totfact>
</mgrwt>
</event>
<event>
 5    1  0.1147887E+001  0.2754065E+03  0.7818608E-02  0.1098225E+00
          2   -1    0    0  501    0  0.00000000000E+00  0.00000000000E+00  0.53734998516E+03  0.53734998516E+03  0.00000000000E+00 0. -1.
         -2   -1    0    0    0  501 -0.00000000000E+00 -0.00000000000E+00 -0.35288344664E+02  0.35288344664E+02  0.00000000000E+00 0. -1.
         35    2    1    2    0    0  0.00000000000E+00  0.00000000000E+00  0.50206164049E+03  0.57263832982E+03  0.27540654663E+03 0.  0.
         25    1    3    3    0    0  0.31884537997E+02  0.55747272399E+02  0.20752486937E+03  0.24817524766E+03  0.12000000000E+03 0.  0.
         25    1    3    3    0    0 -0.31884537997E+02 -0.55747272399E+02  0.29453677113E+03  0.32446308217E+03  0.12000000000E+03 0.  0.
<mgrwt>
<rscale>  0 0.27540655E+03</rscale>
<asrwt>0</asrwt>
<pdfrwt beam="1">  1        2 0.82669223E-01 0.27540655E+03</pdfrwt>
<pdfrwt beam="2">  1       -2 0.54289765E-02 0.27540655E+03</pdfrwt>
<totfact> 0.98465164E+03</totfact>
</mgrwt>
</event>
<event>
 5    1  0.1147887E+001  0.2761546E+03  0.7818608E-02  0.1097808E+00
         -2   -1    0    0    0  501 -0.00000000000E+00  0.00000000000E+00  0.44160883633E+02  0.44160883633E+02  0.00000000000E+00 0.  1.
          2   -1    0    0  501    0  0.00000000000E+00 -0.00000000000E+00 -0.43172452529E+03  0.43172452529E+03  0.00000000000E+00 0.  1.
         35    2    1    2    0    0  0.00000000000E+00  0.00000000000E+00 -0.38756364166E+03  0.47588540893E+03  0.27615456920E+03 0.  0.
         25    1    3    3    0    0 -0.60145774987E+02  0.47987765266E+00 -0.13800596528E+03  0.19251854712E+03  0.12000000000E+03 0.  0.
         25    1    3    3    0    0  0.60145774987E+02 -0.47987765266E+00 -0.24955767638E+03  0.28336686181E+03  0.12000000000E+03 0.  0.
<mgrwt>
<rscale>  0 0.27615457E+03</rscale>
<asrwt>0</asrwt>
<pdfrwt beam="1">  1        2 0.66419160E-01 0.27615457E+03</pdfrwt>
<pdfrwt beam="2">  1       -2 0.67939819E-02 0.27615457E+03</pdfrwt>
<totfact> 0.89030493E+03</totfact>
</mgrwt>
</event>
<event>
 5    1  0.1147887E+001  0.2754314E+03  0.7818608E-02  0.1098211E+00
          2   -1    0    0  501    0  0.00000000000E+00  0.00000000000E+00  0.25641561876E+03  0.25641561876E+03  0.00000000000E+00 0.  1.
         -2   -1    0    0    0  501 -0.00000000000E+00 -0.00000000000E+00 -0.73964325645E+02  0.73964325645E+02  0.00000000000E+00 0.  1.
         35    2    1    2    0    0  0.00000000000E+00  0.00000000000E+00  0.18245129312E+03  0.33037994441E+03  0.27543135861E+03 0.  0.
         25    1    3    3    0    0  0.56209304689E+02  0.31029260226E+02  0.65970331934E+02  0.15124280353E+03  0.12000000000E+03 0.  0.
         25    1    3    3    0    0 -0.56209304689E+02 -0.31029260226E+02  0.11648096118E+03  0.17913714088E+03  0.12000000000E+03 0.  0.
<mgrwt>
<rscale>  0 0.27543136E+03</rscale>
<asrwt>0</asrwt>
<pdfrwt beam="1">  1        2 0.39448556E-01 0.27543136E+03</pdfrwt>
<pdfrwt beam="2">  1       -2 0.11379127E-01 0.27543136E+03</pdfrwt>
<totfact> 0.69389022E+03</totfact>
</mgrwt>
</event>
<event>
 5    1  0.1147887E+001  0.2742898E+03  0.7818608E-02  0.1098849E+00
          1   -1    0    0  501    0  0.00000000000E+00  0.00000000000E+00  0.69557068706E+02  0.69557068706E+02  0.00000000000E+00 0.  1.
         -1   -1    0    0    0  501 -0.00000000000E+00 -0.00000000000E+00 -0.27040711260E+03  0.27040711260E+03  0.00000000000E+00 0.  1.
         35    2    1    2    0    0  0.00000000000E+00  0.00000000000E+00 -0.20085004389E+03  0.33996418130E+03  0.27428981833E+03 0.  0.
         25    1    3    3    0    0 -0.31973343430E+01  0.65148178549E+02 -0.85033165635E+02  0.16088861791E+03  0.12000000000E+03 0.  0.
         25    1    3    3    0    0  0.31973343430E+01 -0.65148178549E+02 -0.11581687825E+03  0.17907556339E+03  0.12000000000E+03 0.  0.
<mgrwt>
<rscale>  0 0.27428982E+03</rscale>
<asrwt>0</asrwt>
<pdfrwt beam="1">  1        1 0.10701088E-01 0.27428982E+03</pdfrwt>
<pdfrwt beam="2">  1       -1 0.41601094E-01 0.27428982E+03</pdfrwt>
<totfact> 0.33529506E+03</totfact>
</mgrwt>
</event>
<event>
 5    1  0.1147887E+001  0.2737369E+03  0.7818608E-02  0.1099160E+00
         -2   -1    0    0    0  501 -0.00000000000E+00  0.00000000000E+00  0.27447804273E+03  0.27447804273E+03  0.00000000000E+00 0.  1.
          2   -1    0    0  501    0  0.00000000000E+00 -0.00000000000E+00 -0.68249446658E+02  0.68249446658E+02  0.00000000000E+00 0.  1.
         35    2    1    2    0    0  0.00000000000E+00  0.00000000000E+00  0.20622859607E+03  0.34272748939E+03  0.27373691411E+03 0.  0.
         25    1    3    3    0    0 -0.35741631603E+02  0.52873952473E+02  0.12329710157E+03  0.18350829500E+03  0.12000000000E+03 0.  0.
         25    1    3    3    0    0  0.35741631603E+02 -0.52873952473E+02  0.82931494501E+02  0.15921919438E+03  0.12000000000E+03 0.  0.
<mgrwt>
<rscale>  0 0.27373691E+03</rscale>
<asrwt>0</asrwt>
<pdfrwt beam="1">  1        2 0.10499915E-01 0.27373691E+03</pdfrwt>
<pdfrwt beam="2">  1       -2 0.42227391E-01 0.27373691E+03</pdfrwt>
<totfact> 0.32196197E+03</totfact>
</mgrwt>
</event>
<event>
 5    1  0.1147887E+001  0.2759241E+03  0.7818608E-02  0.1097936E+00
         -2   -1    0    0    0  501 -0.00000000000E+00  0.00000000000E+00  0.11115378823E+02  0.11115378823E+02  0.00000000000E+00 0. -1.
          2   -1    0    0  501    0  0.00000000000E+00 -0.00000000000E+00 -0.17123597082E+04  0.17123597082E+04  0.00000000000E+00 0. -1.
         35    2    1    2    0    0  0.00000000000E+00  0.00000000000E+00 -0.17012443294E+04  0.17234750871E+04  0.27592409709E+03 0.  0.
         25    1    3    3    0    0 -0.35118833106E+02  0.47288532547E+02 -0.63751903167E+03  0.65138318483E+03  0.12000000000E+03 0.  0.
         25    1    3    3    0    0  0.35118833106E+02 -0.47288532547E+02 -0.10637252977E+04  0.10720919022E+04  0.12000000000E+03 0.  0.
<mgrwt>
<rscale>  0 0.27592410E+03</rscale>
<asrwt>0</asrwt>
<pdfrwt beam="1">  1        2 0.26344025E+00 0.27592410E+03</pdfrwt>
<pdfrwt beam="2">  1       -2 0.17100564E-02 0.27592410E+03</pdfrwt>
<totfact> 0.10245685E+04</totfact>
</mgrwt>
</event>
<event>
 5    1  0.1147887E+001  0.2747849E+03  0.7818608E-02  0.1098572E+00
          1   -1    0    0  501    0  0.00000000000E+00  0.00000000000E+00  0.68617870682E+03  0.68617870682E+03  0.00000000000E+00 0. -1.
         -1   -1    0    0    0  501 -0.00000000000E+00 -0.00000000000E+00 -0.27509863538E+02  0.27509863538E+02  0.00000000000E+00 0. -1.
         35    2    1    2    0    0  0.00000000000E+00  0.00000000000E+00  0.65866884328E+03  0.71368857036E+03  0.27478488013E+03 0.  0.
         25    1    3    3    0    0  0.48724589346E+02  0.20185765095E+02  0.22239996829E+03  0.25815362987E+03  0.12000000000E+03 0.  0.
         25    1    3    3    0    0 -0.48724589346E+02 -0.20185765095E+02  0.43626887499E+03  0.45553494049E+03  0.12000000000E+03 0.  0.
<mgrwt>
<rscale>  0 0.27478488E+03</rscale>
<asrwt>0</asrwt>
<pdfrwt beam="1">  1        1 0.10556594E+00 0.27478488E+03</pdfrwt>
<pdfrwt beam="2">  1       -1 0.42322872E-02 0.27478488E+03</pdfrwt>
<totfact> 0.65417798E+03</totfact>
</mgrwt>
</event>
<event>
 5    1  0.1147887E+001  0.2706952E+03  0.7818608E-02  0.1100882E+00
          2   -1    0    0  501    0  0.00000000000E+00  0.00000000000E+00  0.19946785869E+04  0.19946785869E+04  0.00000000000E+00 0. -1.
         -2   -1    0    0    0  501 -0.00000000000E+00 -0.00000000000E+00 -0.91839198583E+01  0.91839198583E+01  0.00000000000E+00 0. -1.
         35    2    1    2    0    0  0.00000000000E+00  0.00000000000E+00  0.19854946670E+04  0.20038625067E+04  0.27069516645E+03 0.  0.
         25    1    3    3    0    0 -0.60796862141E+02 -0.13548716172E+02  0.10390610506E+04  0.10478204489E+04  0.12000000000E+03 0.  0.
         25    1    3    3    0    0  0.60796862141E+02  0.13548716172E+02  0.94643361640E+03  0.95604205786E+03  0.12000000000E+03 0.  0.
<mgrwt>
<rscale>  0 0.27069517E+03</rscale>
<asrwt>0</asrwt>
<pdfrwt beam="1">  1        2 0.30687328E+00 0.27069517E+03</pdfrwt>
<pdfrwt beam="2">  1       -2 0.14129123E-02 0.27069517E+03</pdfrwt>
<totfact> 0.96270104E+03</totfact>
</mgrwt>
</event>
<event>
 5    1  0.1147887E+001  0.2751311E+03  0.7818608E-02  0.1098378E+00
         -1   -1    0    0    0  501 -0.00000000000E+00  0.00000000000E+00  0.19826062528E+02  0.19826062528E+02  0.00000000000E+00 0.  1.
          1   -1    0    0  501    0  0.00000000000E+00 -0.00000000000E+00 -0.95451543432E+03  0.95451543432E+03  0.00000000000E+00 0.  1.
         35    2    1    2    0    0  0.00000000000E+00  0.00000000000E+00 -0.93468937179E+03  0.97434149685E+03  0.27513111554E+03 0.  0.
         25    1    3    3    0    0 -0.44548135679E+02  0.50383457163E+02 -0.47130965630E+03  0.49097435907E+03  0.12000000000E+03 0.  0.
         25    1    3    3    0    0  0.44548135679E+02 -0.50383457163E+02 -0.46337971549E+03  0.48336713777E+03  0.12000000000E+03 0.  0.
<mgrwt>
<rscale>  0 0.27513112E+03</rscale>
<asrwt>0</asrwt>
<pdfrwt beam="1">  1        1 0.14684849E+00 0.27513112E+03</pdfrwt>
<pdfrwt beam="2">  1       -1 0.30501643E-02 0.27513112E+03</pdfrwt>
<totfact> 0.63678508E+03</totfact>
</mgrwt>
</event>
<event>
 5    1  0.1147887E+001  0.2731467E+03  0.7818608E-02  0.1099492E+00
          2   -1    0    0  501    0  0.00000000000E+00  0.00000000000E+00  0.71374245508E+02  0.71374245508E+02  0.00000000000E+00 0.  1.
         -2   -1    0    0    0  501 -0.00000000000E+00 -0.00000000000E+00 -0.26133066094E+03  0.26133066094E+03  0.00000000000E+00 0.  1.
         35    2    1    2    0    0  0.00000000000E+00  0.00000000000E+00 -0.18995641543E+03  0.33270490645E+03  0.27314669138E+03 0.  0.
         25    1    3    3    0    0  0.50488638441E+02  0.36719339619E+02 -0.72032809291E+02  0.15325187806E+03  0.12000000000E+03 0.  0.
         25    1    3    3    0    0 -0.50488638441E+02 -0.36719339619E+02 -0.11792360614E+03  0.17945302839E+03  0.12000000000E+03 0.  0.
<mgrwt>
<rscale>  0 0.27314669E+03</rscale>
<asrwt>0</asrwt>
<pdfrwt beam="1">  1        2 0.10980653E-01 0.27314669E+03</pdfrwt>
<pdfrwt beam="2">  1       -2 0.40204718E-01 0.27314669E+03</pdfrwt>
<totfact> 0.33477561E+03</totfact>
</mgrwt>
</event>
<event>
 5    1  0.1147887E+001  0.2749702E+03  0.7818608E-02  0.1098468E+00
          1   -1    0    0  501    0  0.00000000000E+00  0.00000000000E+00  0.84974676879E+03  0.84974676879E+03  0.00000000000E+00 0.  1.
         -1   -1    0    0    0  501 -0.00000000000E+00 -0.00000000000E+00 -0.22244459023E+02  0.22244459023E+02  0.00000000000E+00 0.  1.
         35    2    1    2    0    0  0.00000000000E+00  0.00000000000E+00  0.82750230976E+03  0.87199122781E+03  0.27497023241E+03 0.  0.
         25    1    3    3    0    0 -0.34888210841E+02 -0.56762881797E+02  0.43891098180E+03  0.45987178860E+03  0.12000000000E+03 0.  0.
         25    1    3    3    0    0  0.34888210841E+02  0.56762881797E+02  0.38859132796E+03  0.41211943921E+03  0.12000000000E+03 0.  0.
<mgrwt>
<rscale>  0 0.27497023E+03</rscale>
<asrwt>0</asrwt>
<pdfrwt beam="1">  1        1 0.13073025E+00 0.27497023E+03</pdfrwt>
<pdfrwt beam="2">  1       -1 0.34222251E-02 0.27497023E+03</pdfrwt>
<totfact> 0.64918693E+03</totfact>
</mgrwt>
</event>
<event>
 5    1  0.1147887E+001  0.2750037E+03  0.7818608E-02  0.1098450E+00
         -1   -1    0    0    0  501 -0.00000000000E+00  0.00000000000E+00  0.25511807867E+04  0.25511807867E+04  0.00000000000E+00 0. -1.
          1   -1    0    0  501    0  0.00000000000E+00 -0.00000000000E+00 -0.74109861336E+01  0.74109861336E+01  0.00000000000E+00 0. -1.
         35    2    1    2    0    0  0.00000000000E+00  0.00000000000E+00  0.25437698005E+04  0.25585917728E+04  0.27500374859E+03 0.  0.
         25    1    3    3    0    0 -0.33110260849E+02  0.42141365646E+02  0.16480388762E+04  0.16532707950E+04  0.12000000000E+03 0.  0.
         25    1    3    3    0    0  0.33110260849E+02 -0.42141365646E+02  0.89573092431E+03  0.90532097779E+03  0.12000000000E+03 0.  0.
<mgrwt>
<rscale>  0 0.27500375E+03</rscale>
<asrwt>0</asrwt>
<pdfrwt beam="1">  1        1 0.11401537E-02 0.27500375E+03</pdfrwt>
<pdfrwt beam="2">  1       -1 0.39248865E+00 0.27500375E+03</pdfrwt>
<totfact> 0.13246387E+02</totfact>
</mgrwt>
</event>
<event>
 5    1  0.1147887E+001  0.2758378E+03  0.7818608E-02  0.1097984E+00
         -2   -1    0    0    0  501 -0.00000000000E+00  0.00000000000E+00  0.15511015875E+02  0.15511015875E+02  0.00000000000E+00 0. -1.
          2   -1    0    0  501    0  0.00000000000E+00 -0.00000000000E+00 -0.12263297689E+04  0.12263297689E+04  0.00000000000E+00 0. -1.
         35    2    1    2    0    0  0.00000000000E+00  0.00000000000E+00 -0.12108187531E+04  0.12418407848E+04  0.27583778214E+03 0.  0.
         25    1    3    3    0    0  0.31193435087E+02  0.62334621454E+01 -0.87589847789E+03  0.88465249110E+03  0.12000000000E+03 0.  0.
         25    1    3    3    0    0 -0.31193435087E+02 -0.62334621454E+01 -0.33492027518E+03  0.35718829371E+03  0.12000000000E+03 0.  0.
<mgrwt>
<rscale>  0 0.27583778E+03</rscale>
<asrwt>0</asrwt>
<pdfrwt beam="1">  1        2 0.18866613E+00 0.27583778E+03</pdfrwt>
<pdfrwt beam="2">  1       -2 0.23863099E-02 0.27583778E+03</pdfrwt>
<totfact> 0.11481504E+04</totfact>
</mgrwt>
</event>
<event>
 5    1  0.1147887E+001  0.2752003E+03  0.7818608E-02  0.1098340E+00
          2   -1    0    0  501    0  0.00000000000E+00  0.00000000000E+00  0.12144700228E+04  0.12144700228E+04  0.00000000000E+00 0.  1.
         -2   -1    0    0    0  501 -0.00000000000E+00 -0.00000000000E+00 -0.15590172226E+02  0.15590172226E+02  0.00000000000E+00 0.  1.
         35    2    1    2    0    0  0.00000000000E+00  0.00000000000E+00  0.11988798506E+04  0.12300601950E+04  0.27520026758E+03 0.  0.
         25    1    3    3    0    0  0.48429382430E+02 -0.45869836764E+02  0.64049053122E+03  0.65504012670E+03  0.12000000000E+03 0.  0.
         25    1    3    3    0    0 -0.48429382430E+02  0.45869836764E+02  0.55838931936E+03  0.57502006833E+03  0.12000000000E+03 0.  0.
<mgrwt>
<rscale>  0 0.27520027E+03</rscale>
<asrwt>0</asrwt>
<pdfrwt beam="1">  1        2 0.18684147E+00 0.27520027E+03</pdfrwt>
<pdfrwt beam="2">  1       -2 0.23984890E-02 0.27520027E+03</pdfrwt>
<totfact> 0.11571912E+04</totfact>
</mgrwt>
</event>
<event>
 5    1  0.1147887E+001  0.2759940E+03  0.7818608E-02  0.1097897E+00
          2   -1    0    0  501    0  0.00000000000E+00  0.00000000000E+00  0.14966038846E+04  0.14966038846E+04  0.00000000000E+00 0.  1.
         -2   -1    0    0    0  501 -0.00000000000E+00 -0.00000000000E+00 -0.12724259707E+02  0.12724259707E+02  0.00000000000E+00 0.  1.
         35    2    1    2    0    0  0.00000000000E+00  0.00000000000E+00  0.14838796249E+04  0.15093281443E+04  0.27599403258E+03 0.  0.
         25    1    3    3    0    0  0.28044997905E+02  0.61049006783E+02  0.80421418695E+03  0.81588844926E+03  0.12000000000E+03 0.  0.
         25    1    3    3    0    0 -0.28044997905E+02 -0.61049006783E+02  0.67966543791E+03  0.69343969501E+03  0.12000000000E+03 0.  0.
<mgrwt>
<rscale>  0 0.27599403E+03</rscale>
<asrwt>0</asrwt>
<pdfrwt beam="1">  1        2 0.23024661E+00 0.27599403E+03</pdfrwt>
<pdfrwt beam="2">  1       -2 0.19575796E-02 0.27599403E+03</pdfrwt>
<totfact> 0.10932786E+04</totfact>
</mgrwt>
</event>
<event>
 5    1  0.1147887E+001  0.2755254E+03  0.7818608E-02  0.1098158E+00
         -2   -1    0    0    0  501 -0.00000000000E+00  0.00000000000E+00  0.12804218795E+03  0.12804218795E+03  0.00000000000E+00 0. -1.
          2   -1    0    0  501    0  0.00000000000E+00 -0.00000000000E+00 -0.14822112409E+03  0.14822112409E+03  0.00000000000E+00 0. -1.
         35    2    1    2    0    0  0.00000000000E+00  0.00000000000E+00 -0.20178936140E+02  0.27626331204E+03  0.27552536747E+03 0.  0.
         25    1    3    3    0    0  0.93361503806E+01 -0.64518217662E+02  0.80917446967E+01  0.13680365655E+03  0.12000000000E+03 0.  0.
         25    1    3    3    0    0 -0.93361503806E+01  0.64518217662E+02 -0.28270680837E+02  0.13945965549E+03  0.12000000000E+03 0.  0.
<mgrwt>
<rscale>  0 0.27552537E+03</rscale>
<asrwt>0</asrwt>
<pdfrwt beam="1">  1        2 0.22803250E-01 0.27552537E+03</pdfrwt>
<pdfrwt beam="2">  1       -2 0.19698798E-01 0.27552537E+03</pdfrwt>
<totfact> 0.51175984E+03</totfact>
</mgrwt>
</event>
<event>
 5    1  0.1147887E+001  0.2744038E+03  0.7818608E-02  0.1098785E+00
          2   -1    0    0  501    0  0.00000000000E+00  0.00000000000E+00  0.65524994354E+03  0.65524994354E+03  0.00000000000E+00 0.  1.
         -2   -1    0    0    0  501 -0.00000000000E+00 -0.00000000000E+00 -0.28728522407E+02  0.28728522407E+02  0.00000000000E+00 0.  1.
         35    2    1    2    0    0  0.00000000000E+00  0.00000000000E+00  0.62652142113E+03  0.68397846595E+03  0.27440380963E+03 0.  0.
         25    1    3    3    0    0 -0.15329204147E+02  0.38792088178E+02  0.18411255471E+03  0.22369006104E+03  0.12000000000E+03 0.  0.
         25    1    3    3    0    0  0.15329204147E+02 -0.38792088178E+02  0.44240886642E+03  0.46028840490E+03  0.12000000000E+03 0.  0.
<mgrwt>
<rscale>  0 0.27440381E+03</rscale>
<asrwt>0</asrwt>
<pdfrwt beam="1">  1        2 0.10080767E+00 0.27440381E+03</pdfrwt>
<pdfrwt beam="2">  1       -2 0.44197732E-02 0.27440381E+03</pdfrwt>
<totfact> 0.10689370E+04</totfact>
</mgrwt>
</event>
<event>
 5    1  0.1147887E+001  0.2747947E+03  0.7818608E-02  0.1098566E+00
         -2   -1    0    0    0  501 -0.00000000000E+00  0.00000000000E+00  0.14682524435E+02  0.14682524435E+02  0.00000000000E+00 0.  1.
          2   -1    0    0  501    0  0.00000000000E+00 -0.00000000000E+00 -0.12857484736E+04  0.12857484736E+04  0.00000000000E+00 0.  1.
         35    2    1    2    0    0  0.00000000000E+00  0.00000000000E+00 -0.12710659491E+04  0.13004309980E+04  0.27479471159E+03 0.  0.
         25    1    3    3    0    0 -0.20990801921E+02  0.58418598398E+02 -0.51725328708E+03  0.53460668664E+03  0.12000000000E+03 0.  0.
         25    1    3    3    0    0  0.20990801921E+02 -0.58418598398E+02 -0.75381266205E+03  0.76582431136E+03  0.12000000000E+03 0.  0.
<mgrwt>
<rscale>  0 0.27479471E+03</rscale>
<asrwt>0</asrwt>
<pdfrwt beam="1">  1        2 0.19780744E+00 0.27479471E+03</pdfrwt>
<pdfrwt beam="2">  1       -2 0.22588501E-02 0.27479471E+03</pdfrwt>
<totfact> 0.11532037E+04</totfact>
</mgrwt>
</event>
<event>
 5    1  0.1147887E+001  0.2749928E+03  0.7818608E-02  0.1098456E+00
         -3   -1    0    0    0  501 -0.00000000000E+00  0.00000000000E+00  0.31511156898E+03  0.31511156898E+03  0.00000000000E+00 0. -1.
          3   -1    0    0  501    0  0.00000000000E+00 -0.00000000000E+00 -0.59995464223E+02  0.59995464223E+02  0.00000000000E+00 0. -1.
         35    2    1    2    0    0  0.00000000000E+00  0.00000000000E+00  0.25511610476E+03  0.37510703320E+03  0.27499283527E+03 0.  0.
         25    1    3    3    0    0 -0.29588939414E+02 -0.42636499981E+02  0.18562106296E+03  0.22704306966E+03  0.12000000000E+03 0.  0.
         25    1    3    3    0    0  0.29588939414E+02  0.42636499981E+02  0.69495041800E+02  0.14806396355E+03  0.12000000000E+03 0.  0.
<mgrwt>
<rscale>  0 0.27499284E+03</rscale>
<asrwt>0</asrwt>
<pdfrwt beam="1">  1        3 0.92300716E-02 0.27499284E+03</pdfrwt>
<pdfrwt beam="2">  1       -3 0.48478702E-01 0.27499284E+03</pdfrwt>
<totfact> 0.91078532E+02</totfact>
</mgrwt>
</event>
<event>
 5    1  0.1147887E+001  0.2756171E+03  0.7818608E-02  0.1098107E+00
          1   -1    0    0  501    0  0.00000000000E+00  0.00000000000E+00  0.30489399143E+03  0.30489399143E+03  0.00000000000E+00 0.  1.
         -1   -1    0    0    0  501 -0.00000000000E+00 -0.00000000000E+00 -0.62287857705E+02  0.62287857705E+02  0.00000000000E+00 0.  1.
         35    2    1    2    0    0  0.00000000000E+00  0.00000000000E+00  0.24260613373E+03  0.36718184914E+03  0.27561707896E+03 0.  0.
         25    1    3    3    0    0  0.10942918935E+02  0.10109805454E+01  0.21037675540E+03  0.24244411473E+03  0.12000000000E+03 0.  0.
         25    1    3    3    0    0 -0.10942918935E+02 -0.10109805454E+01  0.32229378327E+02  0.12473773440E+03  0.12000000000E+03 0.  0.
<mgrwt>
<rscale>  0 0.27561708E+03</rscale>
<asrwt>0</asrwt>
<pdfrwt beam="1">  1        1 0.46906767E-01 0.27561708E+03</pdfrwt>
<pdfrwt beam="2">  1       -1 0.95827476E-02 0.27561708E+03</pdfrwt>
<totfact> 0.55545601E+03</totfact>
</mgrwt>
</event>
<event>
 5    1  0.1147887E+001  0.2748460E+03  0.7818608E-02  0.1098538E+00
         -1   -1    0    0    0  501 -0.00000000000E+00  0.00000000000E+00  0.14838918526E+02  0.14838918526E+02  0.00000000000E+00 0.  1.
          1   -1    0    0  501    0  0.00000000000E+00 -0.00000000000E+00 -0.12726723022E+04  0.12726723022E+04  0.00000000000E+00 0.  1.
         35    2    1    2    0    0  0.00000000000E+00  0.00000000000E+00 -0.12578333837E+04  0.12875112208E+04  0.27484599763E+03 0.  0.
         25    1    3    3    0    0 -0.23860659154E+01  0.22464657647E+02 -0.33358148109E+03  0.35522803757E+03  0.12000000000E+03 0.  0.
         25    1    3    3    0    0  0.23860659154E+01 -0.22464657647E+02 -0.92425190262E+03  0.93228318319E+03  0.12000000000E+03 0.  0.
<mgrwt>
<rscale>  0 0.27484600E+03</rscale>
<asrwt>0</asrwt>
<pdfrwt beam="1">  1        1 0.19579575E+00 0.27484600E+03</pdfrwt>
<pdfrwt beam="2">  1       -1 0.22829104E-02 0.27484600E+03</pdfrwt>
<totfact> 0.57531807E+03</totfact>
</mgrwt>
</event>
<event>
 5    1  0.1147887E+001  0.2755186E+03  0.7818608E-02  0.1098162E+00
          1   -1    0    0  501    0  0.00000000000E+00  0.00000000000E+00  0.61635131145E+03  0.61635131145E+03  0.00000000000E+00 0. -1.
         -1   -1    0    0    0  501 -0.00000000000E+00 -0.00000000000E+00 -0.30790282302E+02  0.30790282302E+02  0.00000000000E+00 0. -1.
         35    2    1    2    0    0  0.00000000000E+00  0.00000000000E+00  0.58556102915E+03  0.64714159375E+03  0.27551864457E+03 0.  0.
         25    1    3    3    0    0  0.18697590635E+02  0.31966261655E+02  0.42577783386E+03  0.44391238504E+03  0.12000000000E+03 0.  0.
         25    1    3    3    0    0 -0.18697590635E+02 -0.31966261655E+02  0.15978319529E+03  0.20322920872E+03  0.12000000000E+03 0.  0.
<mgrwt>
<rscale>  0 0.27551864E+03</rscale>
<asrwt>0</asrwt>
<pdfrwt beam="1">  1        1 0.94823270E-01 0.27551864E+03</pdfrwt>
<pdfrwt beam="2">  1       -1 0.47369669E-02 0.27551864E+03</pdfrwt>
<totfact> 0.64425817E+03</totfact>
</mgrwt>
</event>
<event>
 5    1  0.1147887E+001  0.2768341E+03  0.7818608E-02  0.1097431E+00
         -1   -1    0    0    0  501 -0.00000000000E+00  0.00000000000E+00  0.26341419232E+02  0.26341419232E+02  0.00000000000E+00 0. -1.
          1   -1    0    0  501    0  0.00000000000E+00 -0.00000000000E+00 -0.72734447759E+03  0.72734447759E+03  0.00000000000E+00 0. -1.
         35    2    1    2    0    0  0.00000000000E+00  0.00000000000E+00 -0.70100305836E+03  0.75368589682E+03  0.27683414392E+03 0.  0.
         25    1    3    3    0    0  0.52640900946E+02 -0.41716132943E+02 -0.39337453920E+03  0.41671912398E+03  0.12000000000E+03 0.  0.
         25    1    3    3    0    0 -0.52640900946E+02  0.41716132943E+02 -0.30762851916E+03  0.33696677284E+03  0.12000000000E+03 0.  0.
<mgrwt>
<rscale>  0 0.27683414E+03</rscale>
<asrwt>0</asrwt>
<pdfrwt beam="1">  1        1 0.11189915E+00 0.27683414E+03</pdfrwt>
<pdfrwt beam="2">  1       -1 0.40525261E-02 0.27683414E+03</pdfrwt>
<totfact> 0.64089302E+03</totfact>
</mgrwt>
</event>
<event>
 5    1  0.1147887E+001  0.2763785E+03  0.7818608E-02  0.1097684E+00
          1   -1    0    0  501    0  0.00000000000E+00  0.00000000000E+00  0.14869794150E+03  0.14869794150E+03  0.00000000000E+00 0. -1.
         -1   -1    0    0    0  501 -0.00000000000E+00 -0.00000000000E+00 -0.12842321562E+03  0.12842321562E+03  0.00000000000E+00 0. -1.
         35    2    1    2    0    0  0.00000000000E+00  0.00000000000E+00  0.20274725885E+02  0.27712115712E+03  0.27637849268E+03 0.  0.
         25    1    3    3    0    0 -0.39410452014E+02 -0.50387132680E+02 -0.14509595020E+02  0.13675735891E+03  0.12000000000E+03 0.  0.
         25    1    3    3    0    0  0.39410452014E+02  0.50387132680E+02  0.34784320905E+02  0.14036379821E+03  0.12000000000E+03 0.  0.
<mgrwt>
<rscale>  0 0.27637849E+03</rscale>
<asrwt>0</asrwt>
<pdfrwt beam="1">  1        1 0.22876606E-01 0.27637849E+03</pdfrwt>
<pdfrwt beam="2">  1       -1 0.19757418E-01 0.27637849E+03</pdfrwt>
<totfact> 0.43859744E+03</totfact>
</mgrwt>
</event>
<event>
 5    1  0.1147887E+001  0.2731609E+03  0.7818608E-02  0.1099484E+00
         -2   -1    0    0    0  501 -0.00000000000E+00  0.00000000000E+00  0.29923325022E+02  0.29923325022E+02  0.00000000000E+00 0.  1.
          2   -1    0    0  501    0  0.00000000000E+00 -0.00000000000E+00 -0.62340067547E+03  0.62340067547E+03  0.00000000000E+00 0.  1.
         35    2    1    2    0    0  0.00000000000E+00  0.00000000000E+00 -0.59347735044E+03  0.65332400049E+03  0.27316091251E+03 0.  0.
         25    1    3    3    0    0  0.83722256761E+01  0.23936314689E+02 -0.44046443347E+03  0.45722200130E+03  0.12000000000E+03 0.  0.
         25    1    3    3    0    0 -0.83722256761E+01 -0.23936314689E+02 -0.15301291698E+03  0.19610199919E+03  0.12000000000E+03 0.  0.
<mgrwt>
<rscale>  0 0.27316091E+03</rscale>
<asrwt>0</asrwt>
<pdfrwt beam="1">  1        2 0.95907795E-01 0.27316091E+03</pdfrwt>
<pdfrwt beam="2">  1       -2 0.46035885E-02 0.27316091E+03</pdfrwt>
<totfact> 0.10657906E+04</totfact>
</mgrwt>
</event>
<event>
 5    1  0.1147887E+001  0.2744974E+03  0.7818608E-02  0.1098733E+00
         -2   -1    0    0    0  501 -0.00000000000E+00  0.00000000000E+00  0.55392164015E+02  0.55392164015E+02  0.00000000000E+00 0. -1.
          2   -1    0    0  501    0  0.00000000000E+00 -0.00000000000E+00 -0.34006990722E+03  0.34006990722E+03  0.00000000000E+00 0. -1.
         35    2    1    2    0    0  0.00000000000E+00  0.00000000000E+00 -0.28467774321E+03  0.39546207124E+03  0.27449741767E+03 0.  0.
         25    1    3    3    0    0  0.63454131727E+02  0.14127318407E+02 -0.12140191020E+03  0.18265933252E+03  0.12000000000E+03 0.  0.
         25    1    3    3    0    0 -0.63454131727E+02 -0.14127318407E+02 -0.16327583301E+03  0.21280273871E+03  0.12000000000E+03 0.  0.
<mgrwt>
<rscale>  0 0.27449742E+03</rscale>
<asrwt>0</asrwt>
<pdfrwt beam="1">  1        2 0.52318447E-01 0.27449742E+03</pdfrwt>
<pdfrwt beam="2">  1       -2 0.85218714E-02 0.27449742E+03</pdfrwt>
<totfact> 0.81026696E+03</totfact>
</mgrwt>
</event>
<event>
 5    1  0.1147887E+001  0.2745380E+03  0.7818608E-02  0.1098710E+00
          3   -1    0    0  501    0  0.00000000000E+00  0.00000000000E+00  0.52266182778E+03  0.52266182778E+03  0.00000000000E+00 0.  1.
         -3   -1    0    0    0  501 -0.00000000000E+00 -0.00000000000E+00 -0.36051568697E+02  0.36051568697E+02  0.00000000000E+00 0.  1.
         35    2    1    2    0    0  0.00000000000E+00  0.00000000000E+00  0.48661025908E+03  0.55871339648E+03  0.27453800312E+03 0.  0.
         25    1    3    3    0    0  0.34172628429E+02 -0.14559380783E+02  0.13067292834E+03  0.18125991918E+03  0.12000000000E+03 0.  0.
         25    1    3    3    0    0 -0.34172628429E+02  0.14559380783E+02  0.35593733075E+03  0.37745347730E+03  0.12000000000E+03 0.  0.
<mgrwt>
<rscale>  0 0.27453800E+03</rscale>
<asrwt>0</asrwt>
<pdfrwt beam="1">  1        3 0.80409506E-01 0.27453800E+03</pdfrwt>
<pdfrwt beam="2">  1       -3 0.55463956E-02 0.27453800E+03</pdfrwt>
<totfact> 0.72406892E+02</totfact>
</mgrwt>
</event>
<event>
 5    1  0.1147887E+001  0.2720229E+03  0.7818608E-02  0.1100127E+00
          2   -1    0    0  501    0  0.00000000000E+00  0.00000000000E+00  0.33283316037E+03  0.33283316037E+03  0.00000000000E+00 0. -1.
         -2   -1    0    0    0  501 -0.00000000000E+00 -0.00000000000E+00 -0.55580741548E+02  0.55580741548E+02  0.00000000000E+00 0. -1.
         35    2    1    2    0    0  0.00000000000E+00  0.00000000000E+00  0.27725241882E+03  0.38841390191E+03  0.27202289510E+03 0.  0.
         25    1    3    3    0    0 -0.57745246945E+02 -0.25406905392E+02  0.12304410880E+03  0.18308434421E+03  0.12000000000E+03 0.  0.
         25    1    3    3    0    0  0.57745246945E+02  0.25406905392E+02  0.15420831002E+03  0.20532955770E+03  0.12000000000E+03 0.  0.
<mgrwt>
<rscale>  0 0.27202290E+03</rscale>
<asrwt>0</asrwt>
<pdfrwt beam="1">  1        2 0.51205101E-01 0.27202290E+03</pdfrwt>
<pdfrwt beam="2">  1       -2 0.85508835E-02 0.27202290E+03</pdfrwt>
<totfact> 0.82456358E+03</totfact>
</mgrwt>
</event>
<event>
 5    1  0.1147887E+001  0.2750770E+03  0.7818608E-02  0.1098409E+00
          1   -1    0    0  501    0  0.00000000000E+00  0.00000000000E+00  0.78906226131E+03  0.78906226131E+03  0.00000000000E+00 0. -1.
         -1   -1    0    0    0  501 -0.00000000000E+00 -0.00000000000E+00 -0.23973816757E+02  0.23973816757E+02  0.00000000000E+00 0. -1.
         35    2    1    2    0    0  0.00000000000E+00  0.00000000000E+00  0.76508844455E+03  0.81303607807E+03  0.27507696423E+03 0.  0.
         25    1    3    3    0    0 -0.26584599359E+02  0.13688907784E+02  0.20464575902E+03  0.23911088182E+03  0.12000000000E+03 0.  0.
         25    1    3    3    0    0  0.26584599359E+02 -0.13688907784E+02  0.56044268553E+03  0.57392519625E+03  0.12000000000E+03 0.  0.
<mgrwt>
<rscale>  0 0.27507696E+03</rscale>
<asrwt>0</asrwt>
<pdfrwt beam="1">  1        1 0.12139417E+00 0.27507696E+03</pdfrwt>
<pdfrwt beam="2">  1       -1 0.36882801E-02 0.27507696E+03</pdfrwt>
<totfact> 0.65201897E+03</totfact>
</mgrwt>
</event>
<event>
 5    1  0.1147887E+001  0.2748540E+03  0.7818608E-02  0.1098533E+00
         -4   -1    0    0    0  501 -0.00000000000E+00  0.00000000000E+00  0.26559200470E+02  0.26559200470E+02  0.00000000000E+00 0.  1.
          4   -1    0    0  501    0  0.00000000000E+00 -0.00000000000E+00 -0.71109762077E+03  0.71109762077E+03  0.00000000000E+00 0.  1.
         35    2    1    2    0    0  0.00000000000E+00  0.00000000000E+00 -0.68453842030E+03  0.73765682124E+03  0.27485402863E+03 0.  0.
         25    1    3    3    0    0 -0.49580301795E+02 -0.27566375396E+02 -0.43783982145E+03  0.45751701676E+03  0.12000000000E+03 0.  0.
         25    1    3    3    0    0  0.49580301795E+02  0.27566375396E+02 -0.24669859885E+03  0.28013980448E+03  0.12000000000E+03 0.  0.
<mgrwt>
<rscale>  0 0.27485403E+03</rscale>
<asrwt>0</asrwt>
<pdfrwt beam="1">  1        4 0.10939963E+00 0.27485403E+03</pdfrwt>
<pdfrwt beam="2">  1       -4 0.40860312E-02 0.27485403E+03</pdfrwt>
<totfact> 0.42730509E+02</totfact>
</mgrwt>
</event>
<event>
 5    1  0.1147887E+001  0.2754138E+03  0.7818608E-02  0.1098221E+00
          2   -1    0    0  501    0  0.00000000000E+00  0.00000000000E+00  0.12861659416E+04  0.12861659416E+04  0.00000000000E+00 0. -1.
         -2   -1    0    0    0  501 -0.00000000000E+00 -0.00000000000E+00 -0.14743964260E+02  0.14743964260E+02  0.00000000000E+00 0. -1.
         35    2    1    2    0    0  0.00000000000E+00  0.00000000000E+00  0.12714219774E+04  0.13009099059E+04  0.27541375910E+03 0.  0.
         25    1    3    3    0    0  0.39011282430E+02  0.20264744674E+02  0.87797710688E+03  0.88722958711E+03  0.12000000000E+03 0.  0.
         25    1    3    3    0    0 -0.39011282430E+02 -0.20264744674E+02  0.39344487050E+03  0.41368031879E+03  0.12000000000E+03 0.  0.
<mgrwt>
<rscale>  0 0.27541376E+03</rscale>
<asrwt>0</asrwt>
<pdfrwt beam="1">  1        2 0.19787159E+00 0.27541376E+03</pdfrwt>
<pdfrwt beam="2">  1       -2 0.22683032E-02 0.27541376E+03</pdfrwt>
<totfact> 0.11455724E+04</totfact>
</mgrwt>
</event>
<event>
 5    1  0.1147887E+001  0.2730892E+03  0.7818608E-02  0.1099524E+00
         -2   -1    0    0    0  501 -0.00000000000E+00  0.00000000000E+00  0.26953949053E+02  0.26953949053E+02  0.00000000000E+00 0.  1.
          2   -1    0    0  501    0  0.00000000000E+00 -0.00000000000E+00 -0.69171428829E+03  0.69171428829E+03  0.00000000000E+00 0.  1.
         35    2    1    2    0    0  0.00000000000E+00  0.00000000000E+00 -0.66476033924E+03  0.71866823734E+03  0.27308922854E+03 0.  0.
         25    1    3    3    0    0 -0.47291178189E+02 -0.23654641386E+02 -0.43253531127E+03  0.45197654042E+03  0.12000000000E+03 0.  0.
         25    1    3    3    0    0  0.47291178189E+02  0.23654641386E+02 -0.23222502797E+03  0.26669169693E+03  0.12000000000E+03 0.  0.
<mgrwt>
<rscale>  0 0.27308923E+03</rscale>
<asrwt>0</asrwt>
<pdfrwt beam="1">  1        2 0.10641759E+00 0.27308923E+03</pdfrwt>
<pdfrwt beam="2">  1       -2 0.41467609E-02 0.27308923E+03</pdfrwt>
<totfact> 0.11026868E+04</totfact>
</mgrwt>
</event>
<event>
 5    1  0.1147887E+001  0.2748665E+03  0.7818608E-02  0.1098526E+00
          2   -1    0    0  501    0  0.00000000000E+00  0.00000000000E+00  0.15993424614E+04  0.15993424614E+04  0.00000000000E+00 0.  1.
         -2   -1    0    0    0  501 -0.00000000000E+00 -0.00000000000E+00 -0.11809792564E+02  0.11809792564E+02  0.00000000000E+00 0.  1.
         35    2    1    2    0    0  0.00000000000E+00  0.00000000000E+00  0.15875326688E+04  0.16111522539E+04  0.27486653276E+03 0.  0.
         25    1    3    3    0    0 -0.55930327341E+01 -0.63777950363E+02  0.90937383846E+03  0.91948881834E+03  0.12000000000E+03 0.  0.
         25    1    3    3    0    0  0.55930327341E+01  0.63777950363E+02  0.67815883034E+03  0.69166343559E+03  0.12000000000E+03 0.  0.
<mgrwt>
<rscale>  0 0.27486653E+03</rscale>
<asrwt>0</asrwt>
<pdfrwt beam="1">  1        2 0.24605251E+00 0.27486653E+03</pdfrwt>
<pdfrwt beam="2">  1       -2 0.18168924E-02 0.27486653E+03</pdfrwt>
<totfact> 0.10754009E+04</totfact>
</mgrwt>
</event>
<event>
 5    1  0.1147887E+001  0.2755203E+03  0.7818608E-02  0.1098161E+00
         -1   -1    0    0    0  501 -0.00000000000E+00  0.00000000000E+00  0.11604824034E+03  0.11604824034E+03  0.00000000000E+00 0.  1.
          1   -1    0    0  501    0  0.00000000000E+00 -0.00000000000E+00 -0.16353425822E+03  0.16353425822E+03  0.00000000000E+00 0.  1.
         35    2    1    2    0    0  0.00000000000E+00  0.00000000000E+00 -0.47486017880E+02  0.27958249856E+03  0.27552032884E+03 0.  0.
         25    1    3    3    0    0  0.21904067807E+02  0.38255834523E+02  0.28341774384E+02  0.13094484807E+03  0.12000000000E+03 0.  0.
         25    1    3    3    0    0 -0.21904067807E+02 -0.38255834523E+02 -0.75827792264E+02  0.14863765048E+03  0.12000000000E+03 0.  0.
<mgrwt>
<rscale>  0 0.27552033E+03</rscale>
<asrwt>0</asrwt>
<pdfrwt beam="1">  1        1 0.25159117E-01 0.27552033E+03</pdfrwt>
<pdfrwt beam="2">  1       -1 0.17853575E-01 0.27552033E+03</pdfrwt>
<totfact> 0.45758053E+03</totfact>
</mgrwt>
</event>
<event>
 5    1  0.1147887E+001  0.2742846E+03  0.7818608E-02  0.1098852E+00
         -2   -1    0    0    0  501 -0.00000000000E+00  0.00000000000E+00  0.47991478994E+02  0.47991478994E+02  0.00000000000E+00 0.  1.
          2   -1    0    0  501    0  0.00000000000E+00 -0.00000000000E+00 -0.39190314064E+03  0.39190314064E+03  0.00000000000E+00 0.  1.
         35    2    1    2    0    0  0.00000000000E+00  0.00000000000E+00 -0.34391166165E+03  0.43989461964E+03  0.27428460651E+03 0.  0.
         25    1    3    3    0    0 -0.57660809008E+01 -0.65954801631E+02 -0.16398066157E+03  0.21371228537E+03  0.12000000000E+03 0.  0.
         25    1    3    3    0    0  0.57660809008E+01  0.65954801631E+02 -0.17993100007E+03  0.22618233427E+03  0.12000000000E+03 0.  0.
<mgrwt>
<rscale>  0 0.27428461E+03</rscale>
<asrwt>0</asrwt>
<pdfrwt beam="1">  1        2 0.60292788E-01 0.27428461E+03</pdfrwt>
<pdfrwt beam="2">  1       -2 0.73833048E-02 0.27428461E+03</pdfrwt>
<totfact> 0.86945575E+03</totfact>
</mgrwt>
</event>
<event>
 5    1  0.1147887E+001  0.2757658E+03  0.7818608E-02  0.1098024E+00
         -2   -1    0    0    0  501 -0.00000000000E+00  0.00000000000E+00  0.36880465404E+02  0.36880465404E+02  0.00000000000E+00 0.  1.
          2   -1    0    0  501    0  0.00000000000E+00 -0.00000000000E+00 -0.51549478614E+03  0.51549478614E+03  0.00000000000E+00 0.  1.
         35    2    1    2    0    0  0.00000000000E+00  0.00000000000E+00 -0.47861432074E+03  0.55237525155E+03  0.27576575296E+03 0.  0.
         25    1    3    3    0    0 -0.63414703020E+02  0.18732419486E+02 -0.20831732701E+03  0.24933599185E+03  0.12000000000E+03 0.  0.
         25    1    3    3    0    0  0.63414703020E+02 -0.18732419486E+02 -0.27029699373E+03  0.30303925970E+03  0.12000000000E+03 0.  0.
<mgrwt>
<rscale>  0 0.27576575E+03</rscale>
<asrwt>0</asrwt>
<pdfrwt beam="1">  1        2 0.79306889E-01 0.27576575E+03</pdfrwt>
<pdfrwt beam="2">  1       -2 0.56739179E-02 0.27576575E+03</pdfrwt>
<totfact> 0.96469477E+03</totfact>
</mgrwt>
</event>
<event>
 5    1  0.1147887E+001  0.2753015E+03  0.7818608E-02  0.1098283E+00
         -2   -1    0    0    0  501 -0.00000000000E+00  0.00000000000E+00  0.27675203444E+03  0.27675203444E+03  0.00000000000E+00 0. -1.
          2   -1    0    0  501    0  0.00000000000E+00 -0.00000000000E+00 -0.68464664942E+02  0.68464664942E+02  0.00000000000E+00 0. -1.
         35    2    1    2    0    0  0.00000000000E+00  0.00000000000E+00  0.20828736950E+03  0.34521669938E+03  0.27530154602E+03 0.  0.
         25    1    3    3    0    0  0.54073281104E+02  0.38342067356E+02  0.11968980884E+03  0.18198814302E+03  0.12000000000E+03 0.  0.
         25    1    3    3    0    0 -0.54073281104E+02 -0.38342067356E+02  0.88597560653E+02  0.16322855636E+03  0.12000000000E+03 0.  0.
<mgrwt>
<rscale>  0 0.27530155E+03</rscale>
<asrwt>0</asrwt>
<pdfrwt beam="1">  1        2 0.10533025E-01 0.27530155E+03</pdfrwt>
<pdfrwt beam="2">  1       -2 0.42577236E-01 0.27530155E+03</pdfrwt>
<totfact> 0.31569748E+03</totfact>
</mgrwt>
</event>
<event>
 5    1  0.1147887E+001  0.2752066E+03  0.7818608E-02  0.1098336E+00
          1   -1    0    0  501    0  0.00000000000E+00  0.00000000000E+00  0.70861478782E+03  0.70861478782E+03  0.00000000000E+00 0.  1.
         -1   -1    0    0    0  501 -0.00000000000E+00 -0.00000000000E+00 -0.26720673958E+02  0.26720673958E+02  0.00000000000E+00 0.  1.
         35    2    1    2    0    0  0.00000000000E+00  0.00000000000E+00  0.68189411387E+03  0.73533546178E+03  0.27520657483E+03 0.  0.
         25    1    3    3    0    0 -0.60937270866E+02  0.54149495538E+01  0.26575237687E+03  0.29793791043E+03  0.12000000000E+03 0.  0.
         25    1    3    3    0    0  0.60937270866E+02 -0.54149495538E+01  0.41614173700E+03  0.43739755136E+03  0.12000000000E+03 0.  0.
<mgrwt>
<rscale>  0 0.27520657E+03</rscale>
<asrwt>0</asrwt>
<pdfrwt beam="1">  1        1 0.10901765E+00 0.27520657E+03</pdfrwt>
<pdfrwt beam="2">  1       -1 0.41108735E-02 0.27520657E+03</pdfrwt>
<totfact> 0.65188296E+03</totfact>
</mgrwt>
</event>
<event>
 5    1  0.1147887E+001  0.2750231E+03  0.7818608E-02  0.1098439E+00
          2   -1    0    0  501    0  0.00000000000E+00  0.00000000000E+00  0.70525646597E+03  0.70525646597E+03  0.00000000000E+00 0. -1.
         -2   -1    0    0    0  501 -0.00000000000E+00 -0.00000000000E+00 -0.26812121906E+02  0.26812121906E+02  0.00000000000E+00 0. -1.
         35    2    1    2    0    0  0.00000000000E+00  0.00000000000E+00  0.67844434406E+03  0.73206858787E+03  0.27502307060E+03 0.  0.
         25    1    3    3    0    0 -0.64572924670E+02 -0.17445246990E+02  0.35506475214E+03  0.38071640030E+03  0.12000000000E+03 0.  0.
         25    1    3    3    0    0  0.64572924670E+02  0.17445246990E+02  0.32337959192E+03  0.35135218757E+03  0.12000000000E+03 0.  0.
<mgrwt>
<rscale>  0 0.27502307E+03</rscale>
<asrwt>0</asrwt>
<pdfrwt beam="1">  1        2 0.10850098E+00 0.27502307E+03</pdfrwt>
<pdfrwt beam="2">  1       -2 0.41249424E-02 0.27502307E+03</pdfrwt>
<totfact> 0.10859405E+04</totfact>
</mgrwt>
</event>
<event>
 5    1  0.1147887E+001  0.2744375E+03  0.7818608E-02  0.1098766E+00
         -2   -1    0    0    0  501 -0.00000000000E+00  0.00000000000E+00  0.14227962504E+03  0.14227962504E+03  0.00000000000E+00 0.  1.
          2   -1    0    0  501    0  0.00000000000E+00 -0.00000000000E+00 -0.13233793714E+03  0.13233793714E+03  0.00000000000E+00 0.  1.
         35    2    1    2    0    0  0.00000000000E+00  0.00000000000E+00  0.99416878990E+01  0.27461756218E+03  0.27443754900E+03 0.  0.
         25    1    3    3    0    0  0.45560641059E+02 -0.48203202245E+02 -0.47987093985E+00  0.13711145465E+03  0.12000000000E+03 0.  0.
         25    1    3    3    0    0 -0.45560641059E+02  0.48203202245E+02  0.10421558839E+02  0.13750610753E+03  0.12000000000E+03 0.  0.
<mgrwt>
<rscale>  0 0.27443755E+03</rscale>
<asrwt>0</asrwt>
<pdfrwt beam="1">  1        2 0.20359683E-01 0.27443755E+03</pdfrwt>
<pdfrwt beam="2">  1       -2 0.21889173E-01 0.27443755E+03</pdfrwt>
<totfact> 0.48548849E+03</totfact>
</mgrwt>
</event>
<event>
 5    1  0.1147887E+001  0.2751921E+03  0.7818608E-02  0.1098344E+00
         -2   -1    0    0    0  501 -0.00000000000E+00  0.00000000000E+00  0.16935869966E+02  0.16935869966E+02  0.00000000000E+00 0. -1.
          2   -1    0    0  501    0  0.00000000000E+00 -0.00000000000E+00 -0.11179040599E+04  0.11179040599E+04  0.00000000000E+00 0. -1.
         35    2    1    2    0    0  0.00000000000E+00  0.00000000000E+00 -0.11009681900E+04  0.11348399299E+04  0.27519213501E+03 0.  0.
         25    1    3    3    0    0 -0.58866977584E+02 -0.19200375978E+02 -0.65948865816E+03  0.67317105236E+03  0.12000000000E+03 0.  0.
         25    1    3    3    0    0  0.58866977584E+02  0.19200375978E+02 -0.44147953182E+03  0.46166887755E+03  0.12000000000E+03 0.  0.
<mgrwt>
<rscale>  0 0.27519214E+03</rscale>
<asrwt>0</asrwt>
<pdfrwt beam="1">  1        2 0.17198520E+00 0.27519214E+03</pdfrwt>
<pdfrwt beam="2">  1       -2 0.26055191E-02 0.27519214E+03</pdfrwt>
<totfact> 0.11631996E+04</totfact>
</mgrwt>
</event>
<event>
 5    1  0.1147887E+001  0.2717196E+03  0.7818608E-02  0.1100299E+00
         -2   -1    0    0    0  501 -0.00000000000E+00  0.00000000000E+00  0.38149347171E+02  0.38149347171E+02  0.00000000000E+00 0.  1.
          2   -1    0    0  501    0  0.00000000000E+00 -0.00000000000E+00 -0.48383220716E+03  0.48383220716E+03  0.00000000000E+00 0.  1.
         35    2    1    2    0    0  0.00000000000E+00  0.00000000000E+00 -0.44568285999E+03  0.52198155433E+03  0.27171958224E+03 0.  0.
         25    1    3    3    0    0  0.15517386517E+02  0.83389765850E+01 -0.34044167523E+03  0.36140124799E+03  0.12000000000E+03 0.  0.
         25    1    3    3    0    0 -0.15517386517E+02 -0.83389765850E+01 -0.10524118476E+03  0.16058030634E+03  0.12000000000E+03 0.  0.
<mgrwt>
<rscale>  0 0.27171958E+03</rscale>
<asrwt>0</asrwt>
<pdfrwt beam="1">  1        2 0.74435726E-01 0.27171958E+03</pdfrwt>
<pdfrwt beam="2">  1       -2 0.58691302E-02 0.27171958E+03</pdfrwt>
<totfact> 0.98275451E+03</totfact>
</mgrwt>
</event>
<event>
 5    1  0.1147887E+001  0.2739992E+03  0.7818608E-02  0.1099012E+00
         -1   -1    0    0    0  501 -0.00000000000E+00  0.00000000000E+00  0.39775494121E+02  0.39775494121E+02  0.00000000000E+00 0.  1.
          1   -1    0    0  501    0  0.00000000000E+00 -0.00000000000E+00 -0.47187054887E+03  0.47187054887E+03  0.00000000000E+00 0.  1.
         35    2    1    2    0    0  0.00000000000E+00  0.00000000000E+00 -0.43209505475E+03  0.51164604299E+03  0.27399915505E+03 0.  0.
         25    1    3    3    0    0  0.14104880109E+02 -0.51267513453E+02 -0.28936428352E+03  0.31774045092E+03  0.12000000000E+03 0.  0.
         25    1    3    3    0    0 -0.14104880109E+02  0.51267513453E+02 -0.14273077124E+03  0.19390559207E+03  0.12000000000E+03 0.  0.
<mgrwt>
<rscale>  0 0.27399916E+03</rscale>
<asrwt>0</asrwt>
<pdfrwt beam="1">  1        1 0.72595466E-01 0.27399916E+03</pdfrwt>
<pdfrwt beam="2">  1       -1 0.61193070E-02 0.27399916E+03</pdfrwt>
<totfact> 0.62934034E+03</totfact>
</mgrwt>
</event>
<event>
 5    1  0.1147887E+001  0.2761630E+03  0.7818608E-02  0.1097803E+00
         -2   -1    0    0    0  501 -0.00000000000E+00  0.00000000000E+00  0.17288074483E+03  0.17288074483E+03  0.00000000000E+00 0.  1.
          2   -1    0    0  501    0  0.00000000000E+00 -0.00000000000E+00 -0.11028703826E+03  0.11028703826E+03  0.00000000000E+00 0.  1.
         35    2    1    2    0    0  0.00000000000E+00  0.00000000000E+00  0.62593706575E+02  0.28316778309E+03  0.27616303387E+03 0.  0.
         25    1    3    3    0    0 -0.37472516244E+02 -0.38391284034E+02 -0.12065583585E+02  0.13199870632E+03  0.12000000000E+03 0.  0.
         25    1    3    3    0    0  0.37472516244E+02  0.38391284034E+02  0.74659290161E+02  0.15116907677E+03  0.12000000000E+03 0.  0.
<mgrwt>
<rscale>  0 0.27616303E+03</rscale>
<asrwt>0</asrwt>
<pdfrwt beam="1">  1        2 0.16967237E-01 0.27616303E+03</pdfrwt>
<pdfrwt beam="2">  1       -2 0.26597038E-01 0.27616303E+03</pdfrwt>
<totfact> 0.42579356E+03</totfact>
</mgrwt>
</event>
<event>
 5    1  0.1147887E+001  0.2790479E+03  0.7818608E-02  0.1096210E+00
         -2   -1    0    0    0  501 -0.00000000000E+00  0.00000000000E+00  0.41772609439E+02  0.41772609439E+02  0.00000000000E+00 0. -1.
          2   -1    0    0  501    0  0.00000000000E+00 -0.00000000000E+00 -0.46602151237E+03  0.46602151237E+03  0.00000000000E+00 0. -1.
         35    2    1    2    0    0  0.00000000000E+00  0.00000000000E+00 -0.42424890293E+03  0.50779412181E+03  0.27904791436E+03 0.  0.
         25    1    3    3    0    0 -0.69994414326E+01  0.45932677115E+02 -0.11399126127E+03  0.17190930938E+03  0.12000000000E+03 0.  0.
         25    1    3    3    0    0  0.69994414326E+01 -0.45932677115E+02 -0.31025764167E+03  0.33588481243E+03  0.12000000000E+03 0.  0.
<mgrwt>
<rscale>  0 0.27904791E+03</rscale>
<asrwt>0</asrwt>
<pdfrwt beam="1">  1        2 0.71695613E-01 0.27904791E+03</pdfrwt>
<pdfrwt beam="2">  1       -2 0.64265557E-02 0.27904791E+03</pdfrwt>
<totfact> 0.89212018E+03</totfact>
</mgrwt>
</event>
<event>
 5    1  0.1147887E+001  0.2765342E+03  0.7818608E-02  0.1097597E+00
         -2   -1    0    0    0  501 -0.00000000000E+00  0.00000000000E+00  0.75591518417E+01  0.75591518417E+01  0.00000000000E+00 0.  1.
          2   -1    0    0  501    0  0.00000000000E+00 -0.00000000000E+00 -0.25290919507E+04  0.25290919507E+04  0.00000000000E+00 0.  1.
         35    2    1    2    0    0  0.00000000000E+00  0.00000000000E+00 -0.25215327988E+04  0.25366511025E+04  0.27653419374E+03 0.  0.
         25    1    3    3    0    0 -0.63679526632E+02 -0.17659193450E+02 -0.14325886305E+04  0.14391237311E+04  0.12000000000E+03 0.  0.
         25    1    3    3    0    0  0.63679526632E+02  0.17659193450E+02 -0.10889441684E+04  0.10975273714E+04  0.12000000000E+03 0.  0.
<mgrwt>
<rscale>  0 0.27653419E+03</rscale>
<asrwt>0</asrwt>
<pdfrwt beam="1">  1        2 0.38909124E+00 0.27653419E+03</pdfrwt>
<pdfrwt beam="2">  1       -2 0.11629459E-02 0.27653419E+03</pdfrwt>
<totfact> 0.66157557E+03</totfact>
</mgrwt>
</event>
<event>
 5    1  0.1147887E+001  0.2744001E+03  0.7818608E-02  0.1098787E+00
          1   -1    0    0  501    0  0.00000000000E+00  0.00000000000E+00  0.61384305791E+03  0.61384305791E+03  0.00000000000E+00 0.  1.
         -1   -1    0    0    0  501 -0.00000000000E+00 -0.00000000000E+00 -0.30665587611E+02  0.30665587611E+02  0.00000000000E+00 0.  1.
         35    2    1    2    0    0  0.00000000000E+00  0.00000000000E+00  0.58317747030E+03  0.64450864552E+03  0.27440013172E+03 0.  0.
         25    1    3    3    0    0 -0.99705486436E+00  0.12444462704E+02  0.44503509904E+03  0.46109879434E+03  0.12000000000E+03 0.  0.
         25    1    3    3    0    0  0.99705486436E+00 -0.12444462704E+02  0.13814237126E+03  0.18340985117E+03  0.12000000000E+03 0.  0.
<mgrwt>
<rscale>  0 0.27440013E+03</rscale>
<asrwt>0</asrwt>
<pdfrwt beam="1">  1        1 0.94437384E-01 0.27440013E+03</pdfrwt>
<pdfrwt beam="2">  1       -1 0.47177832E-02 0.27440013E+03</pdfrwt>
<totfact> 0.65181085E+03</totfact>
</mgrwt>
</event>
<event>
 5    1  0.1147887E+001  0.2714765E+03  0.7818608E-02  0.1100438E+00
         -1   -1    0    0    0  501 -0.00000000000E+00  0.00000000000E+00  0.59818767679E+01  0.59818767679E+01  0.00000000000E+00 0. -1.
          1   -1    0    0  501    0  0.00000000000E+00 -0.00000000000E+00 -0.30801155393E+04  0.30801155393E+04  0.00000000000E+00 0. -1.
         35    2    1    2    0    0  0.00000000000E+00  0.00000000000E+00 -0.30741336625E+04  0.30860974160E+04  0.27147649318E+03 0.  0.
         25    1    3    3    0    0  0.17712965921E+02  0.44714888834E+02 -0.20073845824E+04  0.20115431967E+04  0.12000000000E+03 0.  0.
         25    1    3    3    0    0 -0.17712965921E+02 -0.44714888834E+02 -0.10667490801E+04  0.10745542194E+04  0.12000000000E+03 0.  0.
<mgrwt>
<rscale>  0 0.27147649E+03</rscale>
<asrwt>0</asrwt>
<pdfrwt beam="1">  1        1 0.47386376E+00 0.27147649E+03</pdfrwt>
<pdfrwt beam="2">  1       -1 0.92028905E-03 0.27147649E+03</pdfrwt>
<totfact> 0.13489296E+03</totfact>
</mgrwt>
</event>
<event>
 5    1  0.1147887E+001  0.2751895E+03  0.7818608E-02  0.1098346E+00
         -2   -1    0    0    0  501 -0.00000000000E+00  0.00000000000E+00  0.15716744584E+02  0.15716744584E+02  0.00000000000E+00 0.  1.
          2   -1    0    0  501    0  0.00000000000E+00 -0.00000000000E+00 -0.12045952334E+04  0.12045952334E+04  0.00000000000E+00 0.  1.
         35    2    1    2    0    0  0.00000000000E+00  0.00000000000E+00 -0.11888784888E+04  0.12203119779E+04  0.27518950278E+03 0.  0.
         25    1    3    3    0    0  0.59281409039E+02  0.23404622587E+02 -0.69060161580E+03  0.70384135539E+03  0.12000000000E+03 0.  0.
         25    1    3    3    0    0 -0.59281409039E+02 -0.23404622587E+02 -0.49827687298E+03  0.51647062255E+03  0.12000000000E+03 0.  0.
<mgrwt>
<rscale>  0 0.27518950E+03</rscale>
<asrwt>0</asrwt>
<pdfrwt beam="1">  1        2 0.18532239E+00 0.27518950E+03</pdfrwt>
<pdfrwt beam="2">  1       -2 0.24179601E-02 0.27518950E+03</pdfrwt>
<totfact> 0.11582688E+04</totfact>
</mgrwt>
</event>
<event>
 5    1  0.1147887E+001  0.2750035E+03  0.7818608E-02  0.1098450E+00
          2   -1    0    0  501    0  0.00000000000E+00  0.00000000000E+00  0.48130614157E+03  0.48130614157E+03  0.00000000000E+00 0. -1.
         -2   -1    0    0    0  501 -0.00000000000E+00 -0.00000000000E+00 -0.39282143732E+02  0.39282143732E+02  0.00000000000E+00 0. -1.
         35    2    1    2    0    0  0.00000000000E+00  0.00000000000E+00  0.44202399784E+03  0.52058828531E+03  0.27500354203E+03 0.  0.
         25    1    3    3    0    0 -0.31303268923E+02 -0.58536792788E+02  0.20205468252E+03  0.24419775897E+03  0.12000000000E+03 0.  0.
         25    1    3    3    0    0  0.31303268923E+02  0.58536792788E+02  0.23996931532E+03  0.27639052634E+03  0.12000000000E+03 0.  0.
<mgrwt>
<rscale>  0 0.27500354E+03</rscale>
<asrwt>0</asrwt>
<pdfrwt beam="1">  1        2 0.74047094E-01 0.27500354E+03</pdfrwt>
<pdfrwt beam="2">  1       -2 0.60434071E-02 0.27500354E+03</pdfrwt>
<totfact> 0.94556650E+03</totfact>
</mgrwt>
</event>
<event>
 5    1  0.1147887E+001  0.2742985E+03  0.7818608E-02  0.1098844E+00
         -1   -1    0    0    0  501 -0.00000000000E+00  0.00000000000E+00  0.22232319788E+03  0.22232319788E+03  0.00000000000E+00 0.  1.
          1   -1    0    0  501    0  0.00000000000E+00 -0.00000000000E+00 -0.84606186010E+02  0.84606186010E+02  0.00000000000E+00 0.  1.
         35    2    1    2    0    0  0.00000000000E+00  0.00000000000E+00  0.13771701187E+03  0.30692938389E+03  0.27429850772E+03 0.  0.
         25    1    3    3    0    0 -0.13715899962E+02  0.22836093864E+02  0.13692506064E+03  0.18400566656E+03  0.12000000000E+03 0.  0.
         25    1    3    3    0    0  0.13715899962E+02 -0.22836093864E+02  0.79195122673E+00  0.12292371733E+03  0.12000000000E+03 0.  0.
<mgrwt>
<rscale>  0 0.27429851E+03</rscale>
<asrwt>0</asrwt>
<pdfrwt beam="1">  1        1 0.13016336E-01 0.27429851E+03</pdfrwt>
<pdfrwt beam="2">  1       -1 0.34203569E-01 0.27429851E+03</pdfrwt>
<totfact> 0.36450608E+03</totfact>
</mgrwt>
</event>
<event>
 5    1  0.1147887E+001  0.2741308E+03  0.7818608E-02  0.1098938E+00
         -1   -1    0    0    0  501 -0.00000000000E+00  0.00000000000E+00  0.74765711486E+02  0.74765711486E+02  0.00000000000E+00 0. -1.
          1   -1    0    0  501    0  0.00000000000E+00 -0.00000000000E+00 -0.25127729132E+03  0.25127729132E+03  0.00000000000E+00 0. -1.
         35    2    1    2    0    0  0.00000000000E+00  0.00000000000E+00 -0.17651157983E+03  0.32604300280E+03  0.27413081159E+03 0.  0.
         25    1    3    3    0    0  0.48736361961E+02  0.39985398687E+02 -0.11242256145E+03  0.17610479099E+03  0.12000000000E+03 0.  0.
         25    1    3    3    0    0 -0.48736361961E+02 -0.39985398687E+02 -0.64089018378E+02  0.14993821181E+03  0.12000000000E+03 0.  0.
<mgrwt>
<rscale>  0 0.27413081E+03</rscale>
<asrwt>0</asrwt>
<pdfrwt beam="1">  1        1 0.38658044E-01 0.27413081E+03</pdfrwt>
<pdfrwt beam="2">  1       -1 0.11502417E-01 0.27413081E+03</pdfrwt>
<totfact> 0.53351165E+03</totfact>
</mgrwt>
</event>
<event>
 5    1  0.1147887E+001  0.2749551E+03  0.7818608E-02  0.1098477E+00
          2   -1    0    0  501    0  0.00000000000E+00  0.00000000000E+00  0.40342368363E+02  0.40342368363E+02  0.00000000000E+00 0.  1.
         -2   -1    0    0    0  501 -0.00000000000E+00 -0.00000000000E+00 -0.46849211013E+03  0.46849211013E+03  0.00000000000E+00 0.  1.
         35    2    1    2    0    0  0.00000000000E+00  0.00000000000E+00 -0.42814974176E+03  0.50883447849E+03  0.27495513293E+03 0.  0.
         25    1    3    3    0    0  0.15836676504E+02  0.30292681738E+02 -0.10725713509E+03  0.16453735113E+03  0.12000000000E+03 0.  0.
         25    1    3    3    0    0 -0.15836676504E+02 -0.30292681738E+02 -0.32089260667E+03  0.34429712736E+03  0.12000000000E+03 0.  0.
<mgrwt>
<rscale>  0 0.27495513E+03</rscale>
<asrwt>0</asrwt>
<pdfrwt beam="1">  1        2 0.62065178E-02 0.27495513E+03</pdfrwt>
<pdfrwt beam="2">  1       -2 0.72075715E-01 0.27495513E+03</pdfrwt>
<totfact> 0.21113852E+03</totfact>
</mgrwt>
</event>
<event>
 5    1  0.1147887E+001  0.2755791E+03  0.7818608E-02  0.1098128E+00
          1   -1    0    0  501    0  0.00000000000E+00  0.00000000000E+00  0.12698134638E+04  0.12698134638E+04  0.00000000000E+00 0. -1.
         -1   -1    0    0    0  501 -0.00000000000E+00 -0.00000000000E+00 -0.14951776193E+02  0.14951776193E+02  0.00000000000E+00 0. -1.
         35    2    1    2    0    0  0.00000000000E+00  0.00000000000E+00  0.12548616876E+04  0.12847652400E+04  0.27557914810E+03 0.  0.
         25    1    3    3    0    0 -0.43170652422E+02  0.62753892975E+00  0.38420432207E+03  0.40481731699E+03  0.12000000000E+03 0.  0.
         25    1    3    3    0    0  0.43170652422E+02 -0.62753892975E+00  0.87065736550E+03  0.87994792297E+03  0.12000000000E+03 0.  0.
<mgrwt>
<rscale>  0 0.27557915E+03</rscale>
<asrwt>0</asrwt>
<pdfrwt beam="1">  1        1 0.19535583E+00 0.27557915E+03</pdfrwt>
<pdfrwt beam="2">  1       -1 0.23002743E-02 0.27557915E+03</pdfrwt>
<totfact> 0.57156521E+03</totfact>
</mgrwt>
</event>
<event>
 5    1  0.1147887E+001  0.2748219E+03  0.7818608E-02  0.1098551E+00
         -3   -1    0    0    0  501 -0.00000000000E+00  0.00000000000E+00  0.12834877066E+03  0.12834877066E+03  0.00000000000E+00 0. -1.
          3   -1    0    0  501    0  0.00000000000E+00 -0.00000000000E+00 -0.14711297113E+03  0.14711297113E+03  0.00000000000E+00 0. -1.
         35    2    1    2    0    0  0.00000000000E+00  0.00000000000E+00 -0.18764200473E+02  0.27546174179E+03  0.27482189864E+03 0.  0.
         25    1    3    3    0    0 -0.56042195750E+02  0.99163078870E+00  0.27309930156E+02  0.13523144354E+03  0.12000000000E+03 0.  0.
         25    1    3    3    0    0  0.56042195750E+02 -0.99163078870E+00 -0.46074130628E+02  0.14023029826E+03  0.12000000000E+03 0.  0.
<mgrwt>
<rscale>  0 0.27482190E+03</rscale>
<asrwt>0</asrwt>
<pdfrwt beam="1">  1        3 0.22632765E-01 0.27482190E+03</pdfrwt>
<pdfrwt beam="2">  1       -3 0.19745965E-01 0.27482190E+03</pdfrwt>
<totfact> 0.10502968E+03</totfact>
</mgrwt>
</event>
<event>
 5    1  0.1147887E+001  0.2762981E+03  0.7818608E-02  0.1097728E+00
          2   -1    0    0  501    0  0.00000000000E+00  0.00000000000E+00  0.81211230674E+03  0.81211230674E+03  0.00000000000E+00 0.  1.
         -2   -1    0    0    0  501 -0.00000000000E+00 -0.00000000000E+00 -0.23500648977E+02  0.23500648977E+02  0.00000000000E+00 0.  1.
         35    2    1    2    0    0  0.00000000000E+00  0.00000000000E+00  0.78861165776E+03  0.83561295571E+03  0.27629814513E+03 0.  0.
         25    1    3    3    0    0 -0.43289280663E+02  0.12113797550E+02  0.55041622492E+03  0.56513602484E+03  0.12000000000E+03 0.  0.
         25    1    3    3    0    0  0.43289280663E+02 -0.12113797550E+02  0.23819543284E+03  0.27047693088E+03  0.12000000000E+03 0.  0.
<mgrwt>
<rscale>  0 0.27629815E+03</rscale>
<asrwt>0</asrwt>
<pdfrwt beam="1">  1        2 0.12494033E+00 0.27629815E+03</pdfrwt>
<pdfrwt beam="2">  1       -2 0.36154851E-02 0.27629815E+03</pdfrwt>
<totfact> 0.11103626E+04</totfact>
</mgrwt>
</event>
<event>
 5    1  0.1147887E+001  0.2759152E+03  0.7818608E-02  0.1097941E+00
         -1   -1    0    0    0  501 -0.00000000000E+00  0.00000000000E+00  0.14102894187E+03  0.14102894187E+03  0.00000000000E+00 0.  1.
          1   -1    0    0  501    0  0.00000000000E+00 -0.00000000000E+00 -0.13495317722E+03  0.13495317722E+03  0.00000000000E+00 0.  1.
         35    2    1    2    0    0  0.00000000000E+00  0.00000000000E+00  0.60757646478E+01  0.27598211909E+03  0.27591523180E+03 0.  0.
         25    1    3    3    0    0  0.49572228780E+02  0.23182983882E+02 -0.37437309736E+02  0.13709999551E+03  0.12000000000E+03 0.  0.
         25    1    3    3    0    0 -0.49572228780E+02 -0.23182983882E+02  0.43513074383E+02  0.13888212358E+03  0.12000000000E+03 0.  0.
<mgrwt>
<rscale>  0 0.27591523E+03</rscale>
<asrwt>0</asrwt>
<pdfrwt beam="1">  1        1 0.20762027E-01 0.27591523E+03</pdfrwt>
<pdfrwt beam="2">  1       -1 0.21696760E-01 0.27591523E+03</pdfrwt>
<totfact> 0.42630384E+03</totfact>
</mgrwt>
</event>
<event>
 5    1  0.1147887E+001  0.2744776E+03  0.7818608E-02  0.1098744E+00
          1   -1    0    0  501    0  0.00000000000E+00  0.00000000000E+00  0.16564354078E+03  0.16564354078E+03  0.00000000000E+00 0.  1.
         -1   -1    0    0    0  501 -0.00000000000E+00 -0.00000000000E+00 -0.11370496014E+03  0.11370496014E+03  0.00000000000E+00 0.  1.
         35    2    1    2    0    0  0.00000000000E+00  0.00000000000E+00  0.51938580641E+02  0.27934850092E+03  0.27447762897E+03 0.  0.
         25    1    3    3    0    0 -0.51361835417E+02  0.30375208730E+02  0.56053984450E+02  0.14526782374E+03  0.12000000000E+03 0.  0.
         25    1    3    3    0    0  0.51361835417E+02 -0.30375208730E+02 -0.41154038092E+01  0.13408067717E+03  0.12000000000E+03 0.  0.
<mgrwt>
<rscale>  0 0.27447763E+03</rscale>
<asrwt>0</asrwt>
<pdfrwt beam="1">  1        1 0.25483622E-01 0.27447763E+03</pdfrwt>
<pdfrwt beam="2">  1       -1 0.17493071E-01 0.27447763E+03</pdfrwt>
<totfact> 0.46513285E+03</totfact>
</mgrwt>
</event>
<event>
 5    1  0.1147887E+001  0.2767574E+03  0.7818608E-02  0.1097473E+00
         -2   -1    0    0    0  501 -0.00000000000E+00  0.00000000000E+00  0.62415141737E+01  0.62415141737E+01  0.00000000000E+00 0. -1.
          2   -1    0    0  501    0  0.00000000000E+00 -0.00000000000E+00 -0.30679520467E+04  0.30679520467E+04  0.00000000000E+00 0. -1.
         35    2    1    2    0    0  0.00000000000E+00  0.00000000000E+00 -0.30617105325E+04  0.30741935609E+04  0.27675741135E+03 0.  0.
         25    1    3    3    0    0  0.64703668990E+02  0.22593053121E+02 -0.14510209484E+04  0.14575866367E+04  0.12000000000E+03 0.  0.
         25    1    3    3    0    0 -0.64703668990E+02 -0.22593053121E+02 -0.16106895842E+04  0.16166069242E+04  0.12000000000E+03 0.  0.
<mgrwt>
<rscale>  0 0.27675741E+03</rscale>
<asrwt>0</asrwt>
<pdfrwt beam="1">  1        2 0.47199418E+00 0.27675741E+03</pdfrwt>
<pdfrwt beam="2">  1       -2 0.96022978E-03 0.27675741E+03</pdfrwt>
<totfact> 0.42914600E+03</totfact>
</mgrwt>
</event>
<event>
 5    1  0.1147887E+001  0.2776404E+03  0.7818608E-02  0.1096985E+00
         -1   -1    0    0    0  501 -0.00000000000E+00  0.00000000000E+00  0.15772087880E+02  0.15772087880E+02  0.00000000000E+00 0. -1.
          1   -1    0    0  501    0  0.00000000000E+00 -0.00000000000E+00 -0.12218449839E+04  0.12218449839E+04  0.00000000000E+00 0. -1.
         35    2    1    2    0    0  0.00000000000E+00  0.00000000000E+00 -0.12060728960E+04  0.12376170718E+04  0.27764038944E+03 0.  0.
         25    1    3    3    0    0 -0.44841484850E+02  0.50649952789E+02 -0.52649107784E+03  0.54421414124E+03  0.12000000000E+03 0.  0.
         25    1    3    3    0    0  0.44841484850E+02 -0.50649952789E+02 -0.67958181819E+03  0.69340293055E+03  0.12000000000E+03 0.  0.
<mgrwt>
<rscale>  0 0.27764039E+03</rscale>
<asrwt>0</asrwt>
<pdfrwt beam="1">  1        1 0.18797613E+00 0.27764039E+03</pdfrwt>
<pdfrwt beam="2">  1       -1 0.24264754E-02 0.27764039E+03</pdfrwt>
<totfact> 0.57051405E+03</totfact>
</mgrwt>
</event>
<event>
 5    1  0.1147887E+001  0.2789992E+03  0.7818608E-02  0.1096237E+00
          1   -1    0    0  501    0  0.00000000000E+00  0.00000000000E+00  0.30274702402E+03  0.30274702402E+03  0.00000000000E+00 0.  1.
         -1   -1    0    0    0  501 -0.00000000000E+00 -0.00000000000E+00 -0.64278568555E+02  0.64278568555E+02  0.00000000000E+00 0.  1.
         35    2    1    2    0    0  0.00000000000E+00  0.00000000000E+00  0.23846845547E+03  0.36702559258E+03  0.27899924974E+03 0.  0.
         25    1    3    3    0    0  0.59778198525E+01 -0.57978077462E+02  0.17287973687E+03  0.21836802700E+03  0.12000000000E+03 0.  0.
         25    1    3    3    0    0 -0.59778198525E+01  0.57978077462E+02  0.65588718602E+02  0.14865756558E+03  0.12000000000E+03 0.  0.
<mgrwt>
<rscale>  0 0.27899925E+03</rscale>
<asrwt>0</asrwt>
<pdfrwt beam="1">  1        1 0.46576464E-01 0.27899925E+03</pdfrwt>
<pdfrwt beam="2">  1       -1 0.98890107E-02 0.27899925E+03</pdfrwt>
<totfact> 0.53406495E+03</totfact>
</mgrwt>
</event>
<event>
 5    1  0.1147887E+001  0.2748467E+03  0.7818608E-02  0.1098537E+00
          2   -1    0    0  501    0  0.00000000000E+00  0.00000000000E+00  0.51531386289E+02  0.51531386289E+02  0.00000000000E+00 0. -1.
         -2   -1    0    0    0  501 -0.00000000000E+00 -0.00000000000E+00 -0.36647911699E+03  0.36647911699E+03  0.00000000000E+00 0. -1.
         35    2    1    2    0    0  0.00000000000E+00  0.00000000000E+00 -0.31494773071E+03  0.41801050328E+03  0.27484669869E+03 0.  0.
         25    1    3    3    0    0 -0.33515067898E+02  0.14998703307E+02 -0.24265646458E+03  0.27318561580E+03  0.12000000000E+03 0.  0.
         25    1    3    3    0    0  0.33515067898E+02 -0.14998703307E+02 -0.72291266129E+02  0.14482488749E+03  0.12000000000E+03 0.  0.
<mgrwt>
<rscale>  0 0.27484670E+03</rscale>
<asrwt>0</asrwt>
<pdfrwt beam="1">  1        2 0.79279057E-02 0.27484670E+03</pdfrwt>
<pdfrwt beam="2">  1       -2 0.56381402E-01 0.27484670E+03</pdfrwt>
<totfact> 0.25799041E+03</totfact>
</mgrwt>
</event>
<event>
 5    1  0.1147887E+001  0.2749854E+03  0.7818608E-02  0.1098460E+00
          2   -1    0    0  501    0  0.00000000000E+00  0.00000000000E+00  0.28874415976E+04  0.28874415976E+04  0.00000000000E+00 0.  1.
         -2   -1    0    0    0  501 -0.00000000000E+00 -0.00000000000E+00 -0.65470542500E+01  0.65470542500E+01  0.00000000000E+00 0.  1.
         35    2    1    2    0    0  0.00000000000E+00  0.00000000000E+00  0.28808945434E+04  0.28939886519E+04  0.27498535804E+03 0.  0.
         25    1    3    3    0    0  0.13076049451E+02  0.33253693012E+01  0.74855343168E+03  0.75823102102E+03  0.12000000000E+03 0.  0.
         25    1    3    3    0    0 -0.13076049451E+02 -0.33253693012E+01  0.21323411117E+04  0.21357576309E+04  0.12000000000E+03 0.  0.
<mgrwt>
<rscale>  0 0.27498536E+03</rscale>
<asrwt>0</asrwt>
<pdfrwt beam="1">  1        2 0.44422077E+00 0.27498536E+03</pdfrwt>
<pdfrwt beam="2">  1       -2 0.10072414E-02 0.27498536E+03</pdfrwt>
<totfact> 0.51182796E+03</totfact>
</mgrwt>
</event>
<event>
 5    1  0.1147887E+001  0.2738208E+03  0.7818608E-02  0.1099113E+00
         -1   -1    0    0    0  501 -0.00000000000E+00  0.00000000000E+00  0.24520812040E+02  0.24520812040E+02  0.00000000000E+00 0. -1.
          1   -1    0    0  501    0  0.00000000000E+00 -0.00000000000E+00 -0.76443079584E+03  0.76443079584E+03  0.00000000000E+00 0. -1.
         35    2    1    2    0    0  0.00000000000E+00  0.00000000000E+00 -0.73990998380E+03  0.78895160788E+03  0.27382084554E+03 0.  0.
         25    1    3    3    0    0 -0.12222499895E+02  0.42672042805E+02 -0.22956379796E+03  0.26281139639E+03  0.12000000000E+03 0.  0.
         25    1    3    3    0    0  0.12222499895E+02 -0.42672042805E+02 -0.51034618584E+03  0.52614021148E+03  0.12000000000E+03 0.  0.
<mgrwt>
<rscale>  0 0.27382085E+03</rscale>
<asrwt>0</asrwt>
<pdfrwt beam="1">  1        1 0.11760476E+00 0.27382085E+03</pdfrwt>
<pdfrwt beam="2">  1       -1 0.37724319E-02 0.27382085E+03</pdfrwt>
<totfact> 0.66161960E+03</totfact>
</mgrwt>
</event>
<event>
 5    1  0.1147887E+001  0.2784707E+03  0.7818608E-02  0.1096527E+00
         -2   -1    0    0    0  501 -0.00000000000E+00  0.00000000000E+00  0.92283314967E+01  0.92283314967E+01  0.00000000000E+00 0.  1.
          2   -1    0    0  501    0  0.00000000000E+00 -0.00000000000E+00 -0.21007563630E+04  0.21007563630E+04  0.00000000000E+00 0.  1.
         35    2    1    2    0    0  0.00000000000E+00  0.00000000000E+00 -0.20915280315E+04  0.21099846945E+04  0.27847065276E+03 0.  0.
         25    1    3    3    0    0 -0.32384759266E+02 -0.52518040103E+02 -0.78553261710E+03  0.79703726996E+03  0.12000000000E+03 0.  0.
         25    1    3    3    0    0  0.32384759266E+02  0.52518040103E+02 -0.13059954144E+04  0.13129474245E+04  0.12000000000E+03 0.  0.
<mgrwt>
<rscale>  0 0.27847065E+03</rscale>
<asrwt>0</asrwt>
<pdfrwt beam="1">  1        2 0.32319347E+00 0.27847065E+03</pdfrwt>
<pdfrwt beam="2">  1       -2 0.14197425E-02 0.27847065E+03</pdfrwt>
<totfact> 0.84064010E+03</totfact>
</mgrwt>
</event>
<event>
 5    1  0.1147887E+001  0.2746111E+03  0.7818608E-02  0.1098669E+00
          2   -1    0    0  501    0  0.00000000000E+00  0.00000000000E+00  0.10725734127E+04  0.10725734127E+04  0.00000000000E+00 0. -1.
         -2   -1    0    0    0  501 -0.00000000000E+00 -0.00000000000E+00 -0.17577182769E+02  0.17577182769E+02  0.00000000000E+00 0. -1.
         35    2    1    2    0    0  0.00000000000E+00  0.00000000000E+00  0.10549962299E+04  0.10901505954E+04  0.27461113530E+03 0.  0.
         25    1    3    3    0    0  0.13098726029E+02  0.64433325611E+02  0.57268913513E+03  0.58880903149E+03  0.12000000000E+03 0.  0.
         25    1    3    3    0    0 -0.13098726029E+02 -0.64433325611E+02  0.48230709476E+03  0.50134156393E+03  0.12000000000E+03 0.  0.
<mgrwt>
<rscale>  0 0.27461114E+03</rscale>
<asrwt>0</asrwt>
<pdfrwt beam="1">  1        2 0.16501124E+00 0.27461114E+03</pdfrwt>
<pdfrwt beam="2">  1       -2 0.27041828E-02 0.27461114E+03</pdfrwt>
<totfact> 0.11705065E+04</totfact>
</mgrwt>
</event>
<event>
 4    1  0.1147887E+001  0.3443349E+03  0.7818608E-02  0.1064965E+00
         -1   -1    0    0    0  501 -0.00000000000E+00  0.00000000000E+00  0.35352000984E+03  0.35352000984E+03  0.00000000000E+00 0. -1.
          1   -1    0    0  501    0  0.00000000000E+00 -0.00000000000E+00 -0.83847113182E+02  0.83847113182E+02  0.00000000000E+00 0. -1.
         25    1    1    2    0    0 -0.26736845162E+02 -0.28373644328E+02  0.28362488960E+03  0.31042390466E+03  0.12000000000E+03 0.  0.
         25    1    1    2    0    0  0.26736845162E+02  0.28373644328E+02 -0.13951992942E+02  0.12694321836E+03  0.12000000000E+03 0.  0.
<mgrwt>
<rscale>  0 0.34433491E+03</rscale>
<asrwt>0</asrwt>
<pdfrwt beam="1">  1        1 0.12899556E-01 0.34433491E+03</pdfrwt>
<pdfrwt beam="2">  1       -1 0.54387693E-01 0.34433491E+03</pdfrwt>
<totfact> 0.16028752E+03</totfact>
</mgrwt>
</event>
<event>
 5    1  0.1147887E+001  0.2752203E+03  0.7818608E-02  0.1098329E+00
         -1   -1    0    0    0  501 -0.00000000000E+00  0.00000000000E+00  0.11269122915E+04  0.11269122915E+04  0.00000000000E+00 0. -1.
          1   -1    0    0  501    0  0.00000000000E+00 -0.00000000000E+00 -0.16803927568E+02  0.16803927568E+02  0.00000000000E+00 0. -1.
         35    2    1    2    0    0  0.00000000000E+00  0.00000000000E+00  0.11101083639E+04  0.11437162191E+04  0.27522029374E+03 0.  0.
         25    1    3    3    0    0  0.20458387483E+02 -0.31681028997E+02  0.78696413863E+03  0.79695344200E+03  0.12000000000E+03 0.  0.
         25    1    3    3    0    0 -0.20458387483E+02  0.31681028997E+02  0.32314422529E+03  0.34676277706E+03  0.12000000000E+03 0.  0.
<mgrwt>
<rscale>  0 0.27522029E+03</rscale>
<asrwt>0</asrwt>
<pdfrwt beam="1">  1        1 0.25852205E-02 0.27522029E+03</pdfrwt>
<pdfrwt beam="2">  1       -1 0.17337106E+00 0.27522029E+03</pdfrwt>
<totfact> 0.10708496E+03</totfact>
</mgrwt>
</event>
<event>
 5    1  0.1147887E+001  0.2771503E+03  0.7818608E-02  0.1097256E+00
         -1   -1    0    0    0  501 -0.00000000000E+00  0.00000000000E+00  0.10309209323E+03  0.10309209323E+03  0.00000000000E+00 0. -1.
          1   -1    0    0  501    0  0.00000000000E+00 -0.00000000000E+00 -0.18627104554E+03  0.18627104554E+03  0.00000000000E+00 0. -1.
         35    2    1    2    0    0  0.00000000000E+00  0.00000000000E+00 -0.83178952309E+02  0.28936313876E+03  0.27715029852E+03 0.  0.
         25    1    3    3    0    0  0.21873021736E+02  0.23563125176E+02 -0.10569054025E+03  0.16310775655E+03  0.12000000000E+03 0.  0.
         25    1    3    3    0    0 -0.21873021736E+02 -0.23563125176E+02  0.22511587936E+02  0.12625538222E+03  0.12000000000E+03 0.  0.
<mgrwt>
<rscale>  0 0.27715030E+03</rscale>
<asrwt>0</asrwt>
<pdfrwt beam="1">  1        1 0.28657083E-01 0.27715030E+03</pdfrwt>
<pdfrwt beam="2">  1       -1 0.15860322E-01 0.27715030E+03</pdfrwt>
<totfact> 0.46899173E+03</totfact>
</mgrwt>
</event>
<event>
 5    1  0.1147887E+001  0.2749904E+03  0.7818608E-02  0.1098457E+00
         -2   -1    0    0    0  501 -0.00000000000E+00  0.00000000000E+00  0.59669320330E+01  0.59669320330E+01  0.00000000000E+00 0. -1.
          2   -1    0    0  501    0  0.00000000000E+00 -0.00000000000E+00 -0.31682820040E+04  0.31682820040E+04  0.00000000000E+00 0. -1.
         35    2    1    2    0    0  0.00000000000E+00  0.00000000000E+00 -0.31623150719E+04  0.31742489360E+04  0.27499035168E+03 0.  0.
         25    1    3    3    0    0  0.65945760679E+02  0.12107250731E+02 -0.16167255606E+04  0.16225587715E+04  0.12000000000E+03 0.  0.
         25    1    3    3    0    0 -0.65945760679E+02 -0.12107250731E+02 -0.15455895114E+04  0.15516901645E+04  0.12000000000E+03 0.  0.
<mgrwt>
<rscale>  0 0.27499035E+03</rscale>
<asrwt>0</asrwt>
<pdfrwt beam="1">  1        2 0.48743002E+00 0.27499035E+03</pdfrwt>
<pdfrwt beam="2">  1       -2 0.91798575E-03 0.27499035E+03</pdfrwt>
<totfact> 0.39823469E+03</totfact>
</mgrwt>
</event>
<event>
 5    1  0.1147887E+001  0.2749848E+03  0.7818608E-02  0.1098460E+00
          1   -1    0    0  501    0  0.00000000000E+00  0.00000000000E+00  0.80192799850E+03  0.80192799850E+03  0.00000000000E+00 0.  1.
         -1   -1    0    0    0  501 -0.00000000000E+00 -0.00000000000E+00 -0.23573390331E+02  0.23573390331E+02  0.00000000000E+00 0.  1.
         35    2    1    2    0    0  0.00000000000E+00  0.00000000000E+00  0.77835460817E+03  0.82550138883E+03  0.27498481213E+03 0.  0.
         25    1    3    3    0    0 -0.45946431099E+02  0.26709259253E+02  0.26614325804E+03  0.29674347989E+03  0.12000000000E+03 0.  0.
         25    1    3    3    0    0  0.45946431099E+02 -0.26709259253E+02  0.51221135013E+03  0.52875790894E+03  0.12000000000E+03 0.  0.
<mgrwt>
<rscale>  0 0.27498481E+03</rscale>
<asrwt>0</asrwt>
<pdfrwt beam="1">  1        1 0.12337352E+00 0.27498481E+03</pdfrwt>
<pdfrwt beam="2">  1       -1 0.36266760E-02 0.27498481E+03</pdfrwt>
<totfact> 0.65210269E+03</totfact>
</mgrwt>
</event>
<event>
 5    1  0.1147887E+001  0.2747304E+03  0.7818608E-02  0.1098602E+00
          2   -1    0    0  501    0  0.00000000000E+00  0.00000000000E+00  0.20122746581E+04  0.20122746581E+04  0.00000000000E+00 0. -1.
         -2   -1    0    0    0  501 -0.00000000000E+00 -0.00000000000E+00 -0.93770462033E+01  0.93770462033E+01  0.00000000000E+00 0. -1.
         35    2    1    2    0    0  0.00000000000E+00  0.00000000000E+00  0.20028976119E+04  0.20216517043E+04  0.27473035830E+03 0.  0.
         25    1    3    3    0    0 -0.12505386339E+02  0.42141723171E+02  0.13720867654E+04  0.13780255445E+04  0.12000000000E+03 0.  0.
         25    1    3    3    0    0  0.12505386339E+02 -0.42141723171E+02  0.63081084645E+03  0.64362615975E+03  0.12000000000E+03 0.  0.
<mgrwt>
<rscale>  0 0.27473036E+03</rscale>
<asrwt>0</asrwt>
<pdfrwt beam="1">  1        2 0.30958037E+00 0.27473036E+03</pdfrwt>
<pdfrwt beam="2">  1       -2 0.14426241E-02 0.27473036E+03</pdfrwt>
<totfact> 0.91430860E+03</totfact>
</mgrwt>
</event>
<event>
 5    1  0.1147887E+001  0.2766479E+03  0.7818608E-02  0.1097534E+00
          1   -1    0    0  501    0  0.00000000000E+00  0.00000000000E+00  0.61829760511E+03  0.61829760511E+03  0.00000000000E+00 0.  1.
         -1   -1    0    0    0  501 -0.00000000000E+00 -0.00000000000E+00 -0.30945469392E+02  0.30945469392E+02  0.00000000000E+00 0.  1.
         35    2    1    2    0    0  0.00000000000E+00  0.00000000000E+00  0.58735213571E+03  0.64924307450E+03  0.27664786002E+03 0.  0.
         25    1    3    3    0    0  0.24775756227E+02 -0.17216971641E+02  0.43878569018E+03  0.45589817296E+03  0.12000000000E+03 0.  0.
         25    1    3    3    0    0 -0.24775756227E+02  0.17216971641E+02  0.14856644554E+03  0.19334490153E+03  0.12000000000E+03 0.  0.
<mgrwt>
<rscale>  0 0.27664786E+03</rscale>
<asrwt>0</asrwt>
<pdfrwt beam="1">  1        1 0.95122699E-01 0.27664786E+03</pdfrwt>
<pdfrwt beam="2">  1       -1 0.47608419E-02 0.27664786E+03</pdfrwt>
<totfact> 0.63668879E+03</totfact>
</mgrwt>
</event>
<event>
 5    1  0.1147887E+001  0.2763282E+03  0.7818608E-02  0.1097711E+00
          2   -1    0    0  501    0  0.00000000000E+00  0.00000000000E+00  0.43500653608E+03  0.43500653608E+03  0.00000000000E+00 0. -1.
         -2   -1    0    0    0  501 -0.00000000000E+00 -0.00000000000E+00 -0.43882845170E+02  0.43882845170E+02  0.00000000000E+00 0. -1.
         35    2    1    2    0    0  0.00000000000E+00  0.00000000000E+00  0.39112369091E+03  0.47888938125E+03  0.27632824301E+03 0.  0.
         25    1    3    3    0    0  0.43321432539E+02 -0.22667813239E+02  0.27865316050E+03  0.30730792396E+03  0.12000000000E+03 0.  0.
         25    1    3    3    0    0 -0.43321432539E+02  0.22667813239E+02  0.11247053041E+03  0.17158145729E+03  0.12000000000E+03 0.  0.
<mgrwt>
<rscale>  0 0.27632824E+03</rscale>
<asrwt>0</asrwt>
<pdfrwt beam="1">  1        2 0.66924080E-01 0.27632824E+03</pdfrwt>
<pdfrwt beam="2">  1       -2 0.67512072E-02 0.27632824E+03</pdfrwt>
<totfact> 0.89162754E+03</totfact>
</mgrwt>
</event>
<event>
 5    1  0.1147887E+001  0.2645512E+03  0.7818608E-02  0.1104439E+00
         -1   -1    0    0    0  501 -0.00000000000E+00  0.00000000000E+00  0.17081620785E+03  0.17081620785E+03  0.00000000000E+00 0. -1.
          1   -1    0    0  501    0  0.00000000000E+00 -0.00000000000E+00 -0.10243072894E+03  0.10243072894E+03  0.00000000000E+00 0. -1.
         35    2    1    2    0    0  0.00000000000E+00  0.00000000000E+00  0.68385478903E+02  0.27324693679E+03  0.26455115713E+03 0.  0.
         25    1    3    3    0    0 -0.36430784389E+02 -0.23936426844E+02  0.69922786084E+02  0.14556562298E+03  0.12000000000E+03 0.  0.
         25    1    3    3    0    0  0.36430784389E+02  0.23936426844E+02 -0.15373071810E+01  0.12768131380E+03  0.12000000000E+03 0.  0.
<mgrwt>
<rscale>  0 0.26455116E+03</rscale>
<asrwt>0</asrwt>
<pdfrwt beam="1">  1        1 0.15758574E-01 0.26455116E+03</pdfrwt>
<pdfrwt beam="2">  1       -1 0.26279417E-01 0.26455116E+03</pdfrwt>
<totfact> 0.44328508E+03</totfact>
</mgrwt>
</event>
<event>
 5    1  0.1147887E+001  0.2754018E+03  0.7818608E-02  0.1098227E+00
         -1   -1    0    0    0  501 -0.00000000000E+00  0.00000000000E+00  0.45224207020E+02  0.45224207020E+02  0.00000000000E+00 0. -1.
          1   -1    0    0  501    0  0.00000000000E+00 -0.00000000000E+00 -0.41927841380E+03  0.41927841380E+03  0.00000000000E+00 0. -1.
         35    2    1    2    0    0  0.00000000000E+00  0.00000000000E+00 -0.37405420678E+03  0.46450262082E+03  0.27540177040E+03 0.  0.
         25    1    3    3    0    0  0.54126341317E+02  0.40386566888E+02 -0.18853395547E+03  0.23346474675E+03  0.12000000000E+03 0.  0.
         25    1    3    3    0    0 -0.54126341317E+02 -0.40386566888E+02 -0.18552025131E+03  0.23103787407E+03  0.12000000000E+03 0.  0.
<mgrwt>
<rscale>  0 0.27540177E+03</rscale>
<asrwt>0</asrwt>
<pdfrwt beam="1">  1        1 0.64504368E-01 0.27540177E+03</pdfrwt>
<pdfrwt beam="2">  1       -1 0.69575706E-02 0.27540177E+03</pdfrwt>
<totfact> 0.60444775E+03</totfact>
</mgrwt>
</event>
<event>
 5    1  0.1147887E+001  0.2749344E+03  0.7818608E-02  0.1098488E+00
         -1   -1    0    0    0  501 -0.00000000000E+00  0.00000000000E+00  0.34241985814E+02  0.34241985814E+02  0.00000000000E+00 0. -1.
          1   -1    0    0  501    0  0.00000000000E+00 -0.00000000000E+00 -0.55187319798E+03  0.55187319798E+03  0.00000000000E+00 0. -1.
         35    2    1    2    0    0  0.00000000000E+00  0.00000000000E+00 -0.51763121217E+03  0.58611518380E+03  0.27493442285E+03 0.  0.
         25    1    3    3    0    0  0.47016193736E+02 -0.47818880100E+02 -0.25936514406E+03  0.29354291973E+03  0.12000000000E+03 0.  0.
         25    1    3    3    0    0 -0.47016193736E+02  0.47818880100E+02 -0.25826606811E+03  0.29257226407E+03  0.12000000000E+03 0.  0.
<mgrwt>
<rscale>  0 0.27493442E+03</rscale>
<asrwt>0</asrwt>
<pdfrwt beam="1">  1        1 0.84903562E-01 0.27493442E+03</pdfrwt>
<pdfrwt beam="2">  1       -1 0.52679983E-02 0.27493442E+03</pdfrwt>
<totfact> 0.63980740E+03</totfact>
</mgrwt>
</event>
<event>
 5    1  0.1147887E+001  0.2817609E+03  0.7818608E-02  0.1094731E+00
          1   -1    0    0  501    0  0.00000000000E+00  0.00000000000E+00  0.17533518236E+04  0.17533518236E+04  0.00000000000E+00 0. -1.
         -1   -1    0    0    0  501 -0.00000000000E+00 -0.00000000000E+00 -0.11319633425E+02  0.11319633425E+02  0.00000000000E+00 0. -1.
         35    2    1    2    0    0  0.00000000000E+00  0.00000000000E+00  0.17420321902E+04  0.17646714570E+04  0.28176089089E+03 0.  0.
         25    1    3    3    0    0 -0.28730140081E+02  0.67763020534E+02  0.90534973875E+03  0.91622890009E+03  0.12000000000E+03 0.  0.
         25    1    3    3    0    0  0.28730140081E+02 -0.67763020534E+02  0.83668245141E+03  0.84844255692E+03  0.12000000000E+03 0.  0.
<mgrwt>
<rscale>  0 0.28176089E+03</rscale>
<asrwt>0</asrwt>
<pdfrwt beam="1">  1        1 0.26974622E+00 0.28176089E+03</pdfrwt>
<pdfrwt beam="2">  1       -1 0.17414835E-02 0.28176089E+03</pdfrwt>
<totfact> 0.40969705E+03</totfact>
</mgrwt>
</event>
<event>
 5    1  0.1147887E+001  0.2737311E+03  0.7818608E-02  0.1099163E+00
          2   -1    0    0  501    0  0.00000000000E+00  0.00000000000E+00  0.32158038955E+03  0.32158038955E+03  0.00000000000E+00 0. -1.
         -2   -1    0    0    0  501 -0.00000000000E+00 -0.00000000000E+00 -0.58250394203E+02  0.58250394203E+02  0.00000000000E+00 0. -1.
         35    2    1    2    0    0  0.00000000000E+00  0.00000000000E+00  0.26332999535E+03  0.37983078375E+03  0.27373114152E+03 0.  0.
         25    1    3    3    0    0  0.49170436460E+02  0.55631850112E+01  0.19188616638E+03  0.23166566793E+03  0.12000000000E+03 0.  0.
         25    1    3    3    0    0 -0.49170436460E+02 -0.55631850112E+01  0.71443828964E+02  0.14816511582E+03  0.12000000000E+03 0.  0.
<mgrwt>
<rscale>  0 0.27373114E+03</rscale>
<asrwt>0</asrwt>
<pdfrwt beam="1">  1        2 0.49473905E-01 0.27373114E+03</pdfrwt>
<pdfrwt beam="2">  1       -2 0.89615993E-02 0.27373114E+03</pdfrwt>
<totfact> 0.79501840E+03</totfact>
</mgrwt>
</event>
<event>
 5    1  0.1147887E+001  0.2761211E+03  0.7818608E-02  0.1097827E+00
         -2   -1    0    0    0  501 -0.00000000000E+00  0.00000000000E+00  0.93472019959E+01  0.93472019959E+01  0.00000000000E+00 0. -1.
          2   -1    0    0  501    0  0.00000000000E+00 -0.00000000000E+00 -0.20391888482E+04  0.20391888482E+04  0.00000000000E+00 0. -1.
         35    2    1    2    0    0  0.00000000000E+00  0.00000000000E+00 -0.20298416462E+04  0.20485360502E+04  0.27612106093E+03 0.  0.
         25    1    3    3    0    0  0.37753103838E+02  0.54333580958E+02 -0.11397880185E+04  0.11479957151E+04  0.12000000000E+03 0.  0.
         25    1    3    3    0    0 -0.37753103838E+02 -0.54333580958E+02 -0.89005362771E+03  0.90054033506E+03  0.12000000000E+03 0.  0.
<mgrwt>
<rscale>  0 0.27612106E+03</rscale>
<asrwt>0</asrwt>
<pdfrwt beam="1">  1        2 0.31372132E+00 0.27612106E+03</pdfrwt>
<pdfrwt beam="2">  1       -2 0.14380313E-02 0.27612106E+03</pdfrwt>
<totfact> 0.88911858E+03</totfact>
</mgrwt>
</event>
<event>
 5    1  0.1147887E+001  0.2745228E+03  0.7818608E-02  0.1098719E+00
          2   -1    0    0  501    0  0.00000000000E+00  0.00000000000E+00  0.18250690144E+04  0.18250690144E+04  0.00000000000E+00 0.  1.
         -2   -1    0    0    0  501 -0.00000000000E+00 -0.00000000000E+00 -0.10323276501E+02  0.10323276501E+02  0.00000000000E+00 0.  1.
         35    2    1    2    0    0  0.00000000000E+00  0.00000000000E+00  0.18147457379E+04  0.18353922909E+04  0.27452280102E+03 0.  0.
         25    1    3    3    0    0 -0.38401498934E+02 -0.54392241441E+02  0.88906192784E+03  0.89959118637E+03  0.12000000000E+03 0.  0.
         25    1    3    3    0    0  0.38401498934E+02  0.54392241441E+02  0.92568381008E+03  0.93580110456E+03  0.12000000000E+03 0.  0.
<mgrwt>
<rscale>  0 0.27452280E+03</rscale>
<asrwt>0</asrwt>
<pdfrwt beam="1">  1        2 0.28077959E+00 0.27452280E+03</pdfrwt>
<pdfrwt beam="2">  1       -2 0.15881978E-02 0.27452280E+03</pdfrwt>
<totfact> 0.99616403E+03</totfact>
</mgrwt>
</event>
<event>
 5    1  0.1147887E+001  0.2729505E+03  0.7818608E-02  0.1099603E+00
         -1   -1    0    0    0  501 -0.00000000000E+00  0.00000000000E+00  0.52398320644E+03  0.52398320644E+03  0.00000000000E+00 0.  1.
          1   -1    0    0  501    0  0.00000000000E+00 -0.00000000000E+00 -0.35545980910E+02  0.35545980910E+02  0.00000000000E+00 0.  1.
         35    2    1    2    0    0  0.00000000000E+00  0.00000000000E+00  0.48843722553E+03  0.55952918735E+03  0.27295052338E+03 0.  0.
         25    1    3    3    0    0 -0.58147018370E+02 -0.23589499462E+02  0.20943277227E+03  0.24939852912E+03  0.12000000000E+03 0.  0.
         25    1    3    3    0    0  0.58147018370E+02  0.23589499462E+02  0.27900445327E+03  0.31013065823E+03  0.12000000000E+03 0.  0.
<mgrwt>
<rscale>  0 0.27295052E+03</rscale>
<asrwt>0</asrwt>
<pdfrwt beam="1">  1        1 0.54686128E-02 0.27295052E+03</pdfrwt>
<pdfrwt beam="2">  1       -1 0.80612795E-01 0.27295052E+03</pdfrwt>
<totfact> 0.23543016E+03</totfact>
</mgrwt>
</event>
<event>
 5    1  0.1147887E+001  0.2740608E+03  0.7818608E-02  0.1098978E+00
         -2   -1    0    0    0  501 -0.00000000000E+00  0.00000000000E+00  0.20588858260E+02  0.20588858260E+02  0.00000000000E+00 0. -1.
          2   -1    0    0  501    0  0.00000000000E+00 -0.00000000000E+00 -0.91201396199E+03  0.91201396199E+03  0.00000000000E+00 0. -1.
         35    2    1    2    0    0  0.00000000000E+00  0.00000000000E+00 -0.89142510373E+03  0.93260282025E+03  0.27406076841E+03 0.  0.
         25    1    3    3    0    0  0.57415053528E+01 -0.63869667351E+02 -0.50111064741E+03  0.51925348361E+03  0.12000000000E+03 0.  0.
         25    1    3    3    0    0 -0.57415053528E+01  0.63869667351E+02 -0.39031445633E+03  0.41334933665E+03  0.12000000000E+03 0.  0.
<mgrwt>
<rscale>  0 0.27406077E+03</rscale>
<asrwt>0</asrwt>
<pdfrwt beam="1">  1        2 0.14030985E+00 0.27406077E+03</pdfrwt>
<pdfrwt beam="2">  1       -2 0.31675165E-02 0.27406077E+03</pdfrwt>
<totfact> 0.11616230E+04</totfact>
</mgrwt>
</event>
<event>
 5    1  0.1147887E+001  0.2749688E+03  0.7818608E-02  0.1098469E+00
          2   -1    0    0  501    0  0.00000000000E+00  0.00000000000E+00  0.18424382588E+04  0.18424382588E+04  0.00000000000E+00 0. -1.
         -2   -1    0    0    0  501 -0.00000000000E+00 -0.00000000000E+00 -0.10259210786E+02  0.10259210786E+02  0.00000000000E+00 0. -1.
         35    2    1    2    0    0  0.00000000000E+00  0.00000000000E+00  0.18321790480E+04  0.18526974696E+04  0.27496881610E+03 0.  0.
         25    1    3    3    0    0 -0.33431937167E+02  0.64046801685E+01  0.52650170628E+03  0.54107555948E+03  0.12000000000E+03 0.  0.
         25    1    3    3    0    0  0.33431937167E+02 -0.64046801685E+01  0.13056773417E+04  0.13116219101E+04  0.12000000000E+03 0.  0.
<mgrwt>
<rscale>  0 0.27496882E+03</rscale>
<asrwt>0</asrwt>
<pdfrwt beam="1">  1        2 0.28345178E+00 0.27496882E+03</pdfrwt>
<pdfrwt beam="2">  1       -2 0.15783416E-02 0.27496882E+03</pdfrwt>
<totfact> 0.98442482E+03</totfact>
</mgrwt>
</event>
<event>
 5    1  0.1147887E+001  0.2749902E+03  0.7818608E-02  0.1098457E+00
          2   -1    0    0  501    0  0.00000000000E+00  0.00000000000E+00  0.11700167055E+04  0.11700167055E+04  0.00000000000E+00 0. -1.
         -2   -1    0    0    0  501 -0.00000000000E+00 -0.00000000000E+00 -0.16157801708E+02  0.16157801708E+02  0.00000000000E+00 0. -1.
         35    2    1    2    0    0  0.00000000000E+00  0.00000000000E+00  0.11538589038E+04  0.11861745072E+04  0.27499016653E+03 0.  0.
         25    1    3    3    0    0 -0.12644653420E+01 -0.55448986655E+02  0.41388602251E+03  0.43448570589E+03  0.12000000000E+03 0.  0.
         25    1    3    3    0    0  0.12644653420E+01  0.55448986655E+02  0.73997288132E+03  0.75168880135E+03  0.12000000000E+03 0.  0.
<mgrwt>
<rscale>  0 0.27499017E+03</rscale>
<asrwt>0</asrwt>
<pdfrwt beam="1">  1        2 0.18000250E+00 0.27499017E+03</pdfrwt>
<pdfrwt beam="2">  1       -2 0.24858166E-02 0.27499017E+03</pdfrwt>
<totfact> 0.11634484E+04</totfact>
</mgrwt>
</event>
<event>
 5    1  0.1147887E+001  0.2702168E+03  0.7818608E-02  0.1101156E+00
          1   -1    0    0  501    0  0.00000000000E+00  0.00000000000E+00  0.68412554017E+03  0.68412554017E+03  0.00000000000E+00 0. -1.
         -1   -1    0    0    0  501 -0.00000000000E+00 -0.00000000000E+00 -0.26682643784E+02  0.26682643784E+02  0.00000000000E+00 0. -1.
         35    2    1    2    0    0  0.00000000000E+00  0.00000000000E+00  0.65744289638E+03  0.71080818395E+03  0.27021678772E+03 0.  0.
         25    1    3    3    0    0  0.47355876460E+02 -0.26231689165E+02  0.24877825777E+03  0.28146278989E+03  0.12000000000E+03 0.  0.
         25    1    3    3    0    0 -0.47355876460E+02  0.26231689165E+02  0.40866463861E+03  0.42934539407E+03  0.12000000000E+03 0.  0.
<mgrwt>
<rscale>  0 0.27021679E+03</rscale>
<asrwt>0</asrwt>
<pdfrwt beam="1">  1        1 0.10525007E+00 0.27021679E+03</pdfrwt>
<pdfrwt beam="2">  1       -1 0.41050226E-02 0.27021679E+03</pdfrwt>
<totfact> 0.68724916E+03</totfact>
</mgrwt>
</event>
<event>
 5    1  0.1147887E+001  0.2748680E+03  0.7818608E-02  0.1098525E+00
         -2   -1    0    0    0  501 -0.00000000000E+00  0.00000000000E+00  0.41847047805E+03  0.41847047805E+03  0.00000000000E+00 0.  1.
          2   -1    0    0  501    0  0.00000000000E+00 -0.00000000000E+00 -0.45136045221E+02  0.45136045221E+02  0.00000000000E+00 0.  1.
         35    2    1    2    0    0  0.00000000000E+00  0.00000000000E+00  0.37333443283E+03  0.46360652327E+03  0.27486798592E+03 0.  0.
         25    1    3    3    0    0 -0.12618862023E+02 -0.48100304639E+02  0.26238317266E+03  0.29277603092E+03  0.12000000000E+03 0.  0.
         25    1    3    3    0    0  0.12618862023E+02  0.48100304639E+02  0.11095126017E+03  0.17083049236E+03  0.12000000000E+03 0.  0.
<mgrwt>
<rscale>  0 0.27486799E+03</rscale>
<asrwt>0</asrwt>
<pdfrwt beam="1">  1        2 0.69440073E-02 0.27486799E+03</pdfrwt>
<pdfrwt beam="2">  1       -2 0.64380071E-01 0.27486799E+03</pdfrwt>
<totfact> 0.23218821E+03</totfact>
</mgrwt>
</event>
<event>
 5    1  0.1147887E+001  0.2749054E+03  0.7818608E-02  0.1098504E+00
         -2   -1    0    0    0  501 -0.00000000000E+00  0.00000000000E+00  0.13969818888E+03  0.13969818888E+03  0.00000000000E+00 0. -1.
          2   -1    0    0  501    0  0.00000000000E+00 -0.00000000000E+00 -0.13524333750E+03  0.13524333750E+03  0.00000000000E+00 0. -1.
         35    2    1    2    0    0  0.00000000000E+00  0.00000000000E+00  0.44548513859E+01  0.27494152638E+03  0.27490543324E+03 0.  0.
         25    1    3    3    0    0  0.28948853151E+02 -0.63424580007E+01 -0.57905225512E+02  0.13649643956E+03  0.12000000000E+03 0.  0.
         25    1    3    3    0    0 -0.28948853151E+02  0.63424580007E+01  0.62360076898E+02  0.13844508681E+03  0.12000000000E+03 0.  0.
<mgrwt>
<rscale>  0 0.27490543E+03</rscale>
<asrwt>0</asrwt>
<pdfrwt beam="1">  1        2 0.20806667E-01 0.27490543E+03</pdfrwt>
<pdfrwt beam="2">  1       -2 0.21492029E-01 0.27490543E+03</pdfrwt>
<totfact> 0.48886756E+03</totfact>
</mgrwt>
</event>
<event>
 5    1  0.1147887E+001  0.2735163E+03  0.7818608E-02  0.1099284E+00
          2   -1    0    0  501    0  0.00000000000E+00  0.00000000000E+00  0.15242454518E+03  0.15242454518E+03  0.00000000000E+00 0. -1.
         -2   -1    0    0    0  501 -0.00000000000E+00 -0.00000000000E+00 -0.12270192832E+03  0.12270192832E+03  0.00000000000E+00 0. -1.
         35    2    1    2    0    0  0.00000000000E+00  0.00000000000E+00  0.29722616867E+02  0.27512647350E+03  0.27351625632E+03 0.  0.
         25    1    3    3    0    0 -0.40721714198E+02  0.17808807799E+02  0.63388183432E+02  0.14280571922E+03  0.12000000000E+03 0.  0.
         25    1    3    3    0    0  0.40721714198E+02 -0.17808807799E+02 -0.33665566565E+02  0.13232075429E+03  0.12000000000E+03 0.  0.
<mgrwt>
<rscale>  0 0.27351626E+03</rscale>
<asrwt>0</asrwt>
<pdfrwt beam="1">  1        2 0.23449930E-01 0.27351626E+03</pdfrwt>
<pdfrwt beam="2">  1       -2 0.18877220E-01 0.27351626E+03</pdfrwt>
<totfact> 0.53305391E+03</totfact>
</mgrwt>
</event>
<event>
 5    1  0.1147887E+001  0.2748752E+03  0.7818608E-02  0.1098521E+00
          1   -1    0    0  501    0  0.00000000000E+00  0.00000000000E+00  0.75289475294E+03  0.75289475294E+03  0.00000000000E+00 0. -1.
         -1   -1    0    0    0  501 -0.00000000000E+00 -0.00000000000E+00 -0.25088627199E+02  0.25088627199E+02  0.00000000000E+00 0. -1.
         35    2    1    2    0    0  0.00000000000E+00  0.00000000000E+00  0.72780612574E+03  0.77798338014E+03  0.27487521370E+03 0.  0.
         25    1    3    3    0    0  0.63321332180E+02  0.34833734789E+01  0.30271516738E+03  0.33175020356E+03  0.12000000000E+03 0.  0.
         25    1    3    3    0    0 -0.63321332180E+02 -0.34833734789E+01  0.42509095835E+03  0.44623317657E+03  0.12000000000E+03 0.  0.
<mgrwt>
<rscale>  0 0.27487521E+03</rscale>
<asrwt>0</asrwt>
<pdfrwt beam="1">  1        1 0.11582994E+00 0.27487521E+03</pdfrwt>
<pdfrwt beam="2">  1       -1 0.38597894E-02 0.27487521E+03</pdfrwt>
<totfact> 0.65437114E+03</totfact>
</mgrwt>
</event>
<event>
 5    1  0.1147887E+001  0.2746865E+03  0.7818608E-02  0.1098627E+00
         -2   -1    0    0    0  501 -0.00000000000E+00  0.00000000000E+00  0.54430033901E+02  0.54430033901E+02  0.00000000000E+00 0.  1.
          2   -1    0    0  501    0  0.00000000000E+00 -0.00000000000E+00 -0.34655814788E+03  0.34655814788E+03  0.00000000000E+00 0.  1.
         35    2    1    2    0    0  0.00000000000E+00  0.00000000000E+00 -0.29212811398E+03  0.40098818178E+03  0.27468652488E+03 0.  0.
         25    1    3    3    0    0  0.38602211740E+01 -0.64249909825E+01 -0.24297331013E+03  0.27109446923E+03  0.12000000000E+03 0.  0.
         25    1    3    3    0    0 -0.38602211740E+01  0.64249909825E+01 -0.49154803851E+02  0.12989371254E+03  0.12000000000E+03 0.  0.
<mgrwt>
<rscale>  0 0.27468652E+03</rscale>
<asrwt>0</asrwt>
<pdfrwt beam="1">  1        2 0.53316637E-01 0.27468652E+03</pdfrwt>
<pdfrwt beam="2">  1       -2 0.83738515E-02 0.27468652E+03</pdfrwt>
<totfact> 0.81605927E+03</totfact>
</mgrwt>
</event>
<event>
 5    1  0.1147887E+001  0.2750028E+03  0.7818608E-02  0.1098450E+00
          1   -1    0    0  501    0  0.00000000000E+00  0.00000000000E+00  0.14168190288E+04  0.14168190288E+04  0.00000000000E+00 0.  1.
         -1   -1    0    0    0  501 -0.00000000000E+00 -0.00000000000E+00 -0.13344427029E+02  0.13344427029E+02  0.00000000000E+00 0.  1.
         35    2    1    2    0    0  0.00000000000E+00  0.00000000000E+00  0.14034746018E+04  0.14301634559E+04  0.27500282285E+03 0.  0.
         25    1    3    3    0    0 -0.25264775133E+02 -0.58137091320E+02  0.81666900927E+03  0.82786864957E+03  0.12000000000E+03 0.  0.
         25    1    3    3    0    0  0.25264775133E+02  0.58137091320E+02  0.58680559254E+03  0.60229480629E+03  0.12000000000E+03 0.  0.
<mgrwt>
<rscale>  0 0.27500282E+03</rscale>
<asrwt>0</asrwt>
<pdfrwt beam="1">  1        1 0.21797204E+00 0.27500282E+03</pdfrwt>
<pdfrwt beam="2">  1       -1 0.20529899E-02 0.27500282E+03</pdfrwt>
<totfact> 0.53662320E+03</totfact>
</mgrwt>
</event>
<event>
 5    1  0.1147887E+001  0.2754697E+03  0.7818608E-02  0.1098189E+00
         -3   -1    0    0    0  501 -0.00000000000E+00  0.00000000000E+00  0.89454806287E+02  0.89454806287E+02  0.00000000000E+00 0.  1.
          3   -1    0    0  501    0  0.00000000000E+00 -0.00000000000E+00 -0.21207233397E+03  0.21207233397E+03  0.00000000000E+00 0.  1.
         35    2    1    2    0    0  0.00000000000E+00  0.00000000000E+00 -0.12261752768E+03  0.30152714026E+03  0.27546970472E+03 0.  0.
         25    1    3    3    0    0  0.58326266191E+02  0.33992925322E+02 -0.57299317629E+02  0.14913310867E+03  0.12000000000E+03 0.  0.
         25    1    3    3    0    0 -0.58326266191E+02 -0.33992925322E+02 -0.65318210054E+02  0.15239403159E+03  0.12000000000E+03 0.  0.
<mgrwt>
<rscale>  0 0.27546970E+03</rscale>
<asrwt>0</asrwt>
<pdfrwt beam="1">  1        3 0.32626513E-01 0.27546970E+03</pdfrwt>
<pdfrwt beam="2">  1       -3 0.13762278E-01 0.27546970E+03</pdfrwt>
<totfact> 0.10042268E+03</totfact>
</mgrwt>
</event>
<event>
 5    1  0.1147887E+001  0.2747475E+03  0.7818608E-02  0.1098593E+00
         -2   -1    0    0    0  501 -0.00000000000E+00  0.00000000000E+00  0.29402749890E+02  0.29402749890E+02  0.00000000000E+00 0.  1.
          2   -1    0    0  501    0  0.00000000000E+00 -0.00000000000E+00 -0.64182911792E+03  0.64182911792E+03  0.00000000000E+00 0.  1.
         35    2    1    2    0    0  0.00000000000E+00  0.00000000000E+00 -0.61242636803E+03  0.67123186781E+03  0.27474745514E+03 0.  0.
         25    1    3    3    0    0 -0.26217984112E+02 -0.25199581294E+02 -0.44331235670E+03  0.46070407768E+03  0.12000000000E+03 0.  0.
         25    1    3    3    0    0  0.26217984112E+02  0.25199581294E+02 -0.16911401132E+03  0.21052779012E+03  0.12000000000E+03 0.  0.
<mgrwt>
<rscale>  0 0.27474746E+03</rscale>
<asrwt>0</asrwt>
<pdfrwt beam="1">  1        2 0.98742940E-01 0.27474746E+03</pdfrwt>
<pdfrwt beam="2">  1       -2 0.45235001E-02 0.27474746E+03</pdfrwt>
<totfact> 0.10577925E+04</totfact>
</mgrwt>
</event>
<event>
 5    1  0.1147887E+001  0.2749462E+03  0.7818608E-02  0.1098482E+00
         -1   -1    0    0    0  501 -0.00000000000E+00  0.00000000000E+00  0.95528039834E+03  0.95528039834E+03  0.00000000000E+00 0.  1.
          1   -1    0    0  501    0  0.00000000000E+00 -0.00000000000E+00 -0.19783560684E+02  0.19783560684E+02  0.00000000000E+00 0.  1.
         35    2    1    2    0    0  0.00000000000E+00  0.00000000000E+00  0.93549683766E+03  0.97506395903E+03  0.27494616005E+03 0.  0.
         25    1    3    3    0    0 -0.16838838207E+02 -0.60170146550E+01  0.23848927801E+03  0.26757594560E+03  0.12000000000E+03 0.  0.
         25    1    3    3    0    0  0.16838838207E+02  0.60170146550E+01  0.69700755965E+03  0.70748801343E+03  0.12000000000E+03 0.  0.
<mgrwt>
<rscale>  0 0.27494616E+03</rscale>
<asrwt>0</asrwt>
<pdfrwt beam="1">  1        1 0.30436255E-02 0.27494616E+03</pdfrwt>
<pdfrwt beam="2">  1       -1 0.14696618E+00 0.27494616E+03</pdfrwt>
<totfact> 0.13315824E+03</totfact>
</mgrwt>
</event>
<event>
 5    1  0.1147887E+001  0.2751920E+03  0.7818608E-02  0.1098344E+00
          2   -1    0    0  501    0  0.00000000000E+00  0.00000000000E+00  0.61434215021E+03  0.61434215021E+03  0.00000000000E+00 0.  1.
         -2   -1    0    0    0  501 -0.00000000000E+00 -0.00000000000E+00 -0.30817784185E+02  0.30817784185E+02  0.00000000000E+00 0.  1.
         35    2    1    2    0    0  0.00000000000E+00  0.00000000000E+00  0.58352436603E+03  0.64515993440E+03  0.27519203332E+03 0.  0.
         25    1    3    3    0    0  0.13825477391E+02  0.51108049381E+01  0.13775462206E+03  0.18328556968E+03  0.12000000000E+03 0.  0.
         25    1    3    3    0    0 -0.13825477391E+02 -0.51108049381E+01  0.44576974396E+03  0.46187436472E+03  0.12000000000E+03 0.  0.
<mgrwt>
<rscale>  0 0.27519203E+03</rscale>
<asrwt>0</asrwt>
<pdfrwt beam="1">  1        2 0.94514168E-01 0.27519203E+03</pdfrwt>
<pdfrwt beam="2">  1       -2 0.47411980E-02 0.27519203E+03</pdfrwt>
<totfact> 0.10371951E+04</totfact>
</mgrwt>
</event>
<event>
 5    1  0.1147887E+001  0.2762830E+03  0.7818608E-02  0.1097737E+00
          1   -1    0    0  501    0  0.00000000000E+00  0.00000000000E+00  0.84554792214E+02  0.84554792214E+02  0.00000000000E+00 0.  1.
         -1   -1    0    0    0  501 -0.00000000000E+00 -0.00000000000E+00 -0.22568877077E+03  0.22568877077E+03  0.00000000000E+00 0.  1.
         35    2    1    2    0    0  0.00000000000E+00  0.00000000000E+00 -0.14113397856E+03  0.31024356299E+03  0.27628295002E+03 0.  0.
         25    1    3    3    0    0 -0.94135235815E+01 -0.22777495967E+02  0.11210192404E+01  0.12250994014E+03  0.12000000000E+03 0.  0.
         25    1    3    3    0    0  0.94135235815E+01  0.22777495967E+02 -0.14225499780E+03  0.18773362285E+03  0.12000000000E+03 0.  0.
<mgrwt>
<rscale>  0 0.27628295E+03</rscale>
<asrwt>0</asrwt>
<pdfrwt beam="1">  1        1 0.13008430E-01 0.27628295E+03</pdfrwt>
<pdfrwt beam="2">  1       -1 0.34721349E-01 0.27628295E+03</pdfrwt>
<totfact> 0.35549138E+03</totfact>
</mgrwt>
</event>
<event>
 5    1  0.1147887E+001  0.2735765E+03  0.7818608E-02  0.1099250E+00
          1   -1    0    0  501    0  0.00000000000E+00  0.00000000000E+00  0.10155824593E+04  0.10155824593E+04  0.00000000000E+00 0. -1.
         -1   -1    0    0    0  501 -0.00000000000E+00 -0.00000000000E+00 -0.18423939493E+02  0.18423939493E+02  0.00000000000E+00 0. -1.
         35    2    1    2    0    0  0.00000000000E+00  0.00000000000E+00  0.99715851984E+03  0.10340063988E+04  0.27357653248E+03 0.  0.
         25    1    3    3    0    0  0.49314852465E+02 -0.35363667411E+02  0.59333210001E+03  0.60837942482E+03  0.12000000000E+03 0.  0.
         25    1    3    3    0    0 -0.49314852465E+02  0.35363667411E+02  0.40382641984E+03  0.42562697401E+03  0.12000000000E+03 0.  0.
<mgrwt>
<rscale>  0 0.27357653E+03</rscale>
<asrwt>0</asrwt>
<pdfrwt beam="1">  1        1 0.15624341E+00 0.27357653E+03</pdfrwt>
<pdfrwt beam="2">  1       -1 0.28344530E-02 0.27357653E+03</pdfrwt>
<totfact> 0.63811421E+03</totfact>
</mgrwt>
</event>
<event>
 5    1  0.1147887E+001  0.2760137E+03  0.7818608E-02  0.1097886E+00
          2   -1    0    0  501    0  0.00000000000E+00  0.00000000000E+00  0.10539352950E+02  0.10539352950E+02  0.00000000000E+00 0. -1.
         -2   -1    0    0    0  501 -0.00000000000E+00 -0.00000000000E+00 -0.18071219864E+04  0.18071219864E+04  0.00000000000E+00 0. -1.
         35    2    1    2    0    0  0.00000000000E+00  0.00000000000E+00 -0.17965826335E+04  0.18176613394E+04  0.27601374197E+03 0.  0.
         25    1    3    3    0    0 -0.64850186033E+02 -0.87678766472E+01 -0.77274064812E+03  0.78473596295E+03  0.12000000000E+03 0.  0.
         25    1    3    3    0    0  0.64850186033E+02  0.87678766472E+01 -0.10238419854E+04  0.10329253764E+04  0.12000000000E+03 0.  0.
<mgrwt>
<rscale>  0 0.27601374E+03</rscale>
<asrwt>0</asrwt>
<pdfrwt beam="1">  1        2 0.16214392E-02 0.27601374E+03</pdfrwt>
<pdfrwt beam="2">  1       -2 0.27801872E+00 0.27601374E+03</pdfrwt>
<totfact> 0.36057453E+02</totfact>
</mgrwt>
</event>
<event>
 5    1  0.1147887E+001  0.2697114E+03  0.7818608E-02  0.1101445E+00
          2   -1    0    0  501    0  0.00000000000E+00  0.00000000000E+00  0.53922960339E+03  0.53922960339E+03  0.00000000000E+00 0. -1.
         -2   -1    0    0    0  501 -0.00000000000E+00 -0.00000000000E+00 -0.33726002503E+02  0.33726002503E+02  0.00000000000E+00 0. -1.
         35    2    1    2    0    0  0.00000000000E+00  0.00000000000E+00  0.50550360089E+03  0.57295560590E+03  0.26971139356E+03 0.  0.
         25    1    3    3    0    0 -0.18450042841E+02 -0.44299499552E+02  0.33456490765E+03  0.35865934697E+03  0.12000000000E+03 0.  0.
         25    1    3    3    0    0  0.18450042841E+02  0.44299499552E+02  0.17093869324E+03  0.21429625892E+03  0.12000000000E+03 0.  0.
<mgrwt>
<rscale>  0 0.26971139E+03</rscale>
<asrwt>0</asrwt>
<pdfrwt beam="1">  1        2 0.82958394E-01 0.26971139E+03</pdfrwt>
<pdfrwt beam="2">  1       -2 0.51886162E-02 0.26971139E+03</pdfrwt>
<totfact> 0.10499718E+04</totfact>
</mgrwt>
</event>
<event>
 5    1  0.1147887E+001  0.2734906E+03  0.7818608E-02  0.1099298E+00
          1   -1    0    0  501    0  0.00000000000E+00  0.00000000000E+00  0.29519529566E+02  0.29519529566E+02  0.00000000000E+00 0.  1.
         -1   -1    0    0    0  501 -0.00000000000E+00 -0.00000000000E+00 -0.63345423165E+03  0.63345423165E+03  0.00000000000E+00 0.  1.
         35    2    1    2    0    0  0.00000000000E+00  0.00000000000E+00 -0.60393470208E+03  0.66297376122E+03  0.27349055501E+03 0.  0.
         25    1    3    3    0    0  0.46403605935E+02  0.21729899644E+02 -0.20279189669E+03  0.24114318681E+03  0.12000000000E+03 0.  0.
         25    1    3    3    0    0 -0.46403605935E+02 -0.21729899644E+02 -0.40114280540E+03  0.42183057441E+03  0.12000000000E+03 0.  0.
<mgrwt>
<rscale>  0 0.27349056E+03</rscale>
<asrwt>0</asrwt>
<pdfrwt beam="1">  1        1 0.45414664E-02 0.27349056E+03</pdfrwt>
<pdfrwt beam="2">  1       -1 0.97454491E-01 0.27349056E+03</pdfrwt>
<totfact> 0.20294616E+03</totfact>
</mgrwt>
</event>
<event>
 5    1  0.1147887E+001  0.2733701E+03  0.7818608E-02  0.1099366E+00
         -4   -1    0    0    0  501 -0.00000000000E+00  0.00000000000E+00  0.31383891739E+02  0.31383891739E+02  0.00000000000E+00 0. -1.
          4   -1    0    0  501    0  0.00000000000E+00 -0.00000000000E+00 -0.59529908411E+03  0.59529908411E+03  0.00000000000E+00 0. -1.
         35    2    1    2    0    0  0.00000000000E+00  0.00000000000E+00 -0.56391519237E+03  0.62668297585E+03  0.27337009352E+03 0.  0.
         25    1    3    3    0    0 -0.31008013948E+02 -0.39403737148E+02 -0.37836667114E+03  0.40009435045E+03  0.12000000000E+03 0.  0.
         25    1    3    3    0    0  0.31008013948E+02  0.39403737148E+02 -0.18554852123E+03  0.22658862540E+03  0.12000000000E+03 0.  0.
<mgrwt>
<rscale>  0 0.27337009E+03</rscale>
<asrwt>0</asrwt>
<pdfrwt beam="1">  1        4 0.91584458E-01 0.27337009E+03</pdfrwt>
<pdfrwt beam="2">  1       -4 0.48282919E-02 0.27337009E+03</pdfrwt>
<totfact> 0.49485965E+02</totfact>
</mgrwt>
</event>
<event>
 5    1  0.1147887E+001  0.2745908E+03  0.7818608E-02  0.1098681E+00
         -2   -1    0    0    0  501 -0.00000000000E+00  0.00000000000E+00  0.10029001918E+02  0.10029001918E+02  0.00000000000E+00 0. -1.
          2   -1    0    0  501    0  0.00000000000E+00 -0.00000000000E+00 -0.18795520482E+04  0.18795520482E+04  0.00000000000E+00 0. -1.
         35    2    1    2    0    0  0.00000000000E+00  0.00000000000E+00 -0.18695230463E+04  0.18895810502E+04  0.27459083085E+03 0.  0.
         25    1    3    3    0    0  0.30803370122E+02 -0.54967778831E+02 -0.10854834625E+04  0.10939125430E+04  0.12000000000E+03 0.  0.
         25    1    3    3    0    0 -0.30803370122E+02  0.54967778831E+02 -0.78403958382E+03  0.79566850718E+03  0.12000000000E+03 0.  0.
<mgrwt>
<rscale>  0 0.27459083E+03</rscale>
<asrwt>0</asrwt>
<pdfrwt beam="1">  1        2 0.28916149E+00 0.27459083E+03</pdfrwt>
<pdfrwt beam="2">  1       -2 0.15429253E-02 0.27459083E+03</pdfrwt>
<totfact> 0.97302933E+03</totfact>
</mgrwt>
</event>
<event>
 5    1  0.1147887E+001  0.2750725E+03  0.7818608E-02  0.1098411E+00
         -1   -1    0    0    0  501 -0.00000000000E+00  0.00000000000E+00  0.17928395268E+02  0.17928395268E+02  0.00000000000E+00 0.  1.
          1   -1    0    0  501    0  0.00000000000E+00 -0.00000000000E+00 -0.10550984894E+04  0.10550984894E+04  0.00000000000E+00 0.  1.
         35    2    1    2    0    0  0.00000000000E+00  0.00000000000E+00 -0.10371700942E+04  0.10730268847E+04  0.27507251964E+03 0.  0.
         25    1    3    3    0    0  0.14647624744E+02 -0.40735620870E+02 -0.71910275803E+03  0.73033055552E+03  0.12000000000E+03 0.  0.
         25    1    3    3    0    0 -0.14647624744E+02  0.40735620870E+02 -0.31806733613E+03  0.34269632918E+03  0.12000000000E+03 0.  0.
<mgrwt>
<rscale>  0 0.27507252E+03</rscale>
<asrwt>0</asrwt>
<pdfrwt beam="1">  1        1 0.16232292E+00 0.27507252E+03</pdfrwt>
<pdfrwt beam="2">  1       -1 0.27582134E-02 0.27507252E+03</pdfrwt>
<totfact> 0.62119197E+03</totfact>
</mgrwt>
</event>
<event>
 5    1  0.1147887E+001  0.2771279E+03  0.7818608E-02  0.1097268E+00
         -2   -1    0    0    0  501 -0.00000000000E+00  0.00000000000E+00  0.21948339401E+02  0.21948339401E+02  0.00000000000E+00 0.  1.
          2   -1    0    0  501    0  0.00000000000E+00 -0.00000000000E+00 -0.87478002911E+03  0.87478002911E+03  0.00000000000E+00 0.  1.
         35    2    1    2    0    0  0.00000000000E+00  0.00000000000E+00 -0.85283168971E+03  0.89672836851E+03  0.27712790535E+03 0.  0.
         25    1    3    3    0    0 -0.36369241391E+02 -0.58122409766E+02 -0.45861689658E+03  0.47898892896E+03  0.12000000000E+03 0.  0.
         25    1    3    3    0    0  0.36369241391E+02  0.58122409766E+02 -0.39421479313E+03  0.41773943955E+03  0.12000000000E+03 0.  0.
<mgrwt>
<rscale>  0 0.27712791E+03</rscale>
<asrwt>0</asrwt>
<pdfrwt beam="1">  1        2 0.13458155E+00 0.27712791E+03</pdfrwt>
<pdfrwt beam="2">  1       -2 0.33766674E-02 0.27712791E+03</pdfrwt>
<totfact> 0.11166716E+04</totfact>
</mgrwt>
</event>
<event>
 5    1  0.1147887E+001  0.2743031E+03  0.7818608E-02  0.1098842E+00
         -3   -1    0    0    0  501 -0.00000000000E+00  0.00000000000E+00  0.39062790203E+03  0.39062790203E+03  0.00000000000E+00 0.  1.
          3   -1    0    0  501    0  0.00000000000E+00 -0.00000000000E+00 -0.48154641978E+02  0.48154641978E+02  0.00000000000E+00 0.  1.
         35    2    1    2    0    0  0.00000000000E+00  0.00000000000E+00  0.34247326005E+03  0.43878254401E+03  0.27430309345E+03 0.  0.
         25    1    3    3    0    0 -0.54114468224E+02  0.34508751057E+02  0.14393417512E+03  0.19808148914E+03  0.12000000000E+03 0.  0.
         25    1    3    3    0    0  0.54114468224E+02 -0.34508751057E+02  0.19853908493E+03  0.24070105487E+03  0.12000000000E+03 0.  0.
<mgrwt>
<rscale>  0 0.27430309E+03</rscale>
<asrwt>0</asrwt>
<pdfrwt beam="1">  1        3 0.74084067E-02 0.27430309E+03</pdfrwt>
<pdfrwt beam="2">  1       -3 0.60096598E-01 0.27430309E+03</pdfrwt>
<totfact> 0.84308760E+02</totfact>
</mgrwt>
</event>
<event>
 5    1  0.1147887E+001  0.2745871E+03  0.7818608E-02  0.1098683E+00
          3   -1    0    0  501    0  0.00000000000E+00  0.00000000000E+00  0.24620760012E+03  0.24620760012E+03  0.00000000000E+00 0.  1.
         -3   -1    0    0    0  501 -0.00000000000E+00 -0.00000000000E+00 -0.76559425928E+02  0.76559425928E+02  0.00000000000E+00 0.  1.
         35    2    1    2    0    0  0.00000000000E+00  0.00000000000E+00  0.16964817419E+03  0.32276702604E+03  0.27458705377E+03 0.  0.
         25    1    3    3    0    0  0.26040484144E+02  0.10146808163E+02  0.13628957199E+02  0.12396295013E+03  0.12000000000E+03 0.  0.
         25    1    3    3    0    0 -0.26040484144E+02 -0.10146808163E+02  0.15601921699E+03  0.19880407592E+03  0.12000000000E+03 0.  0.
<mgrwt>
<rscale>  0 0.27458705E+03</rscale>
<asrwt>0</asrwt>
<pdfrwt beam="1">  1        3 0.37878092E-01 0.27458705E+03</pdfrwt>
<pdfrwt beam="2">  1       -3 0.11778373E-01 0.27458705E+03</pdfrwt>
<totfact> 0.98403967E+02</totfact>
</mgrwt>
</event>
<event>
 5    1  0.1147887E+001  0.2747966E+03  0.7818608E-02  0.1098565E+00
         -2   -1    0    0    0  501 -0.00000000000E+00  0.00000000000E+00  0.61962247976E+02  0.61962247976E+02  0.00000000000E+00 0. -1.
          2   -1    0    0  501    0  0.00000000000E+00 -0.00000000000E+00 -0.30467410116E+03  0.30467410116E+03  0.00000000000E+00 0. -1.
         35    2    1    2    0    0  0.00000000000E+00  0.00000000000E+00 -0.24271185318E+03  0.36663634913E+03  0.27479659538E+03 0.  0.
         25    1    3    3    0    0  0.62237474199E+02  0.13512846203E+02 -0.14877035354E+03  0.20146641978E+03  0.12000000000E+03 0.  0.
         25    1    3    3    0    0 -0.62237474199E+02 -0.13512846203E+02 -0.93941499639E+02  0.16516992935E+03  0.12000000000E+03 0.  0.
<mgrwt>
<rscale>  0 0.27479660E+03</rscale>
<asrwt>0</asrwt>
<pdfrwt beam="1">  1        2 0.46872938E-01 0.27479660E+03</pdfrwt>
<pdfrwt beam="2">  1       -2 0.95326537E-02 0.27479660E+03</pdfrwt>
<totfact> 0.76436412E+03</totfact>
</mgrwt>
</event>
<event>
 5    1  0.1147887E+001  0.2753587E+03  0.7818608E-02  0.1098251E+00
          2   -1    0    0  501    0  0.00000000000E+00  0.00000000000E+00  0.28357591652E+03  0.28357591652E+03  0.00000000000E+00 0. -1.
         -2   -1    0    0    0  501 -0.00000000000E+00 -0.00000000000E+00 -0.66844876755E+02  0.66844876755E+02  0.00000000000E+00 0. -1.
         35    2    1    2    0    0  0.00000000000E+00  0.00000000000E+00  0.21673103976E+03  0.35042079327E+03  0.27535865478E+03 0.  0.
         25    1    3    3    0    0  0.41337745855E+01 -0.34557527506E+02  0.34771442029E+02  0.12969334594E+03  0.12000000000E+03 0.  0.
         25    1    3    3    0    0 -0.41337745855E+01  0.34557527506E+02  0.18195959773E+03  0.22072744734E+03  0.12000000000E+03 0.  0.
<mgrwt>
<rscale>  0 0.27535865E+03</rscale>
<asrwt>0</asrwt>
<pdfrwt beam="1">  1        2 0.43627063E-01 0.27535865E+03</pdfrwt>
<pdfrwt beam="2">  1       -2 0.10283827E-01 0.27535865E+03</pdfrwt>
<totfact> 0.73204101E+03</totfact>
</mgrwt>
</event>
<event>
 5    1  0.1147887E+001  0.2753132E+03  0.7818608E-02  0.1098277E+00
          2   -1    0    0  501    0  0.00000000000E+00  0.00000000000E+00  0.36199806453E+02  0.36199806453E+02  0.00000000000E+00 0.  1.
         -2   -1    0    0    0  501 -0.00000000000E+00 -0.00000000000E+00 -0.52346533029E+03  0.52346533029E+03  0.00000000000E+00 0.  1.
         35    2    1    2    0    0  0.00000000000E+00  0.00000000000E+00 -0.48726552384E+03  0.55966513675E+03  0.27531322991E+03 0.  0.
         25    1    3    3    0    0 -0.59045484803E+02  0.56661866152E+01 -0.30890114417E+03  0.33665767749E+03  0.12000000000E+03 0.  0.
         25    1    3    3    0    0  0.59045484803E+02 -0.56661866152E+01 -0.17836437967E+03  0.22300745925E+03  0.12000000000E+03 0.  0.
<mgrwt>
<rscale>  0 0.27531323E+03</rscale>
<asrwt>0</asrwt>
<pdfrwt beam="1">  1        2 0.55692012E-02 0.27531323E+03</pdfrwt>
<pdfrwt beam="2">  1       -2 0.80533124E-01 0.27531323E+03</pdfrwt>
<totfact> 0.19093589E+03</totfact>
</mgrwt>
</event>
<event>
 5    1  0.1147887E+001  0.2749874E+03  0.7818608E-02  0.1098459E+00
          1   -1    0    0  501    0  0.00000000000E+00  0.00000000000E+00  0.48353439437E+03  0.48353439437E+03  0.00000000000E+00 0. -1.
         -1   -1    0    0    0  501 -0.00000000000E+00 -0.00000000000E+00 -0.39096530793E+02  0.39096530793E+02  0.00000000000E+00 0. -1.
         35    2    1    2    0    0  0.00000000000E+00  0.00000000000E+00  0.44443786358E+03  0.52263092517E+03  0.27498739854E+03 0.  0.
         25    1    3    3    0    0  0.91734897305E+01 -0.37487864690E+02  0.32657740803E+03  0.35006041814E+03  0.12000000000E+03 0.  0.
         25    1    3    3    0    0 -0.91734897305E+01  0.37487864690E+02  0.11786045555E+03  0.17257050703E+03  0.12000000000E+03 0.  0.
<mgrwt>
<rscale>  0 0.27498740E+03</rscale>
<asrwt>0</asrwt>
<pdfrwt beam="1">  1        1 0.74389902E-01 0.27498740E+03</pdfrwt>
<pdfrwt beam="2">  1       -1 0.60148512E-02 0.27498740E+03</pdfrwt>
<totfact> 0.62553350E+03</totfact>
</mgrwt>
</event>
<event>
 5    1  0.1147887E+001  0.2756151E+03  0.7818608E-02  0.1098108E+00
          1   -1    0    0  501    0  0.00000000000E+00  0.00000000000E+00  0.24591400724E+04  0.24591400724E+04  0.00000000000E+00 0. -1.
         -1   -1    0    0    0  501 -0.00000000000E+00 -0.00000000000E+00 -0.77225848842E+01  0.77225848842E+01  0.00000000000E+00 0. -1.
         35    2    1    2    0    0  0.00000000000E+00  0.00000000000E+00  0.24514174875E+04  0.24668626573E+04  0.27561507906E+03 0.  0.
         25    1    3    3    0    0  0.29191308179E+02  0.44854258487E+02  0.85376847658E+03  0.86381980099E+03  0.12000000000E+03 0.  0.
         25    1    3    3    0    0 -0.29191308179E+02 -0.44854258487E+02  0.15976490110E+04  0.16030428563E+04  0.12000000000E+03 0.  0.
<mgrwt>
<rscale>  0 0.27561508E+03</rscale>
<asrwt>0</asrwt>
<pdfrwt beam="1">  1        1 0.37832862E+00 0.27561508E+03</pdfrwt>
<pdfrwt beam="2">  1       -1 0.11880919E-02 0.27561508E+03</pdfrwt>
<totfact> 0.24729478E+03</totfact>
</mgrwt>
</event>
<event>
 5    1  0.1147887E+001  0.2760374E+03  0.7818608E-02  0.1097873E+00
         -2   -1    0    0    0  501 -0.00000000000E+00  0.00000000000E+00  0.12102232710E+02  0.12102232710E+02  0.00000000000E+00 0. -1.
          2   -1    0    0  501    0  0.00000000000E+00 -0.00000000000E+00 -0.15740201708E+04  0.15740201708E+04  0.00000000000E+00 0. -1.
         35    2    1    2    0    0  0.00000000000E+00  0.00000000000E+00 -0.15619179380E+04  0.15861224035E+04  0.27603737715E+03 0.  0.
         25    1    3    3    0    0 -0.44091800718E+02 -0.51894275559E+02 -0.80090996067E+03  0.81270773826E+03  0.12000000000E+03 0.  0.
         25    1    3    3    0    0  0.44091800718E+02  0.51894275559E+02 -0.76100797738E+03  0.77341466521E+03  0.12000000000E+03 0.  0.
<mgrwt>
<rscale>  0 0.27603738E+03</rscale>
<asrwt>0</asrwt>
<pdfrwt beam="1">  1        2 0.24215689E+00 0.27603738E+03</pdfrwt>
<pdfrwt beam="2">  1       -2 0.18618824E-02 0.27603738E+03</pdfrwt>
<totfact> 0.10701396E+04</totfact>
</mgrwt>
</event>
<event>
 5    1  0.1147887E+001  0.2757461E+03  0.7818608E-02  0.1098035E+00
          2   -1    0    0  501    0  0.00000000000E+00  0.00000000000E+00  0.11212590282E+04  0.11212590282E+04  0.00000000000E+00 0. -1.
         -2   -1    0    0    0  501 -0.00000000000E+00 -0.00000000000E+00 -0.16953242128E+02  0.16953242128E+02  0.00000000000E+00 0. -1.
         35    2    1    2    0    0  0.00000000000E+00  0.00000000000E+00  0.11043057861E+04  0.11382122703E+04  0.27574608460E+03 0.  0.
         25    1    3    3    0    0 -0.35158849298E+02  0.51935203568E+02  0.44486574101E+03  0.46501498640E+03  0.12000000000E+03 0.  0.
         25    1    3    3    0    0  0.35158849298E+02 -0.51935203568E+02  0.65944004504E+03  0.67319728391E+03  0.12000000000E+03 0.  0.
<mgrwt>
<rscale>  0 0.27574608E+03</rscale>
<asrwt>0</asrwt>
<pdfrwt beam="1">  1        2 0.17250133E+00 0.27574608E+03</pdfrwt>
<pdfrwt beam="2">  1       -2 0.26081920E-02 0.27574608E+03</pdfrwt>
<totfact> 0.11562802E+04</totfact>
</mgrwt>
</event>
<event>
 5    1  0.1147887E+001  0.2748640E+03  0.7818608E-02  0.1098528E+00
         -2   -1    0    0    0  501 -0.00000000000E+00  0.00000000000E+00  0.56031394036E+01  0.56031394036E+01  0.00000000000E+00 0.  1.
          2   -1    0    0  501    0  0.00000000000E+00 -0.00000000000E+00 -0.33708890866E+04  0.33708890866E+04  0.00000000000E+00 0.  1.
         35    2    1    2    0    0  0.00000000000E+00  0.00000000000E+00 -0.33652859472E+04  0.33764922260E+04  0.27486404979E+03 0.  0.
         25    1    3    3    0    0 -0.13244066298E+02  0.23535169374E+02 -0.24357223606E+04  0.24388260962E+04  0.12000000000E+03 0.  0.
         25    1    3    3    0    0  0.13244066298E+02 -0.23535169374E+02 -0.92956358661E+03  0.93766612983E+03  0.12000000000E+03 0.  0.
<mgrwt>
<rscale>  0 0.27486405E+03</rscale>
<asrwt>0</asrwt>
<pdfrwt beam="1">  1        2 0.51859885E+00 0.27486405E+03</pdfrwt>
<pdfrwt beam="2">  1       -2 0.86202057E-03 0.27486405E+03</pdfrwt>
<totfact> 0.32562445E+03</totfact>
</mgrwt>
</event>
<event>
 5    1  0.1147887E+001  0.2766016E+03  0.7818608E-02  0.1097560E+00
          2   -1    0    0  501    0  0.00000000000E+00  0.00000000000E+00  0.57844615914E+03  0.57844615914E+03  0.00000000000E+00 0.  1.
         -2   -1    0    0    0  501 -0.00000000000E+00 -0.00000000000E+00 -0.33066362103E+02  0.33066362103E+02  0.00000000000E+00 0.  1.
         35    2    1    2    0    0  0.00000000000E+00  0.00000000000E+00  0.54537979704E+03  0.61151252124E+03  0.27660159186E+03 0.  0.
         25    1    3    3    0    0 -0.33520909757E+02  0.38099949956E+02  0.37524492148E+03  0.39722035279E+03  0.12000000000E+03 0.  0.
         25    1    3    3    0    0  0.33520909757E+02 -0.38099949956E+02  0.17013487556E+03  0.21429216845E+03  0.12000000000E+03 0.  0.
<mgrwt>
<rscale>  0 0.27660159E+03</rscale>
<asrwt>0</asrwt>
<pdfrwt beam="1">  1        2 0.88991709E-01 0.27660159E+03</pdfrwt>
<pdfrwt beam="2">  1       -2 0.50871331E-02 0.27660159E+03</pdfrwt>
<totfact> 0.99960900E+03</totfact>
</mgrwt>
</event>
<event>
 5    1  0.1147887E+001  0.2750013E+03  0.7818608E-02  0.1098451E+00
          2   -1    0    0  501    0  0.00000000000E+00  0.00000000000E+00  0.19177558835E+04  0.19177558835E+04  0.00000000000E+00 0. -1.
         -2   -1    0    0    0  501 -0.00000000000E+00 -0.00000000000E+00 -0.98586184158E+01  0.98586184158E+01  0.00000000000E+00 0. -1.
         35    2    1    2    0    0  0.00000000000E+00  0.00000000000E+00  0.19078972651E+04  0.19276145019E+04  0.27500126160E+03 0.  0.
         25    1    3    3    0    0  0.64091470917E+02  0.33859256191E+01  0.10918844055E+04  0.11003321026E+04  0.12000000000E+03 0.  0.
         25    1    3    3    0    0 -0.64091470917E+02 -0.33859256191E+01  0.81601285960E+03  0.82728239929E+03  0.12000000000E+03 0.  0.
<mgrwt>
<rscale>  0 0.27500126E+03</rscale>
<asrwt>0</asrwt>
<pdfrwt beam="1">  1        2 0.29503907E+00 0.27500126E+03</pdfrwt>
<pdfrwt beam="2">  1       -2 0.15167120E-02 0.27500126E+03</pdfrwt>
<totfact> 0.95272822E+03</totfact>
</mgrwt>
</event>
<event>
 5    1  0.1147887E+001  0.2753480E+03  0.7818608E-02  0.1098257E+00
          2   -1    0    0  501    0  0.00000000000E+00  0.00000000000E+00  0.59245659420E+03  0.59245659420E+03  0.00000000000E+00 0. -1.
         -2   -1    0    0    0  501 -0.00000000000E+00 -0.00000000000E+00 -0.31992427213E+02  0.31992427213E+02  0.00000000000E+00 0. -1.
         35    2    1    2    0    0  0.00000000000E+00  0.00000000000E+00  0.56046416699E+03  0.62444902142E+03  0.27534795781E+03 0.  0.
         25    1    3    3    0    0  0.18222799893E+02  0.63920272601E+02  0.30670414835E+03  0.33598408638E+03  0.12000000000E+03 0.  0.
         25    1    3    3    0    0 -0.18222799893E+02 -0.63920272601E+02  0.25376001864E+03  0.28846493504E+03  0.12000000000E+03 0.  0.
<mgrwt>
<rscale>  0 0.27534796E+03</rscale>
<asrwt>0</asrwt>
<pdfrwt beam="1">  1        2 0.91147160E-01 0.27534796E+03</pdfrwt>
<pdfrwt beam="2">  1       -2 0.49219123E-02 0.27534796E+03</pdfrwt>
<totfact> 0.10222261E+04</totfact>
</mgrwt>
</event>
<event>
 5    1  0.1147887E+001  0.2744811E+03  0.7818608E-02  0.1098742E+00
         -1   -1    0    0    0  501 -0.00000000000E+00  0.00000000000E+00  0.14114522527E+04  0.14114522527E+04  0.00000000000E+00 0. -1.
          1   -1    0    0  501    0  0.00000000000E+00 -0.00000000000E+00 -0.13344385085E+02  0.13344385085E+02  0.00000000000E+00 0. -1.
         35    2    1    2    0    0  0.00000000000E+00  0.00000000000E+00  0.13981078676E+04  0.14247966378E+04  0.27448105501E+03 0.  0.
         25    1    3    3    0    0 -0.28655859673E+02 -0.32319399864E+02  0.43593955858E+03  0.45421250604E+03  0.12000000000E+03 0.  0.
         25    1    3    3    0    0  0.28655859673E+02  0.32319399864E+02  0.96216830905E+03  0.97058413177E+03  0.12000000000E+03 0.  0.
<mgrwt>
<rscale>  0 0.27448106E+03</rscale>
<asrwt>0</asrwt>
<pdfrwt beam="1">  1        1 0.20529834E-02 0.27448106E+03</pdfrwt>
<pdfrwt beam="2">  1       -1 0.21714638E+00 0.27448106E+03</pdfrwt>
<totfact> 0.75015049E+02</totfact>
</mgrwt>
</event>
<event>
 5    1  0.1147887E+001  0.2751253E+03  0.7818608E-02  0.1098382E+00
          2   -1    0    0  501    0  0.00000000000E+00  0.00000000000E+00  0.16334601225E+04  0.16334601225E+04  0.00000000000E+00 0. -1.
         -2   -1    0    0    0  501 -0.00000000000E+00 -0.00000000000E+00 -0.11584909357E+02  0.11584909357E+02  0.00000000000E+00 0. -1.
         35    2    1    2    0    0  0.00000000000E+00  0.00000000000E+00  0.16218752132E+04  0.16450450319E+04  0.27512533477E+03 0.  0.
         25    1    3    3    0    0  0.58962074104E+02 -0.32164211854E+02  0.78986146765E+03  0.80174322621E+03  0.12000000000E+03 0.  0.
         25    1    3    3    0    0 -0.58962074104E+02  0.32164211854E+02  0.83201374553E+03  0.84330180567E+03  0.12000000000E+03 0.  0.
<mgrwt>
<rscale>  0 0.27512533E+03</rscale>
<asrwt>0</asrwt>
<pdfrwt beam="1">  1        2 0.25130137E+00 0.27512533E+03</pdfrwt>
<pdfrwt beam="2">  1       -2 0.17822950E-02 0.27512533E+03</pdfrwt>
<totfact> 0.10611478E+04</totfact>
</mgrwt>
</event>
<event>
 5    1  0.1147887E+001  0.2748314E+03  0.7818608E-02  0.1098546E+00
          2   -1    0    0  501    0  0.00000000000E+00  0.00000000000E+00  0.24292983722E+03  0.24292983722E+03  0.00000000000E+00 0. -1.
         -2   -1    0    0    0  501 -0.00000000000E+00 -0.00000000000E+00 -0.77730560286E+02  0.77730560286E+02  0.00000000000E+00 0. -1.
         35    2    1    2    0    0  0.00000000000E+00  0.00000000000E+00  0.16519927693E+03  0.32066039750E+03  0.27483138363E+03 0.  0.
         25    1    3    3    0    0 -0.35020560651E+02  0.50653252448E+02  0.51931985914E+02  0.14453069851E+03  0.12000000000E+03 0.  0.
         25    1    3    3    0    0  0.35020560651E+02 -0.50653252448E+02  0.11326729101E+03  0.17612969899E+03  0.12000000000E+03 0.  0.
<mgrwt>
<rscale>  0 0.27483138E+03</rscale>
<asrwt>0</asrwt>
<pdfrwt beam="1">  1        2 0.37373821E-01 0.27483138E+03</pdfrwt>
<pdfrwt beam="2">  1       -2 0.11958548E-01 0.27483138E+03</pdfrwt>
<totfact> 0.67901586E+03</totfact>
</mgrwt>
</event>
<event>
 5    1  0.1147887E+001  0.2748956E+03  0.7818608E-02  0.1098510E+00
          1   -1    0    0  501    0  0.00000000000E+00  0.00000000000E+00  0.93790212747E+03  0.93790212747E+03  0.00000000000E+00 0. -1.
         -1   -1    0    0    0  501 -0.00000000000E+00 -0.00000000000E+00 -0.20142716745E+02  0.20142716745E+02  0.00000000000E+00 0. -1.
         35    2    1    2    0    0  0.00000000000E+00  0.00000000000E+00  0.91775941072E+03  0.95804484421E+03  0.27489559391E+03 0.  0.
         25    1    3    3    0    0 -0.26343121919E+02  0.34529035928E+02  0.28097853440E+03  0.30860192998E+03  0.12000000000E+03 0.  0.
         25    1    3    3    0    0  0.26343121919E+02 -0.34529035928E+02  0.63678087632E+03  0.64944291423E+03  0.12000000000E+03 0.  0.
<mgrwt>
<rscale>  0 0.27489559E+03</rscale>
<asrwt>0</asrwt>
<pdfrwt beam="1">  1        1 0.14429260E+00 0.27489559E+03</pdfrwt>
<pdfrwt beam="2">  1       -1 0.30988802E-02 0.27489559E+03</pdfrwt>
<totfact> 0.64057515E+03</totfact>
</mgrwt>
</event>
<event>
 5    1  0.1147887E+001  0.2650150E+03  0.7818608E-02  0.1104167E+00
          1   -1    0    0  501    0  0.00000000000E+00  0.00000000000E+00  0.14929939720E+04  0.14929939720E+04  0.00000000000E+00 0. -1.
         -1   -1    0    0    0  501 -0.00000000000E+00 -0.00000000000E+00 -0.11760419224E+02  0.11760419224E+02  0.00000000000E+00 0. -1.
         35    2    1    2    0    0  0.00000000000E+00  0.00000000000E+00  0.14812335528E+04  0.15047543912E+04  0.26501498078E+03 0.  0.
         25    1    3    3    0    0 -0.49601703417E+02 -0.24688266168E+02  0.79400068594E+03  0.80492666047E+03  0.12000000000E+03 0.  0.
         25    1    3    3    0    0  0.49601703417E+02  0.24688266168E+02  0.68723286686E+03  0.69982773077E+03  0.12000000000E+03 0.  0.
<mgrwt>
<rscale>  0 0.26501498E+03</rscale>
<asrwt>0</asrwt>
<pdfrwt beam="1">  1        1 0.22969123E+00 0.26501498E+03</pdfrwt>
<pdfrwt beam="2">  1       -1 0.18092964E-02 0.26501498E+03</pdfrwt>
<totfact> 0.57397597E+03</totfact>
</mgrwt>
</event>
<event>
 5    1  0.1147887E+001  0.2753896E+03  0.7818608E-02  0.1098234E+00
         -2   -1    0    0    0  501 -0.00000000000E+00  0.00000000000E+00  0.61277671996E+01  0.61277671996E+01  0.00000000000E+00 0.  1.
          2   -1    0    0  501    0  0.00000000000E+00 -0.00000000000E+00 -0.30940889038E+04  0.30940889038E+04  0.00000000000E+00 0.  1.
         35    2    1    2    0    0  0.00000000000E+00  0.00000000000E+00 -0.30879611366E+04  0.31002166710E+04  0.27538958947E+03 0.  0.
         25    1    3    3    0    0 -0.29704025378E+02  0.60003873830E+02 -0.16428053977E+04  0.16485424983E+04  0.12000000000E+03 0.  0.
         25    1    3    3    0    0  0.29704025378E+02 -0.60003873830E+02 -0.14451557389E+04  0.14516741727E+04  0.12000000000E+03 0.  0.
<mgrwt>
<rscale>  0 0.27538959E+03</rscale>
<asrwt>0</asrwt>
<pdfrwt beam="1">  1        2 0.47601316E+00 0.27538959E+03</pdfrwt>
<pdfrwt beam="2">  1       -2 0.94273444E-03 0.27538959E+03</pdfrwt>
<totfact> 0.42512375E+03</totfact>
</mgrwt>
</event>
<event>
 5    1  0.1147887E+001  0.2748298E+03  0.7818608E-02  0.1098547E+00
         -3   -1    0    0    0  501 -0.00000000000E+00  0.00000000000E+00  0.34541967319E+03  0.34541967319E+03  0.00000000000E+00 0.  1.
          3   -1    0    0  501    0  0.00000000000E+00 -0.00000000000E+00 -0.54666402872E+02  0.54666402872E+02  0.00000000000E+00 0.  1.
         35    2    1    2    0    0  0.00000000000E+00  0.00000000000E+00  0.29075327031E+03  0.40008607606E+03  0.27482977287E+03 0.  0.
         25    1    3    3    0    0 -0.25311714113E+02 -0.31068159464E+02  0.22345934556E+03  0.25678783562E+03  0.12000000000E+03 0.  0.
         25    1    3    3    0    0  0.25311714113E+02  0.31068159464E+02  0.67293924753E+02  0.14329824044E+03  0.12000000000E+03 0.  0.
<mgrwt>
<rscale>  0 0.27482977E+03</rscale>
<asrwt>0</asrwt>
<pdfrwt beam="1">  1        3 0.84102161E-02 0.27482977E+03</pdfrwt>
<pdfrwt beam="2">  1       -3 0.53141487E-01 0.27482977E+03</pdfrwt>
<totfact> 0.88218197E+02</totfact>
</mgrwt>
</event>
<event>
 5    1  0.1147887E+001  0.2812391E+03  0.7818608E-02  0.1095014E+00
          2   -1    0    0  501    0  0.00000000000E+00  0.00000000000E+00  0.96355683206E+03  0.96355683206E+03  0.00000000000E+00 0.  1.
         -2   -1    0    0    0  501 -0.00000000000E+00 -0.00000000000E+00 -0.20521735286E+02  0.20521735286E+02  0.00000000000E+00 0.  1.
         35    2    1    2    0    0  0.00000000000E+00  0.00000000000E+00  0.94303509677E+03  0.98407856734E+03  0.28123910283E+03 0.  0.
         25    1    3    3    0    0 -0.46610670911E+02  0.34445851419E+02  0.31445644992E+03  0.34152881316E+03  0.12000000000E+03 0.  0.
         25    1    3    3    0    0  0.46610670911E+02 -0.34445851419E+02  0.62857864685E+03  0.64254975419E+03  0.12000000000E+03 0.  0.
<mgrwt>
<rscale>  0 0.28123910E+03</rscale>
<asrwt>0</asrwt>
<pdfrwt beam="1">  1        2 0.14823948E+00 0.28123910E+03</pdfrwt>
<pdfrwt beam="2">  1       -2 0.31571908E-02 0.28123910E+03</pdfrwt>
<totfact> 0.10837620E+04</totfact>
</mgrwt>
</event>
<event>
 5    1  0.1147887E+001  0.2742514E+03  0.7818608E-02  0.1098871E+00
         -2   -1    0    0    0  501 -0.00000000000E+00  0.00000000000E+00  0.11746701754E+02  0.11746701754E+02  0.00000000000E+00 0.  1.
          2   -1    0    0  501    0  0.00000000000E+00 -0.00000000000E+00 -0.16007431788E+04  0.16007431788E+04  0.00000000000E+00 0.  1.
         35    2    1    2    0    0  0.00000000000E+00  0.00000000000E+00 -0.15889964770E+04  0.16124898805E+04  0.27425136431E+03 0.  0.
         25    1    3    3    0    0 -0.65094745051E+02 -0.36397717415E+01 -0.72180031183E+03  0.73460619649E+03  0.12000000000E+03 0.  0.
         25    1    3    3    0    0  0.65094745051E+02  0.36397717415E+01 -0.86719616518E+03  0.87788368402E+03  0.12000000000E+03 0.  0.
<mgrwt>
<rscale>  0 0.27425136E+03</rscale>
<asrwt>0</asrwt>
<pdfrwt beam="1">  1        2 0.24626812E+00 0.27425136E+03</pdfrwt>
<pdfrwt beam="2">  1       -2 0.18071853E-02 0.27425136E+03</pdfrwt>
<totfact> 0.10819934E+04</totfact>
</mgrwt>
</event>
<event>
 5    1  0.1147887E+001  0.2750845E+03  0.7818608E-02  0.1098404E+00
          2   -1    0    0  501    0  0.00000000000E+00  0.00000000000E+00  0.33598832450E+03  0.33598832450E+03  0.00000000000E+00 0. -1.
         -2   -1    0    0    0  501 -0.00000000000E+00 -0.00000000000E+00 -0.56305126442E+02  0.56305126442E+02  0.00000000000E+00 0. -1.
         35    2    1    2    0    0  0.00000000000E+00  0.00000000000E+00  0.27968319806E+03  0.39229345095E+03  0.27508446044E+03 0.  0.
         25    1    3    3    0    0 -0.41531437234E+02  0.43213907457E+02  0.18322743770E+03  0.22707839176E+03  0.12000000000E+03 0.  0.
         25    1    3    3    0    0  0.41531437234E+02 -0.43213907457E+02  0.96455760363E+02  0.16521505919E+03  0.12000000000E+03 0.  0.
<mgrwt>
<rscale>  0 0.27508446E+03</rscale>
<asrwt>0</asrwt>
<pdfrwt beam="1">  1        2 0.51690511E-01 0.27508446E+03</pdfrwt>
<pdfrwt beam="2">  1       -2 0.86623273E-02 0.27508446E+03</pdfrwt>
<totfact> 0.80014431E+03</totfact>
</mgrwt>
</event>
<event>
 5    1  0.1147887E+001  0.2769906E+03  0.7818608E-02  0.1097344E+00
          2   -1    0    0  501    0  0.00000000000E+00  0.00000000000E+00  0.77834088136E+03  0.77834088136E+03  0.00000000000E+00 0.  1.
         -2   -1    0    0    0  501 -0.00000000000E+00 -0.00000000000E+00 -0.24643382891E+02  0.24643382891E+02  0.00000000000E+00 0.  1.
         35    2    1    2    0    0  0.00000000000E+00  0.00000000000E+00  0.75369749847E+03  0.80298426425E+03  0.27699063059E+03 0.  0.
         25    1    3    3    0    0 -0.59657696918E+02 -0.27138144078E+02  0.31297734465E+03  0.34154112188E+03  0.12000000000E+03 0.  0.
         25    1    3    3    0    0  0.59657696918E+02  0.27138144078E+02  0.44072015381E+03  0.46144314237E+03  0.12000000000E+03 0.  0.
<mgrwt>
<rscale>  0 0.27699063E+03</rscale>
<asrwt>0</asrwt>
<pdfrwt beam="1">  1        2 0.11974473E+00 0.27699063E+03</pdfrwt>
<pdfrwt beam="2">  1       -2 0.37912903E-02 0.27699063E+03</pdfrwt>
<totfact> 0.10914588E+04</totfact>
</mgrwt>
</event>
<event>
 5    1  0.1147887E+001  0.2741304E+03  0.7818608E-02  0.1098939E+00
         -4   -1    0    0    0  501 -0.00000000000E+00  0.00000000000E+00  0.31880608916E+03  0.31880608916E+03  0.00000000000E+00 0.  1.
          4   -1    0    0  501    0  0.00000000000E+00 -0.00000000000E+00 -0.58928832768E+02  0.58928832768E+02  0.00000000000E+00 0.  1.
         35    2    1    2    0    0  0.00000000000E+00  0.00000000000E+00  0.25987725639E+03  0.37773492192E+03  0.27413041213E+03 0.  0.
         25    1    3    3    0    0 -0.38739447961E+02 -0.17723907451E+02  0.19982049066E+03  0.23694537390E+03  0.12000000000E+03 0.  0.
         25    1    3    3    0    0  0.38739447961E+02  0.17723907451E+02  0.60056765725E+02  0.14078954802E+03  0.12000000000E+03 0.  0.
<mgrwt>
<rscale>  0 0.27413041E+03</rscale>
<asrwt>0</asrwt>
<pdfrwt beam="1">  1        4 0.90659745E-02 0.27413041E+03</pdfrwt>
<pdfrwt beam="2">  1       -4 0.49047090E-01 0.27413041E+03</pdfrwt>
<totfact> 0.67700281E+02</totfact>
</mgrwt>
</event>
<event>
 5    1  0.1147887E+001  0.2777844E+03  0.7818608E-02  0.1096905E+00
         -2   -1    0    0    0  501 -0.00000000000E+00  0.00000000000E+00  0.16136253479E+02  0.16136253479E+02  0.00000000000E+00 0. -1.
          2   -1    0    0  501    0  0.00000000000E+00 -0.00000000000E+00 -0.11955093413E+04  0.11955093413E+04  0.00000000000E+00 0. -1.
         35    2    1    2    0    0  0.00000000000E+00  0.00000000000E+00 -0.11793730878E+04  0.12116455947E+04  0.27778438953E+03 0.  0.
         25    1    3    3    0    0 -0.67555556042E+02  0.13358191027E+02 -0.53647102259E+03  0.55402468582E+03  0.12000000000E+03 0.  0.
         25    1    3    3    0    0  0.67555556042E+02 -0.13358191027E+02 -0.64290206519E+03  0.65762090891E+03  0.12000000000E+03 0.  0.
<mgrwt>
<rscale>  0 0.27778439E+03</rscale>
<asrwt>0</asrwt>
<pdfrwt beam="1">  1        2 0.18392451E+00 0.27778439E+03</pdfrwt>
<pdfrwt beam="2">  1       -2 0.24825005E-02 0.27778439E+03</pdfrwt>
<totfact> 0.11276164E+04</totfact>
</mgrwt>
</event>
<event>
 5    1  0.1147887E+001  0.2828428E+03  0.7818608E-02  0.1094146E+00
          1   -1    0    0  501    0  0.00000000000E+00  0.00000000000E+00  0.23499178775E+04  0.23499178775E+04  0.00000000000E+00 0. -1.
         -1   -1    0    0    0  501 -0.00000000000E+00 -0.00000000000E+00 -0.85109397135E+01  0.85109397135E+01  0.00000000000E+00 0. -1.
         35    2    1    2    0    0  0.00000000000E+00  0.00000000000E+00  0.23414069378E+04  0.23584288172E+04  0.28284277885E+03 0.  0.
         25    1    3    3    0    0 -0.19186670823E+02  0.15393803200E+02  0.58139647889E+03  0.59416072168E+03  0.12000000000E+03 0.  0.
         25    1    3    3    0    0  0.19186670823E+02 -0.15393803200E+02  0.17600104589E+04  0.17642680955E+04  0.12000000000E+03 0.  0.
<mgrwt>
<rscale>  0 0.28284278E+03</rscale>
<asrwt>0</asrwt>
<pdfrwt beam="1">  1        1 0.36152531E+00 0.28284278E+03</pdfrwt>
<pdfrwt beam="2">  1       -1 0.13093772E-02 0.28284278E+03</pdfrwt>
<totfact> 0.25346543E+03</totfact>
</mgrwt>
</event>
<event>
 5    1  0.1147887E+001  0.2747724E+03  0.7818608E-02  0.1098579E+00
         -2   -1    0    0    0  501 -0.00000000000E+00  0.00000000000E+00  0.19911346078E+02  0.19911346078E+02  0.00000000000E+00 0.  1.
          2   -1    0    0  501    0  0.00000000000E+00 -0.00000000000E+00 -0.94795013760E+03  0.94795013760E+03  0.00000000000E+00 0.  1.
         35    2    1    2    0    0  0.00000000000E+00  0.00000000000E+00 -0.92803879152E+03  0.96786148368E+03  0.27477236582E+03 0.  0.
         25    1    3    3    0    0  0.84265676442E+01 -0.60168214307E+02 -0.56263071520E+03  0.57848469534E+03  0.12000000000E+03 0.  0.
         25    1    3    3    0    0 -0.84265676442E+01  0.60168214307E+02 -0.36540807632E+03  0.38937678833E+03  0.12000000000E+03 0.  0.
<mgrwt>
<rscale>  0 0.27477237E+03</rscale>
<asrwt>0</asrwt>
<pdfrwt beam="1">  1        2 0.14583846E+00 0.27477237E+03</pdfrwt>
<pdfrwt beam="2">  1       -2 0.30632846E-02 0.27477237E+03</pdfrwt>
<totfact> 0.11586140E+04</totfact>
</mgrwt>
</event>
<event>
 5    1  0.1147887E+001  0.2753625E+03  0.7818608E-02  0.1098249E+00
         -2   -1    0    0    0  501 -0.00000000000E+00  0.00000000000E+00  0.55698862599E+02  0.55698862599E+02  0.00000000000E+00 0.  1.
          2   -1    0    0  501    0  0.00000000000E+00 -0.00000000000E+00 -0.34033230883E+03  0.34033230883E+03  0.00000000000E+00 0.  1.
         35    2    1    2    0    0  0.00000000000E+00  0.00000000000E+00 -0.28463344623E+03  0.39603117143E+03  0.27536247027E+03 0.  0.
         25    1    3    3    0    0 -0.31902883403E+02  0.46485717939E+02 -0.88939534490E+02  0.15965261268E+03  0.12000000000E+03 0.  0.
         25    1    3    3    0    0  0.31902883403E+02 -0.46485717939E+02 -0.19569391174E+03  0.23637855875E+03  0.12000000000E+03 0.  0.
<mgrwt>
<rscale>  0 0.27536247E+03</rscale>
<asrwt>0</asrwt>
<pdfrwt beam="1">  1        2 0.52358816E-01 0.27536247E+03</pdfrwt>
<pdfrwt beam="2">  1       -2 0.85690559E-02 0.27536247E+03</pdfrwt>
<totfact> 0.80270461E+03</totfact>
</mgrwt>
</event>
<event>
 5    1  0.1147887E+001  0.2745108E+03  0.7818608E-02  0.1098725E+00
          2   -1    0    0  501    0  0.00000000000E+00  0.00000000000E+00  0.48070043396E+03  0.48070043396E+03  0.00000000000E+00 0. -1.
         -2   -1    0    0    0  501 -0.00000000000E+00 -0.00000000000E+00 -0.39190809311E+02  0.39190809311E+02  0.00000000000E+00 0. -1.
         35    2    1    2    0    0  0.00000000000E+00  0.00000000000E+00  0.44150962465E+03  0.51989124327E+03  0.27451075784E+03 0.  0.
         25    1    3    3    0    0 -0.14881889411E+02  0.36635351519E+02  0.32231037932E+03  0.34619012151E+03  0.12000000000E+03 0.  0.
         25    1    3    3    0    0  0.14881889411E+02 -0.36635351519E+02  0.11919924532E+03  0.17370112175E+03  0.12000000000E+03 0.  0.
<mgrwt>
<rscale>  0 0.27451076E+03</rscale>
<asrwt>0</asrwt>
<pdfrwt beam="1">  1        2 0.73953909E-01 0.27451076E+03</pdfrwt>
<pdfrwt beam="2">  1       -2 0.60293556E-02 0.27451076E+03</pdfrwt>
<totfact> 0.95021381E+03</totfact>
</mgrwt>
</event>
<event>
 5    1  0.1147887E+001  0.2734610E+03  0.7818608E-02  0.1099315E+00
          1   -1    0    0  501    0  0.00000000000E+00  0.00000000000E+00  0.15284103317E+04  0.15284103317E+04  0.00000000000E+00 0. -1.
         -1   -1    0    0    0  501 -0.00000000000E+00 -0.00000000000E+00 -0.12231812871E+02  0.12231812871E+02  0.00000000000E+00 0. -1.
         35    2    1    2    0    0  0.00000000000E+00  0.00000000000E+00  0.15161785188E+04  0.15406421445E+04  0.27346099661E+03 0.  0.
         25    1    3    3    0    0  0.67813411870E+01  0.58430530193E+02  0.59527977119E+03  0.61009681153E+03  0.12000000000E+03 0.  0.
         25    1    3    3    0    0 -0.67813411870E+01 -0.58430530193E+02  0.92089874761E+03  0.93054533302E+03  0.12000000000E+03 0.  0.
<mgrwt>
<rscale>  0 0.27346100E+03</rscale>
<asrwt>0</asrwt>
<pdfrwt beam="1">  1        1 0.23513990E+00 0.27346100E+03</pdfrwt>
<pdfrwt beam="2">  1       -1 0.18818186E-02 0.27346100E+03</pdfrwt>
<totfact> 0.51367217E+03</totfact>
</mgrwt>
</event>
<event>
 5    1  0.1147887E+001  0.2768463E+03  0.7818608E-02  0.1097424E+00
         -2   -1    0    0    0  501 -0.00000000000E+00  0.00000000000E+00  0.56927526452E+02  0.56927526452E+02  0.00000000000E+00 0. -1.
          2   -1    0    0  501    0  0.00000000000E+00 -0.00000000000E+00 -0.33658541748E+03  0.33658541748E+03  0.00000000000E+00 0. -1.
         35    2    1    2    0    0  0.00000000000E+00  0.00000000000E+00 -0.27965789103E+03  0.39351294393E+03  0.27684634913E+03 0.  0.
         25    1    3    3    0    0 -0.35230271961E+02 -0.58968310094E+02 -0.14909995717E+03  0.20334510293E+03  0.12000000000E+03 0.  0.
         25    1    3    3    0    0  0.35230271961E+02  0.58968310094E+02 -0.13055793386E+03  0.19016784100E+03  0.12000000000E+03 0.  0.
<mgrwt>
<rscale>  0 0.27684635E+03</rscale>
<asrwt>0</asrwt>
<pdfrwt beam="1">  1        2 0.51782372E-01 0.27684635E+03</pdfrwt>
<pdfrwt beam="2">  1       -2 0.87580809E-02 0.27684635E+03</pdfrwt>
<totfact> 0.78512409E+03</totfact>
</mgrwt>
</event>
<event>
 5    1  0.1147887E+001  0.2748175E+03  0.7818608E-02  0.1098554E+00
          1   -1    0    0  501    0  0.00000000000E+00  0.00000000000E+00  0.12946482163E+04  0.12946482163E+04  0.00000000000E+00 0. -1.
         -1   -1    0    0    0  501 -0.00000000000E+00 -0.00000000000E+00 -0.14584010773E+02  0.14584010773E+02  0.00000000000E+00 0. -1.
         35    2    1    2    0    0  0.00000000000E+00  0.00000000000E+00  0.12800642055E+04  0.13092322271E+04  0.27481749242E+03 0.  0.
         25    1    3    3    0    0  0.46508707378E+02  0.39597818254E+02  0.77050991398E+03  0.78218704580E+03  0.12000000000E+03 0.  0.
         25    1    3    3    0    0 -0.46508707378E+02 -0.39597818254E+02  0.50955429156E+03  0.52704518129E+03  0.12000000000E+03 0.  0.
<mgrwt>
<rscale>  0 0.27481749E+03</rscale>
<asrwt>0</asrwt>
<pdfrwt beam="1">  1        1 0.19917656E+00 0.27481749E+03</pdfrwt>
<pdfrwt beam="2">  1       -1 0.22436950E-02 0.27481749E+03</pdfrwt>
<totfact> 0.56998423E+03</totfact>
</mgrwt>
</event>
<event>
 5    1  0.1147887E+001  0.2754844E+03  0.7818608E-02  0.1098181E+00
         -2   -1    0    0    0  501 -0.00000000000E+00  0.00000000000E+00  0.76726540282E+01  0.76726540282E+01  0.00000000000E+00 0. -1.
          2   -1    0    0  501    0  0.00000000000E+00 -0.00000000000E+00 -0.24727971123E+04  0.24727971123E+04  0.00000000000E+00 0. -1.
         35    2    1    2    0    0  0.00000000000E+00  0.00000000000E+00 -0.24651244583E+04  0.24804697664E+04  0.27548442224E+03 0.  0.
         25    1    3    3    0    0  0.29752620406E+02  0.49144925211E+02 -0.91137264130E+03  0.92103231941E+03  0.12000000000E+03 0.  0.
         25    1    3    3    0    0 -0.29752620406E+02 -0.49144925211E+02 -0.15537518170E+04  0.15594374469E+04  0.12000000000E+03 0.  0.
<mgrwt>
<rscale>  0 0.27548442E+03</rscale>
<asrwt>0</asrwt>
<pdfrwt beam="1">  1        2 0.38043102E+00 0.27548442E+03</pdfrwt>
<pdfrwt beam="2">  1       -2 0.11804061E-02 0.27548442E+03</pdfrwt>
<totfact> 0.69505889E+03</totfact>
</mgrwt>
</event>
<event>
 5    1  0.1147887E+001  0.2759709E+03  0.7818608E-02  0.1097910E+00
          2   -1    0    0  501    0  0.00000000000E+00  0.00000000000E+00  0.16116326073E+03  0.16116326073E+03  0.00000000000E+00 0.  1.
         -2   -1    0    0    0  501 -0.00000000000E+00 -0.00000000000E+00 -0.11814098880E+03  0.11814098880E+03  0.00000000000E+00 0.  1.
         35    2    1    2    0    0  0.00000000000E+00  0.00000000000E+00  0.43022271931E+02  0.27930424953E+03  0.27597091862E+03 0.  0.
         25    1    3    3    0    0 -0.43026508835E+02  0.52361755908E+02  0.14576142338E+02  0.13858390191E+03  0.12000000000E+03 0.  0.
         25    1    3    3    0    0  0.43026508835E+02 -0.52361755908E+02  0.28446129593E+02  0.14072034762E+03  0.12000000000E+03 0.  0.
<mgrwt>
<rscale>  0 0.27597092E+03</rscale>
<asrwt>0</asrwt>
<pdfrwt beam="1">  1        2 0.24794348E-01 0.27597092E+03</pdfrwt>
<pdfrwt beam="2">  1       -2 0.18175537E-01 0.27597092E+03</pdfrwt>
<totfact> 0.53407992E+03</totfact>
</mgrwt>
</event>
<event>
 5    1  0.1147887E+001  0.2737625E+03  0.7818608E-02  0.1099145E+00
          2   -1    0    0  501    0  0.00000000000E+00  0.00000000000E+00  0.40976981662E+03  0.40976981662E+03  0.00000000000E+00 0.  1.
         -2   -1    0    0    0  501 -0.00000000000E+00 -0.00000000000E+00 -0.45724389283E+02  0.45724389283E+02  0.00000000000E+00 0.  1.
         35    2    1    2    0    0  0.00000000000E+00  0.00000000000E+00  0.36404542734E+03  0.45549420591E+03  0.27376248546E+03 0.  0.
         25    1    3    3    0    0  0.15891321274E+02  0.13916299322E+01  0.75719687313E+02  0.14278635009E+03  0.12000000000E+03 0.  0.
         25    1    3    3    0    0 -0.15891321274E+02 -0.13916299322E+01  0.28832574003E+03  0.31270785581E+03  0.12000000000E+03 0.  0.
<mgrwt>
<rscale>  0 0.27376249E+03</rscale>
<asrwt>0</asrwt>
<pdfrwt beam="1">  1        2 0.63041508E-01 0.27376249E+03</pdfrwt>
<pdfrwt beam="2">  1       -2 0.70345217E-02 0.27376249E+03</pdfrwt>
<totfact> 0.89283553E+03</totfact>
</mgrwt>
</event>
<event>
 5    1  0.1147887E+001  0.2773192E+03  0.7818608E-02  0.1097162E+00
         -3   -1    0    0    0  501 -0.00000000000E+00  0.00000000000E+00  0.85727539465E+03  0.85727539465E+03  0.00000000000E+00 0.  1.
          3   -1    0    0  501    0  0.00000000000E+00 -0.00000000000E+00 -0.22427432808E+02  0.22427432808E+02  0.00000000000E+00 0.  1.
         35    2    1    2    0    0  0.00000000000E+00  0.00000000000E+00  0.83484796184E+03  0.87970282745E+03  0.27731921182E+03 0.  0.
         25    1    3    3    0    0  0.52551614614E+01  0.69232529025E+02  0.42501501969E+03  0.44705539563E+03  0.12000000000E+03 0.  0.
         25    1    3    3    0    0 -0.52551614614E+01 -0.69232529025E+02  0.40983294215E+03  0.43264743183E+03  0.12000000000E+03 0.  0.
<mgrwt>
<rscale>  0 0.27731921E+03</rscale>
<asrwt>0</asrwt>
<pdfrwt beam="1">  1        3 0.34503749E-02 0.27731921E+03</pdfrwt>
<pdfrwt beam="2">  1       -3 0.13188850E+00 0.27731921E+03</pdfrwt>
<totfact> 0.48908764E+02</totfact>
</mgrwt>
</event>
<event>
 5    1  0.1147887E+001  0.2760484E+03  0.7818608E-02  0.1097867E+00
          2   -1    0    0  501    0  0.00000000000E+00  0.00000000000E+00  0.19020883517E+04  0.19020883517E+04  0.00000000000E+00 0.  1.
         -2   -1    0    0    0  501 -0.00000000000E+00 -0.00000000000E+00 -0.10015665144E+02  0.10015665144E+02  0.00000000000E+00 0.  1.
         35    2    1    2    0    0  0.00000000000E+00  0.00000000000E+00  0.18920726865E+04  0.19121040168E+04  0.27604840159E+03 0.  0.
         25    1    3    3    0    0 -0.54045958335E+02 -0.41517318574E+02  0.92903182550E+03  0.93922563112E+03  0.12000000000E+03 0.  0.
         25    1    3    3    0    0  0.54045958335E+02  0.41517318574E+02  0.96304086103E+03  0.97287838570E+03  0.12000000000E+03 0.  0.
<mgrwt>
<rscale>  0 0.27604840E+03</rscale>
<asrwt>0</asrwt>
<pdfrwt beam="1">  1        2 0.29262869E+00 0.27604840E+03</pdfrwt>
<pdfrwt beam="2">  1       -2 0.15408731E-02 0.27604840E+03</pdfrwt>
<totfact> 0.94878857E+03</totfact>
</mgrwt>
</event>
<event>
 5    1  0.1147887E+001  0.2748898E+03  0.7818608E-02  0.1098513E+00
          1   -1    0    0  501    0  0.00000000000E+00  0.00000000000E+00  0.79779596818E+03  0.79779596818E+03  0.00000000000E+00 0.  1.
         -1   -1    0    0    0  501 -0.00000000000E+00 -0.00000000000E+00 -0.23679113131E+02  0.23679113131E+02  0.00000000000E+00 0.  1.
         35    2    1    2    0    0  0.00000000000E+00  0.00000000000E+00  0.77411685505E+03  0.82147508131E+03  0.27488980327E+03 0.  0.
         25    1    3    3    0    0 -0.59483774833E+01 -0.88037867384E+01  0.58479368509E+03  0.59707331541E+03  0.12000000000E+03 0.  0.
         25    1    3    3    0    0  0.59483774833E+01  0.88037867384E+01  0.18932316996E+03  0.22440176590E+03  0.12000000000E+03 0.  0.
<mgrwt>
<rscale>  0 0.27488980E+03</rscale>
<asrwt>0</asrwt>
<pdfrwt beam="1">  1        1 0.12273782E+00 0.27488980E+03</pdfrwt>
<pdfrwt beam="2">  1       -1 0.36429411E-02 0.27488980E+03</pdfrwt>
<totfact> 0.65295764E+03</totfact>
</mgrwt>
</event>
<event>
 5    1  0.1147887E+001  0.2750394E+03  0.7818608E-02  0.1098430E+00
         -1   -1    0    0    0  501 -0.00000000000E+00  0.00000000000E+00  0.14567512178E+03  0.14567512178E+03  0.00000000000E+00 0. -1.
          1   -1    0    0  501    0  0.00000000000E+00 -0.00000000000E+00 -0.12982084874E+03  0.12982084874E+03  0.00000000000E+00 0. -1.
         35    2    1    2    0    0  0.00000000000E+00  0.00000000000E+00  0.15854273032E+02  0.27549597052E+03  0.27503940045E+03 0.  0.
         25    1    3    3    0    0  0.34763345842E+02  0.17195738101E+02  0.62858708172E+02  0.14090919351E+03  0.12000000000E+03 0.  0.
         25    1    3    3    0    0 -0.34763345842E+02 -0.17195738101E+02 -0.47004435139E+02  0.13458677701E+03  0.12000000000E+03 0.  0.
<mgrwt>
<rscale>  0 0.27503940E+03</rscale>
<asrwt>0</asrwt>
<pdfrwt beam="1">  1        1 0.19972438E-01 0.27503940E+03</pdfrwt>
<pdfrwt beam="2">  1       -1 0.22411557E-01 0.27503940E+03</pdfrwt>
<totfact> 0.42486141E+03</totfact>
</mgrwt>
</event>
<event>
 5    1  0.1147887E+001  0.2754967E+03  0.7818608E-02  0.1098174E+00
          1   -1    0    0  501    0  0.00000000000E+00  0.00000000000E+00  0.55911469007E+03  0.55911469007E+03  0.00000000000E+00 0.  1.
         -1   -1    0    0    0  501 -0.00000000000E+00 -0.00000000000E+00 -0.33936889619E+02  0.33936889619E+02  0.00000000000E+00 0.  1.
         35    2    1    2    0    0  0.00000000000E+00  0.00000000000E+00  0.52517780045E+03  0.59305157969E+03  0.27549674061E+03 0.  0.
         25    1    3    3    0    0 -0.15949824368E+02  0.65480331919E+02  0.27486903587E+03  0.30740048413E+03  0.12000000000E+03 0.  0.
         25    1    3    3    0    0  0.15949824368E+02 -0.65480331919E+02  0.25030876458E+03  0.28565109555E+03  0.12000000000E+03 0.  0.
<mgrwt>
<rscale>  0 0.27549674E+03</rscale>
<asrwt>0</asrwt>
<pdfrwt beam="1">  1        1 0.86017638E-01 0.27549674E+03</pdfrwt>
<pdfrwt beam="2">  1       -1 0.52210603E-02 0.27549674E+03</pdfrwt>
<totfact> 0.63709474E+03</totfact>
</mgrwt>
</event>
<event>
 5    1  0.1147887E+001  0.2775340E+03  0.7818608E-02  0.1097043E+00
          2   -1    0    0  501    0  0.00000000000E+00  0.00000000000E+00  0.82496990024E+03  0.82496990024E+03  0.00000000000E+00 0. -1.
         -2   -1    0    0    0  501 -0.00000000000E+00 -0.00000000000E+00 -0.23341798909E+02  0.23341798909E+02  0.00000000000E+00 0. -1.
         35    2    1    2    0    0  0.00000000000E+00  0.00000000000E+00  0.80162810133E+03  0.84831169915E+03  0.27753400885E+03 0.  0.
         25    1    3    3    0    0 -0.43337505505E+02 -0.95802255718E+01  0.23659837845E+03  0.26897716035E+03  0.12000000000E+03 0.  0.
         25    1    3    3    0    0  0.43337505505E+02  0.95802255718E+01  0.56502972289E+03  0.57933453880E+03  0.12000000000E+03 0.  0.
<mgrwt>
<rscale>  0 0.27753401E+03</rscale>
<asrwt>0</asrwt>
<pdfrwt beam="1">  1        2 0.12691842E+00 0.27753401E+03</pdfrwt>
<pdfrwt beam="2">  1       -2 0.35910466E-02 0.27753401E+03</pdfrwt>
<totfact> 0.10994563E+04</totfact>
</mgrwt>
</event>
<event>
 5    1  0.1147887E+001  0.2733868E+03  0.7818608E-02  0.1099357E+00
         -2   -1    0    0    0  501 -0.00000000000E+00  0.00000000000E+00  0.10418422116E+04  0.10418422116E+04  0.00000000000E+00 0.  1.
          2   -1    0    0  501    0  0.00000000000E+00 -0.00000000000E+00 -0.17934660861E+02  0.17934660861E+02  0.00000000000E+00 0.  1.
         35    2    1    2    0    0  0.00000000000E+00  0.00000000000E+00  0.10239075507E+04  0.10597768725E+04  0.27338680828E+03 0.  0.
         25    1    3    3    0    0  0.32158130852E+01  0.65244727130E+02  0.49556639040E+03  0.51405570045E+03  0.12000000000E+03 0.  0.
         25    1    3    3    0    0 -0.32158130852E+01 -0.65244727130E+02  0.52834116034E+03  0.54572117201E+03  0.12000000000E+03 0.  0.
<mgrwt>
<rscale>  0 0.27338681E+03</rscale>
<asrwt>0</asrwt>
<pdfrwt beam="1">  1        2 0.27591794E-02 0.27338681E+03</pdfrwt>
<pdfrwt beam="2">  1       -2 0.16028337E+00 0.27338681E+03</pdfrwt>
<totfact> 0.93638590E+02</totfact>
</mgrwt>
</event>
<event>
 5    1  0.1147887E+001  0.2746675E+03  0.7818608E-02  0.1098638E+00
          2   -1    0    0  501    0  0.00000000000E+00  0.00000000000E+00  0.23853063232E+04  0.23853063232E+04  0.00000000000E+00 0. -1.
         -2   -1    0    0    0  501 -0.00000000000E+00 -0.00000000000E+00 -0.79069777831E+01  0.79069777831E+01  0.00000000000E+00 0. -1.
         35    2    1    2    0    0  0.00000000000E+00  0.00000000000E+00  0.23773993454E+04  0.23932133010E+04  0.27466753797E+03 0.  0.
         25    1    3    3    0    0  0.63595838718E+02  0.10501763252E+02  0.10363204554E+04  0.10452343298E+04  0.12000000000E+03 0.  0.
         25    1    3    3    0    0 -0.63595838718E+02 -0.10501763252E+02  0.13410788900E+04  0.13479789713E+04  0.12000000000E+03 0.  0.
<mgrwt>
<rscale>  0 0.27466754E+03</rscale>
<asrwt>0</asrwt>
<pdfrwt beam="1">  1        2 0.36696963E+00 0.27466754E+03</pdfrwt>
<pdfrwt beam="2">  1       -2 0.12164600E-02 0.27466754E+03</pdfrwt>
<totfact> 0.74224652E+03</totfact>
</mgrwt>
</event>
<event>
 5    1  0.1147887E+001  0.2753830E+03  0.7818608E-02  0.1098238E+00
         -2   -1    0    0    0  501 -0.00000000000E+00  0.00000000000E+00  0.33067226380E+02  0.33067226380E+02  0.00000000000E+00 0. -1.
          2   -1    0    0  501    0  0.00000000000E+00 -0.00000000000E+00 -0.57334543711E+03  0.57334543711E+03  0.00000000000E+00 0. -1.
         35    2    1    2    0    0  0.00000000000E+00  0.00000000000E+00 -0.54027821073E+03  0.60641266349E+03  0.27538295781E+03 0.  0.
         25    1    3    3    0    0 -0.39857131398E+01  0.19137473803E+02 -0.12782308260E+03  0.17641108032E+03  0.12000000000E+03 0.  0.
         25    1    3    3    0    0  0.39857131398E+01 -0.19137473803E+02 -0.41245512813E+03  0.43000158317E+03  0.12000000000E+03 0.  0.
<mgrwt>
<rscale>  0 0.27538296E+03</rscale>
<asrwt>0</asrwt>
<pdfrwt beam="1">  1        2 0.88206981E-01 0.27538296E+03</pdfrwt>
<pdfrwt beam="2">  1       -2 0.50872661E-02 0.27538296E+03</pdfrwt>
<totfact> 0.10096370E+04</totfact>
</mgrwt>
</event>
<event>
 5    1  0.1147887E+001  0.2749891E+03  0.7818608E-02  0.1098458E+00
          1   -1    0    0  501    0  0.00000000000E+00  0.00000000000E+00  0.22538439445E+03  0.22538439445E+03  0.00000000000E+00 0.  1.
         -1   -1    0    0    0  501 -0.00000000000E+00 -0.00000000000E+00 -0.83877832356E+02  0.83877832356E+02  0.00000000000E+00 0.  1.
         35    2    1    2    0    0  0.00000000000E+00  0.00000000000E+00  0.14150656209E+03  0.30926222680E+03  0.27498912308E+03 0.  0.
         25    1    3    3    0    0 -0.45427177743E+02  0.33027162760E+02  0.11208007568E+03  0.17354067339E+03  0.12000000000E+03 0.  0.
         25    1    3    3    0    0  0.45427177743E+02 -0.33027162760E+02  0.29426486414E+02  0.13572155341E+03  0.12000000000E+03 0.  0.
<mgrwt>
<rscale>  0 0.27498912E+03</rscale>
<asrwt>0</asrwt>
<pdfrwt beam="1">  1        1 0.34674522E-01 0.27498912E+03</pdfrwt>
<pdfrwt beam="2">  1       -1 0.12904282E-01 0.27498912E+03</pdfrwt>
<totfact> 0.51099116E+03</totfact>
</mgrwt>
</event>
<event>
 5    1  0.1147887E+001  0.2750784E+03  0.7818608E-02  0.1098408E+00
          4   -1    0    0  501    0  0.00000000000E+00  0.00000000000E+00  0.24686997395E+03  0.24686997395E+03  0.00000000000E+00 0.  1.
         -4   -1    0    0    0  501 -0.00000000000E+00 -0.00000000000E+00 -0.76627500421E+02  0.76627500421E+02  0.00000000000E+00 0.  1.
         35    2    1    2    0    0  0.00000000000E+00  0.00000000000E+00  0.17024247353E+03  0.32349747437E+03  0.27507838179E+03 0.  0.
         25    1    3    3    0    0  0.34770495627E+02  0.54486142774E+02  0.10678368745E+03  0.17314873094E+03  0.12000000000E+03 0.  0.
         25    1    3    3    0    0 -0.34770495627E+02 -0.54486142774E+02  0.63458786081E+02  0.15034874343E+03  0.12000000000E+03 0.  0.
<mgrwt>
<rscale>  0 0.27507838E+03</rscale>
<asrwt>0</asrwt>
<pdfrwt beam="1">  1        4 0.37979996E-01 0.27507838E+03</pdfrwt>
<pdfrwt beam="2">  1       -4 0.11788846E-01 0.27507838E+03</pdfrwt>
<totfact> 0.72381565E+02</totfact>
</mgrwt>
</event>
<event>
 5    1  0.1147887E+001  0.2745068E+03  0.7818608E-02  0.1098728E+00
          3   -1    0    0  501    0  0.00000000000E+00  0.00000000000E+00  0.63020326707E+02  0.63020326707E+02  0.00000000000E+00 0. -1.
         -3   -1    0    0    0  501 -0.00000000000E+00 -0.00000000000E+00 -0.29892737397E+03  0.29892737397E+03  0.00000000000E+00 0. -1.
         35    2    1    2    0    0  0.00000000000E+00  0.00000000000E+00 -0.23590704726E+03  0.36194770067E+03  0.27450683612E+03 0.  0.
         25    1    3    3    0    0 -0.51793141622E+02  0.69929251827E+01 -0.63475874993E+02  0.14546689392E+03  0.12000000000E+03 0.  0.
         25    1    3    3    0    0  0.51793141622E+02 -0.69929251827E+01 -0.17243117227E+03  0.21648080675E+03  0.12000000000E+03 0.  0.
<mgrwt>
<rscale>  0 0.27450684E+03</rscale>
<asrwt>0</asrwt>
<pdfrwt beam="1">  1        3 0.96954351E-02 0.27450684E+03</pdfrwt>
<pdfrwt beam="2">  1       -3 0.45988826E-01 0.27450684E+03</pdfrwt>
<totfact> 0.93233115E+02</totfact>
</mgrwt>
</event>
<event>
 5    1  0.1147887E+001  0.2741967E+03  0.7818608E-02  0.1098901E+00
         -2   -1    0    0    0  501 -0.00000000000E+00  0.00000000000E+00  0.35543699491E+02  0.35543699491E+02  0.00000000000E+00 0.  1.
          2   -1    0    0  501    0  0.00000000000E+00 -0.00000000000E+00 -0.52881261673E+03  0.52881261673E+03  0.00000000000E+00 0.  1.
         35    2    1    2    0    0  0.00000000000E+00  0.00000000000E+00 -0.49326891724E+03  0.56435631622E+03  0.27419669390E+03 0.  0.
         25    1    3    3    0    0 -0.96492463406E+01 -0.52464585272E+02 -0.32767480729E+03  0.35301050975E+03  0.12000000000E+03 0.  0.
         25    1    3    3    0    0  0.96492463406E+01  0.52464585272E+02 -0.16559410995E+03  0.21134580647E+03  0.12000000000E+03 0.  0.
<mgrwt>
<rscale>  0 0.27419669E+03</rscale>
<asrwt>0</asrwt>
<pdfrwt beam="1">  1        2 0.81355793E-01 0.27419669E+03</pdfrwt>
<pdfrwt beam="2">  1       -2 0.54682610E-02 0.27419669E+03</pdfrwt>
<totfact> 0.99152451E+03</totfact>
</mgrwt>
</event>
<event>
 5    1  0.1147887E+001  0.2758763E+03  0.7818608E-02  0.1097963E+00
          4   -1    0    0  501    0  0.00000000000E+00  0.00000000000E+00  0.30919471968E+02  0.30919471968E+02  0.00000000000E+00 0. -1.
         -4   -1    0    0    0  501 -0.00000000000E+00 -0.00000000000E+00 -0.61537062782E+03  0.61537062782E+03  0.00000000000E+00 0. -1.
         35    2    1    2    0    0  0.00000000000E+00  0.00000000000E+00 -0.58445115586E+03  0.64629009979E+03  0.27587631197E+03 0.  0.
         25    1    3    3    0    0  0.58588255177E+02  0.15751272552E+02 -0.22016201558E+03  0.25797674185E+03  0.12000000000E+03 0.  0.
         25    1    3    3    0    0 -0.58588255177E+02 -0.15751272552E+02 -0.36428914028E+03  0.38831335794E+03  0.12000000000E+03 0.  0.
<mgrwt>
<rscale>  0 0.27587631E+03</rscale>
<asrwt>0</asrwt>
<pdfrwt beam="1">  1        4 0.47568421E-02 0.27587631E+03</pdfrwt>
<pdfrwt beam="2">  1       -4 0.94672399E-01 0.27587631E+03</pdfrwt>
<totfact> 0.47022452E+02</totfact>
</mgrwt>
</event>
<event>
 5    1  0.1147887E+001  0.2752997E+03  0.7818608E-02  0.1098284E+00
         -2   -1    0    0    0  501 -0.00000000000E+00  0.00000000000E+00  0.51227984456E+02  0.51227984456E+02  0.00000000000E+00 0. -1.
          2   -1    0    0  501    0  0.00000000000E+00 -0.00000000000E+00 -0.36986576079E+03  0.36986576079E+03  0.00000000000E+00 0. -1.
         35    2    1    2    0    0  0.00000000000E+00  0.00000000000E+00 -0.31863777634E+03  0.42109374525E+03  0.27529967268E+03 0.  0.
         25    1    3    3    0    0 -0.43376758166E+01 -0.27111421211E+02 -0.25352969961E+03  0.28183532990E+03  0.12000000000E+03 0.  0.
         25    1    3    3    0    0  0.43376758166E+01  0.27111421211E+02 -0.65108076722E+02  0.13925841535E+03  0.12000000000E+03 0.  0.
<mgrwt>
<rscale>  0 0.27529967E+03</rscale>
<asrwt>0</asrwt>
<pdfrwt beam="1">  1        2 0.56902423E-01 0.27529967E+03</pdfrwt>
<pdfrwt beam="2">  1       -2 0.78812286E-02 0.27529967E+03</pdfrwt>
<totfact> 0.83635864E+03</totfact>
</mgrwt>
</event>
<event>
 5    1  0.1147887E+001  0.2741500E+03  0.7818608E-02  0.1098928E+00
          1   -1    0    0  501    0  0.00000000000E+00  0.00000000000E+00  0.52466506938E+03  0.52466506938E+03  0.00000000000E+00 0. -1.
         -1   -1    0    0    0  501 -0.00000000000E+00 -0.00000000000E+00 -0.35812478408E+02  0.35812478408E+02  0.00000000000E+00 0. -1.
         35    2    1    2    0    0  0.00000000000E+00  0.00000000000E+00  0.48885259097E+03  0.56047754778E+03  0.27415000615E+03 0.  0.
         25    1    3    3    0    0 -0.41910065348E+02  0.45621195769E+02  0.29245097797E+03  0.32212625102E+03  0.12000000000E+03 0.  0.
         25    1    3    3    0    0  0.41910065348E+02 -0.45621195769E+02  0.19640161300E+03  0.23835129677E+03  0.12000000000E+03 0.  0.
<mgrwt>
<rscale>  0 0.27415001E+03</rscale>
<asrwt>0</asrwt>
<pdfrwt beam="1">  1        1 0.80717697E-01 0.27415001E+03</pdfrwt>
<pdfrwt beam="2">  1       -1 0.55096124E-02 0.27415001E+03</pdfrwt>
<totfact> 0.64033280E+03</totfact>
</mgrwt>
</event>
<event>
 5    1  0.1147887E+001  0.2751314E+03  0.7818608E-02  0.1098378E+00
         -1   -1    0    0    0  501 -0.00000000000E+00  0.00000000000E+00  0.46392931626E+02  0.46392931626E+02  0.00000000000E+00 0.  1.
          1   -1    0    0  501    0  0.00000000000E+00 -0.00000000000E+00 -0.40791391325E+03  0.40791391325E+03  0.00000000000E+00 0.  1.
         35    2    1    2    0    0  0.00000000000E+00  0.00000000000E+00 -0.36152098163E+03  0.45430684488E+03  0.27513140342E+03 0.  0.
         25    1    3    3    0    0  0.33002295338E+02  0.47234358496E+02 -0.23805828462E+03  0.27274893766E+03  0.12000000000E+03 0.  0.
         25    1    3    3    0    0 -0.33002295338E+02 -0.47234358496E+02 -0.12346269701E+03  0.18155790721E+03  0.12000000000E+03 0.  0.
<mgrwt>
<rscale>  0 0.27513140E+03</rscale>
<asrwt>0</asrwt>
<pdfrwt beam="1">  1        1 0.62755989E-01 0.27513140E+03</pdfrwt>
<pdfrwt beam="2">  1       -1 0.71373739E-02 0.27513140E+03</pdfrwt>
<totfact> 0.60240604E+03</totfact>
</mgrwt>
</event>
<event>
 5    1  0.1147887E+001  0.2754523E+03  0.7818608E-02  0.1098199E+00
         -1   -1    0    0    0  501 -0.00000000000E+00  0.00000000000E+00  0.15417091107E+04  0.15417091107E+04  0.00000000000E+00 0.  1.
          1   -1    0    0  501    0  0.00000000000E+00 -0.00000000000E+00 -0.12303550166E+02  0.12303550166E+02  0.00000000000E+00 0.  1.
         35    2    1    2    0    0  0.00000000000E+00  0.00000000000E+00  0.15294055606E+04  0.15540126609E+04  0.27545232172E+03 0.  0.
         25    1    3    3    0    0 -0.26270331900E+02 -0.55360321146E+02  0.92562408909E+03  0.93537952179E+03  0.12000000000E+03 0.  0.
         25    1    3    3    0    0  0.26270331900E+02  0.55360321146E+02  0.60378147148E+03  0.61863313911E+03  0.12000000000E+03 0.  0.
<mgrwt>
<rscale>  0 0.27545232E+03</rscale>
<asrwt>0</asrwt>
<pdfrwt beam="1">  1        1 0.18928551E-02 0.27545232E+03</pdfrwt>
<pdfrwt beam="2">  1       -1 0.23718586E+00 0.27545232E+03</pdfrwt>
<totfact> 0.62557389E+02</totfact>
</mgrwt>
</event>
<event>
 5    1  0.1147887E+001  0.2739688E+03  0.7818608E-02  0.1099029E+00
         -1   -1    0    0    0  501 -0.00000000000E+00  0.00000000000E+00  0.78387284840E+03  0.78387284840E+03  0.00000000000E+00 0. -1.
          1   -1    0    0  501    0  0.00000000000E+00 -0.00000000000E+00 -0.23938475167E+02  0.23938475167E+02  0.00000000000E+00 0. -1.
         35    2    1    2    0    0  0.00000000000E+00  0.00000000000E+00  0.75993437323E+03  0.80781132356E+03  0.27396876257E+03 0.  0.
         25    1    3    3    0    0 -0.18823378827E+02 -0.63137214488E+02  0.39444012720E+03  0.41752082749E+03  0.12000000000E+03 0.  0.
         25    1    3    3    0    0  0.18823378827E+02  0.63137214488E+02  0.36549424603E+03  0.39029049608E+03  0.12000000000E+03 0.  0.
<mgrwt>
<rscale>  0 0.27396876E+03</rscale>
<asrwt>0</asrwt>
<pdfrwt beam="1">  1        1 0.36828429E-02 0.27396876E+03</pdfrwt>
<pdfrwt beam="2">  1       -1 0.12059580E+00 0.27396876E+03</pdfrwt>
<totfact> 0.16675611E+03</totfact>
</mgrwt>
</event>
<event>
 5    1  0.1147887E+001  0.2739507E+03  0.7818608E-02  0.1099040E+00
          1   -1    0    0  501    0  0.00000000000E+00  0.00000000000E+00  0.20371139885E+04  0.20371139885E+04  0.00000000000E+00 0.  1.
         -1   -1    0    0    0  501 -0.00000000000E+00 -0.00000000000E+00 -0.92102090510E+01  0.92102090510E+01  0.00000000000E+00 0.  1.
         35    2    1    2    0    0  0.00000000000E+00  0.00000000000E+00  0.20279037794E+04  0.20463241975E+04  0.27395069406E+03 0.  0.
         25    1    3    3    0    0  0.16736531092E+01  0.45064585403E+02  0.13744077299E+04  0.13803732198E+04  0.12000000000E+03 0.  0.
         25    1    3    3    0    0 -0.16736531092E+01 -0.45064585403E+02  0.65349604957E+03  0.66595097776E+03  0.12000000000E+03 0.  0.
<mgrwt>
<rscale>  0 0.27395069E+03</rscale>
<asrwt>0</asrwt>
<pdfrwt beam="1">  1        1 0.31340179E+00 0.27395069E+03</pdfrwt>
<pdfrwt beam="2">  1       -1 0.14169569E-02 0.27395069E+03</pdfrwt>
<totfact> 0.36191708E+03</totfact>
</mgrwt>
</event>
<event>
 5    1  0.1147887E+001  0.2744739E+03  0.7818608E-02  0.1098746E+00
          3   -1    0    0  501    0  0.00000000000E+00  0.00000000000E+00  0.10507809381E+02  0.10507809381E+02  0.00000000000E+00 0. -1.
         -3   -1    0    0    0  501 -0.00000000000E+00 -0.00000000000E+00 -0.17923788877E+04  0.17923788877E+04  0.00000000000E+00 0. -1.
         35    2    1    2    0    0  0.00000000000E+00  0.00000000000E+00 -0.17818710784E+04  0.18028866971E+04  0.27447386535E+03 0.  0.
         25    1    3    3    0    0 -0.65491378897E+02 -0.96252873659E+01 -0.84347426527E+03  0.85453531410E+03  0.12000000000E+03 0.  0.
         25    1    3    3    0    0  0.65491378897E+02  0.96252873659E+01 -0.93839681310E+03  0.94835138303E+03  0.12000000000E+03 0.  0.
<mgrwt>
<rscale>  0 0.27447387E+03</rscale>
<asrwt>0</asrwt>
<pdfrwt beam="1">  1        3 0.16165829E-02 0.27447387E+03</pdfrwt>
<pdfrwt beam="2">  1       -3 0.27575113E+00 0.27447387E+03</pdfrwt>
<totfact> 0.19774023E+02</totfact>
</mgrwt>
</event>
<event>
 5    1  0.1147887E+001  0.2747834E+03  0.7818608E-02  0.1098573E+00
         -1   -1    0    0    0  501 -0.00000000000E+00  0.00000000000E+00  0.74971745926E+02  0.74971745926E+02  0.00000000000E+00 0. -1.
          1   -1    0    0  501    0  0.00000000000E+00 -0.00000000000E+00 -0.25178116007E+03  0.25178116007E+03  0.00000000000E+00 0. -1.
         35    2    1    2    0    0  0.00000000000E+00  0.00000000000E+00 -0.17680941415E+03  0.32675290600E+03  0.27478335584E+03 0.  0.
         25    1    3    3    0    0  0.19127747227E+02  0.11774817381E+00 -0.16464438297E+03  0.20463053883E+03  0.12000000000E+03 0.  0.
         25    1    3    3    0    0 -0.19127747227E+02 -0.11774817381E+00 -0.12165031173E+02  0.12212236717E+03  0.12000000000E+03 0.  0.
<mgrwt>
<rscale>  0 0.27478336E+03</rscale>
<asrwt>0</asrwt>
<pdfrwt beam="1">  1        1 0.38735563E-01 0.27478336E+03</pdfrwt>
<pdfrwt beam="2">  1       -1 0.11534115E-01 0.27478336E+03</pdfrwt>
<totfact> 0.52993577E+03</totfact>
</mgrwt>
</event>
<event>
 5    1  0.1147887E+001  0.2754876E+03  0.7818608E-02  0.1098179E+00
         -2   -1    0    0    0  501 -0.00000000000E+00  0.00000000000E+00  0.28318831185E+02  0.28318831185E+02  0.00000000000E+00 0. -1.
          2   -1    0    0  501    0  0.00000000000E+00 -0.00000000000E+00 -0.66999071436E+03  0.66999071436E+03  0.00000000000E+00 0. -1.
         35    2    1    2    0    0  0.00000000000E+00  0.00000000000E+00 -0.64167188318E+03  0.69830954555E+03  0.27548759635E+03 0.  0.
         25    1    3    3    0    0  0.44890195537E+02  0.27712614932E+02 -0.42808685053E+03  0.44770690220E+03  0.12000000000E+03 0.  0.
         25    1    3    3    0    0 -0.44890195537E+02 -0.27712614932E+02 -0.21358503265E+03  0.25060264335E+03  0.12000000000E+03 0.  0.
<mgrwt>
<rscale>  0 0.27548760E+03</rscale>
<asrwt>0</asrwt>
<pdfrwt beam="1">  1        2 0.10307550E+00 0.27548760E+03</pdfrwt>
<pdfrwt beam="2">  1       -2 0.43567432E-02 0.27548760E+03</pdfrwt>
<totfact> 0.10639190E+04</totfact>
</mgrwt>
</event>
<event>
 5    1  0.1147887E+001  0.2739079E+03  0.7818608E-02  0.1099064E+00
         -2   -1    0    0    0  501 -0.00000000000E+00  0.00000000000E+00  0.12272293126E+02  0.12272293126E+02  0.00000000000E+00 0. -1.
          2   -1    0    0  501    0  0.00000000000E+00 -0.00000000000E+00 -0.15283521597E+04  0.15283521597E+04  0.00000000000E+00 0. -1.
         35    2    1    2    0    0  0.00000000000E+00  0.00000000000E+00 -0.15160798666E+04  0.15406244529E+04  0.27390790937E+03 0.  0.
         25    1    3    3    0    0 -0.40612924374E+02 -0.51167750724E+02 -0.81105386851E+03  0.82248156573E+03  0.12000000000E+03 0.  0.
         25    1    3    3    0    0  0.40612924374E+02  0.51167750724E+02 -0.70502599810E+03  0.71814288713E+03  0.12000000000E+03 0.  0.
<mgrwt>
<rscale>  0 0.27390791E+03</rscale>
<asrwt>0</asrwt>
<pdfrwt beam="1">  1        2 0.23513131E+00 0.27390791E+03</pdfrwt>
<pdfrwt beam="2">  1       -2 0.18880434E-02 0.27390791E+03</pdfrwt>
<totfact> 0.11086131E+04</totfact>
</mgrwt>
</event>
<event>
 5    1  0.1147887E+001  0.2748273E+03  0.7818608E-02  0.1098548E+00
         -3   -1    0    0    0  501 -0.00000000000E+00  0.00000000000E+00  0.11825196465E+03  0.11825196465E+03  0.00000000000E+00 0. -1.
          3   -1    0    0  501    0  0.00000000000E+00 -0.00000000000E+00 -0.15968034656E+03  0.15968034656E+03  0.00000000000E+00 0. -1.
         35    2    1    2    0    0  0.00000000000E+00  0.00000000000E+00 -0.41428381915E+02  0.27793231121E+03  0.27482732540E+03 0.  0.
         25    1    3    3    0    0  0.37672426093E+02  0.11594418651E+02 -0.75444683698E+02  0.14712424182E+03  0.12000000000E+03 0.  0.
         25    1    3    3    0    0 -0.37672426093E+02 -0.11594418651E+02  0.34016301783E+02  0.13080806939E+03  0.12000000000E+03 0.  0.
<mgrwt>
<rscale>  0 0.27482733E+03</rscale>
<asrwt>0</asrwt>
<pdfrwt beam="1">  1        3 0.24566207E-01 0.27482733E+03</pdfrwt>
<pdfrwt beam="2">  1       -3 0.18192610E-01 0.27482733E+03</pdfrwt>
<totfact> 0.10464796E+03</totfact>
</mgrwt>
</event>
<event>
 5    1  0.1147887E+001  0.2753296E+03  0.7818608E-02  0.1098268E+00
         -2   -1    0    0    0  501 -0.00000000000E+00  0.00000000000E+00  0.14491847715E+03  0.14491847715E+03  0.00000000000E+00 0. -1.
          2   -1    0    0  501    0  0.00000000000E+00 -0.00000000000E+00 -0.13077419269E+03  0.13077419269E+03  0.00000000000E+00 0. -1.
         35    2    1    2    0    0  0.00000000000E+00  0.00000000000E+00  0.14144284461E+02  0.27569266984E+03  0.27532959780E+03 0.  0.
         25    1    3    3    0    0 -0.26898575927E+02  0.21100987525E+02  0.65310783864E+02  0.14083424140E+03  0.12000000000E+03 0.  0.
         25    1    3    3    0    0  0.26898575927E+02 -0.21100987525E+02 -0.51166499402E+02  0.13485842844E+03  0.12000000000E+03 0.  0.
<mgrwt>
<rscale>  0 0.27532960E+03</rscale>
<asrwt>0</asrwt>
<pdfrwt beam="1">  1        2 0.20119106E-01 0.27532960E+03</pdfrwt>
<pdfrwt beam="2">  1       -2 0.22295150E-01 0.27532960E+03</pdfrwt>
<totfact> 0.47675443E+03</totfact>
</mgrwt>
</event>
<event>
 5    1  0.1147887E+001  0.2745274E+03  0.7818608E-02  0.1098716E+00
          1   -1    0    0  501    0  0.00000000000E+00  0.00000000000E+00  0.90534337058E+03  0.90534337058E+03  0.00000000000E+00 0.  1.
         -1   -1    0    0    0  501 -0.00000000000E+00 -0.00000000000E+00 -0.20811248933E+02  0.20811248933E+02  0.00000000000E+00 0.  1.
         35    2    1    2    0    0  0.00000000000E+00  0.00000000000E+00  0.88453212165E+03  0.92615461951E+03  0.27452742126E+03 0.  0.
         25    1    3    3    0    0 -0.51987600058E+02  0.29303795513E+02  0.54233867180E+03  0.55865253774E+03  0.12000000000E+03 0.  0.
         25    1    3    3    0    0  0.51987600058E+02 -0.29303795513E+02  0.34219344985E+03  0.36750208178E+03  0.12000000000E+03 0.  0.
<mgrwt>
<rscale>  0 0.27452742E+03</rscale>
<asrwt>0</asrwt>
<pdfrwt beam="1">  1        1 0.13928357E+00 0.27452742E+03</pdfrwt>
<pdfrwt beam="2">  1       -1 0.32017313E-02 0.27452742E+03</pdfrwt>
<totfact> 0.64699283E+03</totfact>
</mgrwt>
</event>
<event>
 5    1  0.1147887E+001  0.2748534E+03  0.7818608E-02  0.1098534E+00
         -3   -1    0    0    0  501 -0.00000000000E+00  0.00000000000E+00  0.11977936341E+03  0.11977936341E+03  0.00000000000E+00 0.  1.
          3   -1    0    0  501    0  0.00000000000E+00 -0.00000000000E+00 -0.15767409357E+03  0.15767409357E+03  0.00000000000E+00 0.  1.
         35    2    1    2    0    0  0.00000000000E+00  0.00000000000E+00 -0.37894730163E+02  0.27745345697E+03  0.27485343406E+03 0.  0.
         25    1    3    3    0    0 -0.74873849024E+00 -0.69492866505E+01  0.48295450604E+02  0.12954267152E+03  0.12000000000E+03 0.  0.
         25    1    3    3    0    0  0.74873849024E+00  0.69492866505E+01 -0.86190180767E+02  0.14791078546E+03  0.12000000000E+03 0.  0.
<mgrwt>
<rscale>  0 0.27485343E+03</rscale>
<asrwt>0</asrwt>
<pdfrwt beam="1">  1        3 0.24257553E-01 0.27485343E+03</pdfrwt>
<pdfrwt beam="2">  1       -3 0.18427594E-01 0.27485343E+03</pdfrwt>
<totfact> 0.10469055E+03</totfact>
</mgrwt>
</event>
<event>
 5    1  0.1147887E+001  0.2728360E+03  0.7818608E-02  0.1099667E+00
          2   -1    0    0  501    0  0.00000000000E+00  0.00000000000E+00  0.19606039970E+03  0.19606039970E+03  0.00000000000E+00 0. -1.
         -2   -1    0    0    0  501 -0.00000000000E+00 -0.00000000000E+00 -0.94919098022E+02  0.94919098022E+02  0.00000000000E+00 0. -1.
         35    2    1    2    0    0  0.00000000000E+00  0.00000000000E+00  0.10114130168E+03  0.29097949772E+03  0.27283604085E+03 0.  0.
         25    1    3    3    0    0 -0.39739057758E+02 -0.18809320113E+02 -0.31929257882E+00  0.12780095924E+03  0.12000000000E+03 0.  0.
         25    1    3    3    0    0  0.39739057758E+02  0.18809320113E+02  0.10146059426E+03  0.16317853848E+03  0.12000000000E+03 0.  0.
<mgrwt>
<rscale>  0 0.27283604E+03</rscale>
<asrwt>0</asrwt>
<pdfrwt beam="1">  1        2 0.30163138E-01 0.27283604E+03</pdfrwt>
<pdfrwt beam="2">  1       -2 0.14602938E-01 0.27283604E+03</pdfrwt>
<totfact> 0.61897487E+03</totfact>
</mgrwt>
</event>
<event>
 5    1  0.1147887E+001  0.2749851E+03  0.7818608E-02  0.1098460E+00
         -2   -1    0    0    0  501 -0.00000000000E+00  0.00000000000E+00  0.15743256050E+02  0.15743256050E+02  0.00000000000E+00 0.  1.
          2   -1    0    0  501    0  0.00000000000E+00 -0.00000000000E+00 -0.12007812461E+04  0.12007812461E+04  0.00000000000E+00 0.  1.
         35    2    1    2    0    0  0.00000000000E+00  0.00000000000E+00 -0.11850379901E+04  0.12165245022E+04  0.27498513863E+03 0.  0.
         25    1    3    3    0    0  0.62423566034E+02 -0.10968298308E+02 -0.49487041670E+03  0.51314104737E+03  0.12000000000E+03 0.  0.
         25    1    3    3    0    0 -0.62423566034E+02  0.10968298308E+02 -0.69016757337E+03  0.70338345480E+03  0.12000000000E+03 0.  0.
<mgrwt>
<rscale>  0 0.27498514E+03</rscale>
<asrwt>0</asrwt>
<pdfrwt beam="1">  1        2 0.18473558E+00 0.27498514E+03</pdfrwt>
<pdfrwt beam="2">  1       -2 0.24220393E-02 0.27498514E+03</pdfrwt>
<totfact> 0.11611383E+04</totfact>
</mgrwt>
</event>
<event>
 5    1  0.1147887E+001  0.2814630E+03  0.7818608E-02  0.1094893E+00
          1   -1    0    0  501    0  0.00000000000E+00  0.00000000000E+00  0.17463839694E+03  0.17463839694E+03  0.00000000000E+00 0. -1.
         -1   -1    0    0    0  501 -0.00000000000E+00 -0.00000000000E+00 -0.11340779358E+03  0.11340779358E+03  0.00000000000E+00 0. -1.
         35    2    1    2    0    0  0.00000000000E+00  0.00000000000E+00  0.61230603357E+02  0.28804619052E+03  0.28146300128E+03 0.  0.
         25    1    3    3    0    0 -0.91551943215E+01 -0.71726036314E+02  0.44227278181E+02  0.14691662263E+03  0.12000000000E+03 0.  0.
         25    1    3    3    0    0  0.91551943215E+01  0.71726036314E+02  0.17003325176E+02  0.14112956790E+03  0.12000000000E+03 0.  0.
<mgrwt>
<rscale>  0 0.28146300E+03</rscale>
<asrwt>0</asrwt>
<pdfrwt beam="1">  1        1 0.26867446E-01 0.28146300E+03</pdfrwt>
<pdfrwt beam="2">  1       -1 0.17447353E-01 0.28146300E+03</pdfrwt>
<totfact> 0.43708270E+03</totfact>
</mgrwt>
</event>
<event>
 5    1  0.1147887E+001  0.2749615E+03  0.7818608E-02  0.1098473E+00
          1   -1    0    0  501    0  0.00000000000E+00  0.00000000000E+00  0.18882666457E+03  0.18882666457E+03  0.00000000000E+00 0.  1.
         -1   -1    0    0    0  501 -0.00000000000E+00 -0.00000000000E+00 -0.10009688284E+03  0.10009688284E+03  0.00000000000E+00 0.  1.
         35    2    1    2    0    0  0.00000000000E+00  0.00000000000E+00  0.88729781730E+02  0.28892354741E+03  0.27496152836E+03 0.  0.
         25    1    3    3    0    0  0.41964425048E+02 -0.52331300470E+02  0.43129370069E+02  0.14408233945E+03  0.12000000000E+03 0.  0.
         25    1    3    3    0    0 -0.41964425048E+02  0.52331300470E+02  0.45600411661E+02  0.14484120796E+03  0.12000000000E+03 0.  0.
<mgrwt>
<rscale>  0 0.27496153E+03</rscale>
<asrwt>0</asrwt>
<pdfrwt beam="1">  1        1 0.29050256E-01 0.27496153E+03</pdfrwt>
<pdfrwt beam="2">  1       -1 0.15399520E-01 0.27496153E+03</pdfrwt>
<totfact> 0.48301402E+03</totfact>
</mgrwt>
</event>
<event>
 5    1  0.1147887E+001  0.2737452E+03  0.7818608E-02  0.1099155E+00
          1   -1    0    0  501    0  0.00000000000E+00  0.00000000000E+00  0.23889414495E+04  0.23889414495E+04  0.00000000000E+00 0. -1.
         -1   -1    0    0    0  501 -0.00000000000E+00 -0.00000000000E+00 -0.78420144138E+01  0.78420144138E+01  0.00000000000E+00 0. -1.
         35    2    1    2    0    0  0.00000000000E+00  0.00000000000E+00  0.23810994351E+04  0.23967834640E+04  0.27374523397E+03 0.  0.
         25    1    3    3    0    0 -0.85403407981E+01  0.31104591302E+02  0.16930345436E+04  0.16975884068E+04  0.12000000000E+03 0.  0.
         25    1    3    3    0    0  0.85403407981E+01 -0.31104591302E+02  0.68806489152E+03  0.69919505717E+03  0.12000000000E+03 0.  0.
<mgrwt>
<rscale>  0 0.27374523E+03</rscale>
<asrwt>0</asrwt>
<pdfrwt beam="1">  1        1 0.36752887E+00 0.27374523E+03</pdfrwt>
<pdfrwt beam="2">  1       -1 0.12064657E-02 0.27374523E+03</pdfrwt>
<totfact> 0.26916712E+03</totfact>
</mgrwt>
</event>
<event>
 5    1  0.1147887E+001  0.2747531E+03  0.7818608E-02  0.1098590E+00
          1   -1    0    0  501    0  0.00000000000E+00  0.00000000000E+00  0.14327240859E+04  0.14327240859E+04  0.00000000000E+00 0.  1.
         -1   -1    0    0    0  501 -0.00000000000E+00 -0.00000000000E+00 -0.13172326647E+02  0.13172326647E+02  0.00000000000E+00 0.  1.
         35    2    1    2    0    0  0.00000000000E+00  0.00000000000E+00  0.14195517592E+04  0.14458964125E+04  0.27475305024E+03 0.  0.
         25    1    3    3    0    0  0.55195011459E+02 -0.15548679836E+02  0.89086039467E+03  0.90073330877E+03  0.12000000000E+03 0.  0.
         25    1    3    3    0    0 -0.55195011459E+02  0.15548679836E+02  0.52869136454E+03  0.54516310373E+03  0.12000000000E+03 0.  0.
<mgrwt>
<rscale>  0 0.27475305E+03</rscale>
<asrwt>0</asrwt>
<pdfrwt beam="1">  1        1 0.22041897E+00 0.27475305E+03</pdfrwt>
<pdfrwt beam="2">  1       -1 0.20265129E-02 0.27475305E+03</pdfrwt>
<totfact> 0.53366362E+03</totfact>
</mgrwt>
</event>
<event>
 5    1  0.1147887E+001  0.2747853E+03  0.7818608E-02  0.1098572E+00
          1   -1    0    0  501    0  0.00000000000E+00  0.00000000000E+00  0.40350448267E+03  0.40350448267E+03  0.00000000000E+00 0.  1.
         -1   -1    0    0    0  501 -0.00000000000E+00 -0.00000000000E+00 -0.46781997825E+02  0.46781997825E+02  0.00000000000E+00 0.  1.
         35    2    1    2    0    0  0.00000000000E+00  0.00000000000E+00  0.35672248484E+03  0.45028648049E+03  0.27478534044E+03 0.  0.
         25    1    3    3    0    0 -0.52152870155E+01 -0.44955227507E+02  0.97605943248E+02  0.16116789958E+03  0.12000000000E+03 0.  0.
         25    1    3    3    0    0  0.52152870155E+01  0.44955227507E+02  0.25911654160E+03  0.28911858091E+03  0.12000000000E+03 0.  0.
<mgrwt>
<rscale>  0 0.27478534E+03</rscale>
<asrwt>0</asrwt>
<pdfrwt beam="1">  1        1 0.62077610E-01 0.27478534E+03</pdfrwt>
<pdfrwt beam="2">  1       -1 0.71972307E-02 0.27478534E+03</pdfrwt>
<totfact> 0.60314980E+03</totfact>
</mgrwt>
</event>
<event>
 5    1  0.1147887E+001  0.2754587E+03  0.7818608E-02  0.1098195E+00
         -1   -1    0    0    0  501 -0.00000000000E+00  0.00000000000E+00  0.11136171641E+03  0.11136171641E+03  0.00000000000E+00 0.  1.
          1   -1    0    0  501    0  0.00000000000E+00 -0.00000000000E+00 -0.17034017156E+03  0.17034017156E+03  0.00000000000E+00 0.  1.
         35    2    1    2    0    0  0.00000000000E+00  0.00000000000E+00 -0.58978455156E+02  0.28170188797E+03  0.27545870020E+03 0.  0.
         25    1    3    3    0    0 -0.50621495232E+02 -0.12231471582E+02  0.14583102864E+02  0.13162375001E+03  0.12000000000E+03 0.  0.
         25    1    3    3    0    0  0.50621495232E+02  0.12231471582E+02 -0.73561558020E+02  0.15007813796E+03  0.12000000000E+03 0.  0.
<mgrwt>
<rscale>  0 0.27545870E+03</rscale>
<asrwt>0</asrwt>
<pdfrwt beam="1">  1        1 0.26206180E-01 0.27545870E+03</pdfrwt>
<pdfrwt beam="2">  1       -1 0.17132572E-01 0.27545870E+03</pdfrwt>
<totfact> 0.46420304E+03</totfact>
</mgrwt>
</event>
<event>
 5    1  0.1147887E+001  0.2758084E+03  0.7818608E-02  0.1098001E+00
         -2   -1    0    0    0  501 -0.00000000000E+00  0.00000000000E+00  0.26252796586E+03  0.26252796586E+03  0.00000000000E+00 0.  1.
          2   -1    0    0  501    0  0.00000000000E+00 -0.00000000000E+00 -0.72440162987E+02  0.72440162987E+02  0.00000000000E+00 0.  1.
         35    2    1    2    0    0  0.00000000000E+00  0.00000000000E+00  0.19008780287E+03  0.33496812885E+03  0.27580840187E+03 0.  0.
         25    1    3    3    0    0 -0.59683927800E+01 -0.55790197686E+02  0.48488923378E+02  0.14106503309E+03  0.12000000000E+03 0.  0.
         25    1    3    3    0    0  0.59683927800E+01  0.55790197686E+02  0.14159887950E+03  0.19390309576E+03  0.12000000000E+03 0.  0.
<mgrwt>
<rscale>  0 0.27580840E+03</rscale>
<asrwt>0</asrwt>
<pdfrwt beam="1">  1        2 0.11144641E-01 0.27580840E+03</pdfrwt>
<pdfrwt beam="2">  1       -2 0.40388917E-01 0.27580840E+03</pdfrwt>
<totfact> 0.32596984E+03</totfact>
</mgrwt>
</event>
<event>
 5    1  0.1147887E+001  0.2752698E+03  0.7818608E-02  0.1098301E+00
          1   -1    0    0  501    0  0.00000000000E+00  0.00000000000E+00  0.13563821064E+03  0.13563821064E+03  0.00000000000E+00 0.  1.
         -1   -1    0    0    0  501 -0.00000000000E+00 -0.00000000000E+00 -0.13966102048E+03  0.13966102048E+03  0.00000000000E+00 0.  1.
         35    2    1    2    0    0  0.00000000000E+00  0.00000000000E+00 -0.40228098360E+01  0.27529923112E+03  0.27526983790E+03 0.  0.
         25    1    3    3    0    0 -0.46969662628E+02  0.68854619397E+01  0.45845686070E+02  0.13695030385E+03  0.12000000000E+03 0.  0.
         25    1    3    3    0    0  0.46969662628E+02 -0.68854619397E+01 -0.49868495906E+02  0.13834892727E+03  0.12000000000E+03 0.  0.
<mgrwt>
<rscale>  0 0.27526984E+03</rscale>
<asrwt>0</asrwt>
<pdfrwt beam="1">  1        1 0.20867417E-01 0.27526984E+03</pdfrwt>
<pdfrwt beam="2">  1       -1 0.21486311E-01 0.27526984E+03</pdfrwt>
<totfact> 0.43032304E+03</totfact>
</mgrwt>
</event>
<event>
 5    1  0.1147887E+001  0.2761384E+03  0.7818608E-02  0.1097817E+00
          1   -1    0    0  501    0  0.00000000000E+00  0.00000000000E+00  0.32289545214E+02  0.32289545214E+02  0.00000000000E+00 0. -1.
         -1   -1    0    0    0  501 -0.00000000000E+00 -0.00000000000E+00 -0.59037993536E+03  0.59037993536E+03  0.00000000000E+00 0. -1.
         35    2    1    2    0    0  0.00000000000E+00  0.00000000000E+00 -0.55809039015E+03  0.62266948057E+03  0.27613836833E+03 0.  0.
         25    1    3    3    0    0 -0.22223694215E+02 -0.63431423168E+02 -0.30625988204E+03  0.33572690297E+03  0.12000000000E+03 0.  0.
         25    1    3    3    0    0  0.22223694215E+02  0.63431423168E+02 -0.25183050811E+03  0.28694257760E+03  0.12000000000E+03 0.  0.
<mgrwt>
<rscale>  0 0.27613837E+03</rscale>
<asrwt>0</asrwt>
<pdfrwt beam="1">  1        1 0.49676225E-02 0.27613837E+03</pdfrwt>
<pdfrwt beam="2">  1       -1 0.90827679E-01 0.27613837E+03</pdfrwt>
<totfact> 0.20896893E+03</totfact>
</mgrwt>
</event>
<event>
 5    1  0.1147887E+001  0.2798338E+03  0.7818608E-02  0.1095780E+00
         -1   -1    0    0    0  501 -0.00000000000E+00  0.00000000000E+00  0.81768008287E+02  0.81768008287E+02  0.00000000000E+00 0.  1.
          1   -1    0    0  501    0  0.00000000000E+00 -0.00000000000E+00 -0.23941801324E+03  0.23941801324E+03  0.00000000000E+00 0.  1.
         35    2    1    2    0    0  0.00000000000E+00  0.00000000000E+00 -0.15765000495E+03  0.32118602153E+03  0.27983376559E+03 0.  0.
         25    1    3    3    0    0  0.53024016241E+02  0.20081790223E+02 -0.27986119037E+02  0.13563940230E+03  0.12000000000E+03 0.  0.
         25    1    3    3    0    0 -0.53024016241E+02 -0.20081790223E+02 -0.12966388592E+03  0.18554661923E+03  0.12000000000E+03 0.  0.
<mgrwt>
<rscale>  0 0.27983377E+03</rscale>
<asrwt>0</asrwt>
<pdfrwt beam="1">  1        1 0.36833540E-01 0.27983377E+03</pdfrwt>
<pdfrwt beam="2">  1       -1 0.12579694E-01 0.27983377E+03</pdfrwt>
<totfact> 0.49322210E+03</totfact>
</mgrwt>
</event>
<event>
 5    1  0.1147887E+001  0.2746941E+03  0.7818608E-02  0.1098623E+00
          2   -1    0    0  501    0  0.00000000000E+00  0.00000000000E+00  0.34952954393E+03  0.34952954393E+03  0.00000000000E+00 0. -1.
         -2   -1    0    0    0  501 -0.00000000000E+00 -0.00000000000E+00 -0.53970301955E+02  0.53970301955E+02  0.00000000000E+00 0. -1.
         35    2    1    2    0    0  0.00000000000E+00  0.00000000000E+00  0.29555924198E+03  0.40349984589E+03  0.27469412100E+03 0.  0.
         25    1    3    3    0    0  0.56809781420E+02 -0.20015590841E+01  0.96203288903E+02  0.16397082149E+03  0.12000000000E+03 0.  0.
         25    1    3    3    0    0 -0.56809781420E+02  0.20015590841E+01  0.19935595308E+03  0.23952902440E+03  0.12000000000E+03 0.  0.
<mgrwt>
<rscale>  0 0.27469412E+03</rscale>
<asrwt>0</asrwt>
<pdfrwt beam="1">  1        2 0.53773774E-01 0.27469412E+03</pdfrwt>
<pdfrwt beam="2">  1       -2 0.83031236E-02 0.27469412E+03</pdfrwt>
<totfact> 0.81939408E+03</totfact>
</mgrwt>
</event>
<event>
 5    1  0.1147887E+001  0.2753034E+03  0.7818608E-02  0.1098282E+00
          2   -1    0    0  501    0  0.00000000000E+00  0.00000000000E+00  0.44896794460E+03  0.44896794460E+03  0.00000000000E+00 0.  1.
         -2   -1    0    0    0  501 -0.00000000000E+00 -0.00000000000E+00 -0.42203432317E+02  0.42203432317E+02  0.00000000000E+00 0.  1.
         35    2    1    2    0    0  0.00000000000E+00  0.00000000000E+00  0.40676451228E+03  0.49117137691E+03  0.27530338365E+03 0.  0.
         25    1    3    3    0    0 -0.56487603762E+02  0.15504791662E+02  0.14376148358E+03  0.19621063199E+03  0.12000000000E+03 0.  0.
         25    1    3    3    0    0  0.56487603762E+02 -0.15504791662E+02  0.26300302870E+03  0.29496074493E+03  0.12000000000E+03 0.  0.
<mgrwt>
<rscale>  0 0.27530338E+03</rscale>
<asrwt>0</asrwt>
<pdfrwt beam="1">  1        2 0.69071988E-01 0.27530338E+03</pdfrwt>
<pdfrwt beam="2">  1       -2 0.64928361E-02 0.27530338E+03</pdfrwt>
<totfact> 0.91454251E+03</totfact>
</mgrwt>
</event>
<event>
 5    1  0.1147887E+001  0.2752369E+03  0.7818608E-02  0.1098319E+00
          4   -1    0    0  501    0  0.00000000000E+00  0.00000000000E+00  0.25324380031E+03  0.25324380031E+03  0.00000000000E+00 0. -1.
         -4   -1    0    0    0  501 -0.00000000000E+00 -0.00000000000E+00 -0.74784994341E+02  0.74784994341E+02  0.00000000000E+00 0. -1.
         35    2    1    2    0    0  0.00000000000E+00  0.00000000000E+00  0.17845880597E+03  0.32802879465E+03  0.27523688832E+03 0.  0.
         25    1    3    3    0    0  0.32838939399E+02 -0.24079822635E+02  0.25263728158E+02  0.12921489759E+03  0.12000000000E+03 0.  0.
         25    1    3    3    0    0 -0.32838939399E+02  0.24079822635E+02  0.15319507781E+03  0.19881389706E+03  0.12000000000E+03 0.  0.
<mgrwt>
<rscale>  0 0.27523689E+03</rscale>
<asrwt>0</asrwt>
<pdfrwt beam="1">  1        4 0.38960584E-01 0.27523689E+03</pdfrwt>
<pdfrwt beam="2">  1       -4 0.11505384E-01 0.27523689E+03</pdfrwt>
<totfact> 0.71778296E+02</totfact>
</mgrwt>
</event>
<event>
 5    1  0.1147887E+001  0.2746747E+03  0.7818608E-02  0.1098634E+00
         -1   -1    0    0    0  501 -0.00000000000E+00  0.00000000000E+00  0.84803036463E+03  0.84803036463E+03  0.00000000000E+00 0.  1.
          1   -1    0    0  501    0  0.00000000000E+00 -0.00000000000E+00 -0.22241592371E+02  0.22241592371E+02  0.00000000000E+00 0.  1.
         35    2    1    2    0    0  0.00000000000E+00  0.00000000000E+00  0.82578877226E+03  0.87027195700E+03  0.27467468532E+03 0.  0.
         25    1    3    3    0    0 -0.10369135212E+02 -0.56137412516E+02  0.52276970249E+03  0.53939511482E+03  0.12000000000E+03 0.  0.
         25    1    3    3    0    0  0.10369135212E+02  0.56137412516E+02  0.30301906977E+03  0.33087684218E+03  0.12000000000E+03 0.  0.
<mgrwt>
<rscale>  0 0.27467469E+03</rscale>
<asrwt>0</asrwt>
<pdfrwt beam="1">  1        1 0.34217841E-02 0.27467469E+03</pdfrwt>
<pdfrwt beam="2">  1       -1 0.13046618E+00 0.27467469E+03</pdfrwt>
<totfact> 0.15271614E+03</totfact>
</mgrwt>
</event>
<event>
 5    1  0.1147887E+001  0.2754577E+03  0.7818608E-02  0.1098196E+00
          2   -1    0    0  501    0  0.00000000000E+00  0.00000000000E+00  0.21780394871E+04  0.21780394871E+04  0.00000000000E+00 0.  1.
         -2   -1    0    0    0  501 -0.00000000000E+00 -0.00000000000E+00 -0.87093162052E+01  0.87093162052E+01  0.00000000000E+00 0.  1.
         35    2    1    2    0    0  0.00000000000E+00  0.00000000000E+00  0.21693301709E+04  0.21867488033E+04  0.27545768895E+03 0.  0.
         25    1    3    3    0    0 -0.22400190122E+00  0.62130999485E+02  0.12960352238E+04  0.13030608629E+04  0.12000000000E+03 0.  0.
         25    1    3    3    0    0  0.22400190122E+00 -0.62130999485E+02  0.87329494717E+03  0.88368794041E+03  0.12000000000E+03 0.  0.
<mgrwt>
<rscale>  0 0.27545769E+03</rscale>
<asrwt>0</asrwt>
<pdfrwt beam="1">  1        2 0.33508256E+00 0.27545769E+03</pdfrwt>
<pdfrwt beam="2">  1       -2 0.13398965E-02 0.27545769E+03</pdfrwt>
<totfact> 0.83245216E+03</totfact>
</mgrwt>
</event>
<event>
 5    1  0.1147887E+001  0.2717504E+03  0.7818608E-02  0.1100282E+00
          2   -1    0    0  501    0  0.00000000000E+00  0.00000000000E+00  0.44833077236E+03  0.44833077236E+03  0.00000000000E+00 0. -1.
         -2   -1    0    0    0  501 -0.00000000000E+00 -0.00000000000E+00 -0.41179571341E+02  0.41179571341E+02  0.00000000000E+00 0. -1.
         35    2    1    2    0    0  0.00000000000E+00  0.00000000000E+00  0.40715120102E+03  0.48951034371E+03  0.27175039301E+03 0.  0.
         25    1    3    3    0    0 -0.59377975554E+02  0.84927559991E+01  0.24238557794E+03  0.27703544769E+03  0.12000000000E+03 0.  0.
         25    1    3    3    0    0  0.59377975554E+02 -0.84927559991E+01  0.16476562308E+03  0.21247489601E+03  0.12000000000E+03 0.  0.
<mgrwt>
<rscale>  0 0.27175039E+03</rscale>
<asrwt>0</asrwt>
<pdfrwt beam="1">  1        2 0.68973961E-01 0.27175039E+03</pdfrwt>
<pdfrwt beam="2">  1       -2 0.63353190E-02 0.27175039E+03</pdfrwt>
<totfact> 0.95080185E+03</totfact>
</mgrwt>
</event>
<event>
 5    1  0.1147887E+001  0.2719514E+03  0.7818608E-02  0.1100168E+00
          1   -1    0    0  501    0  0.00000000000E+00  0.00000000000E+00  0.48752740554E+03  0.48752740554E+03  0.00000000000E+00 0. -1.
         -1   -1    0    0    0  501 -0.00000000000E+00 -0.00000000000E+00 -0.37924820605E+02  0.37924820605E+02  0.00000000000E+00 0. -1.
         35    2    1    2    0    0  0.00000000000E+00  0.00000000000E+00  0.44960258493E+03  0.52545222614E+03  0.27195138827E+03 0.  0.
         25    1    3    3    0    0  0.31315060322E+01 -0.40958648117E+02  0.31949605195E+03  0.34375157367E+03  0.12000000000E+03 0.  0.
         25    1    3    3    0    0 -0.31315060322E+01  0.40958648117E+02  0.13010653298E+03  0.18170065248E+03  0.12000000000E+03 0.  0.
<mgrwt>
<rscale>  0 0.27195139E+03</rscale>
<asrwt>0</asrwt>
<pdfrwt beam="1">  1        1 0.75004212E-01 0.27195139E+03</pdfrwt>
<pdfrwt beam="2">  1       -1 0.58345881E-02 0.27195139E+03</pdfrwt>
<totfact> 0.64759124E+03</totfact>
</mgrwt>
</event>
<event>
 5    1  0.1147887E+001  0.2743851E+03  0.7818608E-02  0.1098796E+00
          1   -1    0    0  501    0  0.00000000000E+00  0.00000000000E+00  0.63664627915E+03  0.63664627915E+03  0.00000000000E+00 0.  1.
         -1   -1    0    0    0  501 -0.00000000000E+00 -0.00000000000E+00 -0.29563983174E+02  0.29563983174E+02  0.00000000000E+00 0.  1.
         35    2    1    2    0    0  0.00000000000E+00  0.00000000000E+00  0.60708229598E+03  0.66621026232E+03  0.27438512995E+03 0.  0.
         25    1    3    3    0    0 -0.12089148961E+02  0.56679709282E+02  0.22437669205E+03  0.26096673524E+03  0.12000000000E+03 0.  0.
         25    1    3    3    0    0  0.12089148961E+02 -0.56679709282E+02  0.38270560392E+03  0.40524352708E+03  0.12000000000E+03 0.  0.
<mgrwt>
<rscale>  0 0.27438513E+03</rscale>
<asrwt>0</asrwt>
<pdfrwt beam="1">  1        1 0.97945571E-01 0.27438513E+03</pdfrwt>
<pdfrwt beam="2">  1       -1 0.45483056E-02 0.27438513E+03</pdfrwt>
<totfact> 0.65402954E+03</totfact>
</mgrwt>
</event>
<event>
 5    1  0.1147887E+001  0.2750537E+03  0.7818608E-02  0.1098422E+00
          2   -1    0    0  501    0  0.00000000000E+00  0.00000000000E+00  0.37056877642E+03  0.37056877642E+03  0.00000000000E+00 0.  1.
         -2   -1    0    0    0  501 -0.00000000000E+00 -0.00000000000E+00 -0.51039462588E+02  0.51039462588E+02  0.00000000000E+00 0.  1.
         35    2    1    2    0    0  0.00000000000E+00  0.00000000000E+00  0.31952931383E+03  0.42160823901E+03  0.27505367622E+03 0.  0.
         25    1    3    3    0    0  0.39906989317E+01  0.59910790058E+02  0.11356583967E+03  0.17579086547E+03  0.12000000000E+03 0.  0.
         25    1    3    3    0    0 -0.39906989317E+01 -0.59910790058E+02  0.20596347416E+03  0.24581737354E+03  0.12000000000E+03 0.  0.
<mgrwt>
<rscale>  0 0.27505368E+03</rscale>
<asrwt>0</asrwt>
<pdfrwt beam="1">  1        2 0.57010579E-01 0.27505368E+03</pdfrwt>
<pdfrwt beam="2">  1       -2 0.78522253E-02 0.27505368E+03</pdfrwt>
<totfact> 0.83942775E+03</totfact>
</mgrwt>
</event>
<event>
 5    1  0.1147887E+001  0.2738120E+03  0.7818608E-02  0.1099118E+00
         -2   -1    0    0    0  501 -0.00000000000E+00  0.00000000000E+00  0.14401007815E+02  0.14401007815E+02  0.00000000000E+00 0. -1.
          2   -1    0    0  501    0  0.00000000000E+00 -0.00000000000E+00 -0.13015235449E+04  0.13015235449E+04  0.00000000000E+00 0. -1.
         35    2    1    2    0    0  0.00000000000E+00  0.00000000000E+00 -0.12871225371E+04  0.13159245527E+04  0.27381198470E+03 0.  0.
         25    1    3    3    0    0 -0.40313740505E+02  0.28105674947E+02 -0.85459215771E+03  0.86437427233E+03  0.12000000000E+03 0.  0.
         25    1    3    3    0    0  0.40313740505E+02 -0.28105674947E+02 -0.43253037934E+03  0.45155028036E+03  0.12000000000E+03 0.  0.
<mgrwt>
<rscale>  0 0.27381198E+03</rscale>
<asrwt>0</asrwt>
<pdfrwt beam="1">  1        2 0.20023436E+00 0.27381198E+03</pdfrwt>
<pdfrwt beam="2">  1       -2 0.22155400E-02 0.27381198E+03</pdfrwt>
<totfact> 0.11628467E+04</totfact>
</mgrwt>
</event>
<event>
 5    1  0.1147887E+001  0.2774127E+03  0.7818608E-02  0.1097111E+00
          1   -1    0    0  501    0  0.00000000000E+00  0.00000000000E+00  0.67163576792E+03  0.67163576792E+03  0.00000000000E+00 0. -1.
         -1   -1    0    0    0  501 -0.00000000000E+00 -0.00000000000E+00 -0.28645658199E+02  0.28645658199E+02  0.00000000000E+00 0. -1.
         35    2    1    2    0    0  0.00000000000E+00  0.00000000000E+00  0.64299010972E+03  0.70028142612E+03  0.27741267918E+03 0.  0.
         25    1    3    3    0    0 -0.60091420586E+02  0.88213004956E+01  0.23586647022E+03  0.27151756102E+03  0.12000000000E+03 0.  0.
         25    1    3    3    0    0  0.60091420586E+02 -0.88213004956E+01  0.40712363950E+03  0.42876386510E+03  0.12000000000E+03 0.  0.
<mgrwt>
<rscale>  0 0.27741268E+03</rscale>
<asrwt>0</asrwt>
<pdfrwt beam="1">  1        1 0.10332857E+00 0.27741268E+03</pdfrwt>
<pdfrwt beam="2">  1       -1 0.44070248E-02 0.27741268E+03</pdfrwt>
<totfact> 0.63540008E+03</totfact>
</mgrwt>
</event>
<event>
 5    1  0.1147887E+001  0.2756664E+03  0.7818608E-02  0.1098080E+00
         -1   -1    0    0    0  501 -0.00000000000E+00  0.00000000000E+00  0.66556536123E+03  0.66556536123E+03  0.00000000000E+00 0. -1.
          1   -1    0    0  501    0  0.00000000000E+00 -0.00000000000E+00 -0.28544134147E+02  0.28544134147E+02  0.00000000000E+00 0. -1.
         35    2    1    2    0    0  0.00000000000E+00  0.00000000000E+00  0.63702122708E+03  0.69410949537E+03  0.27566637049E+03 0.  0.
         25    1    3    3    0    0  0.52220772238E+02  0.29070367328E+02  0.39915886275E+03  0.42106993840E+03  0.12000000000E+03 0.  0.
         25    1    3    3    0    0 -0.52220772238E+02 -0.29070367328E+02  0.23786236433E+03  0.27303955698E+03  0.12000000000E+03 0.  0.
<mgrwt>
<rscale>  0 0.27566637E+03</rscale>
<asrwt>0</asrwt>
<pdfrwt beam="1">  1        1 0.43914058E-02 0.27566637E+03</pdfrwt>
<pdfrwt beam="2">  1       -1 0.10239466E+00 0.27566637E+03</pdfrwt>
<totfact> 0.19050426E+03</totfact>
</mgrwt>
</event>
<event>
 5    1  0.1147887E+001  0.2686801E+03  0.7818608E-02  0.1102037E+00
          1   -1    0    0  501    0  0.00000000000E+00  0.00000000000E+00  0.71569294321E+02  0.71569294321E+02  0.00000000000E+00 0.  1.
         -1   -1    0    0    0  501 -0.00000000000E+00 -0.00000000000E+00 -0.25216469089E+03  0.25216469089E+03  0.00000000000E+00 0.  1.
         35    2    1    2    0    0  0.00000000000E+00  0.00000000000E+00 -0.18059539657E+03  0.32373398521E+03  0.26868009959E+03 0.  0.
         25    1    3    3    0    0  0.48360169812E+02 -0.11086231236E+02 -0.13178631232E+03  0.18501146630E+03  0.12000000000E+03 0.  0.
         25    1    3    3    0    0 -0.48360169812E+02  0.11086231236E+02 -0.48809084245E+02  0.13872251891E+03  0.12000000000E+03 0.  0.
<mgrwt>
<rscale>  0 0.26868010E+03</rscale>
<asrwt>0</asrwt>
<pdfrwt beam="1">  1        1 0.11010661E-01 0.26868010E+03</pdfrwt>
<pdfrwt beam="2">  1       -1 0.38794568E-01 0.26868010E+03</pdfrwt>
<totfact> 0.36516026E+03</totfact>
</mgrwt>
</event>
<event>
 5    1  0.1147887E+001  0.2753778E+03  0.7818608E-02  0.1098241E+00
         -1   -1    0    0    0  501 -0.00000000000E+00  0.00000000000E+00  0.27538430977E+02  0.27538430977E+02  0.00000000000E+00 0. -1.
          1   -1    0    0  501    0  0.00000000000E+00 -0.00000000000E+00 -0.68842801564E+03  0.68842801564E+03  0.00000000000E+00 0. -1.
         35    2    1    2    0    0  0.00000000000E+00  0.00000000000E+00 -0.66088958466E+03  0.71596644661E+03  0.27537775793E+03 0.  0.
         25    1    3    3    0    0  0.30906111780E+02 -0.48312265855E+02 -0.42306133521E+03  0.44347509076E+03  0.12000000000E+03 0.  0.
         25    1    3    3    0    0 -0.30906111780E+02  0.48312265855E+02 -0.23782824945E+03  0.27249135586E+03  0.12000000000E+03 0.  0.
<mgrwt>
<rscale>  0 0.27537776E+03</rscale>
<asrwt>0</asrwt>
<pdfrwt beam="1">  1        1 0.10591199E+00 0.27537776E+03</pdfrwt>
<pdfrwt beam="2">  1       -1 0.42366822E-02 0.27537776E+03</pdfrwt>
<totfact> 0.65011284E+03</totfact>
</mgrwt>
</event>
<event>
 5    1  0.1147887E+001  0.2748026E+03  0.7818608E-02  0.1098562E+00
          3   -1    0    0  501    0  0.00000000000E+00  0.00000000000E+00  0.80479349029E+02  0.80479349029E+02  0.00000000000E+00 0. -1.
         -3   -1    0    0    0  501 -0.00000000000E+00 -0.00000000000E+00 -0.23458345710E+03  0.23458345710E+03  0.00000000000E+00 0. -1.
         35    2    1    2    0    0  0.00000000000E+00  0.00000000000E+00 -0.15410410807E+03  0.31506280613E+03  0.27480264861E+03 0.  0.
         25    1    3    3    0    0  0.58311498073E+02 -0.19802082933E+02 -0.47006371248E+02  0.14283540259E+03  0.12000000000E+03 0.  0.
         25    1    3    3    0    0 -0.58311498073E+02  0.19802082933E+02 -0.10709773682E+03  0.17222740354E+03  0.12000000000E+03 0.  0.
<mgrwt>
<rscale>  0 0.27480265E+03</rscale>
<asrwt>0</asrwt>
<pdfrwt beam="1">  1        3 0.12381438E-01 0.27480265E+03</pdfrwt>
<pdfrwt beam="2">  1       -3 0.36089762E-01 0.27480265E+03</pdfrwt>
<totfact> 0.99216624E+02</totfact>
</mgrwt>
</event>
<event>
 5    1  0.1147887E+001  0.2762765E+03  0.7818608E-02  0.1097740E+00
         -2   -1    0    0    0  501 -0.00000000000E+00  0.00000000000E+00  0.87744315353E+01  0.87744315353E+01  0.00000000000E+00 0. -1.
          2   -1    0    0  501    0  0.00000000000E+00 -0.00000000000E+00 -0.21747479861E+04  0.21747479861E+04  0.00000000000E+00 0. -1.
         35    2    1    2    0    0  0.00000000000E+00  0.00000000000E+00 -0.21659735546E+04  0.21835224177E+04  0.27627650867E+03 0.  0.
         25    1    3    3    0    0  0.26413574672E+02 -0.11542617065E+02 -0.15734603225E+04  0.15782928421E+04  0.12000000000E+03 0.  0.
         25    1    3    3    0    0 -0.26413574672E+02  0.11542617065E+02 -0.59251323216E+03  0.60522957563E+03  0.12000000000E+03 0.  0.
<mgrwt>
<rscale>  0 0.27627651E+03</rscale>
<asrwt>0</asrwt>
<pdfrwt beam="1">  1        2 0.33457658E+00 0.27627651E+03</pdfrwt>
<pdfrwt beam="2">  1       -2 0.13499127E-02 0.27627651E+03</pdfrwt>
<totfact> 0.82677902E+03</totfact>
</mgrwt>
</event>
<event>
 5    1  0.1147887E+001  0.2756864E+03  0.7818608E-02  0.1098069E+00
         -2   -1    0    0    0  501 -0.00000000000E+00  0.00000000000E+00  0.16975449767E+02  0.16975449767E+02  0.00000000000E+00 0. -1.
          2   -1    0    0  501    0  0.00000000000E+00 -0.00000000000E+00 -0.11193077794E+04  0.11193077794E+04  0.00000000000E+00 0. -1.
         35    2    1    2    0    0  0.00000000000E+00  0.00000000000E+00 -0.11023323297E+04  0.11362832292E+04  0.27568643771E+03 0.  0.
         25    1    3    3    0    0  0.30917576163E+02  0.59139177808E+02 -0.60120886464E+03  0.61668909330E+03  0.12000000000E+03 0.  0.
         25    1    3    3    0    0 -0.30917576163E+02 -0.59139177808E+02 -0.50112346502E+03  0.51959413590E+03  0.12000000000E+03 0.  0.
<mgrwt>
<rscale>  0 0.27568644E+03</rscale>
<asrwt>0</asrwt>
<pdfrwt beam="1">  1        2 0.17220117E+00 0.27568644E+03</pdfrwt>
<pdfrwt beam="2">  1       -2 0.26116081E-02 0.27568644E+03</pdfrwt>
<totfact> 0.11570597E+04</totfact>
</mgrwt>
</event>
<event>
 5    1  0.1147887E+001  0.2755455E+03  0.7818608E-02  0.1098147E+00
         -2   -1    0    0    0  501 -0.00000000000E+00  0.00000000000E+00  0.14146592894E+02  0.14146592894E+02  0.00000000000E+00 0.  1.
          2   -1    0    0  501    0  0.00000000000E+00 -0.00000000000E+00 -0.13417599228E+04  0.13417599228E+04  0.00000000000E+00 0.  1.
         35    2    1    2    0    0  0.00000000000E+00  0.00000000000E+00 -0.13276133299E+04  0.13559065156E+04  0.27554550541E+03 0.  0.
         25    1    3    3    0    0 -0.48494563120E+02 -0.45931709453E+02 -0.71768598491E+03  0.73070829851E+03  0.12000000000E+03 0.  0.
         25    1    3    3    0    0  0.48494563120E+02  0.45931709453E+02 -0.60992734495E+03  0.62519821713E+03  0.12000000000E+03 0.  0.
<mgrwt>
<rscale>  0 0.27554551E+03</rscale>
<asrwt>0</asrwt>
<pdfrwt beam="1">  1        2 0.20642461E+00 0.27554551E+03</pdfrwt>
<pdfrwt beam="2">  1       -2 0.21763988E-02 0.27554551E+03</pdfrwt>
<totfact> 0.11345617E+04</totfact>
</mgrwt>
</event>
<event>
 5    1  0.1147887E+001  0.2833323E+03  0.7818608E-02  0.1093883E+00
         -1   -1    0    0    0  501 -0.00000000000E+00  0.00000000000E+00  0.12380796715E+03  0.12380796715E+03  0.00000000000E+00 0.  1.
          1   -1    0    0  501    0  0.00000000000E+00 -0.00000000000E+00 -0.16210016540E+03  0.16210016540E+03  0.00000000000E+00 0.  1.
         35    2    1    2    0    0  0.00000000000E+00  0.00000000000E+00 -0.38292198244E+02  0.28590813255E+03  0.28333225692E+03 0.  0.
         25    1    3    3    0    0  0.17734120819E+02 -0.60127034518E+02 -0.61232983600E+02  0.14859083956E+03  0.12000000000E+03 0.  0.
         25    1    3    3    0    0 -0.17734120819E+02  0.60127034518E+02  0.22940785357E+02  0.13731729299E+03  0.12000000000E+03 0.  0.
<mgrwt>
<rscale>  0 0.28333226E+03</rscale>
<asrwt>0</asrwt>
<pdfrwt beam="1">  1        1 0.24938487E-01 0.28333226E+03</pdfrwt>
<pdfrwt beam="2">  1       -1 0.19047379E-01 0.28333226E+03</pdfrwt>
<totfact> 0.41717876E+03</totfact>
</mgrwt>
</event>
<event>
 5    1  0.1147887E+001  0.2728274E+03  0.7818608E-02  0.1099672E+00
         -1   -1    0    0    0  501 -0.00000000000E+00  0.00000000000E+00  0.15436318000E+02  0.15436318000E+02  0.00000000000E+00 0. -1.
          1   -1    0    0  501    0  0.00000000000E+00 -0.00000000000E+00 -0.12055140349E+04  0.12055140349E+04  0.00000000000E+00 0. -1.
         35    2    1    2    0    0  0.00000000000E+00  0.00000000000E+00 -0.11900777169E+04  0.12209503529E+04  0.27282740330E+03 0.  0.
         25    1    3    3    0    0 -0.30936367905E+02 -0.53303398012E+02 -0.68569698898E+03  0.69884094886E+03  0.12000000000E+03 0.  0.
         25    1    3    3    0    0  0.30936367905E+02  0.53303398012E+02 -0.50438072796E+03  0.52210940409E+03  0.12000000000E+03 0.  0.
<mgrwt>
<rscale>  0 0.27282740E+03</rscale>
<asrwt>0</asrwt>
<pdfrwt beam="1">  1        1 0.18546362E+00 0.27282740E+03</pdfrwt>
<pdfrwt beam="2">  1       -1 0.23748191E-02 0.27282740E+03</pdfrwt>
<totfact> 0.60430089E+03</totfact>
</mgrwt>
</event>
<event>
 5    1  0.1147887E+001  0.2747383E+03  0.7818608E-02  0.1098598E+00
         -2   -1    0    0    0  501 -0.00000000000E+00  0.00000000000E+00  0.55376942964E+02  0.55376942964E+02  0.00000000000E+00 0.  1.
          2   -1    0    0  501    0  0.00000000000E+00 -0.00000000000E+00 -0.34076069992E+03  0.34076069992E+03  0.00000000000E+00 0.  1.
         35    2    1    2    0    0  0.00000000000E+00  0.00000000000E+00 -0.28538375696E+03  0.39613764289E+03  0.27473831800E+03 0.  0.
         25    1    3    3    0    0 -0.18720054928E+02 -0.55624849775E+02 -0.96513189180E+02  0.16480097104E+03  0.12000000000E+03 0.  0.
         25    1    3    3    0    0  0.18720054928E+02  0.55624849775E+02 -0.18887056778E+03  0.23133667185E+03  0.12000000000E+03 0.  0.
<mgrwt>
<rscale>  0 0.27473832E+03</rscale>
<asrwt>0</asrwt>
<pdfrwt beam="1">  1        2 0.52424724E-01 0.27473832E+03</pdfrwt>
<pdfrwt beam="2">  1       -2 0.85195296E-02 0.27473832E+03</pdfrwt>
<totfact> 0.80887239E+03</totfact>
</mgrwt>
</event>
<event>
 5    1  0.1147887E+001  0.2744136E+03  0.7818608E-02  0.1098780E+00
          1   -1    0    0  501    0  0.00000000000E+00  0.00000000000E+00  0.73872286728E+03  0.73872286728E+03  0.00000000000E+00 0. -1.
         -1   -1    0    0    0  501 -0.00000000000E+00 -0.00000000000E+00 -0.25484128330E+02  0.25484128330E+02  0.00000000000E+00 0. -1.
         35    2    1    2    0    0  0.00000000000E+00  0.00000000000E+00  0.71323873895E+03  0.76420699561E+03  0.27441361737E+03 0.  0.
         25    1    3    3    0    0 -0.56730206027E+02  0.34472807340E+02  0.36876397811E+03  0.39343813018E+03  0.12000000000E+03 0.  0.
         25    1    3    3    0    0  0.56730206027E+02 -0.34472807340E+02  0.34447476084E+03  0.37076886543E+03  0.12000000000E+03 0.  0.
<mgrwt>
<rscale>  0 0.27441362E+03</rscale>
<asrwt>0</asrwt>
<pdfrwt beam="1">  1        1 0.11364966E+00 0.27441362E+03</pdfrwt>
<pdfrwt beam="2">  1       -1 0.39206357E-02 0.27441362E+03</pdfrwt>
<totfact> 0.65772501E+03</totfact>
</mgrwt>
</event>
<event>
 5    1  0.1147887E+001  0.2746772E+03  0.7818608E-02  0.1098632E+00
          1   -1    0    0  501    0  0.00000000000E+00  0.00000000000E+00  0.15558971934E+03  0.15558971934E+03  0.00000000000E+00 0. -1.
         -1   -1    0    0    0  501 -0.00000000000E+00 -0.00000000000E+00 -0.12122836129E+03  0.12122836129E+03  0.00000000000E+00 0. -1.
         35    2    1    2    0    0  0.00000000000E+00  0.00000000000E+00  0.34361358051E+02  0.27681808062E+03  0.27467716839E+03 0.  0.
         25    1    3    3    0    0  0.46060934457E+02 -0.46338011458E+02  0.31183788208E+02  0.14014724270E+03  0.12000000000E+03 0.  0.
         25    1    3    3    0    0 -0.46060934457E+02  0.46338011458E+02  0.31775698428E+01  0.13667083792E+03  0.12000000000E+03 0.  0.
<mgrwt>
<rscale>  0 0.27467717E+03</rscale>
<asrwt>0</asrwt>
<pdfrwt beam="1">  1        1 0.23936880E-01 0.27467717E+03</pdfrwt>
<pdfrwt beam="2">  1       -1 0.18650517E-01 0.27467717E+03</pdfrwt>
<totfact> 0.45436904E+03</totfact>
</mgrwt>
</event>
<event>
 5    1  0.1147887E+001  0.2745866E+03  0.7818608E-02  0.1098683E+00
          2   -1    0    0  501    0  0.00000000000E+00  0.00000000000E+00  0.39262512317E+03  0.39262512317E+03  0.00000000000E+00 0.  1.
         -2   -1    0    0    0  501 -0.00000000000E+00 -0.00000000000E+00 -0.48008774939E+02  0.48008774939E+02  0.00000000000E+00 0.  1.
         35    2    1    2    0    0  0.00000000000E+00  0.00000000000E+00  0.34461634824E+03  0.44063389811E+03  0.27458660691E+03 0.  0.
         25    1    3    3    0    0 -0.37823647872E+01  0.42770578146E+02  0.90391752654E+02  0.15625075227E+03  0.12000000000E+03 0.  0.
         25    1    3    3    0    0  0.37823647872E+01 -0.42770578146E+02  0.25422459558E+03  0.28438314584E+03  0.12000000000E+03 0.  0.
<mgrwt>
<rscale>  0 0.27458661E+03</rscale>
<asrwt>0</asrwt>
<pdfrwt beam="1">  1        2 0.60403863E-01 0.27458661E+03</pdfrwt>
<pdfrwt beam="2">  1       -2 0.73859656E-02 0.27458661E+03</pdfrwt>
<totfact> 0.86727237E+03</totfact>
</mgrwt>
</event>
<event>
 5    1  0.1147887E+001  0.2740726E+03  0.7818608E-02  0.1098971E+00
          2   -1    0    0  501    0  0.00000000000E+00  0.00000000000E+00  0.15142555237E+03  0.15142555237E+03  0.00000000000E+00 0.  1.
         -2   -1    0    0    0  501 -0.00000000000E+00 -0.00000000000E+00 -0.12401437913E+03  0.12401437913E+03  0.00000000000E+00 0.  1.
         35    2    1    2    0    0  0.00000000000E+00  0.00000000000E+00  0.27411173247E+02  0.27543993150E+03  0.27407258791E+03 0.  0.
         25    1    3    3    0    0  0.22965946835E+02 -0.14887651633E+01 -0.48646628005E+02  0.13151481115E+03  0.12000000000E+03 0.  0.
         25    1    3    3    0    0 -0.22965946835E+02  0.14887651633E+01  0.76057801251E+02  0.14392512035E+03  0.12000000000E+03 0.  0.
<mgrwt>
<rscale>  0 0.27407259E+03</rscale>
<asrwt>0</asrwt>
<pdfrwt beam="1">  1        2 0.23296239E-01 0.27407259E+03</pdfrwt>
<pdfrwt beam="2">  1       -2 0.19079135E-01 0.27407259E+03</pdfrwt>
<totfact> 0.52743095E+03</totfact>
</mgrwt>
</event>
<event>
 5    1  0.1147887E+001  0.2758244E+03  0.7818608E-02  0.1097992E+00
          2   -1    0    0  501    0  0.00000000000E+00  0.00000000000E+00  0.18455160129E+04  0.18455160129E+04  0.00000000000E+00 0.  1.
         -2   -1    0    0    0  501 -0.00000000000E+00 -0.00000000000E+00 -0.10305935693E+02  0.10305935693E+02  0.00000000000E+00 0.  1.
         35    2    1    2    0    0  0.00000000000E+00  0.00000000000E+00  0.18352100772E+04  0.18558219486E+04  0.27582435969E+03 0.  0.
         25    1    3    3    0    0 -0.43739716123E+02 -0.23616519215E+02  0.12295000412E+04  0.12363418839E+04  0.12000000000E+03 0.  0.
         25    1    3    3    0    0  0.43739716123E+02  0.23616519215E+02  0.60571003602E+03  0.61948006463E+03  0.12000000000E+03 0.  0.
<mgrwt>
<rscale>  0 0.27582436E+03</rscale>
<asrwt>0</asrwt>
<pdfrwt beam="1">  1        2 0.28392528E+00 0.27582436E+03</pdfrwt>
<pdfrwt beam="2">  1       -2 0.15855300E-02 0.27582436E+03</pdfrwt>
<totfact> 0.97430508E+03</totfact>
</mgrwt>
</event>
<event>
 5    1  0.1147887E+001  0.2776927E+03  0.7818608E-02  0.1096956E+00
          1   -1    0    0  501    0  0.00000000000E+00  0.00000000000E+00  0.21658637199E+03  0.21658637199E+03  0.00000000000E+00 0. -1.
         -1   -1    0    0    0  501 -0.00000000000E+00 -0.00000000000E+00 -0.89009797116E+02  0.89009797116E+02  0.00000000000E+00 0. -1.
         35    2    1    2    0    0  0.00000000000E+00  0.00000000000E+00  0.12757657487E+03  0.30559616910E+03  0.27769270087E+03 0.  0.
         25    1    3    3    0    0  0.31143696884E+02  0.38390551086E+02  0.94892259748E+01  0.13012997225E+03  0.12000000000E+03 0.  0.
         25    1    3    3    0    0 -0.31143696884E+02 -0.38390551086E+02  0.11808734890E+03  0.17546619685E+03  0.12000000000E+03 0.  0.
<mgrwt>
<rscale>  0 0.27769270E+03</rscale>
<asrwt>0</asrwt>
<pdfrwt beam="1">  1        1 0.33320980E-01 0.27769270E+03</pdfrwt>
<pdfrwt beam="2">  1       -1 0.13693815E-01 0.27769270E+03</pdfrwt>
<totfact> 0.48946456E+03</totfact>
</mgrwt>
</event>
<event>
 5    1  0.1147887E+001  0.2751514E+03  0.7818608E-02  0.1098367E+00
          2   -1    0    0  501    0  0.00000000000E+00  0.00000000000E+00  0.17696455346E+04  0.17696455346E+04  0.00000000000E+00 0. -1.
         -2   -1    0    0    0  501 -0.00000000000E+00 -0.00000000000E+00 -0.10695405630E+02  0.10695405630E+02  0.00000000000E+00 0. -1.
         35    2    1    2    0    0  0.00000000000E+00  0.00000000000E+00  0.17589501289E+04  0.17803409402E+04  0.27515142604E+03 0.  0.
         25    1    3    3    0    0  0.29685116730E+02  0.12480086858E+02  0.49722156343E+03  0.51250974807E+03  0.12000000000E+03 0.  0.
         25    1    3    3    0    0 -0.29685116730E+02 -0.12480086858E+02  0.12617285655E+04  0.12678311921E+04  0.12000000000E+03 0.  0.
<mgrwt>
<rscale>  0 0.27515143E+03</rscale>
<asrwt>0</asrwt>
<pdfrwt beam="1">  1        2 0.27225293E+00 0.27515143E+03</pdfrwt>
<pdfrwt beam="2">  1       -2 0.16454484E-02 0.27515143E+03</pdfrwt>
<totfact> 0.10113910E+04</totfact>
</mgrwt>
</event>
<event>
 5    1  0.1147887E+001  0.2748686E+03  0.7818608E-02  0.1098525E+00
         -1   -1    0    0    0  501 -0.00000000000E+00  0.00000000000E+00  0.69958554447E+01  0.69958554447E+01  0.00000000000E+00 0. -1.
          1   -1    0    0  501    0  0.00000000000E+00 -0.00000000000E+00 -0.26999105849E+04  0.26999105849E+04  0.00000000000E+00 0. -1.
         35    2    1    2    0    0  0.00000000000E+00  0.00000000000E+00 -0.26929147294E+04  0.27069064403E+04  0.27486858071E+03 0.  0.
         25    1    3    3    0    0  0.54595146906E+02 -0.33487514661E+02 -0.11529396169E+04  0.11609357449E+04  0.12000000000E+03 0.  0.
         25    1    3    3    0    0 -0.54595146906E+02  0.33487514661E+02 -0.15399751126E+04  0.15459706954E+04  0.12000000000E+03 0.  0.
<mgrwt>
<rscale>  0 0.27486858E+03</rscale>
<asrwt>0</asrwt>
<pdfrwt beam="1">  1        1 0.41537075E+00 0.27486858E+03</pdfrwt>
<pdfrwt beam="2">  1       -1 0.10762857E-02 0.27486858E+03</pdfrwt>
<totfact> 0.19688999E+03</totfact>
</mgrwt>
</event>
<event>
 5    1  0.1147887E+001  0.2749057E+03  0.7818608E-02  0.1098504E+00
         -2   -1    0    0    0  501 -0.00000000000E+00  0.00000000000E+00  0.71432760753E+02  0.71432760753E+02  0.00000000000E+00 0.  1.
          2   -1    0    0  501    0  0.00000000000E+00 -0.00000000000E+00 -0.26449050268E+03  0.26449050268E+03  0.00000000000E+00 0.  1.
         35    2    1    2    0    0  0.00000000000E+00  0.00000000000E+00 -0.19305774193E+03  0.33592326343E+03  0.27490570601E+03 0.  0.
         25    1    3    3    0    0 -0.64337036519E+02 -0.18161819515E+02 -0.10253773043E+03  0.17141497052E+03  0.12000000000E+03 0.  0.
         25    1    3    3    0    0  0.64337036519E+02  0.18161819515E+02 -0.90520011492E+02  0.16450829291E+03  0.12000000000E+03 0.  0.
<mgrwt>
<rscale>  0 0.27490571E+03</rscale>
<asrwt>0</asrwt>
<pdfrwt beam="1">  1        2 0.40690846E-01 0.27490571E+03</pdfrwt>
<pdfrwt beam="2">  1       -2 0.10989656E-01 0.27490571E+03</pdfrwt>
<totfact> 0.70960649E+03</totfact>
</mgrwt>
</event>
<event>
 5    1  0.1147887E+001  0.2741762E+03  0.7818608E-02  0.1098913E+00
          2   -1    0    0  501    0  0.00000000000E+00  0.00000000000E+00  0.38524849177E+03  0.38524849177E+03  0.00000000000E+00 0.  1.
         -2   -1    0    0    0  501 -0.00000000000E+00 -0.00000000000E+00 -0.48781877712E+02  0.48781877712E+02  0.00000000000E+00 0.  1.
         35    2    1    2    0    0  0.00000000000E+00  0.00000000000E+00  0.33646661406E+03  0.43403036948E+03  0.27417618288E+03 0.  0.
         25    1    3    3    0    0 -0.52650615587E+02 -0.36991850321E+02  0.19339611308E+03  0.23652175559E+03  0.12000000000E+03 0.  0.
         25    1    3    3    0    0  0.52650615587E+02  0.36991850321E+02  0.14307050098E+03  0.19750861389E+03  0.12000000000E+03 0.  0.
<mgrwt>
<rscale>  0 0.27417618E+03</rscale>
<asrwt>0</asrwt>
<pdfrwt beam="1">  1        2 0.59268997E-01 0.27417618E+03</pdfrwt>
<pdfrwt beam="2">  1       -2 0.75049045E-02 0.27417618E+03</pdfrwt>
<totfact> 0.86352799E+03</totfact>
</mgrwt>
</event>
<event>
 5    1  0.1147887E+001  0.2772942E+03  0.7818608E-02  0.1097176E+00
         -3   -1    0    0    0  501 -0.00000000000E+00  0.00000000000E+00  0.28280586624E+02  0.28280586624E+02  0.00000000000E+00 0. -1.
          3   -1    0    0  501    0  0.00000000000E+00 -0.00000000000E+00 -0.67972464923E+03  0.67972464923E+03  0.00000000000E+00 0. -1.
         35    2    1    2    0    0  0.00000000000E+00  0.00000000000E+00 -0.65144406261E+03  0.70800523586E+03  0.27729415301E+03 0.  0.
         25    1    3    3    0    0  0.64597337775E+02  0.14296966481E+02 -0.37963113959E+03  0.40360503149E+03  0.12000000000E+03 0.  0.
         25    1    3    3    0    0 -0.64597337775E+02 -0.14296966481E+02 -0.27181292301E+03  0.30440020436E+03  0.12000000000E+03 0.  0.
<mgrwt>
<rscale>  0 0.27729415E+03</rscale>
<asrwt>0</asrwt>
<pdfrwt beam="1">  1        3 0.10457302E+00 0.27729415E+03</pdfrwt>
<pdfrwt beam="2">  1       -3 0.43508597E-02 0.27729415E+03</pdfrwt>
<totfact> 0.59062187E+02</totfact>
</mgrwt>
</event>
<event>
 5    1  0.1147887E+001  0.2738610E+03  0.7818608E-02  0.1099090E+00
          3   -1    0    0  501    0  0.00000000000E+00  0.00000000000E+00  0.24506498071E+03  0.24506498071E+03  0.00000000000E+00 0.  1.
         -3   -1    0    0    0  501 -0.00000000000E+00 -0.00000000000E+00 -0.76510184655E+02  0.76510184655E+02  0.00000000000E+00 0.  1.
         35    2    1    2    0    0  0.00000000000E+00  0.00000000000E+00  0.16855479605E+03  0.32157516536E+03  0.27386103722E+03 0.  0.
         25    1    3    3    0    0  0.63972496187E+02  0.15583512219E+02  0.88770380522E+02  0.16314259585E+03  0.12000000000E+03 0.  0.
         25    1    3    3    0    0 -0.63972496187E+02 -0.15583512219E+02  0.79784415529E+02  0.15843256951E+03  0.12000000000E+03 0.  0.
<mgrwt>
<rscale>  0 0.27386104E+03</rscale>
<asrwt>0</asrwt>
<pdfrwt beam="1">  1        3 0.37702304E-01 0.27386104E+03</pdfrwt>
<pdfrwt beam="2">  1       -3 0.11770798E-01 0.27386104E+03</pdfrwt>
<totfact> 0.99370751E+02</totfact>
</mgrwt>
</event>
<event>
 5    1  0.1147887E+001  0.2760345E+03  0.7818608E-02  0.1097875E+00
         -3   -1    0    0    0  501 -0.00000000000E+00  0.00000000000E+00  0.22975458184E+03  0.22975458184E+03  0.00000000000E+00 0.  1.
          3   -1    0    0  501    0  0.00000000000E+00 -0.00000000000E+00 -0.82909185431E+02  0.82909185431E+02  0.00000000000E+00 0.  1.
         35    2    1    2    0    0  0.00000000000E+00  0.00000000000E+00  0.14684539641E+03  0.31266376727E+03  0.27603452849E+03 0.  0.
         25    1    3    3    0    0  0.21152084272E+02  0.64307454092E+02  0.64227177595E+02  0.15201312332E+03  0.12000000000E+03 0.  0.
         25    1    3    3    0    0 -0.21152084272E+02 -0.64307454092E+02  0.82618218815E+02  0.16065064395E+03  0.12000000000E+03 0.  0.
<mgrwt>
<rscale>  0 0.27603453E+03</rscale>
<asrwt>0</asrwt>
<pdfrwt beam="1">  1        3 0.12755259E-01 0.27603453E+03</pdfrwt>
<pdfrwt beam="2">  1       -3 0.35346859E-01 0.27603453E+03</pdfrwt>
<totfact> 0.98202208E+02</totfact>
</mgrwt>
</event>
<event>
 5    1  0.1147887E+001  0.2761878E+03  0.7818608E-02  0.1097789E+00
          1   -1    0    0  501    0  0.00000000000E+00  0.00000000000E+00  0.13512518654E+03  0.13512518654E+03  0.00000000000E+00 0. -1.
         -1   -1    0    0    0  501 -0.00000000000E+00 -0.00000000000E+00 -0.14112788726E+03  0.14112788726E+03  0.00000000000E+00 0. -1.
         35    2    1    2    0    0  0.00000000000E+00  0.00000000000E+00 -0.60027007142E+01  0.27625307380E+03  0.27618784978E+03 0.  0.
         25    1    3    3    0    0  0.63458222537E+02  0.23596118925E+02 -0.12288437029E+02  0.13832833593E+03  0.12000000000E+03 0.  0.
         25    1    3    3    0    0 -0.63458222537E+02 -0.23596118925E+02  0.62857363147E+01  0.13792473787E+03  0.12000000000E+03 0.  0.
<mgrwt>
<rscale>  0 0.27618785E+03</rscale>
<asrwt>0</asrwt>
<pdfrwt beam="1">  1        1 0.20788490E-01 0.27618785E+03</pdfrwt>
<pdfrwt beam="2">  1       -1 0.21711983E-01 0.27618785E+03</pdfrwt>
<totfact> 0.42513003E+03</totfact>
</mgrwt>
</event>
<event>
 5    1  0.1147887E+001  0.2757868E+03  0.7818608E-02  0.1098013E+00
         -2   -1    0    0    0  501 -0.00000000000E+00  0.00000000000E+00  0.18183053477E+03  0.18183053477E+03  0.00000000000E+00 0.  1.
          2   -1    0    0  501    0  0.00000000000E+00 -0.00000000000E+00 -0.10457316194E+03  0.10457316194E+03  0.00000000000E+00 0.  1.
         35    2    1    2    0    0  0.00000000000E+00  0.00000000000E+00  0.77257372829E+02  0.28640369672E+03  0.27578683043E+03 0.  0.
         25    1    3    3    0    0 -0.30367297961E+02 -0.35123016928E+01 -0.24370365732E+02  0.12620785940E+03  0.12000000000E+03 0.  0.
         25    1    3    3    0    0  0.30367297961E+02  0.35123016928E+01  0.10162773856E+03  0.16019583732E+03  0.12000000000E+03 0.  0.
<mgrwt>
<rscale>  0 0.27578683E+03</rscale>
<asrwt>0</asrwt>
<pdfrwt beam="1">  1        2 0.16088179E-01 0.27578683E+03</pdfrwt>
<pdfrwt beam="2">  1       -2 0.27973928E-01 0.27578683E+03</pdfrwt>
<totfact> 0.41404961E+03</totfact>
</mgrwt>
</event>
<event>
 5    1  0.1147887E+001  0.2741693E+03  0.7818608E-02  0.1098917E+00
          2   -1    0    0  501    0  0.00000000000E+00  0.00000000000E+00  0.20465209565E+04  0.20465209565E+04  0.00000000000E+00 0.  1.
         -2   -1    0    0    0  501 -0.00000000000E+00 -0.00000000000E+00 -0.91825120137E+01  0.91825120137E+01  0.00000000000E+00 0.  1.
         35    2    1    2    0    0  0.00000000000E+00  0.00000000000E+00  0.20373384445E+04  0.20557034685E+04  0.27416931462E+03 0.  0.
         25    1    3    3    0    0  0.19464730633E+01  0.64765980706E+02  0.11230447359E+04  0.11312947891E+04  0.12000000000E+03 0.  0.
         25    1    3    3    0    0 -0.19464730633E+01 -0.64765980706E+02  0.91429370865E+03  0.92440867948E+03  0.12000000000E+03 0.  0.
<mgrwt>
<rscale>  0 0.27416931E+03</rscale>
<asrwt>0</asrwt>
<pdfrwt beam="1">  1        2 0.31484902E+00 0.27416931E+03</pdfrwt>
<pdfrwt beam="2">  1       -2 0.14126958E-02 0.27416931E+03</pdfrwt>
<totfact> 0.90438683E+03</totfact>
</mgrwt>
</event>
<event>
 5    1  0.1147887E+001  0.2759697E+03  0.7818608E-02  0.1097911E+00
          2   -1    0    0  501    0  0.00000000000E+00  0.00000000000E+00  0.35156007562E+03  0.35156007562E+03  0.00000000000E+00 0. -1.
         -2   -1    0    0    0  501 -0.00000000000E+00 -0.00000000000E+00 -0.54158099412E+02  0.54158099412E+02  0.00000000000E+00 0. -1.
         35    2    1    2    0    0  0.00000000000E+00  0.00000000000E+00  0.29740197621E+03  0.40571817504E+03  0.27596974852E+03 0.  0.
         25    1    3    3    0    0 -0.85523944293E+01  0.52253766742E+02  0.21169888396E+03  0.24903818394E+03  0.12000000000E+03 0.  0.
         25    1    3    3    0    0  0.85523944293E+01 -0.52253766742E+02  0.85703092253E+02  0.15667999110E+03  0.12000000000E+03 0.  0.
<mgrwt>
<rscale>  0 0.27596975E+03</rscale>
<asrwt>0</asrwt>
<pdfrwt beam="1">  1        2 0.54086164E-01 0.27596975E+03</pdfrwt>
<pdfrwt beam="2">  1       -2 0.83320155E-02 0.27596975E+03</pdfrwt>
<totfact> 0.81001164E+03</totfact>
</mgrwt>
</event>
<event>
 5    1  0.1147887E+001  0.2754268E+03  0.7818608E-02  0.1098213E+00
         -2   -1    0    0    0  501 -0.00000000000E+00  0.00000000000E+00  0.60873614406E+03  0.60873614406E+03  0.00000000000E+00 0. -1.
          2   -1    0    0  501    0  0.00000000000E+00 -0.00000000000E+00 -0.31154681723E+02  0.31154681723E+02  0.00000000000E+00 0. -1.
         35    2    1    2    0    0  0.00000000000E+00  0.00000000000E+00  0.57758146234E+03  0.63989082578E+03  0.27542680205E+03 0.  0.
         25    1    3    3    0    0 -0.41520215809E+02  0.40735196207E+02  0.20892644392E+03  0.24785790990E+03  0.12000000000E+03 0.  0.
         25    1    3    3    0    0  0.41520215809E+02 -0.40735196207E+02  0.36865501842E+03  0.39203291589E+03  0.12000000000E+03 0.  0.
<mgrwt>
<rscale>  0 0.27542680E+03</rscale>
<asrwt>0</asrwt>
<pdfrwt beam="1">  1        2 0.47930284E-02 0.27542680E+03</pdfrwt>
<pdfrwt beam="2">  1       -2 0.93651706E-01 0.27542680E+03</pdfrwt>
<totfact> 0.16583811E+03</totfact>
</mgrwt>
</event>
<event>
 5    1  0.1147887E+001  0.2747581E+03  0.7818608E-02  0.1098587E+00
          1   -1    0    0  501    0  0.00000000000E+00  0.00000000000E+00  0.53494565672E+03  0.53494565672E+03  0.00000000000E+00 0. -1.
         -1   -1    0    0    0  501 -0.00000000000E+00 -0.00000000000E+00 -0.35280219330E+02  0.35280219330E+02  0.00000000000E+00 0. -1.
         35    2    1    2    0    0  0.00000000000E+00  0.00000000000E+00  0.49966543739E+03  0.57022587605E+03  0.27475807612E+03 0.  0.
         25    1    3    3    0    0  0.21888929976E+02 -0.39617438556E+02  0.35201900761E+03  0.37465457212E+03  0.12000000000E+03 0.  0.
         25    1    3    3    0    0 -0.21888929976E+02  0.39617438556E+02  0.14764642978E+03  0.19557130393E+03  0.12000000000E+03 0.  0.
<mgrwt>
<rscale>  0 0.27475808E+03</rscale>
<asrwt>0</asrwt>
<pdfrwt beam="1">  1        1 0.82299326E-01 0.27475808E+03</pdfrwt>
<pdfrwt beam="2">  1       -1 0.54277264E-02 0.27475808E+03</pdfrwt>
<totfact> 0.63807560E+03</totfact>
</mgrwt>
</event>
<event>
 5    1  0.1147887E+001  0.2749011E+03  0.7818608E-02  0.1098507E+00
          1   -1    0    0  501    0  0.00000000000E+00  0.00000000000E+00  0.20406407840E+03  0.20406407840E+03  0.00000000000E+00 0.  1.
         -1   -1    0    0    0  501 -0.00000000000E+00 -0.00000000000E+00 -0.92581938317E+02  0.92581938317E+02  0.00000000000E+00 0.  1.
         35    2    1    2    0    0  0.00000000000E+00  0.00000000000E+00  0.11148214008E+03  0.29664601672E+03  0.27490105798E+03 0.  0.
         25    1    3    3    0    0 -0.70402624691E+01  0.59608431577E+02  0.87932256640E+02  0.16042073485E+03  0.12000000000E+03 0.  0.
         25    1    3    3    0    0  0.70402624691E+01 -0.59608431577E+02  0.23549883442E+02  0.13622528187E+03  0.12000000000E+03 0.  0.
<mgrwt>
<rscale>  0 0.27490106E+03</rscale>
<asrwt>0</asrwt>
<pdfrwt beam="1">  1        1 0.31394474E-01 0.27490106E+03</pdfrwt>
<pdfrwt beam="2">  1       -1 0.14243375E-01 0.27490106E+03</pdfrwt>
<totfact> 0.49564294E+03</totfact>
</mgrwt>
</event>
<event>
 5    1  0.1147887E+001  0.2750632E+03  0.7818608E-02  0.1098416E+00
         -2   -1    0    0    0  501 -0.00000000000E+00  0.00000000000E+00  0.55426739974E+03  0.55426739974E+03  0.00000000000E+00 0. -1.
          2   -1    0    0  501    0  0.00000000000E+00 -0.00000000000E+00 -0.34126025418E+02  0.34126025418E+02  0.00000000000E+00 0. -1.
         35    2    1    2    0    0  0.00000000000E+00  0.00000000000E+00  0.52014137432E+03  0.58839342516E+03  0.27506321726E+03 0.  0.
         25    1    3    3    0    0 -0.38054216996E+02  0.54829946484E+02  0.27670871652E+03  0.30890477539E+03  0.12000000000E+03 0.  0.
         25    1    3    3    0    0  0.38054216996E+02 -0.54829946484E+02  0.24343265780E+03  0.27948864977E+03  0.12000000000E+03 0.  0.
<mgrwt>
<rscale>  0 0.27506322E+03</rscale>
<asrwt>0</asrwt>
<pdfrwt beam="1">  1        2 0.52501582E-02 0.27506322E+03</pdfrwt>
<pdfrwt beam="2">  1       -2 0.85271901E-01 0.27506322E+03</pdfrwt>
<totfact> 0.18170699E+03</totfact>
</mgrwt>
</event>
<event>
 5    1  0.1147887E+001  0.2746556E+03  0.7818608E-02  0.1098644E+00
         -2   -1    0    0    0  501 -0.00000000000E+00  0.00000000000E+00  0.10084729673E+02  0.10084729673E+02  0.00000000000E+00 0.  1.
          2   -1    0    0  501    0  0.00000000000E+00 -0.00000000000E+00 -0.18700476817E+04  0.18700476817E+04  0.00000000000E+00 0.  1.
         35    2    1    2    0    0  0.00000000000E+00  0.00000000000E+00 -0.18599629520E+04  0.18801324114E+04  0.27465560504E+03 0.  0.
         25    1    3    3    0    0 -0.10559502992E+00  0.61510440218E+01 -0.13851414882E+04  0.13903434068E+04  0.12000000000E+03 0.  0.
         25    1    3    3    0    0  0.10559502992E+00 -0.61510440218E+01 -0.47482146388E+03  0.48978900463E+03  0.12000000000E+03 0.  0.
<mgrwt>
<rscale>  0 0.27465561E+03</rscale>
<asrwt>0</asrwt>
<pdfrwt beam="1">  1        2 0.28769986E+00 0.27465561E+03</pdfrwt>
<pdfrwt beam="2">  1       -2 0.15514957E-02 0.27465561E+03</pdfrwt>
<totfact> 0.97632000E+03</totfact>
</mgrwt>
</event>
<event>
 5    1  0.1147887E+001  0.2774362E+03  0.7818608E-02  0.1097098E+00
         -2   -1    0    0    0  501 -0.00000000000E+00  0.00000000000E+00  0.16296627317E+02  0.16296627317E+02  0.00000000000E+00 0. -1.
          2   -1    0    0  501    0  0.00000000000E+00 -0.00000000000E+00 -0.11807789865E+04  0.11807789865E+04  0.00000000000E+00 0. -1.
         35    2    1    2    0    0  0.00000000000E+00  0.00000000000E+00 -0.11644823592E+04  0.11970756138E+04  0.27743622753E+03 0.  0.
         25    1    3    3    0    0  0.27423987424E+02  0.20422334566E+02 -0.84375971158E+03  0.85293586965E+03  0.12000000000E+03 0.  0.
         25    1    3    3    0    0 -0.27423987424E+02 -0.20422334566E+02 -0.32072264760E+03  0.34413974417E+03  0.12000000000E+03 0.  0.
<mgrwt>
<rscale>  0 0.27743623E+03</rscale>
<asrwt>0</asrwt>
<pdfrwt beam="1">  1        2 0.18165832E+00 0.27743623E+03</pdfrwt>
<pdfrwt beam="2">  1       -2 0.25071733E-02 0.27743623E+03</pdfrwt>
<totfact> 0.11329030E+04</totfact>
</mgrwt>
</event>
<event>
 5    1  0.1147887E+001  0.2752906E+03  0.7818608E-02  0.1098289E+00
         -2   -1    0    0    0  501 -0.00000000000E+00  0.00000000000E+00  0.13809813196E+03  0.13809813196E+03  0.00000000000E+00 0. -1.
          2   -1    0    0  501    0  0.00000000000E+00 -0.00000000000E+00 -0.13719392094E+03  0.13719392094E+03  0.00000000000E+00 0. -1.
         35    2    1    2    0    0  0.00000000000E+00  0.00000000000E+00  0.90421101892E+00  0.27529205290E+03  0.27529056793E+03 0.  0.
         25    1    3    3    0    0  0.22814371980E+02  0.52212588671E+02 -0.35597696624E+02  0.13752761901E+03  0.12000000000E+03 0.  0.
         25    1    3    3    0    0 -0.22814371980E+02 -0.52212588671E+02  0.36501907643E+02  0.13776443389E+03  0.12000000000E+03 0.  0.
<mgrwt>
<rscale>  0 0.27529057E+03</rscale>
<asrwt>0</asrwt>
<pdfrwt beam="1">  1        2 0.21106757E-01 0.27529057E+03</pdfrwt>
<pdfrwt beam="2">  1       -2 0.21245866E-01 0.27529057E+03</pdfrwt>
<totfact> 0.49063995E+03</totfact>
</mgrwt>
</event>
<event>
 5    1  0.1147887E+001  0.2751844E+03  0.7818608E-02  0.1098349E+00
         -1   -1    0    0    0  501 -0.00000000000E+00  0.00000000000E+00  0.87614924432E+03  0.87614924432E+03  0.00000000000E+00 0. -1.
          1   -1    0    0  501    0  0.00000000000E+00 -0.00000000000E+00 -0.21607756884E+02  0.21607756884E+02  0.00000000000E+00 0. -1.
         35    2    1    2    0    0  0.00000000000E+00  0.00000000000E+00  0.85454148743E+03  0.89775700120E+03  0.27518444626E+03 0.  0.
         25    1    3    3    0    0 -0.36816853876E+02 -0.42690526661E+02  0.30724085442E+03  0.33462651482E+03  0.12000000000E+03 0.  0.
         25    1    3    3    0    0  0.36816853876E+02  0.42690526661E+02  0.54730063302E+03  0.56313048638E+03  0.12000000000E+03 0.  0.
<mgrwt>
<rscale>  0 0.27518445E+03</rscale>
<asrwt>0</asrwt>
<pdfrwt beam="1">  1        1 0.33242710E-02 0.27518445E+03</pdfrwt>
<pdfrwt beam="2">  1       -1 0.13479216E+00 0.27518445E+03</pdfrwt>
<totfact> 0.14668060E+03</totfact>
</mgrwt>
</event>
<event>
 5    1  0.1147887E+001  0.2752259E+03  0.7818608E-02  0.1098325E+00
          2   -1    0    0  501    0  0.00000000000E+00  0.00000000000E+00  0.34907546295E+04  0.34907546295E+04  0.00000000000E+00 0.  1.
         -2   -1    0    0    0  501 -0.00000000000E+00 -0.00000000000E+00 -0.54249944165E+01  0.54249944165E+01  0.00000000000E+00 0.  1.
         35    2    1    2    0    0  0.00000000000E+00  0.00000000000E+00  0.34853296351E+04  0.34961796239E+04  0.27522590267E+03 0.  0.
         25    1    3    3    0    0 -0.34063139146E+02  0.53987113519E+02  0.14695017174E+04  0.14757744419E+04  0.12000000000E+03 0.  0.
         25    1    3    3    0    0  0.34063139146E+02 -0.53987113519E+02  0.20158279177E+04  0.20204051820E+04  0.12000000000E+03 0.  0.
<mgrwt>
<rscale>  0 0.27522590E+03</rscale>
<asrwt>0</asrwt>
<pdfrwt beam="1">  1        2 0.53703738E+00 0.27522590E+03</pdfrwt>
<pdfrwt beam="2">  1       -2 0.83461731E-03 0.27522590E+03</pdfrwt>
<totfact> 0.28509121E+03</totfact>
</mgrwt>
</event>
<event>
 5    1  0.1147887E+001  0.2741883E+03  0.7818608E-02  0.1098906E+00
         -2   -1    0    0    0  501 -0.00000000000E+00  0.00000000000E+00  0.60388247727E+02  0.60388247727E+02  0.00000000000E+00 0.  1.
          2   -1    0    0  501    0  0.00000000000E+00 -0.00000000000E+00 -0.31123277669E+03  0.31123277669E+03  0.00000000000E+00 0.  1.
         35    2    1    2    0    0  0.00000000000E+00  0.00000000000E+00 -0.25084452896E+03  0.37162102442E+03  0.27418827123E+03 0.  0.
         25    1    3    3    0    0  0.28884299691E+02  0.27457234691E+02 -0.53619423891E+02  0.13734352960E+03  0.12000000000E+03 0.  0.
         25    1    3    3    0    0 -0.28884299691E+02 -0.27457234691E+02 -0.19722510507E+03  0.23427749481E+03  0.12000000000E+03 0.  0.
<mgrwt>
<rscale>  0 0.27418827E+03</rscale>
<asrwt>0</asrwt>
<pdfrwt beam="1">  1        2 0.47881965E-01 0.27418827E+03</pdfrwt>
<pdfrwt beam="2">  1       -2 0.92904997E-02 0.27418827E+03</pdfrwt>
<totfact> 0.77801743E+03</totfact>
</mgrwt>
</event>
<event>
 5    1  0.1147887E+001  0.2749583E+03  0.7818608E-02  0.1098475E+00
          2   -1    0    0  501    0  0.00000000000E+00  0.00000000000E+00  0.12595037152E+04  0.12595037152E+04  0.00000000000E+00 0. -1.
         -2   -1    0    0    0  501 -0.00000000000E+00 -0.00000000000E+00 -0.15006316005E+02  0.15006316005E+02  0.00000000000E+00 0. -1.
         35    2    1    2    0    0  0.00000000000E+00  0.00000000000E+00  0.12444973992E+04  0.12745100312E+04  0.27495825690E+03 0.  0.
         25    1    3    3    0    0  0.60444690359E+02 -0.23786433305E+02  0.54452562305E+03  0.56136219071E+03  0.12000000000E+03 0.  0.
         25    1    3    3    0    0 -0.60444690359E+02  0.23786433305E+02  0.69997177615E+03  0.71314784049E+03  0.12000000000E+03 0.  0.
<mgrwt>
<rscale>  0 0.27495826E+03</rscale>
<asrwt>0</asrwt>
<pdfrwt beam="1">  1        2 0.19376972E+00 0.27495826E+03</pdfrwt>
<pdfrwt beam="2">  1       -2 0.23086650E-02 0.27495826E+03</pdfrwt>
<totfact> 0.11549294E+04</totfact>
</mgrwt>
</event>
<event>
 5    1  0.1147887E+001  0.2750646E+03  0.7818608E-02  0.1098415E+00
          2   -1    0    0  501    0  0.00000000000E+00  0.00000000000E+00  0.46656393375E+04  0.46656393375E+04  0.00000000000E+00 0. -1.
         -2   -1    0    0    0  501 -0.00000000000E+00 -0.00000000000E+00 -0.40541350542E+01  0.40541350542E+01  0.00000000000E+00 0. -1.
         35    2    1    2    0    0  0.00000000000E+00  0.00000000000E+00  0.46615852024E+04  0.46696934725E+04  0.27506458869E+03 0.  0.
         25    1    3    3    0    0  0.20674527633E+02  0.38937674378E+02  0.14698950663E+04  0.14754440296E+04  0.12000000000E+03 0.  0.
         25    1    3    3    0    0 -0.20674527633E+02 -0.38937674378E+02  0.31916901361E+04  0.31942494429E+04  0.12000000000E+03 0.  0.
<mgrwt>
<rscale>  0 0.27506459E+03</rscale>
<asrwt>0</asrwt>
<pdfrwt beam="1">  1        2 0.71778637E+00 0.27506459E+03</pdfrwt>
<pdfrwt beam="2">  1       -2 0.62371682E-03 0.27506459E+03</pdfrwt>
<totfact> 0.49659429E+02</totfact>
</mgrwt>
</event>
<event>
 5    1  0.1147887E+001  0.2752722E+03  0.7818608E-02  0.1098300E+00
         -2   -1    0    0    0  501 -0.00000000000E+00  0.00000000000E+00  0.48723856524E+02  0.48723856524E+02  0.00000000000E+00 0. -1.
          2   -1    0    0  501    0  0.00000000000E+00 -0.00000000000E+00 -0.38879707604E+03  0.38879707604E+03  0.00000000000E+00 0. -1.
         35    2    1    2    0    0  0.00000000000E+00  0.00000000000E+00 -0.34007321952E+03  0.43752093257E+03  0.27527217767E+03 0.  0.
         25    1    3    3    0    0 -0.12664610262E+02  0.84336068598E+01 -0.65664442935E+02  0.13763479627E+03  0.12000000000E+03 0.  0.
         25    1    3    3    0    0  0.12664610262E+02 -0.84336068598E+01 -0.27440877659E+03  0.29988613630E+03  0.12000000000E+03 0.  0.
<mgrwt>
<rscale>  0 0.27527218E+03</rscale>
<asrwt>0</asrwt>
<pdfrwt beam="1">  1        2 0.59814936E-01 0.27527218E+03</pdfrwt>
<pdfrwt beam="2">  1       -2 0.74959778E-02 0.27527218E+03</pdfrwt>
<totfact> 0.85670437E+03</totfact>
</mgrwt>
</event>
<event>
 5    1  0.1147887E+001  0.2734467E+03  0.7818608E-02  0.1099323E+00
          1   -1    0    0  501    0  0.00000000000E+00  0.00000000000E+00  0.16660440164E+03  0.16660440164E+03  0.00000000000E+00 0. -1.
         -1   -1    0    0    0  501 -0.00000000000E+00 -0.00000000000E+00 -0.11220153557E+03  0.11220153557E+03  0.00000000000E+00 0. -1.
         35    2    1    2    0    0  0.00000000000E+00  0.00000000000E+00  0.54402866068E+02  0.27880593721E+03  0.27344666534E+03 0.  0.
         25    1    3    3    0    0 -0.34472980753E+02 -0.18894853226E+02 -0.26246055780E+02  0.12897386295E+03  0.12000000000E+03 0.  0.
         25    1    3    3    0    0  0.34472980753E+02  0.18894853226E+02  0.80648921848E+02  0.14983207426E+03  0.12000000000E+03 0.  0.
<mgrwt>
<rscale>  0 0.27344667E+03</rscale>
<asrwt>0</asrwt>
<pdfrwt beam="1">  1        1 0.25631446E-01 0.27344667E+03</pdfrwt>
<pdfrwt beam="2">  1       -1 0.17261775E-01 0.27344667E+03</pdfrwt>
<totfact> 0.47163920E+03</totfact>
</mgrwt>
</event>
<event>
 5    1  0.1147887E+001  0.2746045E+03  0.7818608E-02  0.1098673E+00
         -2   -1    0    0    0  501 -0.00000000000E+00  0.00000000000E+00  0.39378133407E+03  0.39378133407E+03  0.00000000000E+00 0.  1.
          2   -1    0    0  501    0  0.00000000000E+00 -0.00000000000E+00 -0.47874052249E+02  0.47874052249E+02  0.00000000000E+00 0.  1.
         35    2    1    2    0    0  0.00000000000E+00  0.00000000000E+00  0.34590728182E+03  0.44165538632E+03  0.27460450223E+03 0.  0.
         25    1    3    3    0    0  0.94820543485E+01 -0.65555116958E+02  0.18587301257E+03  0.23094622646E+03  0.12000000000E+03 0.  0.
         25    1    3    3    0    0 -0.94820543485E+01  0.65555116958E+02  0.16003426926E+03  0.21070915986E+03  0.12000000000E+03 0.  0.
<mgrwt>
<rscale>  0 0.27460450E+03</rscale>
<asrwt>0</asrwt>
<pdfrwt beam="1">  1        2 0.73652391E-02 0.27460450E+03</pdfrwt>
<pdfrwt beam="2">  1       -2 0.60581742E-01 0.27460450E+03</pdfrwt>
<totfact> 0.24442013E+03</totfact>
</mgrwt>
</event>
<event>
 5    1  0.1147887E+001  0.2727137E+03  0.7818608E-02  0.1099736E+00
         -2   -1    0    0    0  501 -0.00000000000E+00  0.00000000000E+00  0.12865490919E+03  0.12865490919E+03  0.00000000000E+00 0. -1.
          2   -1    0    0  501    0  0.00000000000E+00 -0.00000000000E+00 -0.14451986849E+03  0.14451986849E+03  0.00000000000E+00 0. -1.
         35    2    1    2    0    0  0.00000000000E+00  0.00000000000E+00 -0.15864959299E+02  0.27317477768E+03  0.27271370011E+03 0.  0.
         25    1    3    3    0    0 -0.33519010600E+02 -0.39221994801E+02  0.31265529676E+02  0.13431091651E+03  0.12000000000E+03 0.  0.
         25    1    3    3    0    0  0.33519010600E+02  0.39221994801E+02 -0.47130488975E+02  0.13886386117E+03  0.12000000000E+03 0.  0.
<mgrwt>
<rscale>  0 0.27271370E+03</rscale>
<asrwt>0</asrwt>
<pdfrwt beam="1">  1        2 0.22233826E-01 0.27271370E+03</pdfrwt>
<pdfrwt beam="2">  1       -2 0.19793063E-01 0.27271370E+03</pdfrwt>
<totfact> 0.52212789E+03</totfact>
</mgrwt>
</event>
<event>
 5    1  0.1147887E+001  0.2751149E+03  0.7818608E-02  0.1098387E+00
          1   -1    0    0  501    0  0.00000000000E+00  0.00000000000E+00  0.92140514929E+03  0.92140514929E+03  0.00000000000E+00 0. -1.
         -1   -1    0    0    0  501 -0.00000000000E+00 -0.00000000000E+00 -0.20536081089E+02  0.20536081089E+02  0.00000000000E+00 0. -1.
         35    2    1    2    0    0  0.00000000000E+00  0.00000000000E+00  0.90086906820E+03  0.94194123038E+03  0.27511489136E+03 0.  0.
         25    1    3    3    0    0  0.34141202001E+02  0.31188987836E+02  0.28327415740E+03  0.31109905639E+03  0.12000000000E+03 0.  0.
         25    1    3    3    0    0 -0.34141202001E+02 -0.31188987836E+02  0.61759491081E+03  0.63084217399E+03  0.12000000000E+03 0.  0.
<mgrwt>
<rscale>  0 0.27511489E+03</rscale>
<asrwt>0</asrwt>
<pdfrwt beam="1">  1        1 0.14175461E+00 0.27511489E+03</pdfrwt>
<pdfrwt beam="2">  1       -1 0.31593978E-02 0.27511489E+03</pdfrwt>
<totfact> 0.64110972E+03</totfact>
</mgrwt>
</event>
<event>
 5    1  0.1147887E+001  0.2751652E+03  0.7818608E-02  0.1098359E+00
         -2   -1    0    0    0  501 -0.00000000000E+00  0.00000000000E+00  0.14697428825E+02  0.14697428825E+02  0.00000000000E+00 0.  1.
          2   -1    0    0  501    0  0.00000000000E+00 -0.00000000000E+00 -0.12879100032E+04  0.12879100032E+04  0.00000000000E+00 0.  1.
         35    2    1    2    0    0  0.00000000000E+00  0.00000000000E+00 -0.12732125743E+04  0.13026074320E+04  0.27516515481E+03 0.  0.
         25    1    3    3    0    0  0.57340639443E+02  0.35097752101E+02 -0.65093719856E+03  0.66531123364E+03  0.12000000000E+03 0.  0.
         25    1    3    3    0    0 -0.57340639443E+02 -0.35097752101E+02 -0.62227537579E+03  0.63729619836E+03  0.12000000000E+03 0.  0.
<mgrwt>
<rscale>  0 0.27516515E+03</rscale>
<asrwt>0</asrwt>
<pdfrwt beam="1">  1        2 0.19814005E+00 0.27516515E+03</pdfrwt>
<pdfrwt beam="2">  1       -2 0.22611424E-02 0.27516515E+03</pdfrwt>
<totfact> 0.11483388E+04</totfact>
</mgrwt>
</event>
<event>
 5    1  0.1147887E+001  0.2755031E+03  0.7818608E-02  0.1098171E+00
          2   -1    0    0  501    0  0.00000000000E+00  0.00000000000E+00  0.63711468420E+03  0.63711468420E+03  0.00000000000E+00 0.  1.
         -2   -1    0    0    0  501 -0.00000000000E+00 -0.00000000000E+00 -0.29783470000E+02  0.29783470000E+02  0.00000000000E+00 0.  1.
         35    2    1    2    0    0  0.00000000000E+00  0.00000000000E+00  0.60733121420E+03  0.66689815420E+03  0.27550307500E+03 0.  0.
         25    1    3    3    0    0  0.42949805696E+01  0.33062097686E+02  0.16119736936E+03  0.20370601624E+03  0.12000000000E+03 0.  0.
         25    1    3    3    0    0 -0.42949805696E+01 -0.33062097686E+02  0.44613384484E+03  0.46319213796E+03  0.12000000000E+03 0.  0.
<mgrwt>
<rscale>  0 0.27550307E+03</rscale>
<asrwt>0</asrwt>
<pdfrwt beam="1">  1        2 0.98017633E-01 0.27550307E+03</pdfrwt>
<pdfrwt beam="2">  1       -2 0.45820728E-02 0.27550307E+03</pdfrwt>
<totfact> 0.10465824E+04</totfact>
</mgrwt>
</event>
<event>
 5    1  0.1147887E+001  0.2750591E+03  0.7818608E-02  0.1098419E+00
          2   -1    0    0  501    0  0.00000000000E+00  0.00000000000E+00  0.71010596654E+02  0.71010596654E+02  0.00000000000E+00 0.  1.
         -2   -1    0    0    0  501 -0.00000000000E+00 -0.00000000000E+00 -0.26635985918E+03  0.26635985918E+03  0.00000000000E+00 0.  1.
         35    2    1    2    0    0  0.00000000000E+00  0.00000000000E+00 -0.19534926253E+03  0.33737045584E+03  0.27505906657E+03 0.  0.
         25    1    3    3    0    0 -0.20504560224E+02  0.18466802951E+01 -0.17612059901E+03  0.21410817970E+03  0.12000000000E+03 0.  0.
         25    1    3    3    0    0  0.20504560224E+02 -0.18466802951E+01 -0.19228663518E+02  0.12326227614E+03  0.12000000000E+03 0.  0.
<mgrwt>
<rscale>  0 0.27505907E+03</rscale>
<asrwt>0</asrwt>
<pdfrwt beam="1">  1        2 0.10924707E-01 0.27505907E+03</pdfrwt>
<pdfrwt beam="2">  1       -2 0.40978441E-01 0.27505907E+03</pdfrwt>
<totfact> 0.32487835E+03</totfact>
</mgrwt>
</event>
<event>
 5    1  0.1147887E+001  0.2777824E+03  0.7818608E-02  0.1096906E+00
         -2   -1    0    0    0  501 -0.00000000000E+00  0.00000000000E+00  0.26796792047E+03  0.26796792047E+03  0.00000000000E+00 0.  1.
          2   -1    0    0  501    0  0.00000000000E+00 -0.00000000000E+00 -0.71989060664E+02  0.71989060664E+02  0.00000000000E+00 0.  1.
         35    2    1    2    0    0  0.00000000000E+00  0.00000000000E+00  0.19597885981E+03  0.33995698113E+03  0.27778235281E+03 0.  0.
         25    1    3    3    0    0 -0.60526906724E+01  0.21025622156E+00  0.12724044515E+02  0.12082458600E+03  0.12000000000E+03 0.  0.
         25    1    3    3    0    0  0.60526906724E+01 -0.21025622156E+00  0.18325481529E+03  0.21913239514E+03  0.12000000000E+03 0.  0.
<mgrwt>
<rscale>  0 0.27778235E+03</rscale>
<asrwt>0</asrwt>
<pdfrwt beam="1">  1        2 0.11075240E-01 0.27778235E+03</pdfrwt>
<pdfrwt beam="2">  1       -2 0.41225833E-01 0.27778235E+03</pdfrwt>
<totfact> 0.31588120E+03</totfact>
</mgrwt>
</event>
<event>
 5    1  0.1147887E+001  0.2745849E+03  0.7818608E-02  0.1098684E+00
          2   -1    0    0  501    0  0.00000000000E+00  0.00000000000E+00  0.18291450130E+04  0.18291450130E+04  0.00000000000E+00 0. -1.
         -2   -1    0    0    0  501 -0.00000000000E+00 -0.00000000000E+00 -0.10304935017E+02  0.10304935017E+02  0.00000000000E+00 0. -1.
         35    2    1    2    0    0  0.00000000000E+00  0.00000000000E+00  0.18188400780E+04  0.18394499481E+04  0.27458492673E+03 0.  0.
         25    1    3    3    0    0 -0.52985998716E+02  0.37013084097E+02  0.79899059005E+03  0.81053281700E+03  0.12000000000E+03 0.  0.
         25    1    3    3    0    0  0.52985998716E+02 -0.37013084097E+02  0.10198494880E+04  0.10289171311E+04  0.12000000000E+03 0.  0.
<mgrwt>
<rscale>  0 0.27458493E+03</rscale>
<asrwt>0</asrwt>
<pdfrwt beam="1">  1        2 0.28140667E+00 0.27458493E+03</pdfrwt>
<pdfrwt beam="2">  1       -2 0.15853761E-02 0.27458493E+03</pdfrwt>
<totfact> 0.99385649E+03</totfact>
</mgrwt>
</event>
<event>
 5    1  0.1147887E+001  0.2754124E+03  0.7818608E-02  0.1098221E+00
         -2   -1    0    0    0  501 -0.00000000000E+00  0.00000000000E+00  0.40489730103E+02  0.40489730103E+02  0.00000000000E+00 0. -1.
          2   -1    0    0  501    0  0.00000000000E+00 -0.00000000000E+00 -0.46834100246E+03  0.46834100246E+03  0.00000000000E+00 0. -1.
         35    2    1    2    0    0  0.00000000000E+00  0.00000000000E+00 -0.42785127236E+03  0.50883073256E+03  0.27541242373E+03 0.  0.
         25    1    3    3    0    0  0.40352881352E+00  0.20075320449E+02 -0.94766581818E+02  0.15422025274E+03  0.12000000000E+03 0.  0.
         25    1    3    3    0    0 -0.40352881352E+00 -0.20075320449E+02 -0.33308469054E+03  0.35461047982E+03  0.12000000000E+03 0.  0.
<mgrwt>
<rscale>  0 0.27541242E+03</rscale>
<asrwt>0</asrwt>
<pdfrwt beam="1">  1        2 0.72052466E-01 0.27541242E+03</pdfrwt>
<pdfrwt beam="2">  1       -2 0.62291889E-02 0.27541242E+03</pdfrwt>
<totfact> 0.93040918E+03</totfact>
</mgrwt>
</event>
<event>
 5    1  0.1147887E+001  0.2680097E+03  0.7818608E-02  0.1102424E+00
         -1   -1    0    0    0  501 -0.00000000000E+00  0.00000000000E+00  0.13474145004E+02  0.13474145004E+02  0.00000000000E+00 0. -1.
          1   -1    0    0  501    0  0.00000000000E+00 -0.00000000000E+00 -0.13327229457E+04  0.13327229457E+04  0.00000000000E+00 0. -1.
         35    2    1    2    0    0  0.00000000000E+00  0.00000000000E+00 -0.13192488007E+04  0.13461970907E+04  0.26800971789E+03 0.  0.
         25    1    3    3    0    0 -0.25833340131E+02  0.48409509879E+02 -0.77704311963E+03  0.78816676653E+03  0.12000000000E+03 0.  0.
         25    1    3    3    0    0  0.25833340131E+02 -0.48409509879E+02 -0.54220568104E+03  0.55803032414E+03  0.12000000000E+03 0.  0.
<mgrwt>
<rscale>  0 0.26800972E+03</rscale>
<asrwt>0</asrwt>
<pdfrwt beam="1">  1        1 0.20503427E+00 0.26800972E+03</pdfrwt>
<pdfrwt beam="2">  1       -1 0.20729457E-02 0.26800972E+03</pdfrwt>
<totfact> 0.60267819E+03</totfact>
</mgrwt>
</event>
<event>
 5    1  0.1147887E+001  0.2751556E+03  0.7818608E-02  0.1098365E+00
          1   -1    0    0  501    0  0.00000000000E+00  0.00000000000E+00  0.39291549199E+03  0.39291549199E+03  0.00000000000E+00 0. -1.
         -1   -1    0    0    0  501 -0.00000000000E+00 -0.00000000000E+00 -0.48172325176E+02  0.48172325176E+02  0.00000000000E+00 0. -1.
         35    2    1    2    0    0  0.00000000000E+00  0.00000000000E+00  0.34474316682E+03  0.44108781717E+03  0.27515561304E+03 0.  0.
         25    1    3    3    0    0 -0.76028469450E+01 -0.95703472164E+01  0.27844275407E+03  0.30344647324E+03  0.12000000000E+03 0.  0.
         25    1    3    3    0    0  0.76028469450E+01  0.95703472164E+01  0.66300412742E+02  0.13764134392E+03  0.12000000000E+03 0.  0.
<mgrwt>
<rscale>  0 0.27515561E+03</rscale>
<asrwt>0</asrwt>
<pdfrwt beam="1">  1        1 0.60448535E-01 0.27515561E+03</pdfrwt>
<pdfrwt beam="2">  1       -1 0.74111272E-02 0.27515561E+03</pdfrwt>
<totfact> 0.59690659E+03</totfact>
</mgrwt>
</event>
<event>
 5    1  0.1147887E+001  0.2749900E+03  0.7818608E-02  0.1098457E+00
          2   -1    0    0  501    0  0.00000000000E+00  0.00000000000E+00  0.32129580567E+04  0.32129580567E+04  0.00000000000E+00 0. -1.
         -2   -1    0    0    0  501 -0.00000000000E+00 -0.00000000000E+00 -0.58839477518E+01  0.58839477518E+01  0.00000000000E+00 0. -1.
         35    2    1    2    0    0  0.00000000000E+00  0.00000000000E+00  0.32070741090E+04  0.32188420045E+04  0.27499001680E+03 0.  0.
         25    1    3    3    0    0  0.25126102273E+02 -0.33992883053E+02  0.99328300212E+03  0.10013980025E+04  0.12000000000E+03 0.  0.
         25    1    3    3    0    0 -0.25126102273E+02  0.33992883053E+02  0.22137911068E+04  0.22174440020E+04  0.12000000000E+03 0.  0.
<mgrwt>
<rscale>  0 0.27499002E+03</rscale>
<asrwt>0</asrwt>
<pdfrwt beam="1">  1        2 0.49429984E+00 0.27499002E+03</pdfrwt>
<pdfrwt beam="2">  1       -2 0.90522530E-03 0.27499002E+03</pdfrwt>
<totfact> 0.38145723E+03</totfact>
</mgrwt>
</event>
<event>
 5    1  0.1147887E+001  0.2753388E+03  0.7818608E-02  0.1098262E+00
         -4   -1    0    0    0  501 -0.00000000000E+00  0.00000000000E+00  0.62042180573E+03  0.62042180573E+03  0.00000000000E+00 0.  1.
          4   -1    0    0  501    0  0.00000000000E+00 -0.00000000000E+00 -0.30548349253E+02  0.30548349253E+02  0.00000000000E+00 0.  1.
         35    2    1    2    0    0  0.00000000000E+00  0.00000000000E+00  0.58987345647E+03  0.65097015498E+03  0.27533878772E+03 0.  0.
         25    1    3    3    0    0 -0.63891862677E+02  0.53975594659E+01  0.24525603134E+03  0.28046715435E+03  0.12000000000E+03 0.  0.
         25    1    3    3    0    0  0.63891862677E+02 -0.53975594659E+01  0.34461742514E+03  0.37050300062E+03  0.12000000000E+03 0.  0.
<mgrwt>
<rscale>  0 0.27533879E+03</rscale>
<asrwt>0</asrwt>
<pdfrwt beam="1">  1        4 0.46997465E-02 0.27533879E+03</pdfrwt>
<pdfrwt beam="2">  1       -4 0.95449499E-01 0.27533879E+03</pdfrwt>
<totfact> 0.47039288E+02</totfact>
</mgrwt>
</event>
<event>
 5    1  0.1147887E+001  0.2752043E+03  0.7818608E-02  0.1098337E+00
          1   -1    0    0  501    0  0.00000000000E+00  0.00000000000E+00  0.58770007692E+03  0.58770007692E+03  0.00000000000E+00 0.  1.
         -1   -1    0    0    0  501 -0.00000000000E+00 -0.00000000000E+00 -0.32217719378E+02  0.32217719378E+02  0.00000000000E+00 0.  1.
         35    2    1    2    0    0  0.00000000000E+00  0.00000000000E+00  0.55548235754E+03  0.61991779630E+03  0.27520433250E+03 0.  0.
         25    1    3    3    0    0 -0.30901928417E+02  0.38818497915E+02  0.17519216901E+03  0.21806902816E+03  0.12000000000E+03 0.  0.
         25    1    3    3    0    0  0.30901928417E+02 -0.38818497915E+02  0.38029018853E+03  0.40184876813E+03  0.12000000000E+03 0.  0.
<mgrwt>
<rscale>  0 0.27520433E+03</rscale>
<asrwt>0</asrwt>
<pdfrwt beam="1">  1        1 0.90415388E-01 0.27520433E+03</pdfrwt>
<pdfrwt beam="2">  1       -1 0.49565727E-02 0.27520433E+03</pdfrwt>
<totfact> 0.64317465E+03</totfact>
</mgrwt>
</event>
<event>
 5    1  0.1147887E+001  0.2774644E+03  0.7818608E-02  0.1097082E+00
         -2   -1    0    0    0  501 -0.00000000000E+00  0.00000000000E+00  0.11575258473E+03  0.11575258473E+03  0.00000000000E+00 0.  1.
          2   -1    0    0  501    0  0.00000000000E+00 -0.00000000000E+00 -0.16627379891E+03  0.16627379891E+03  0.00000000000E+00 0.  1.
         35    2    1    2    0    0  0.00000000000E+00  0.00000000000E+00 -0.50521214180E+02  0.28202638365E+03  0.27746439049E+03 0.  0.
         25    1    3    3    0    0  0.23708629358E+02 -0.25506087595E+02  0.36012894333E+02  0.13003687234E+03  0.12000000000E+03 0.  0.
         25    1    3    3    0    0 -0.23708629358E+02  0.25506087595E+02 -0.86534108513E+02  0.15198951130E+03  0.12000000000E+03 0.  0.
<mgrwt>
<rscale>  0 0.27746439E+03</rscale>
<asrwt>0</asrwt>
<pdfrwt beam="1">  1        2 0.25580584E-01 0.27746439E+03</pdfrwt>
<pdfrwt beam="2">  1       -2 0.17808090E-01 0.27746439E+03</pdfrwt>
<totfact> 0.53396354E+03</totfact>
</mgrwt>
</event>
<event>
 5    1  0.1147887E+001  0.2748133E+03  0.7818608E-02  0.1098556E+00
         -1   -1    0    0    0  501 -0.00000000000E+00  0.00000000000E+00  0.57800459857E+02  0.57800459857E+02  0.00000000000E+00 0.  1.
          1   -1    0    0  501    0  0.00000000000E+00 -0.00000000000E+00 -0.32665108534E+03  0.32665108534E+03  0.00000000000E+00 0.  1.
         35    2    1    2    0    0  0.00000000000E+00  0.00000000000E+00 -0.26885062548E+03  0.38445154519E+03  0.27481326711E+03 0.  0.
         25    1    3    3    0    0 -0.62921862089E+01  0.71950150454E+01 -0.41742811978E+02  0.12741201749E+03  0.12000000000E+03 0.  0.
         25    1    3    3    0    0  0.62921862089E+01 -0.71950150454E+01 -0.22710781350E+03  0.25703952770E+03  0.12000000000E+03 0.  0.
<mgrwt>
<rscale>  0 0.27481327E+03</rscale>
<asrwt>0</asrwt>
<pdfrwt beam="1">  1        1 0.50254014E-01 0.27481327E+03</pdfrwt>
<pdfrwt beam="2">  1       -1 0.88923782E-02 0.27481327E+03</pdfrwt>
<totfact> 0.57127733E+03</totfact>
</mgrwt>
</event>
<event>
 5    1  0.1147887E+001  0.2753545E+03  0.7818608E-02  0.1098254E+00
         -1   -1    0    0    0  501 -0.00000000000E+00  0.00000000000E+00  0.90063995413E+02  0.90063995413E+02  0.00000000000E+00 0.  1.
          1   -1    0    0  501    0  0.00000000000E+00 -0.00000000000E+00 -0.21046179430E+03  0.21046179430E+03  0.00000000000E+00 0.  1.
         35    2    1    2    0    0  0.00000000000E+00  0.00000000000E+00 -0.12039779889E+03  0.30052578971E+03  0.27535453565E+03 0.  0.
         25    1    3    3    0    0 -0.20178823569E+02 -0.63814301959E+02 -0.69687300150E+02  0.15406417448E+03  0.12000000000E+03 0.  0.
         25    1    3    3    0    0  0.20178823569E+02  0.63814301959E+02 -0.50710498735E+02  0.14646161523E+03  0.12000000000E+03 0.  0.
<mgrwt>
<rscale>  0 0.27535454E+03</rscale>
<asrwt>0</asrwt>
<pdfrwt beam="1">  1        1 0.32378737E-01 0.27535454E+03</pdfrwt>
<pdfrwt beam="2">  1       -1 0.13856000E-01 0.27535454E+03</pdfrwt>
<totfact> 0.49798755E+03</totfact>
</mgrwt>
</event>
<event>
 5    1  0.1147887E+001  0.2739027E+03  0.7818608E-02  0.1099067E+00
         -3   -1    0    0    0  501 -0.00000000000E+00  0.00000000000E+00  0.93454130708E+02  0.93454130708E+02  0.00000000000E+00 0.  1.
          3   -1    0    0  501    0  0.00000000000E+00 -0.00000000000E+00 -0.20069381331E+03  0.20069381331E+03  0.00000000000E+00 0.  1.
         35    2    1    2    0    0  0.00000000000E+00  0.00000000000E+00 -0.10723968260E+03  0.29414794402E+03  0.27390265323E+03 0.  0.
         25    1    3    3    0    0  0.15401710817E+02  0.10635688810E+02  0.14345736990E+02  0.12229526051E+03  0.12000000000E+03 0.  0.
         25    1    3    3    0    0 -0.15401710817E+02 -0.10635688810E+02 -0.12158541959E+03  0.17185268351E+03  0.12000000000E+03 0.  0.
<mgrwt>
<rscale>  0 0.27390265E+03</rscale>
<asrwt>0</asrwt>
<pdfrwt beam="1">  1        3 0.30875971E-01 0.27390265E+03</pdfrwt>
<pdfrwt beam="2">  1       -3 0.14377559E-01 0.27390265E+03</pdfrwt>
<totfact> 0.10328101E+03</totfact>
</mgrwt>
</event>
<event>
 5    1  0.1147887E+001  0.2724314E+03  0.7818608E-02  0.1099896E+00
         -2   -1    0    0    0  501 -0.00000000000E+00  0.00000000000E+00  0.30266111483E+02  0.30266111483E+02  0.00000000000E+00 0. -1.
          2   -1    0    0  501    0  0.00000000000E+00 -0.00000000000E+00 -0.61305250152E+03  0.61305250152E+03  0.00000000000E+00 0. -1.
         35    2    1    2    0    0  0.00000000000E+00  0.00000000000E+00 -0.58278639004E+03  0.64331861301E+03  0.27243138847E+03 0.  0.
         25    1    3    3    0    0 -0.46540657007E+02  0.28156541054E+01 -0.39648874324E+03  0.41686602665E+03  0.12000000000E+03 0.  0.
         25    1    3    3    0    0  0.46540657007E+02 -0.28156541054E+01 -0.18629764680E+03  0.22645258635E+03  0.12000000000E+03 0.  0.
<mgrwt>
<rscale>  0 0.27243139E+03</rscale>
<asrwt>0</asrwt>
<pdfrwt beam="1">  1        2 0.94315765E-01 0.27243139E+03</pdfrwt>
<pdfrwt beam="2">  1       -2 0.46563250E-02 0.27243139E+03</pdfrwt>
<totfact> 0.10681818E+04</totfact>
</mgrwt>
</event>
<event>
 5    1  0.1147887E+001  0.2759915E+03  0.7818608E-02  0.1097899E+00
          2   -1    0    0  501    0  0.00000000000E+00  0.00000000000E+00  0.21152919963E+03  0.21152919963E+03  0.00000000000E+00 0.  1.
         -2   -1    0    0    0  501 -0.00000000000E+00 -0.00000000000E+00 -0.90024562362E+02  0.90024562362E+02  0.00000000000E+00 0.  1.
         35    2    1    2    0    0  0.00000000000E+00  0.00000000000E+00  0.12150463727E+03  0.30155376199E+03  0.27599147540E+03 0.  0.
         25    1    3    3    0    0  0.69325243406E+01 -0.57476546785E+02  0.10001388061E+03  0.16659648747E+03  0.12000000000E+03 0.  0.
         25    1    3    3    0    0 -0.69325243406E+01  0.57476546785E+02  0.21490756660E+02  0.13495727452E+03  0.12000000000E+03 0.  0.
<mgrwt>
<rscale>  0 0.27599148E+03</rscale>
<asrwt>0</asrwt>
<pdfrwt beam="1">  1        2 0.32542954E-01 0.27599148E+03</pdfrwt>
<pdfrwt beam="2">  1       -2 0.13849933E-01 0.27599148E+03</pdfrwt>
<totfact> 0.62166048E+03</totfact>
</mgrwt>
</event>
<event>
 5    1  0.1147887E+001  0.2767167E+03  0.7818608E-02  0.1097496E+00
         -2   -1    0    0    0  501 -0.00000000000E+00  0.00000000000E+00  0.39058059040E+02  0.39058059040E+02  0.00000000000E+00 0. -1.
          2   -1    0    0  501    0  0.00000000000E+00 -0.00000000000E+00 -0.49011724717E+03  0.49011724717E+03  0.00000000000E+00 0. -1.
         35    2    1    2    0    0  0.00000000000E+00  0.00000000000E+00 -0.45105918813E+03  0.52917530621E+03  0.27671666648E+03 0.  0.
         25    1    3    3    0    0 -0.39087851658E+02 -0.10432795777E+02 -0.11894665335E+03  0.17373833693E+03  0.12000000000E+03 0.  0.
         25    1    3    3    0    0  0.39087851658E+02  0.10432795777E+02 -0.33211253478E+03  0.35543696928E+03  0.12000000000E+03 0.  0.
<mgrwt>
<rscale>  0 0.27671667E+03</rscale>
<asrwt>0</asrwt>
<pdfrwt beam="1">  1        2 0.75402652E-01 0.27671667E+03</pdfrwt>
<pdfrwt beam="2">  1       -2 0.60089323E-02 0.27671667E+03</pdfrwt>
<totfact> 0.93505020E+03</totfact>
</mgrwt>
</event>
<event>
 5    1  0.1147887E+001  0.2746774E+03  0.7818608E-02  0.1098632E+00
          3   -1    0    0  501    0  0.00000000000E+00  0.00000000000E+00  0.71060132182E+02  0.71060132182E+02  0.00000000000E+00 0. -1.
         -3   -1    0    0    0  501 -0.00000000000E+00 -0.00000000000E+00 -0.26543599101E+03  0.26543599101E+03  0.00000000000E+00 0. -1.
         35    2    1    2    0    0  0.00000000000E+00  0.00000000000E+00 -0.19437585882E+03  0.33649612319E+03  0.27467738609E+03 0.  0.
         25    1    3    3    0    0 -0.31062579763E+02 -0.33736672463E+02 -0.37689002528E+02  0.13387870571E+03  0.12000000000E+03 0.  0.
         25    1    3    3    0    0  0.31062579763E+02  0.33736672463E+02 -0.15668685630E+03  0.20261741748E+03  0.12000000000E+03 0.  0.
<mgrwt>
<rscale>  0 0.27467739E+03</rscale>
<asrwt>0</asrwt>
<pdfrwt beam="1">  1        3 0.10932328E-01 0.27467739E+03</pdfrwt>
<pdfrwt beam="2">  1       -3 0.40836306E-01 0.27467739E+03</pdfrwt>
<totfact> 0.96398201E+02</totfact>
</mgrwt>
</event>
<event>
 5    1  0.1147887E+001  0.2750284E+03  0.7818608E-02  0.1098436E+00
         -1   -1    0    0    0  501 -0.00000000000E+00  0.00000000000E+00  0.95263681553E+01  0.95263681553E+01  0.00000000000E+00 0. -1.
          1   -1    0    0  501    0  0.00000000000E+00 -0.00000000000E+00 -0.19850336841E+04  0.19850336841E+04  0.00000000000E+00 0. -1.
         35    2    1    2    0    0  0.00000000000E+00  0.00000000000E+00 -0.19755073160E+04  0.19945600523E+04  0.27502844708E+03 0.  0.
         25    1    3    3    0    0  0.12182074539E+02  0.26759902688E+01 -0.50918580200E+03  0.52328361795E+03  0.12000000000E+03 0.  0.
         25    1    3    3    0    0 -0.12182074539E+02 -0.26759902688E+01 -0.14663215140E+04  0.14712764343E+04  0.12000000000E+03 0.  0.
<mgrwt>
<rscale>  0 0.27502845E+03</rscale>
<asrwt>0</asrwt>
<pdfrwt beam="1">  1        1 0.30539013E+00 0.27502845E+03</pdfrwt>
<pdfrwt beam="2">  1       -1 0.14655935E-02 0.27502845E+03</pdfrwt>
<totfact> 0.37247787E+03</totfact>
</mgrwt>
</event>
<event>
 5    1  0.1147887E+001  0.2750985E+03  0.7818608E-02  0.1098397E+00
         -1   -1    0    0    0  501 -0.00000000000E+00  0.00000000000E+00  0.70077050839E+01  0.70077050839E+01  0.00000000000E+00 0. -1.
          1   -1    0    0  501    0  0.00000000000E+00 -0.00000000000E+00 -0.26998554079E+04  0.26998554079E+04  0.00000000000E+00 0. -1.
         35    2    1    2    0    0  0.00000000000E+00  0.00000000000E+00 -0.26928477028E+04  0.27068631130E+04  0.27509845850E+03 0.  0.
         25    1    3    3    0    0  0.31463721297E+02  0.59405099009E+02 -0.13555430116E+04  0.13625035001E+04  0.12000000000E+03 0.  0.
         25    1    3    3    0    0 -0.31463721297E+02 -0.59405099009E+02 -0.13373046912E+04  0.13443596128E+04  0.12000000000E+03 0.  0.
<mgrwt>
<rscale>  0 0.27509846E+03</rscale>
<asrwt>0</asrwt>
<pdfrwt beam="1">  1        1 0.41536239E+00 0.27509846E+03</pdfrwt>
<pdfrwt beam="2">  1       -1 0.10781084E-02 0.27509846E+03</pdfrwt>
<totfact> 0.19642077E+03</totfact>
</mgrwt>
</event>
<event>
 5    1  0.1147887E+001  0.2699248E+03  0.7818608E-02  0.1101323E+00
         -2   -1    0    0    0  501 -0.00000000000E+00  0.00000000000E+00  0.11739022995E+02  0.11739022995E+02  0.00000000000E+00 0.  1.
          2   -1    0    0  501    0  0.00000000000E+00 -0.00000000000E+00 -0.15516494381E+04  0.15516494381E+04  0.00000000000E+00 0.  1.
         35    2    1    2    0    0  0.00000000000E+00  0.00000000000E+00 -0.15399104151E+04  0.15633884611E+04  0.26992479275E+03 0.  0.
         25    1    3    3    0    0  0.57539156397E+02 -0.79181480805E+01 -0.64826973334E+03  0.66183615703E+03  0.12000000000E+03 0.  0.
         25    1    3    3    0    0 -0.57539156397E+02  0.79181480805E+01 -0.89164068178E+03  0.90155230408E+03  0.12000000000E+03 0.  0.
<mgrwt>
<rscale>  0 0.26992479E+03</rscale>
<asrwt>0</asrwt>
<pdfrwt beam="1">  1        2 0.23871529E+00 0.26992479E+03</pdfrwt>
<pdfrwt beam="2">  1       -2 0.18060036E-02 0.26992479E+03</pdfrwt>
<totfact> 0.11496428E+04</totfact>
</mgrwt>
</event>
<event>
 5    1  0.1147887E+001  0.2745286E+03  0.7818608E-02  0.1098715E+00
         -1   -1    0    0    0  501 -0.00000000000E+00  0.00000000000E+00  0.29654396814E+02  0.29654396814E+02  0.00000000000E+00 0.  1.
          1   -1    0    0  501    0  0.00000000000E+00 -0.00000000000E+00 -0.63536930472E+03  0.63536930472E+03  0.00000000000E+00 0.  1.
         35    2    1    2    0    0  0.00000000000E+00  0.00000000000E+00 -0.60571490790E+03  0.66502370153E+03  0.27452863956E+03 0.  0.
         25    1    3    3    0    0 -0.55623706329E+02  0.29553476625E+02 -0.35560221306E+03  0.38055267523E+03  0.12000000000E+03 0.  0.
         25    1    3    3    0    0  0.55623706329E+02 -0.29553476625E+02 -0.25011269484E+03  0.28447102630E+03  0.12000000000E+03 0.  0.
<mgrwt>
<rscale>  0 0.27452864E+03</rscale>
<asrwt>0</asrwt>
<pdfrwt beam="1">  1        1 0.97749131E-01 0.27452864E+03</pdfrwt>
<pdfrwt beam="2">  1       -1 0.45622146E-02 0.27452864E+03</pdfrwt>
<totfact> 0.65291311E+03</totfact>
</mgrwt>
</event>
<event>
 5    1  0.1147887E+001  0.2754596E+03  0.7818608E-02  0.1098195E+00
          1   -1    0    0  501    0  0.00000000000E+00  0.00000000000E+00  0.51913030617E+03  0.51913030617E+03  0.00000000000E+00 0.  1.
         -1   -1    0    0    0  501 -0.00000000000E+00 -0.00000000000E+00 -0.36540908330E+02  0.36540908330E+02  0.00000000000E+00 0.  1.
         35    2    1    2    0    0  0.00000000000E+00  0.00000000000E+00  0.48258939784E+03  0.55567121450E+03  0.27545956458E+03 0.  0.
         25    1    3    3    0    0 -0.66166987471E+02 -0.99681097873E+01  0.26064974968E+03  0.29464508388E+03  0.12000000000E+03 0.  0.
         25    1    3    3    0    0  0.66166987471E+02  0.99681097873E+01  0.22193964816E+03  0.26102613063E+03  0.12000000000E+03 0.  0.
<mgrwt>
<rscale>  0 0.27545956E+03</rscale>
<asrwt>0</asrwt>
<pdfrwt beam="1">  1        1 0.79866196E-01 0.27545956E+03</pdfrwt>
<pdfrwt beam="2">  1       -1 0.56216786E-02 0.27545956E+03</pdfrwt>
<totfact> 0.63021964E+03</totfact>
</mgrwt>
</event>
<event>
 5    1  0.1147887E+001  0.2750219E+03  0.7818608E-02  0.1098439E+00
          1   -1    0    0  501    0  0.00000000000E+00  0.00000000000E+00  0.20714767379E+03  0.20714767379E+03  0.00000000000E+00 0. -1.
         -1   -1    0    0    0  501 -0.00000000000E+00 -0.00000000000E+00 -0.91283970722E+02  0.91283970722E+02  0.00000000000E+00 0. -1.
         35    2    1    2    0    0  0.00000000000E+00  0.00000000000E+00  0.11586370307E+03  0.29843164452E+03  0.27502190596E+03 0.  0.
         25    1    3    3    0    0  0.61779433274E+02  0.26316603555E+02  0.57916838631E+02  0.14920999362E+03  0.12000000000E+03 0.  0.
         25    1    3    3    0    0 -0.61779433274E+02 -0.26316603555E+02  0.57946864441E+02  0.14922165090E+03  0.12000000000E+03 0.  0.
<mgrwt>
<rscale>  0 0.27502191E+03</rscale>
<asrwt>0</asrwt>
<pdfrwt beam="1">  1        1 0.31868873E-01 0.27502191E+03</pdfrwt>
<pdfrwt beam="2">  1       -1 0.14043688E-01 0.27502191E+03</pdfrwt>
<totfact> 0.49734525E+03</totfact>
</mgrwt>
</event>
<event>
 5    1  0.1147887E+001  0.2752264E+03  0.7818608E-02  0.1098325E+00
          2   -1    0    0  501    0  0.00000000000E+00  0.00000000000E+00  0.17363028018E+03  0.17363028018E+03  0.00000000000E+00 0.  1.
         -2   -1    0    0    0  501 -0.00000000000E+00 -0.00000000000E+00 -0.10906734682E+03  0.10906734682E+03  0.00000000000E+00 0.  1.
         35    2    1    2    0    0  0.00000000000E+00  0.00000000000E+00  0.64562933357E+02  0.28269762700E+03  0.27522640852E+03 0.  0.
         25    1    3    3    0    0 -0.45566343527E+02 -0.46725980279E+02  0.15162146009E+02  0.13743907584E+03  0.12000000000E+03 0.  0.
         25    1    3    3    0    0  0.45566343527E+02  0.46725980279E+02  0.49400787348E+02  0.14525855116E+03  0.12000000000E+03 0.  0.
<mgrwt>
<rscale>  0 0.27522641E+03</rscale>
<asrwt>0</asrwt>
<pdfrwt beam="1">  1        2 0.26712351E-01 0.27522641E+03</pdfrwt>
<pdfrwt beam="2">  1       -2 0.16779592E-01 0.27522641E+03</pdfrwt>
<totfact> 0.56214304E+03</totfact>
</mgrwt>
</event>
<event>
 5    1  0.1147887E+001  0.2749134E+03  0.7818608E-02  0.1098500E+00
          2   -1    0    0  501    0  0.00000000000E+00  0.00000000000E+00  0.98968666184E+03  0.98968666184E+03  0.00000000000E+00 0.  1.
         -2   -1    0    0    0  501 -0.00000000000E+00 -0.00000000000E+00 -0.19091243226E+02  0.19091243226E+02  0.00000000000E+00 0.  1.
         35    2    1    2    0    0  0.00000000000E+00  0.00000000000E+00  0.97059541861E+03  0.10087779051E+04  0.27491343204E+03 0.  0.
         25    1    3    3    0    0 -0.41070585685E+02  0.66587383530E+00  0.29088282923E+03  0.31733272245E+03  0.12000000000E+03 0.  0.
         25    1    3    3    0    0  0.41070585685E+02 -0.66587383530E+00  0.67971258938E+03  0.69144518261E+03  0.12000000000E+03 0.  0.
<mgrwt>
<rscale>  0 0.27491343E+03</rscale>
<asrwt>0</asrwt>
<pdfrwt beam="1">  1        2 0.15225945E+00 0.27491343E+03</pdfrwt>
<pdfrwt beam="2">  1       -2 0.29371151E-02 0.27491343E+03</pdfrwt>
<totfact> 0.11619055E+04</totfact>
</mgrwt>
</event>
<event>
 5    1  0.1147887E+001  0.2768771E+03  0.7818608E-02  0.1097407E+00
         -2   -1    0    0    0  501 -0.00000000000E+00  0.00000000000E+00  0.16069184086E+03  0.16069184086E+03  0.00000000000E+00 0. -1.
          2   -1    0    0  501    0  0.00000000000E+00 -0.00000000000E+00 -0.11926702358E+03  0.11926702358E+03  0.00000000000E+00 0. -1.
         35    2    1    2    0    0  0.00000000000E+00  0.00000000000E+00  0.41424817280E+02  0.27995886445E+03  0.27687713935E+03 0.  0.
         25    1    3    3    0    0  0.25030740922E+01  0.31173201573E+02 -0.41512813594E+02  0.13077212076E+03  0.12000000000E+03 0.  0.
         25    1    3    3    0    0 -0.25030740922E+01 -0.31173201573E+02  0.82937630873E+02  0.14918674368E+03  0.12000000000E+03 0.  0.
<mgrwt>
<rscale>  0 0.27687714E+03</rscale>
<asrwt>0</asrwt>
<pdfrwt beam="1">  1        2 0.18348773E-01 0.27687714E+03</pdfrwt>
<pdfrwt beam="2">  1       -2 0.24721822E-01 0.27687714E+03</pdfrwt>
<totfact> 0.44253311E+03</totfact>
</mgrwt>
</event>
<event>
 5    1  0.1147887E+001  0.2737193E+03  0.7818608E-02  0.1099170E+00
         -4   -1    0    0    0  501 -0.00000000000E+00  0.00000000000E+00  0.25464578690E+02  0.25464578690E+02  0.00000000000E+00 0.  1.
          4   -1    0    0  501    0  0.00000000000E+00 -0.00000000000E+00 -0.73555384539E+03  0.73555384539E+03  0.00000000000E+00 0.  1.
         35    2    1    2    0    0  0.00000000000E+00  0.00000000000E+00 -0.71008926670E+03  0.76101842408E+03  0.27371933638E+03 0.  0.
         25    1    3    3    0    0 -0.17159326042E+02  0.40818383921E+01 -0.53131276978E+03  0.54498106684E+03  0.12000000000E+03 0.  0.
         25    1    3    3    0    0  0.17159326042E+02 -0.40818383921E+01 -0.17877649692E+03  0.21603735724E+03  0.12000000000E+03 0.  0.
<mgrwt>
<rscale>  0 0.27371934E+03</rscale>
<asrwt>0</asrwt>
<pdfrwt beam="1">  1        4 0.11316212E+00 0.27371934E+03</pdfrwt>
<pdfrwt beam="2">  1       -4 0.39176278E-02 0.27371934E+03</pdfrwt>
<totfact> 0.42136210E+02</totfact>
</mgrwt>
</event>
<event>
 5    1  0.1147887E+001  0.2743037E+03  0.7818608E-02  0.1098841E+00
         -2   -1    0    0    0  501 -0.00000000000E+00  0.00000000000E+00  0.69256487923E+02  0.69256487923E+02  0.00000000000E+00 0. -1.
          2   -1    0    0  501    0  0.00000000000E+00 -0.00000000000E+00 -0.27160825927E+03  0.27160825927E+03  0.00000000000E+00 0. -1.
         35    2    1    2    0    0  0.00000000000E+00  0.00000000000E+00 -0.20235177135E+03  0.34086474720E+03  0.27430373040E+03 0.  0.
         25    1    3    3    0    0  0.55250294375E+02 -0.25030863124E+02 -0.67566849940E+02  0.15048062449E+03  0.12000000000E+03 0.  0.
         25    1    3    3    0    0 -0.55250294375E+02  0.25030863124E+02 -0.13478492141E+03  0.19038412270E+03  0.12000000000E+03 0.  0.
<mgrwt>
<rscale>  0 0.27430373E+03</rscale>
<asrwt>0</asrwt>
<pdfrwt beam="1">  1        2 0.41785886E-01 0.27430373E+03</pdfrwt>
<pdfrwt beam="2">  1       -2 0.10654844E-01 0.27430373E+03</pdfrwt>
<totfact> 0.72454003E+03</totfact>
</mgrwt>
</event>
<event>
 5    1  0.1147887E+001  0.2749162E+03  0.7818608E-02  0.1098498E+00
          2   -1    0    0  501    0  0.00000000000E+00  0.00000000000E+00  0.14625061829E+04  0.14625061829E+04  0.00000000000E+00 0.  1.
         -2   -1    0    0    0  501 -0.00000000000E+00 -0.00000000000E+00 -0.12919415263E+02  0.12919415263E+02  0.00000000000E+00 0.  1.
         35    2    1    2    0    0  0.00000000000E+00  0.00000000000E+00  0.14495867676E+04  0.14754255981E+04  0.27491616687E+03 0.  0.
         25    1    3    3    0    0  0.62357050042E+02  0.21414247509E+01  0.85644327508E+03  0.86705713239E+03  0.12000000000E+03 0.  0.
         25    1    3    3    0    0 -0.62357050042E+02 -0.21414247509E+01  0.59314349252E+03  0.60836846574E+03  0.12000000000E+03 0.  0.
<mgrwt>
<rscale>  0 0.27491617E+03</rscale>
<asrwt>0</asrwt>
<pdfrwt beam="1">  1        2 0.22500082E+00 0.27491617E+03</pdfrwt>
<pdfrwt beam="2">  1       -2 0.19876035E-02 0.27491617E+03</pdfrwt>
<totfact> 0.11149962E+04</totfact>
</mgrwt>
</event>
<event>
 5    1  0.1147887E+001  0.2727327E+03  0.7818608E-02  0.1099726E+00
          1   -1    0    0  501    0  0.00000000000E+00  0.00000000000E+00  0.57142251699E+03  0.57142251699E+03  0.00000000000E+00 0. -1.
         -1   -1    0    0    0  501 -0.00000000000E+00 -0.00000000000E+00 -0.32542963996E+02  0.32542963996E+02  0.00000000000E+00 0. -1.
         35    2    1    2    0    0  0.00000000000E+00  0.00000000000E+00  0.53887955300E+03  0.60396548099E+03  0.27273270722E+03 0.  0.
         25    1    3    3    0    0 -0.50586799599E+02 -0.28267807394E+02  0.33353362422E+03  0.35916955844E+03  0.12000000000E+03 0.  0.
         25    1    3    3    0    0  0.50586799599E+02  0.28267807394E+02  0.20534592878E+03  0.24479592254E+03  0.12000000000E+03 0.  0.
<mgrwt>
<rscale>  0 0.27273271E+03</rscale>
<asrwt>0</asrwt>
<pdfrwt beam="1">  1        1 0.87911149E-01 0.27273271E+03</pdfrwt>
<pdfrwt beam="2">  1       -1 0.50066103E-02 0.27273271E+03</pdfrwt>
<totfact> 0.65835128E+03</totfact>
</mgrwt>
</event>
<event>
 5    1  0.1147887E+001  0.2751665E+03  0.7818608E-02  0.1098359E+00
          2   -1    0    0  501    0  0.00000000000E+00  0.00000000000E+00  0.16891540648E+03  0.16891540648E+03  0.00000000000E+00 0. -1.
         -2   -1    0    0    0  501 -0.00000000000E+00 -0.00000000000E+00 -0.11206289260E+03  0.11206289260E+03  0.00000000000E+00 0. -1.
         35    2    1    2    0    0  0.00000000000E+00  0.00000000000E+00  0.56852513879E+02  0.28097829908E+03  0.27516648818E+03 0.  0.
         25    1    3    3    0    0 -0.16442594785E+02  0.64580781307E+02  0.38011359870E+02  0.14242857760E+03  0.12000000000E+03 0.  0.
         25    1    3    3    0    0  0.16442594785E+02 -0.64580781307E+02  0.18841154009E+02  0.13854972148E+03  0.12000000000E+03 0.  0.
<mgrwt>
<rscale>  0 0.27516649E+03</rscale>
<asrwt>0</asrwt>
<pdfrwt beam="1">  1        2 0.25986986E-01 0.27516649E+03</pdfrwt>
<pdfrwt beam="2">  1       -2 0.17240445E-01 0.27516649E+03</pdfrwt>
<totfact> 0.55388190E+03</totfact>
</mgrwt>
</event>
<event>
 5    1  0.1147887E+001  0.2744967E+03  0.7818608E-02  0.1098733E+00
         -1   -1    0    0    0  501 -0.00000000000E+00  0.00000000000E+00  0.88808360815E+01  0.88808360815E+01  0.00000000000E+00 0. -1.
          1   -1    0    0  501    0  0.00000000000E+00 -0.00000000000E+00 -0.21210958058E+04  0.21210958058E+04  0.00000000000E+00 0. -1.
         35    2    1    2    0    0  0.00000000000E+00  0.00000000000E+00 -0.21122149697E+04  0.21299766419E+04  0.27449666056E+03 0.  0.
         25    1    3    3    0    0  0.36343755515E+02  0.42741721683E+02 -0.13347378086E+04  0.13412951729E+04  0.12000000000E+03 0.  0.
         25    1    3    3    0    0 -0.36343755515E+02 -0.42741721683E+02 -0.77747716115E+03  0.78868146894E+03  0.12000000000E+03 0.  0.
<mgrwt>
<rscale>  0 0.27449666E+03</rscale>
<asrwt>0</asrwt>
<pdfrwt beam="1">  1        1 0.32632253E+00 0.27449666E+03</pdfrwt>
<pdfrwt beam="2">  1       -1 0.13662821E-02 0.27449666E+03</pdfrwt>
<totfact> 0.33649649E+03</totfact>
</mgrwt>
</event>
<event>
 5    1  0.1147887E+001  0.2750224E+03  0.7818608E-02  0.1098439E+00
         -2   -1    0    0    0  501 -0.00000000000E+00  0.00000000000E+00  0.18404726613E+02  0.18404726613E+02  0.00000000000E+00 0. -1.
          2   -1    0    0  501    0  0.00000000000E+00 -0.00000000000E+00 -0.10274170188E+04  0.10274170188E+04  0.00000000000E+00 0. -1.
         35    2    1    2    0    0  0.00000000000E+00  0.00000000000E+00 -0.10090122921E+04  0.10458217454E+04  0.27502239434E+03 0.  0.
         25    1    3    3    0    0 -0.35601901070E+02  0.56776789854E+02 -0.48826994621E+03  0.50724613315E+03  0.12000000000E+03 0.  0.
         25    1    3    3    0    0  0.35601901070E+02 -0.56776789854E+02 -0.52074234594E+03  0.53857561222E+03  0.12000000000E+03 0.  0.
<mgrwt>
<rscale>  0 0.27502239E+03</rscale>
<asrwt>0</asrwt>
<pdfrwt beam="1">  1        2 0.15806421E+00 0.27502239E+03</pdfrwt>
<pdfrwt beam="2">  1       -2 0.28314954E-02 0.27502239E+03</pdfrwt>
<totfact> 0.11635708E+04</totfact>
</mgrwt>
</event>
<event>
 5    1  0.1147887E+001  0.2783862E+03  0.7818608E-02  0.1096574E+00
          1   -1    0    0  501    0  0.00000000000E+00  0.00000000000E+00  0.10243278163E+04  0.10243278163E+04  0.00000000000E+00 0. -1.
         -1   -1    0    0    0  501 -0.00000000000E+00 -0.00000000000E+00 -0.18914568180E+02  0.18914568180E+02  0.00000000000E+00 0. -1.
         35    2    1    2    0    0  0.00000000000E+00  0.00000000000E+00  0.10054132481E+04  0.10432423845E+04  0.27838619449E+03 0.  0.
         25    1    3    3    0    0 -0.54812224412E+02  0.44383678711E+02  0.50025657506E+03  0.51925998476E+03  0.12000000000E+03 0.  0.
         25    1    3    3    0    0  0.54812224412E+02 -0.44383678711E+02  0.50515667306E+03  0.52398239972E+03  0.12000000000E+03 0.  0.
<mgrwt>
<rscale>  0 0.27838619E+03</rscale>
<asrwt>0</asrwt>
<pdfrwt beam="1">  1        1 0.15758885E+00 0.27838619E+03</pdfrwt>
<pdfrwt beam="2">  1       -1 0.29099344E-02 0.27838619E+03</pdfrwt>
<totfact> 0.60497034E+03</totfact>
</mgrwt>
</event>
<event>
 5    1  0.1147887E+001  0.2745847E+03  0.7818608E-02  0.1098684E+00
         -1   -1    0    0    0  501 -0.00000000000E+00  0.00000000000E+00  0.51475288232E+02  0.51475288232E+02  0.00000000000E+00 0. -1.
          1   -1    0    0  501    0  0.00000000000E+00 -0.00000000000E+00 -0.36617927709E+03  0.36617927709E+03  0.00000000000E+00 0. -1.
         35    2    1    2    0    0  0.00000000000E+00  0.00000000000E+00 -0.31470398886E+03  0.41765456532E+03  0.27458465968E+03 0.  0.
         25    1    3    3    0    0  0.40822861647E+02  0.37501566988E+02 -0.21378057657E+03  0.25134639141E+03  0.12000000000E+03 0.  0.
         25    1    3    3    0    0 -0.40822861647E+02 -0.37501566988E+02 -0.10092341229E+03  0.16630817391E+03  0.12000000000E+03 0.  0.
<mgrwt>
<rscale>  0 0.27458466E+03</rscale>
<asrwt>0</asrwt>
<pdfrwt beam="1">  1        1 0.56335272E-01 0.27458466E+03</pdfrwt>
<pdfrwt beam="2">  1       -1 0.79192753E-02 0.27458466E+03</pdfrwt>
<totfact> 0.59023758E+03</totfact>
</mgrwt>
</event>
<event>
 5    1  0.1147887E+001  0.2751793E+03  0.7818608E-02  0.1098351E+00
         -2   -1    0    0    0  501 -0.00000000000E+00  0.00000000000E+00  0.22061676636E+02  0.22061676636E+02  0.00000000000E+00 0. -1.
          2   -1    0    0  501    0  0.00000000000E+00 -0.00000000000E+00 -0.85809006540E+03  0.85809006540E+03  0.00000000000E+00 0. -1.
         35    2    1    2    0    0  0.00000000000E+00  0.00000000000E+00 -0.83602838876E+03  0.88015174203E+03  0.27517925465E+03 0.  0.
         25    1    3    3    0    0 -0.17386188574E+02 -0.58383764096E+02 -0.50960223083E+03  0.52707245909E+03  0.12000000000E+03 0.  0.
         25    1    3    3    0    0  0.17386188574E+02  0.58383764096E+02 -0.32642615793E+03  0.35307928295E+03  0.12000000000E+03 0.  0.
<mgrwt>
<rscale>  0 0.27517925E+03</rscale>
<asrwt>0</asrwt>
<pdfrwt beam="1">  1        2 0.13201387E+00 0.27517925E+03</pdfrwt>
<pdfrwt beam="2">  1       -2 0.33941037E-02 0.27517925E+03</pdfrwt>
<totfact> 0.11362918E+04</totfact>
</mgrwt>
</event>
<event>
 5    1  0.1147887E+001  0.2750326E+03  0.7818608E-02  0.1098433E+00
         -2   -1    0    0    0  501 -0.00000000000E+00  0.00000000000E+00  0.40420946313E+03  0.40420946313E+03  0.00000000000E+00 0.  1.
          2   -1    0    0  501    0  0.00000000000E+00 -0.00000000000E+00 -0.46784482743E+02  0.46784482743E+02  0.00000000000E+00 0.  1.
         35    2    1    2    0    0  0.00000000000E+00  0.00000000000E+00  0.35742498039E+03  0.45099394587E+03  0.27503258463E+03 0.  0.
         25    1    3    3    0    0 -0.31379752313E+02  0.10154277486E+02  0.82775580291E+02  0.14946435996E+03  0.12000000000E+03 0.  0.
         25    1    3    3    0    0  0.31379752313E+02 -0.10154277486E+02  0.27464940009E+03  0.30152958591E+03  0.12000000000E+03 0.  0.
<mgrwt>
<rscale>  0 0.27503258E+03</rscale>
<asrwt>0</asrwt>
<pdfrwt beam="1">  1        2 0.71976130E-02 0.27503258E+03</pdfrwt>
<pdfrwt beam="2">  1       -2 0.62186069E-01 0.27503258E+03</pdfrwt>
<totfact> 0.23842801E+03</totfact>
</mgrwt>
</event>
<event>
 5    1  0.1147887E+001  0.2748456E+03  0.7818608E-02  0.1098538E+00
          2   -1    0    0  501    0  0.00000000000E+00  0.00000000000E+00  0.28670559390E+03  0.28670559390E+03  0.00000000000E+00 0. -1.
         -2   -1    0    0    0  501 -0.00000000000E+00 -0.00000000000E+00 -0.65869072623E+02  0.65869072623E+02  0.00000000000E+00 0. -1.
         35    2    1    2    0    0  0.00000000000E+00  0.00000000000E+00  0.22083652127E+03  0.35257466652E+03  0.27484564094E+03 0.  0.
         25    1    3    3    0    0 -0.25706919893E+02  0.51941160176E+02  0.67366627881E+02  0.14932177471E+03  0.12000000000E+03 0.  0.
         25    1    3    3    0    0  0.25706919893E+02 -0.51941160176E+02  0.15346989339E+03  0.20325289181E+03  0.12000000000E+03 0.  0.
<mgrwt>
<rscale>  0 0.27484564E+03</rscale>
<asrwt>0</asrwt>
<pdfrwt beam="1">  1        2 0.44108552E-01 0.27484564E+03</pdfrwt>
<pdfrwt beam="2">  1       -2 0.10133704E-01 0.27484564E+03</pdfrwt>
<totfact> 0.74053539E+03</totfact>
</mgrwt>
</event>
<event>
 5    1  0.1147887E+001  0.2753927E+03  0.7818608E-02  0.1098232E+00
          1   -1    0    0  501    0  0.00000000000E+00  0.00000000000E+00  0.41441314495E+03  0.41441314495E+03  0.00000000000E+00 0.  1.
         -1   -1    0    0    0  501 -0.00000000000E+00 -0.00000000000E+00 -0.45752126010E+02  0.45752126010E+02  0.00000000000E+00 0.  1.
         35    2    1    2    0    0  0.00000000000E+00  0.00000000000E+00  0.36866101894E+03  0.46016527096E+03  0.27539268275E+03 0.  0.
         25    1    3    3    0    0  0.25762111358E+02  0.23832078223E+02  0.87926725815E+02  0.15284882547E+03  0.12000000000E+03 0.  0.
         25    1    3    3    0    0 -0.25762111358E+02 -0.23832078223E+02  0.28073429312E+03  0.30731644549E+03  0.12000000000E+03 0.  0.
<mgrwt>
<rscale>  0 0.27539268E+03</rscale>
<asrwt>0</asrwt>
<pdfrwt beam="1">  1        1 0.63755866E-01 0.27539268E+03</pdfrwt>
<pdfrwt beam="2">  1       -1 0.70387889E-02 0.27539268E+03</pdfrwt>
<totfact> 0.60289548E+03</totfact>
</mgrwt>
</event>
<event>
 5    1  0.1147887E+001  0.2742115E+03  0.7818608E-02  0.1098893E+00
          2   -1    0    0  501    0  0.00000000000E+00  0.00000000000E+00  0.54166764818E+02  0.54166764818E+02  0.00000000000E+00 0.  1.
         -2   -1    0    0    0  501 -0.00000000000E+00 -0.00000000000E+00 -0.34703918571E+03  0.34703918571E+03  0.00000000000E+00 0.  1.
         35    2    1    2    0    0  0.00000000000E+00  0.00000000000E+00 -0.29287242089E+03  0.40120595052E+03  0.27421152386E+03 0.  0.
         25    1    3    3    0    0 -0.15782466801E+02 -0.59038627901E+02 -0.18411969916E+03  0.22811117785E+03  0.12000000000E+03 0.  0.
         25    1    3    3    0    0  0.15782466801E+02  0.59038627901E+02 -0.10875272173E+03  0.17309477267E+03  0.12000000000E+03 0.  0.
<mgrwt>
<rscale>  0 0.27421152E+03</rscale>
<asrwt>0</asrwt>
<pdfrwt beam="1">  1        2 0.83333484E-02 0.27421152E+03</pdfrwt>
<pdfrwt beam="2">  1       -2 0.53390644E-01 0.27421152E+03</pdfrwt>
<totfact> 0.27053012E+03</totfact>
</mgrwt>
</event>
<event>
 5    1  0.1147887E+001  0.2750674E+03  0.7818608E-02  0.1098414E+00
          1   -1    0    0  501    0  0.00000000000E+00  0.00000000000E+00  0.18256895024E+04  0.18256895024E+04  0.00000000000E+00 0. -1.
         -1   -1    0    0    0  501 -0.00000000000E+00 -0.00000000000E+00 -0.10360755601E+02  0.10360755601E+02  0.00000000000E+00 0. -1.
         35    2    1    2    0    0  0.00000000000E+00  0.00000000000E+00  0.18153287468E+04  0.18360502580E+04  0.27506742982E+03 0.  0.
         25    1    3    3    0    0 -0.48991299307E+02  0.84798726475E+01  0.12094018258E+04  0.12163571975E+04  0.12000000000E+03 0.  0.
         25    1    3    3    0    0  0.48991299307E+02 -0.84798726475E+01  0.60592692100E+03  0.61969306051E+03  0.12000000000E+03 0.  0.
<mgrwt>
<rscale>  0 0.27506743E+03</rscale>
<asrwt>0</asrwt>
<pdfrwt beam="1">  1        1 0.28087505E+00 0.27506743E+03</pdfrwt>
<pdfrwt beam="2">  1       -1 0.15939638E-02 0.27506743E+03</pdfrwt>
<totfact> 0.41827211E+03</totfact>
</mgrwt>
</event>
<event>
 5    1  0.1147887E+001  0.2748365E+03  0.7818608E-02  0.1098543E+00
          2   -1    0    0  501    0  0.00000000000E+00  0.00000000000E+00  0.29386012612E+04  0.29386012612E+04  0.00000000000E+00 0. -1.
         -2   -1    0    0    0  501 -0.00000000000E+00 -0.00000000000E+00 -0.64261099102E+01  0.64261099102E+01  0.00000000000E+00 0. -1.
         35    2    1    2    0    0  0.00000000000E+00  0.00000000000E+00  0.29321751513E+04  0.29450273712E+04  0.27483649457E+03 0.  0.
         25    1    3    3    0    0 -0.44243971357E+02 -0.48101930610E+02  0.13099011599E+04  0.13170088737E+04  0.12000000000E+03 0.  0.
         25    1    3    3    0    0  0.44243971357E+02  0.48101930610E+02  0.16222739914E+04  0.16280184975E+04  0.12000000000E+03 0.  0.
<mgrwt>
<rscale>  0 0.27483649E+03</rscale>
<asrwt>0</asrwt>
<pdfrwt beam="1">  1        2 0.45209143E+00 0.27483649E+03</pdfrwt>
<pdfrwt beam="2">  1       -2 0.98863464E-03 0.27483649E+03</pdfrwt>
<totfact> 0.49095771E+03</totfact>
</mgrwt>
</event>
<event>
 5    1  0.1147887E+001  0.2754199E+03  0.7818608E-02  0.1098217E+00
          2   -1    0    0  501    0  0.00000000000E+00  0.00000000000E+00  0.14966643356E+02  0.14966643356E+02  0.00000000000E+00 0. -1.
         -2   -1    0    0    0  501 -0.00000000000E+00 -0.00000000000E+00 -0.12670861857E+04  0.12670861857E+04  0.00000000000E+00 0. -1.
         35    2    1    2    0    0  0.00000000000E+00  0.00000000000E+00 -0.12521195423E+04  0.12820528291E+04  0.27541987613E+03 0.  0.
         25    1    3    3    0    0 -0.38723131680E+01  0.67081603399E+02 -0.65867424207E+03  0.67287940486E+03  0.12000000000E+03 0.  0.
         25    1    3    3    0    0  0.38723131680E+01 -0.67081603399E+02 -0.59344530028E+03  0.60917342420E+03  0.12000000000E+03 0.  0.
<mgrwt>
<rscale>  0 0.27541988E+03</rscale>
<asrwt>0</asrwt>
<pdfrwt beam="1">  1        2 0.23025601E-02 0.27541988E+03</pdfrwt>
<pdfrwt beam="2">  1       -2 0.19493637E+00 0.27541988E+03</pdfrwt>
<totfact> 0.70020191E+02</totfact>
</mgrwt>
</event>
<event>
 5    1  0.1147887E+001  0.2739754E+03  0.7818608E-02  0.1099026E+00
         -2   -1    0    0    0  501 -0.00000000000E+00  0.00000000000E+00  0.30148217657E+02  0.30148217657E+02  0.00000000000E+00 0. -1.
          2   -1    0    0  501    0  0.00000000000E+00 -0.00000000000E+00 -0.62244570101E+03  0.62244570101E+03  0.00000000000E+00 0. -1.
         35    2    1    2    0    0  0.00000000000E+00  0.00000000000E+00 -0.59229748335E+03  0.65259391866E+03  0.27397538921E+03 0.  0.
         25    1    3    3    0    0 -0.60493033245E+02  0.10391713973E+02 -0.23788922184E+03  0.27342032964E+03  0.12000000000E+03 0.  0.
         25    1    3    3    0    0  0.60493033245E+02 -0.10391713973E+02 -0.35440826151E+03  0.37917358903E+03  0.12000000000E+03 0.  0.
<mgrwt>
<rscale>  0 0.27397539E+03</rscale>
<asrwt>0</asrwt>
<pdfrwt beam="1">  1        2 0.95760878E-01 0.27397539E+03</pdfrwt>
<pdfrwt beam="2">  1       -2 0.46381873E-02 0.27397539E+03</pdfrwt>
<totfact> 0.10557936E+04</totfact>
</mgrwt>
</event>
<event>
 5    1  0.1147887E+001  0.2749359E+03  0.7818608E-02  0.1098487E+00
          1   -1    0    0  501    0  0.00000000000E+00  0.00000000000E+00  0.72907479593E+03  0.72907479593E+03  0.00000000000E+00 0.  1.
         -1   -1    0    0    0  501 -0.00000000000E+00 -0.00000000000E+00 -0.25919755023E+02  0.25919755023E+02  0.00000000000E+00 0.  1.
         35    2    1    2    0    0  0.00000000000E+00  0.00000000000E+00  0.70315504090E+03  0.75499455095E+03  0.27493592056E+03 0.  0.
         25    1    3    3    0    0 -0.60781960779E+02 -0.27224156613E+02  0.32998306216E+03  0.35738553800E+03  0.12000000000E+03 0.  0.
         25    1    3    3    0    0  0.60781960779E+02  0.27224156613E+02  0.37317197874E+03  0.39760901295E+03  0.12000000000E+03 0.  0.
<mgrwt>
<rscale>  0 0.27493592E+03</rscale>
<asrwt>0</asrwt>
<pdfrwt beam="1">  1        1 0.11216534E+00 0.27493592E+03</pdfrwt>
<pdfrwt beam="2">  1       -1 0.39876552E-02 0.27493592E+03</pdfrwt>
<totfact> 0.65403772E+03</totfact>
</mgrwt>
</event>
<event>
 5    1  0.1147887E+001  0.2834747E+03  0.7818608E-02  0.1093806E+00
          1   -1    0    0  501    0  0.00000000000E+00  0.00000000000E+00  0.13658698507E+04  0.13658698507E+04  0.00000000000E+00 0. -1.
         -1   -1    0    0    0  501 -0.00000000000E+00 -0.00000000000E+00 -0.14708189811E+02  0.14708189811E+02  0.00000000000E+00 0. -1.
         35    2    1    2    0    0  0.00000000000E+00  0.00000000000E+00  0.13511616609E+04  0.13805780405E+04  0.28347467627E+03 0.  0.
         25    1    3    3    0    0  0.49687442815E+02  0.56750435320E+02  0.67490706186E+03  0.68962960786E+03  0.12000000000E+03 0.  0.
         25    1    3    3    0    0 -0.49687442815E+02 -0.56750435320E+02  0.67625459906E+03  0.69094843269E+03  0.12000000000E+03 0.  0.
<mgrwt>
<rscale>  0 0.28347468E+03</rscale>
<asrwt>0</asrwt>
<pdfrwt beam="1">  1        1 0.21013372E+00 0.28347468E+03</pdfrwt>
<pdfrwt beam="2">  1       -1 0.22627995E-02 0.28347468E+03</pdfrwt>
<totfact> 0.50370261E+03</totfact>
</mgrwt>
</event>
<event>
 5    1  0.1147887E+001  0.2748885E+03  0.7818608E-02  0.1098514E+00
         -1   -1    0    0    0  501 -0.00000000000E+00  0.00000000000E+00  0.96670794979E+01  0.96670794979E+01  0.00000000000E+00 0. -1.
          1   -1    0    0  501    0  0.00000000000E+00 -0.00000000000E+00 -0.19541499635E+04  0.19541499635E+04  0.00000000000E+00 0. -1.
         35    2    1    2    0    0  0.00000000000E+00  0.00000000000E+00 -0.19444828840E+04  0.19638170430E+04  0.27488850866E+03 0.  0.
         25    1    3    3    0    0  0.37062692191E+02  0.45918284745E+02 -0.74533593114E+03  0.75723693933E+03  0.12000000000E+03 0.  0.
         25    1    3    3    0    0 -0.37062692191E+02 -0.45918284745E+02 -0.11991469528E+04  0.12065801036E+04  0.12000000000E+03 0.  0.
<mgrwt>
<rscale>  0 0.27488851E+03</rscale>
<asrwt>0</asrwt>
<pdfrwt beam="1">  1        1 0.30063855E+00 0.27488851E+03</pdfrwt>
<pdfrwt beam="2">  1       -1 0.14872425E-02 0.27488851E+03</pdfrwt>
<totfact> 0.38184132E+03</totfact>
</mgrwt>
</event>
<event>
 5    1  0.1147887E+001  0.2756554E+03  0.7818608E-02  0.1098086E+00
         -2   -1    0    0    0  501 -0.00000000000E+00  0.00000000000E+00  0.41105876662E+02  0.41105876662E+02  0.00000000000E+00 0. -1.
          2   -1    0    0  501    0  0.00000000000E+00 -0.00000000000E+00 -0.46213522165E+03  0.46213522165E+03  0.00000000000E+00 0. -1.
         35    2    1    2    0    0  0.00000000000E+00  0.00000000000E+00 -0.42102934499E+03  0.50324109831E+03  0.27565538937E+03 0.  0.
         25    1    3    3    0    0  0.34794486354E+02  0.52899167449E+02 -0.25476452059E+03  0.28864154093E+03  0.12000000000E+03 0.  0.
         25    1    3    3    0    0 -0.34794486354E+02 -0.52899167449E+02 -0.16626482440E+03  0.21459955739E+03  0.12000000000E+03 0.  0.
<mgrwt>
<rscale>  0 0.27565539E+03</rscale>
<asrwt>0</asrwt>
<pdfrwt beam="1">  1        2 0.71097727E-01 0.27565539E+03</pdfrwt>
<pdfrwt beam="2">  1       -2 0.63239810E-02 0.27565539E+03</pdfrwt>
<totfact> 0.92258474E+03</totfact>
</mgrwt>
</event>
<event>
 5    1  0.1147887E+001  0.2748167E+03  0.7818608E-02  0.1098554E+00
          2   -1    0    0  501    0  0.00000000000E+00  0.00000000000E+00  0.15755630587E+03  0.15755630587E+03  0.00000000000E+00 0.  1.
         -2   -1    0    0    0  501 -0.00000000000E+00 -0.00000000000E+00 -0.11983688048E+03  0.11983688048E+03  0.00000000000E+00 0.  1.
         35    2    1    2    0    0  0.00000000000E+00  0.00000000000E+00  0.37719425390E+02  0.27739318635E+03  0.27481671125E+03 0.  0.
         25    1    3    3    0    0 -0.42402013785E+02 -0.39736468442E+02  0.52399818442E+02  0.14325731629E+03  0.12000000000E+03 0.  0.
         25    1    3    3    0    0  0.42402013785E+02  0.39736468442E+02 -0.14680393052E+02  0.13413587006E+03  0.12000000000E+03 0.  0.
<mgrwt>
<rscale>  0 0.27481671E+03</rscale>
<asrwt>0</asrwt>
<pdfrwt beam="1">  1        2 0.24239432E-01 0.27481671E+03</pdfrwt>
<pdfrwt beam="2">  1       -2 0.18436443E-01 0.27481671E+03</pdfrwt>
<totfact> 0.53466910E+03</totfact>
</mgrwt>
</event>
<event>
 5    1  0.1147887E+001  0.2746755E+03  0.7818608E-02  0.1098633E+00
          1   -1    0    0  501    0  0.00000000000E+00  0.00000000000E+00  0.57214443103E+03  0.57214443103E+03  0.00000000000E+00 0.  1.
         -1   -1    0    0    0  501 -0.00000000000E+00 -0.00000000000E+00 -0.32966598899E+02  0.32966598899E+02  0.00000000000E+00 0.  1.
         35    2    1    2    0    0  0.00000000000E+00  0.00000000000E+00  0.53917783214E+03  0.60511102993E+03  0.27467548831E+03 0.  0.
         25    1    3    3    0    0 -0.34787708111E+02  0.56464002325E+02  0.25206322788E+03  0.28693943446E+03  0.12000000000E+03 0.  0.
         25    1    3    3    0    0  0.34787708111E+02 -0.56464002325E+02  0.28711460425E+03  0.31817159548E+03  0.12000000000E+03 0.  0.
<mgrwt>
<rscale>  0 0.27467549E+03</rscale>
<asrwt>0</asrwt>
<pdfrwt beam="1">  1        1 0.88022213E-01 0.27467549E+03</pdfrwt>
<pdfrwt beam="2">  1       -1 0.50717849E-02 0.27467549E+03</pdfrwt>
<totfact> 0.64473563E+03</totfact>
</mgrwt>
</event>
<event>
 5    1  0.1147887E+001  0.2708981E+03  0.7818608E-02  0.1100767E+00
         -4   -1    0    0    0  501 -0.00000000000E+00  0.00000000000E+00  0.11473414247E+02  0.11473414247E+02  0.00000000000E+00 0. -1.
          4   -1    0    0  501    0  0.00000000000E+00 -0.00000000000E+00 -0.15990393108E+04  0.15990393108E+04  0.00000000000E+00 0. -1.
         35    2    1    2    0    0  0.00000000000E+00  0.00000000000E+00 -0.15875658966E+04  0.16105127251E+04  0.27089806504E+03 0.  0.
         25    1    3    3    0    0  0.28101722549E+02  0.43123177476E+02 -0.57966690956E+03  0.59419108146E+03  0.12000000000E+03 0.  0.
         25    1    3    3    0    0 -0.28101722549E+02 -0.43123177476E+02 -0.10078989870E+04  0.10163216436E+04  0.12000000000E+03 0.  0.
<mgrwt>
<rscale>  0 0.27089807E+03</rscale>
<asrwt>0</asrwt>
<pdfrwt beam="1">  1        4 0.24600606E+00 0.27089807E+03</pdfrwt>
<pdfrwt beam="2">  1       -4 0.17651406E-02 0.27089807E+03</pdfrwt>
<totfact> 0.17381574E+02</totfact>
</mgrwt>
</event>
<event>
 5    1  0.1147887E+001  0.2749177E+03  0.7818608E-02  0.1098498E+00
         -2   -1    0    0    0  501 -0.00000000000E+00  0.00000000000E+00  0.10861251628E+02  0.10861251628E+02  0.00000000000E+00 0.  1.
          2   -1    0    0  501    0  0.00000000000E+00 -0.00000000000E+00 -0.17396651372E+04  0.17396651372E+04  0.00000000000E+00 0.  1.
         35    2    1    2    0    0  0.00000000000E+00  0.00000000000E+00 -0.17288038856E+04  0.17505263889E+04  0.27491773899E+03 0.  0.
         25    1    3    3    0    0  0.20679999850E+02  0.40353497671E+02 -0.54994546325E+03  0.56470884508E+03  0.12000000000E+03 0.  0.
         25    1    3    3    0    0 -0.20679999850E+02 -0.40353497671E+02 -0.11788584224E+04  0.11858175438E+04  0.12000000000E+03 0.  0.
<mgrwt>
<rscale>  0 0.27491774E+03</rscale>
<asrwt>0</asrwt>
<pdfrwt beam="1">  1        2 0.26764075E+00 0.27491774E+03</pdfrwt>
<pdfrwt beam="2">  1       -2 0.16709621E-02 0.27491774E+03</pdfrwt>
<totfact> 0.10253608E+04</totfact>
</mgrwt>
</event>
<event>
 5    1  0.1147887E+001  0.2755310E+03  0.7818608E-02  0.1098155E+00
          4   -1    0    0  501    0  0.00000000000E+00  0.00000000000E+00  0.13242212151E+04  0.13242212151E+04  0.00000000000E+00 0.  1.
         -4   -1    0    0    0  501 -0.00000000000E+00 -0.00000000000E+00 -0.14332453203E+02  0.14332453203E+02  0.00000000000E+00 0.  1.
         35    2    1    2    0    0  0.00000000000E+00  0.00000000000E+00  0.13098887619E+04  0.13385536683E+04  0.27553104069E+03 0.  0.
         25    1    3    3    0    0 -0.53913702276E+02 -0.39952990736E+02  0.69741023697E+03  0.71083329086E+03  0.12000000000E+03 0.  0.
         25    1    3    3    0    0  0.53913702276E+02  0.39952990736E+02  0.61247852488E+03  0.62772037740E+03  0.12000000000E+03 0.  0.
<mgrwt>
<rscale>  0 0.27553104E+03</rscale>
<asrwt>0</asrwt>
<pdfrwt beam="1">  1        4 0.20372624E+00 0.27553104E+03</pdfrwt>
<pdfrwt beam="2">  1       -4 0.22049939E-02 0.27553104E+03</pdfrwt>
<totfact> 0.22277786E+02</totfact>
</mgrwt>
</event>
<event>
 5    1  0.1147887E+001  0.2749485E+03  0.7818608E-02  0.1098480E+00
          2   -1    0    0  501    0  0.00000000000E+00  0.00000000000E+00  0.89724775621E+03  0.89724775621E+03  0.00000000000E+00 0. -1.
         -2   -1    0    0    0  501 -0.00000000000E+00 -0.00000000000E+00 -0.21063488075E+02  0.21063488075E+02  0.00000000000E+00 0. -1.
         35    2    1    2    0    0  0.00000000000E+00  0.00000000000E+00  0.87618426814E+03  0.91831124429E+03  0.27494848545E+03 0.  0.
         25    1    3    3    0    0  0.54704488717E+02  0.37093258018E+02  0.39991200617E+03  0.42272698466E+03  0.12000000000E+03 0.  0.
         25    1    3    3    0    0 -0.54704488717E+02 -0.37093258018E+02  0.47627226196E+03  0.49558425963E+03  0.12000000000E+03 0.  0.
<mgrwt>
<rscale>  0 0.27494849E+03</rscale>
<asrwt>0</asrwt>
<pdfrwt beam="1">  1        2 0.13803809E+00 0.27494849E+03</pdfrwt>
<pdfrwt beam="2">  1       -2 0.32405373E-02 0.27494849E+03</pdfrwt>
<totfact> 0.11477857E+04</totfact>
</mgrwt>
</event>
<event>
 5    1  0.1147887E+001  0.2748821E+03  0.7818608E-02  0.1098518E+00
          2   -1    0    0  501    0  0.00000000000E+00  0.00000000000E+00  0.77463812742E+03  0.77463812742E+03  0.00000000000E+00 0. -1.
         -2   -1    0    0    0  501 -0.00000000000E+00 -0.00000000000E+00 -0.24385632850E+02  0.24385632850E+02  0.00000000000E+00 0. -1.
         35    2    1    2    0    0  0.00000000000E+00  0.00000000000E+00  0.75025249457E+03  0.79902376027E+03  0.27488209085E+03 0.  0.
         25    1    3    3    0    0 -0.12158204293E+02  0.29279337468E+02  0.20352878310E+03  0.23838847934E+03  0.12000000000E+03 0.  0.
         25    1    3    3    0    0  0.12158204293E+02 -0.29279337468E+02  0.54672371148E+03  0.56063528093E+03  0.12000000000E+03 0.  0.
<mgrwt>
<rscale>  0 0.27488209E+03</rscale>
<asrwt>0</asrwt>
<pdfrwt beam="1">  1        2 0.11917508E+00 0.27488209E+03</pdfrwt>
<pdfrwt beam="2">  1       -2 0.37516364E-02 0.27488209E+03</pdfrwt>
<totfact> 0.11151927E+04</totfact>
</mgrwt>
</event>
<event>
 5    1  0.1147887E+001  0.2742893E+03  0.7818608E-02  0.1098850E+00
         -1   -1    0    0    0  501 -0.00000000000E+00  0.00000000000E+00  0.62895288326E+01  0.62895288326E+01  0.00000000000E+00 0. -1.
          1   -1    0    0  501    0  0.00000000000E+00 -0.00000000000E+00 -0.29904709664E+04  0.29904709664E+04  0.00000000000E+00 0. -1.
         35    2    1    2    0    0  0.00000000000E+00  0.00000000000E+00 -0.29841814375E+04  0.29967604952E+04  0.27428928791E+03 0.  0.
         25    1    3    3    0    0  0.47754816033E+02  0.45881336226E+02 -0.15445263988E+04  0.15505958262E+04  0.12000000000E+03 0.  0.
         25    1    3    3    0    0 -0.47754816033E+02 -0.45881336226E+02 -0.14396550387E+04  0.14461646691E+04  0.12000000000E+03 0.  0.
<mgrwt>
<rscale>  0 0.27428929E+03</rscale>
<asrwt>0</asrwt>
<pdfrwt beam="1">  1        1 0.46007324E+00 0.27428929E+03</pdfrwt>
<pdfrwt beam="2">  1       -1 0.96761818E-03 0.27428929E+03</pdfrwt>
<totfact> 0.14500673E+03</totfact>
</mgrwt>
</event>
<event>
 5    1  0.1147887E+001  0.2752406E+03  0.7818608E-02  0.1098317E+00
         -1   -1    0    0    0  501 -0.00000000000E+00  0.00000000000E+00  0.16468019170E+02  0.16468019170E+02  0.00000000000E+00 0.  1.
          1   -1    0    0  501    0  0.00000000000E+00 -0.00000000000E+00 -0.11500686479E+04  0.11500686479E+04  0.00000000000E+00 0.  1.
         35    2    1    2    0    0  0.00000000000E+00  0.00000000000E+00 -0.11336006287E+04  0.11665366671E+04  0.27524064047E+03 0.  0.
         25    1    3    3    0    0  0.27524471802E+02  0.50973454473E+02 -0.71260220798E+03  0.72495365123E+03  0.12000000000E+03 0.  0.
         25    1    3    3    0    0 -0.27524471802E+02 -0.50973454473E+02 -0.42099842077E+03  0.44158301586E+03  0.12000000000E+03 0.  0.
<mgrwt>
<rscale>  0 0.27524064E+03</rscale>
<asrwt>0</asrwt>
<pdfrwt beam="1">  1        1 0.17693374E+00 0.27524064E+03</pdfrwt>
<pdfrwt beam="2">  1       -1 0.25335399E-02 0.27524064E+03</pdfrwt>
<totfact> 0.60129576E+03</totfact>
</mgrwt>
</event>
<event>
 5    1  0.1147887E+001  0.2741738E+03  0.7818608E-02  0.1098914E+00
          2   -1    0    0  501    0  0.00000000000E+00  0.00000000000E+00  0.32594700946E+03  0.32594700946E+03  0.00000000000E+00 0. -1.
         -2   -1    0    0    0  501 -0.00000000000E+00 -0.00000000000E+00 -0.57656038803E+02  0.57656038803E+02  0.00000000000E+00 0. -1.
         35    2    1    2    0    0  0.00000000000E+00  0.00000000000E+00  0.26829097066E+03  0.38360304827E+03  0.27417376552E+03 0.  0.
         25    1    3    3    0    0  0.52474580732E+02 -0.35939963848E+02  0.16022895129E+03  0.21004423214E+03  0.12000000000E+03 0.  0.
         25    1    3    3    0    0 -0.52474580732E+02  0.35939963848E+02  0.10806201937E+03  0.17355881612E+03  0.12000000000E+03 0.  0.
<mgrwt>
<rscale>  0 0.27417377E+03</rscale>
<asrwt>0</asrwt>
<pdfrwt beam="1">  1        2 0.50145693E-01 0.27417377E+03</pdfrwt>
<pdfrwt beam="2">  1       -2 0.88701600E-02 0.27417377E+03</pdfrwt>
<totfact> 0.79636797E+03</totfact>
</mgrwt>
</event>
<event>
 5    1  0.1147887E+001  0.2755618E+03  0.7818608E-02  0.1098138E+00
          2   -1    0    0  501    0  0.00000000000E+00  0.00000000000E+00  0.79638909092E+03  0.79638909092E+03  0.00000000000E+00 0.  1.
         -2   -1    0    0    0  501 -0.00000000000E+00 -0.00000000000E+00 -0.23837065231E+02  0.23837065231E+02  0.00000000000E+00 0.  1.
         35    2    1    2    0    0  0.00000000000E+00  0.00000000000E+00  0.77255202569E+03  0.82022615615E+03  0.27556181673E+03 0.  0.
         25    1    3    3    0    0  0.30386393937E+02 -0.18430479590E+02  0.21475376879E+03  0.24856024767E+03  0.12000000000E+03 0.  0.
         25    1    3    3    0    0 -0.30386393937E+02  0.18430479590E+02  0.55779825690E+03  0.57166590848E+03  0.12000000000E+03 0.  0.
<mgrwt>
<rscale>  0 0.27556182E+03</rscale>
<asrwt>0</asrwt>
<pdfrwt beam="1">  1        2 0.12252138E+00 0.27556182E+03</pdfrwt>
<pdfrwt beam="2">  1       -2 0.36672414E-02 0.27556182E+03</pdfrwt>
<totfact> 0.11143086E+04</totfact>
</mgrwt>
</event>
<event>
 5    1  0.1147887E+001  0.2734017E+03  0.7818608E-02  0.1099348E+00
         -2   -1    0    0    0  501 -0.00000000000E+00  0.00000000000E+00  0.14410143239E+02  0.14410143239E+02  0.00000000000E+00 0. -1.
          2   -1    0    0  501    0  0.00000000000E+00 -0.00000000000E+00 -0.12968032536E+04  0.12968032536E+04  0.00000000000E+00 0. -1.
         35    2    1    2    0    0  0.00000000000E+00  0.00000000000E+00 -0.12823931104E+04  0.13112133968E+04  0.27340168717E+03 0.  0.
         25    1    3    3    0    0  0.45088516385E+02 -0.46443647936E+02 -0.59392960445E+03  0.60937866863E+03  0.12000000000E+03 0.  0.
         25    1    3    3    0    0 -0.45088516385E+02  0.46443647936E+02 -0.68846350592E+03  0.70183472822E+03  0.12000000000E+03 0.  0.
<mgrwt>
<rscale>  0 0.27340169E+03</rscale>
<asrwt>0</asrwt>
<pdfrwt beam="1">  1        2 0.19950821E+00 0.27340169E+03</pdfrwt>
<pdfrwt beam="2">  1       -2 0.22169449E-02 0.27340169E+03</pdfrwt>
<totfact> 0.11687283E+04</totfact>
</mgrwt>
</event>
<event>
 5    1  0.1147887E+001  0.2751783E+03  0.7818608E-02  0.1098352E+00
         -2   -1    0    0    0  501 -0.00000000000E+00  0.00000000000E+00  0.33659410106E+02  0.33659410106E+02  0.00000000000E+00 0. -1.
          2   -1    0    0  501    0  0.00000000000E+00 -0.00000000000E+00 -0.56242163774E+03  0.56242163774E+03  0.00000000000E+00 0. -1.
         35    2    1    2    0    0  0.00000000000E+00  0.00000000000E+00 -0.52876222763E+03  0.59608104784E+03  0.27517834622E+03 0.  0.
         25    1    3    3    0    0 -0.39905621727E+02 -0.15352143795E+02 -0.15176912129E+03  0.19814644367E+03  0.12000000000E+03 0.  0.
         25    1    3    3    0    0  0.39905621727E+02  0.15352143795E+02 -0.37699310634E+03  0.39793460417E+03  0.12000000000E+03 0.  0.
<mgrwt>
<rscale>  0 0.27517835E+03</rscale>
<asrwt>0</asrwt>
<pdfrwt beam="1">  1        2 0.86526406E-01 0.27517835E+03</pdfrwt>
<pdfrwt beam="2">  1       -2 0.51783708E-02 0.27517835E+03</pdfrwt>
<totfact> 0.10046198E+04</totfact>
</mgrwt>
</event>
<event>
 5    1  0.1147887E+001  0.2749831E+03  0.7818608E-02  0.1098461E+00
          2   -1    0    0  501    0  0.00000000000E+00  0.00000000000E+00  0.56893968351E+03  0.56893968351E+03  0.00000000000E+00 0. -1.
         -2   -1    0    0    0  501 -0.00000000000E+00 -0.00000000000E+00 -0.33226602318E+02  0.33226602318E+02  0.00000000000E+00 0. -1.
         35    2    1    2    0    0  0.00000000000E+00  0.00000000000E+00  0.53571308119E+03  0.60216628583E+03  0.27498314571E+03 0.  0.
         25    1    3    3    0    0  0.64411744211E+02 -0.47048171875E+01  0.30781265474E+03  0.33662982416E+03  0.12000000000E+03 0.  0.
         25    1    3    3    0    0 -0.64411744211E+02  0.47048171875E+01  0.22790042646E+03  0.26553646167E+03  0.12000000000E+03 0.  0.
<mgrwt>
<rscale>  0 0.27498315E+03</rscale>
<asrwt>0</asrwt>
<pdfrwt beam="1">  1        2 0.87529175E-01 0.27498315E+03</pdfrwt>
<pdfrwt beam="2">  1       -2 0.51117854E-02 0.27498315E+03</pdfrwt>
<totfact> 0.10111390E+04</totfact>
</mgrwt>
</event>
<event>
 5    1  0.1147887E+001  0.2744099E+03  0.7818608E-02  0.1098782E+00
          1   -1    0    0  501    0  0.00000000000E+00  0.00000000000E+00  0.29962943961E+03  0.29962943961E+03  0.00000000000E+00 0. -1.
         -1   -1    0    0    0  501 -0.00000000000E+00 -0.00000000000E+00 -0.62828273859E+02  0.62828273859E+02  0.00000000000E+00 0. -1.
         35    2    1    2    0    0  0.00000000000E+00  0.00000000000E+00  0.23680116575E+03  0.36245771347E+03  0.27440991591E+03 0.  0.
         25    1    3    3    0    0 -0.54172404988E+02  0.51905540684E+01  0.67868161698E+02  0.14821497457E+03  0.12000000000E+03 0.  0.
         25    1    3    3    0    0  0.54172404988E+02 -0.51905540684E+01  0.16893300405E+03  0.21424273890E+03  0.12000000000E+03 0.  0.
<mgrwt>
<rscale>  0 0.27440992E+03</rscale>
<asrwt>0</asrwt>
<pdfrwt beam="1">  1        1 0.46096836E-01 0.27440992E+03</pdfrwt>
<pdfrwt beam="2">  1       -1 0.96658884E-02 0.27440992E+03</pdfrwt>
<totfact> 0.56016696E+03</totfact>
</mgrwt>
</event>
<event>
 5    1  0.1147887E+001  0.2751141E+03  0.7818608E-02  0.1098388E+00
          1   -1    0    0  501    0  0.00000000000E+00  0.00000000000E+00  0.27348936146E+03  0.27348936146E+03  0.00000000000E+00 0.  1.
         -1   -1    0    0    0  501 -0.00000000000E+00 -0.00000000000E+00 -0.69187141412E+02  0.69187141412E+02  0.00000000000E+00 0.  1.
         35    2    1    2    0    0  0.00000000000E+00  0.00000000000E+00  0.20430222005E+03  0.34267650288E+03  0.27511413723E+03 0.  0.
         25    1    3    3    0    0 -0.26680973392E+02  0.44328899527E+02  0.48648849944E+02  0.13944043988E+03  0.12000000000E+03 0.  0.
         25    1    3    3    0    0  0.26680973392E+02 -0.44328899527E+02  0.15565337011E+03  0.20323606299E+03  0.12000000000E+03 0.  0.
<mgrwt>
<rscale>  0 0.27511414E+03</rscale>
<asrwt>0</asrwt>
<pdfrwt beam="1">  1        1 0.42075286E-01 0.27511414E+03</pdfrwt>
<pdfrwt beam="2">  1       -1 0.10644176E-01 0.27511414E+03</pdfrwt>
<totfact> 0.54123686E+03</totfact>
</mgrwt>
</event>
<event>
 5    1  0.1147887E+001  0.2773819E+03  0.7818608E-02  0.1097128E+00
          2   -1    0    0  501    0  0.00000000000E+00  0.00000000000E+00  0.61520576767E+03  0.61520576767E+03  0.00000000000E+00 0.  1.
         -2   -1    0    0    0  501 -0.00000000000E+00 -0.00000000000E+00 -0.31266249448E+02  0.31266249448E+02  0.00000000000E+00 0.  1.
         35    2    1    2    0    0  0.00000000000E+00  0.00000000000E+00  0.58393951822E+03  0.64647201712E+03  0.27738188112E+03 0.  0.
         25    1    3    3    0    0 -0.59166142745E+02  0.35431737303E+02  0.31270266451E+03  0.34196344373E+03  0.12000000000E+03 0.  0.
         25    1    3    3    0    0  0.59166142745E+02 -0.35431737303E+02  0.27123685371E+03  0.30450857338E+03  0.12000000000E+03 0.  0.
<mgrwt>
<rscale>  0 0.27738188E+03</rscale>
<asrwt>0</asrwt>
<pdfrwt beam="1">  1        2 0.94647032E-01 0.27738188E+03</pdfrwt>
<pdfrwt beam="2">  1       -2 0.48101927E-02 0.27738188E+03</pdfrwt>
<totfact> 0.10133528E+04</totfact>
</mgrwt>
</event>
<event>
 5    1  0.1147887E+001  0.2719622E+03  0.7818608E-02  0.1100162E+00
         -1   -1    0    0    0  501 -0.00000000000E+00  0.00000000000E+00  0.28012206014E+03  0.28012206014E+03  0.00000000000E+00 0. -1.
          1   -1    0    0  501    0  0.00000000000E+00 -0.00000000000E+00 -0.66010007096E+02  0.66010007096E+02  0.00000000000E+00 0. -1.
         35    2    1    2    0    0  0.00000000000E+00  0.00000000000E+00  0.21411205305E+03  0.34613206724E+03  0.27196219721E+03 0.  0.
         25    1    3    3    0    0 -0.12198449469E+02  0.37313549304E+02  0.42789828168E+02  0.13331193692E+03  0.12000000000E+03 0.  0.
         25    1    3    3    0    0  0.12198449469E+02 -0.37313549304E+02  0.17132222488E+03  0.21282013032E+03  0.12000000000E+03 0.  0.
<mgrwt>
<rscale>  0 0.27196220E+03</rscale>
<asrwt>0</asrwt>
<pdfrwt beam="1">  1        1 0.10155386E-01 0.27196220E+03</pdfrwt>
<pdfrwt beam="2">  1       -1 0.43095701E-01 0.27196220E+03</pdfrwt>
<totfact> 0.33753722E+03</totfact>
</mgrwt>
</event>
<event>
 5    1  0.1147887E+001  0.2726491E+03  0.7818608E-02  0.1099773E+00
         -1   -1    0    0    0  501 -0.00000000000E+00  0.00000000000E+00  0.23374777461E+03  0.23374777461E+03  0.00000000000E+00 0. -1.
          1   -1    0    0  501    0  0.00000000000E+00 -0.00000000000E+00 -0.79506142417E+02  0.79506142417E+02  0.00000000000E+00 0. -1.
         35    2    1    2    0    0  0.00000000000E+00  0.00000000000E+00  0.15424163219E+03  0.31325391702E+03  0.27264910678E+03 0.  0.
         25    1    3    3    0    0  0.31769478616E+02  0.13047821978E+02  0.14140767221E+02  0.12561650659E+03  0.12000000000E+03 0.  0.
         25    1    3    3    0    0 -0.31769478616E+02 -0.13047821978E+02  0.14010086497E+03  0.18763741044E+03  0.12000000000E+03 0.  0.
<mgrwt>
<rscale>  0 0.27264911E+03</rscale>
<asrwt>0</asrwt>
<pdfrwt beam="1">  1        1 0.12231714E-01 0.27264911E+03</pdfrwt>
<pdfrwt beam="2">  1       -1 0.35961196E-01 0.27264911E+03</pdfrwt>
<totfact> 0.36274934E+03</totfact>
</mgrwt>
</event>
<event>
 5    1  0.1147887E+001  0.2757965E+03  0.7818608E-02  0.1098007E+00
         -1   -1    0    0    0  501 -0.00000000000E+00  0.00000000000E+00  0.94939209683E+02  0.94939209683E+02  0.00000000000E+00 0. -1.
          1   -1    0    0  501    0  0.00000000000E+00 -0.00000000000E+00 -0.20029575382E+03  0.20029575382E+03  0.00000000000E+00 0. -1.
         35    2    1    2    0    0  0.00000000000E+00  0.00000000000E+00 -0.10535654414E+03  0.29523496350E+03  0.27579645081E+03 0.  0.
         25    1    3    3    0    0 -0.33459481677E+02 -0.54712666172E+02 -0.76684465874E+02  0.15618425036E+03  0.12000000000E+03 0.  0.
         25    1    3    3    0    0  0.33459481677E+02  0.54712666172E+02 -0.28672078263E+02  0.13905071314E+03  0.12000000000E+03 0.  0.
<mgrwt>
<rscale>  0 0.27579645E+03</rscale>
<asrwt>0</asrwt>
<pdfrwt beam="1">  1        1 0.30814731E-01 0.27579645E+03</pdfrwt>
<pdfrwt beam="2">  1       -1 0.14606032E-01 0.27579645E+03</pdfrwt>
<totfact> 0.48768553E+03</totfact>
</mgrwt>
</event>
<event>
 5    1  0.1147887E+001  0.2758954E+03  0.7818608E-02  0.1097952E+00
          2   -1    0    0  501    0  0.00000000000E+00  0.00000000000E+00  0.11966191689E+04  0.11966191689E+04  0.00000000000E+00 0.  1.
         -2   -1    0    0    0  501 -0.00000000000E+00 -0.00000000000E+00 -0.15902771384E+02  0.15902771384E+02  0.00000000000E+00 0.  1.
         35    2    1    2    0    0  0.00000000000E+00  0.00000000000E+00  0.11807163975E+04  0.12125219403E+04  0.27589535028E+03 0.  0.
         25    1    3    3    0    0 -0.73249932274E+01 -0.67607461544E+02  0.58039756207E+03  0.59656160993E+03  0.12000000000E+03 0.  0.
         25    1    3    3    0    0  0.73249932274E+01  0.67607461544E+02  0.60031883542E+03  0.61596033033E+03  0.12000000000E+03 0.  0.
<mgrwt>
<rscale>  0 0.27589535E+03</rscale>
<asrwt>0</asrwt>
<pdfrwt beam="1">  1        2 0.18409519E+00 0.27589535E+03</pdfrwt>
<pdfrwt beam="2">  1       -2 0.24465812E-02 0.27589535E+03</pdfrwt>
<totfact> 0.11503098E+04</totfact>
</mgrwt>
</event>
<event>
 5    1  0.1147887E+001  0.2753205E+03  0.7818608E-02  0.1098273E+00
         -2   -1    0    0    0  501 -0.00000000000E+00  0.00000000000E+00  0.13192042520E+02  0.13192042520E+02  0.00000000000E+00 0. -1.
          2   -1    0    0  501    0  0.00000000000E+00 -0.00000000000E+00 -0.14364976665E+04  0.14364976665E+04  0.00000000000E+00 0. -1.
         35    2    1    2    0    0  0.00000000000E+00  0.00000000000E+00 -0.14233056240E+04  0.14496897090E+04  0.27532045545E+03 0.  0.
         25    1    3    3    0    0 -0.49334904875E+01 -0.55213507316E+02 -0.91404584395E+03  0.92355437066E+03  0.12000000000E+03 0.  0.
         25    1    3    3    0    0  0.49334904875E+01  0.55213507316E+02 -0.50925978003E+03  0.52613533837E+03  0.12000000000E+03 0.  0.
<mgrwt>
<rscale>  0 0.27532046E+03</rscale>
<asrwt>0</asrwt>
<pdfrwt beam="1">  1        2 0.22099975E+00 0.27532046E+03</pdfrwt>
<pdfrwt beam="2">  1       -2 0.20295440E-02 0.27532046E+03</pdfrwt>
<totfact> 0.11167569E+04</totfact>
</mgrwt>
</event>
<event>
 5    1  0.1147887E+001  0.2743239E+03  0.7818608E-02  0.1098830E+00
         -2   -1    0    0    0  501 -0.00000000000E+00  0.00000000000E+00  0.66536947995E+02  0.66536947995E+02  0.00000000000E+00 0. -1.
          2   -1    0    0  501    0  0.00000000000E+00 -0.00000000000E+00 -0.28275119704E+03  0.28275119704E+03  0.00000000000E+00 0. -1.
         35    2    1    2    0    0  0.00000000000E+00  0.00000000000E+00 -0.21621424904E+03  0.34928814503E+03  0.27432390849E+03 0.  0.
         25    1    3    3    0    0 -0.66141906682E+02 -0.13157914439E+01 -0.11584359013E+03  0.17943305298E+03  0.12000000000E+03 0.  0.
         25    1    3    3    0    0  0.66141906682E+02  0.13157914439E+01 -0.10037065892E+03  0.16985509206E+03  0.12000000000E+03 0.  0.
<mgrwt>
<rscale>  0 0.27432391E+03</rscale>
<asrwt>0</asrwt>
<pdfrwt beam="1">  1        2 0.43500183E-01 0.27432391E+03</pdfrwt>
<pdfrwt beam="2">  1       -2 0.10236454E-01 0.27432391E+03</pdfrwt>
<totfact> 0.73965185E+03</totfact>
</mgrwt>
</event>
<event>
 5    1  0.1147887E+001  0.2735050E+03  0.7818608E-02  0.1099290E+00
          2   -1    0    0  501    0  0.00000000000E+00  0.00000000000E+00  0.50478703487E+03  0.50478703487E+03  0.00000000000E+00 0.  1.
         -2   -1    0    0    0  501 -0.00000000000E+00 -0.00000000000E+00 -0.37047788239E+02  0.37047788239E+02  0.00000000000E+00 0.  1.
         35    2    1    2    0    0  0.00000000000E+00  0.00000000000E+00  0.46773924663E+03  0.54183482311E+03  0.27350497746E+03 0.  0.
         25    1    3    3    0    0  0.10582718266E+02  0.59459752816E+02  0.18321491330E+03  0.22718970176E+03  0.12000000000E+03 0.  0.
         25    1    3    3    0    0 -0.10582718266E+02 -0.59459752816E+02  0.28452433334E+03  0.31464512135E+03  0.12000000000E+03 0.  0.
<mgrwt>
<rscale>  0 0.27350498E+03</rscale>
<asrwt>0</asrwt>
<pdfrwt beam="1">  1        2 0.77659539E-01 0.27350498E+03</pdfrwt>
<pdfrwt beam="2">  1       -2 0.56996601E-02 0.27350498E+03</pdfrwt>
<totfact> 0.98057178E+03</totfact>
</mgrwt>
</event>
<event>
 5    1  0.1147887E+001  0.2729816E+03  0.7818608E-02  0.1099585E+00
          2   -1    0    0  501    0  0.00000000000E+00  0.00000000000E+00  0.13099657943E+03  0.13099657943E+03  0.00000000000E+00 0.  1.
         -2   -1    0    0    0  501 -0.00000000000E+00 -0.00000000000E+00 -0.14221548095E+03  0.14221548095E+03  0.00000000000E+00 0.  1.
         35    2    1    2    0    0  0.00000000000E+00  0.00000000000E+00 -0.11218901517E+02  0.27321206039E+03  0.27298162244E+03 0.  0.
         25    1    3    3    0    0  0.63866890232E+02  0.10804975090E+02 -0.11446559934E+02  0.13684571929E+03  0.12000000000E+03 0.  0.
         25    1    3    3    0    0 -0.63866890232E+02 -0.10804975090E+02  0.22765841769E+00  0.13636634109E+03  0.12000000000E+03 0.  0.
<mgrwt>
<rscale>  0 0.27298162E+03</rscale>
<asrwt>0</asrwt>
<pdfrwt beam="1">  1        2 0.20153320E-01 0.27298162E+03</pdfrwt>
<pdfrwt beam="2">  1       -2 0.21879305E-01 0.27298162E+03</pdfrwt>
<totfact> 0.49146860E+03</totfact>
</mgrwt>
</event>
<event>
 5    1  0.1147887E+001  0.2743363E+03  0.7818608E-02  0.1098823E+00
          2   -1    0    0  501    0  0.00000000000E+00  0.00000000000E+00  0.38018332831E+03  0.38018332831E+03  0.00000000000E+00 0.  1.
         -2   -1    0    0    0  501 -0.00000000000E+00 -0.00000000000E+00 -0.49489543001E+02  0.49489543001E+02  0.00000000000E+00 0.  1.
         35    2    1    2    0    0  0.00000000000E+00  0.00000000000E+00  0.33069378531E+03  0.42967287131E+03  0.27433628396E+03 0.  0.
         25    1    3    3    0    0  0.10341976373E+02 -0.13067461673E+02  0.64603260318E+02  0.13730002285E+03  0.12000000000E+03 0.  0.
         25    1    3    3    0    0 -0.10341976373E+02  0.13067461673E+02  0.26609052499E+03  0.29237284847E+03  0.12000000000E+03 0.  0.
<mgrwt>
<rscale>  0 0.27433628E+03</rscale>
<asrwt>0</asrwt>
<pdfrwt beam="1">  1        2 0.58489741E-01 0.27433628E+03</pdfrwt>
<pdfrwt beam="2">  1       -2 0.76137761E-02 0.27433628E+03</pdfrwt>
<totfact> 0.85659905E+03</totfact>
</mgrwt>
</event>
<event>
 5    1  0.1147887E+001  0.2748566E+03  0.7818608E-02  0.1098532E+00
         -1   -1    0    0    0  501 -0.00000000000E+00  0.00000000000E+00  0.86059948056E+02  0.86059948056E+02  0.00000000000E+00 0.  1.
          1   -1    0    0  501    0  0.00000000000E+00 -0.00000000000E+00 -0.21945800342E+03  0.21945800342E+03  0.00000000000E+00 0.  1.
         35    2    1    2    0    0  0.00000000000E+00  0.00000000000E+00 -0.13339805536E+03  0.30551795147E+03  0.27485664900E+03 0.  0.
         25    1    3    3    0    0 -0.58105992599E+02  0.15318812268E+02 -0.33808077815E+02  0.13839782697E+03  0.12000000000E+03 0.  0.
         25    1    3    3    0    0  0.58105992599E+02 -0.15318812268E+02 -0.99589977545E+02  0.16712012450E+03  0.12000000000E+03 0.  0.
<mgrwt>
<rscale>  0 0.27485665E+03</rscale>
<asrwt>0</asrwt>
<pdfrwt beam="1">  1        1 0.33762769E-01 0.27485665E+03</pdfrwt>
<pdfrwt beam="2">  1       -1 0.13239992E-01 0.27485665E+03</pdfrwt>
<totfact> 0.50749338E+03</totfact>
</mgrwt>
</event>
<event>
 5    1  0.1147887E+001  0.2746424E+03  0.7818608E-02  0.1098652E+00
          3   -1    0    0  501    0  0.00000000000E+00  0.00000000000E+00  0.93137511635E+02  0.93137511635E+02  0.00000000000E+00 0.  1.
         -3   -1    0    0    0  501 -0.00000000000E+00 -0.00000000000E+00 -0.20246529567E+03  0.20246529567E+03  0.00000000000E+00 0.  1.
         35    2    1    2    0    0  0.00000000000E+00  0.00000000000E+00 -0.10932778403E+03  0.29560280730E+03  0.27464241355E+03 0.  0.
         25    1    3    3    0    0 -0.48033563162E+02 -0.17814014722E+02 -0.85884994872E+01  0.13076056223E+03  0.12000000000E+03 0.  0.
         25    1    3    3    0    0  0.48033563162E+02  0.17814014722E+02 -0.10073928454E+03  0.16484224507E+03  0.12000000000E+03 0.  0.
<mgrwt>
<rscale>  0 0.27464241E+03</rscale>
<asrwt>0</asrwt>
<pdfrwt beam="1">  1        3 0.14328848E-01 0.27464241E+03</pdfrwt>
<pdfrwt beam="2">  1       -3 0.31148507E-01 0.27464241E+03</pdfrwt>
<totfact> 0.10219953E+03</totfact>
</mgrwt>
</event>
<event>
 5    1  0.1147887E+001  0.2688317E+03  0.7818608E-02  0.1101950E+00
         -2   -1    0    0    0  501 -0.00000000000E+00  0.00000000000E+00  0.37785370438E+01  0.37785370438E+01  0.00000000000E+00 0.  1.
          2   -1    0    0  501    0  0.00000000000E+00 -0.00000000000E+00 -0.47816451115E+04  0.47816451115E+04  0.00000000000E+00 0.  1.
         35    2    1    2    0    0  0.00000000000E+00  0.00000000000E+00 -0.47778665745E+04  0.47854236486E+04  0.26883171825E+03 0.  0.
         25    1    3    3    0    0 -0.35238227012E+02  0.96522288800E+01 -0.32486822434E+04  0.32511030769E+04  0.12000000000E+03 0.  0.
         25    1    3    3    0    0  0.35238227012E+02 -0.96522288800E+01 -0.15291843311E+04  0.15343205717E+04  0.12000000000E+03 0.  0.
<mgrwt>
<rscale>  0 0.26883172E+03</rscale>
<asrwt>0</asrwt>
<pdfrwt beam="1">  1        2 0.73564330E+00 0.26883172E+03</pdfrwt>
<pdfrwt beam="2">  1       -2 0.58130897E-03 0.26883172E+03</pdfrwt>
<totfact> 0.41813769E+02</totfact>
</mgrwt>
</event>
<event>
 5    1  0.1147887E+001  0.2753949E+03  0.7818608E-02  0.1098231E+00
         -1   -1    0    0    0  501 -0.00000000000E+00  0.00000000000E+00  0.13374937692E+02  0.13374937692E+02  0.00000000000E+00 0. -1.
          1   -1    0    0  501    0  0.00000000000E+00 -0.00000000000E+00 -0.14176209620E+04  0.14176209620E+04  0.00000000000E+00 0. -1.
         35    2    1    2    0    0  0.00000000000E+00  0.00000000000E+00 -0.14042460243E+04  0.14309958997E+04  0.27539493123E+03 0.  0.
         25    1    3    3    0    0  0.55271941154E+02 -0.82040948089E+01 -0.89918678458E+03  0.90887797212E+03  0.12000000000E+03 0.  0.
         25    1    3    3    0    0 -0.55271941154E+02  0.82040948089E+01 -0.50505923969E+03  0.52211792753E+03  0.12000000000E+03 0.  0.
<mgrwt>
<rscale>  0 0.27539493E+03</rscale>
<asrwt>0</asrwt>
<pdfrwt beam="1">  1        1 0.21809549E+00 0.27539493E+03</pdfrwt>
<pdfrwt beam="2">  1       -1 0.20576832E-02 0.27539493E+03</pdfrwt>
<totfact> 0.53417939E+03</totfact>
</mgrwt>
</event>
<event>
 5    1  0.1147887E+001  0.2754454E+03  0.7818608E-02  0.1098203E+00
          4   -1    0    0  501    0  0.00000000000E+00  0.00000000000E+00  0.65731338184E+02  0.65731338184E+02  0.00000000000E+00 0.  1.
         -4   -1    0    0    0  501 -0.00000000000E+00 -0.00000000000E+00 -0.28856161700E+03  0.28856161700E+03  0.00000000000E+00 0.  1.
         35    2    1    2    0    0  0.00000000000E+00  0.00000000000E+00 -0.22283027881E+03  0.35429295518E+03  0.27544539374E+03 0.  0.
         25    1    3    3    0    0  0.54028709026E+02 -0.35193991778E+02 -0.85376094598E+02  0.16076938759E+03  0.12000000000E+03 0.  0.
         25    1    3    3    0    0 -0.54028709026E+02  0.35193991778E+02 -0.13745418421E+03  0.19352356759E+03  0.12000000000E+03 0.  0.
<mgrwt>
<rscale>  0 0.27544539E+03</rscale>
<asrwt>0</asrwt>
<pdfrwt beam="1">  1        4 0.10112513E-01 0.27544539E+03</pdfrwt>
<pdfrwt beam="2">  1       -4 0.44394096E-01 0.27544539E+03</pdfrwt>
<totfact> 0.68955807E+02</totfact>
</mgrwt>
</event>
<event>
 4    1  0.1147887E+001  0.2960300E+03  0.7818608E-02  0.1087242E+00
         -4   -1    0    0    0  501 -0.00000000000E+00  0.00000000000E+00  0.78781681103E+02  0.78781681103E+02  0.00000000000E+00 0. -1.
          4   -1    0    0  501    0  0.00000000000E+00 -0.00000000000E+00 -0.27809046823E+03  0.27809046823E+03  0.00000000000E+00 0. -1.
         25    1    1    2    0    0  0.21057721278E+02  0.58061527739E+02 -0.17292293619E+03  0.21935567120E+03  0.12000000000E+03 0.  0.
         25    1    1    2    0    0 -0.21057721278E+02 -0.58061527739E+02 -0.26385850945E+02  0.13751647814E+03  0.12000000000E+03 0.  0.
<mgrwt>
<rscale>  0 0.29602996E+03</rscale>
<asrwt>0</asrwt>
<pdfrwt beam="1">  1        4 0.42783149E-01 0.29602996E+03</pdfrwt>
<pdfrwt beam="2">  1       -4 0.12120259E-01 0.29602996E+03</pdfrwt>
<totfact> 0.54963340E+02</totfact>
</mgrwt>
</event>
<event>
 5    1  0.1147887E+001  0.2667123E+03  0.7818608E-02  0.1103176E+00
         -1   -1    0    0    0  501 -0.00000000000E+00  0.00000000000E+00  0.69071580160E+02  0.69071580160E+02  0.00000000000E+00 0.  1.
          1   -1    0    0  501    0  0.00000000000E+00 -0.00000000000E+00 -0.25746998314E+03  0.25746998314E+03  0.00000000000E+00 0.  1.
         35    2    1    2    0    0  0.00000000000E+00  0.00000000000E+00 -0.18839840298E+03  0.32654156330E+03  0.26671226878E+03 0.  0.
         25    1    3    3    0    0 -0.22985677761E+02  0.48535721300E+02 -0.12157041263E+03  0.17906262271E+03  0.12000000000E+03 0.  0.
         25    1    3    3    0    0  0.22985677761E+02 -0.48535721300E+02 -0.66827990352E+02  0.14747894059E+03  0.12000000000E+03 0.  0.
<mgrwt>
<rscale>  0 0.26671227E+03</rscale>
<asrwt>0</asrwt>
<pdfrwt beam="1">  1        1 0.39610767E-01 0.26671227E+03</pdfrwt>
<pdfrwt beam="2">  1       -1 0.10626397E-01 0.26671227E+03</pdfrwt>
<totfact> 0.58469299E+03</totfact>
</mgrwt>
</event>
<event>
 5    1  0.1147887E+001  0.2732446E+03  0.7818608E-02  0.1099437E+00
          2   -1    0    0  501    0  0.00000000000E+00  0.00000000000E+00  0.16330818494E+04  0.16330818494E+04  0.00000000000E+00 0. -1.
         -2   -1    0    0    0  501 -0.00000000000E+00 -0.00000000000E+00 -0.11429709429E+02  0.11429709429E+02  0.00000000000E+00 0. -1.
         35    2    1    2    0    0  0.00000000000E+00  0.00000000000E+00  0.16216521400E+04  0.16445115589E+04  0.27324458650E+03 0.  0.
         25    1    3    3    0    0 -0.53474643592E+02 -0.11166352203E+02  0.59538319104E+03  0.60980764927E+03  0.12000000000E+03 0.  0.
         25    1    3    3    0    0  0.53474643592E+02  0.11166352203E+02  0.10262689490E+04  0.10347039096E+04  0.12000000000E+03 0.  0.
<mgrwt>
<rscale>  0 0.27324459E+03</rscale>
<asrwt>0</asrwt>
<pdfrwt beam="1">  1        2 0.25124318E+00 0.27324459E+03</pdfrwt>
<pdfrwt beam="2">  1       -2 0.17584181E-02 0.27324459E+03</pdfrwt>
<totfact> 0.10827187E+04</totfact>
</mgrwt>
</event>
<event>
 5    1  0.1147887E+001  0.2752133E+03  0.7818608E-02  0.1098332E+00
         -2   -1    0    0    0  501 -0.00000000000E+00  0.00000000000E+00  0.31048270788E+02  0.31048270788E+02  0.00000000000E+00 0. -1.
          2   -1    0    0  501    0  0.00000000000E+00 -0.00000000000E+00 -0.60987593527E+03  0.60987593527E+03  0.00000000000E+00 0. -1.
         35    2    1    2    0    0  0.00000000000E+00  0.00000000000E+00 -0.57882766448E+03  0.64092420606E+03  0.27521332225E+03 0.  0.
         25    1    3    3    0    0  0.61724393273E+02  0.18051472462E+02 -0.24284679538E+03  0.27840675712E+03  0.12000000000E+03 0.  0.
         25    1    3    3    0    0 -0.61724393273E+02 -0.18051472462E+02 -0.33598086911E+03  0.36251744894E+03  0.12000000000E+03 0.  0.
<mgrwt>
<rscale>  0 0.27521332E+03</rscale>
<asrwt>0</asrwt>
<pdfrwt beam="1">  1        2 0.93827063E-01 0.27521332E+03</pdfrwt>
<pdfrwt beam="2">  1       -2 0.47766572E-02 0.27521332E+03</pdfrwt>
<totfact> 0.10343205E+04</totfact>
</mgrwt>
</event>
<event>
 5    1  0.1147887E+001  0.2754145E+03  0.7818608E-02  0.1098220E+00
          1   -1    0    0  501    0  0.00000000000E+00  0.00000000000E+00  0.26135516255E+04  0.26135516255E+04  0.00000000000E+00 0.  1.
         -1   -1    0    0    0  501 -0.00000000000E+00 -0.00000000000E+00 -0.72557526282E+01  0.72557526282E+01  0.00000000000E+00 0.  1.
         35    2    1    2    0    0  0.00000000000E+00  0.00000000000E+00  0.26062958729E+04  0.26208073781E+04  0.27541448092E+03 0.  0.
         25    1    3    3    0    0  0.44556725046E+02 -0.26713089449E+02  0.17140299066E+04  0.17190105909E+04  0.12000000000E+03 0.  0.
         25    1    3    3    0    0 -0.44556725046E+02  0.26713089449E+02  0.89226596628E+03  0.90179678724E+03  0.12000000000E+03 0.  0.
<mgrwt>
<rscale>  0 0.27541448E+03</rscale>
<asrwt>0</asrwt>
<pdfrwt beam="1">  1        1 0.40208411E+00 0.27541448E+03</pdfrwt>
<pdfrwt beam="2">  1       -1 0.11162717E-02 0.27541448E+03</pdfrwt>
<totfact> 0.21353583E+03</totfact>
</mgrwt>
</event>
<event>
 5    1  0.1147887E+001  0.2748940E+03  0.7818608E-02  0.1098511E+00
          2   -1    0    0  501    0  0.00000000000E+00  0.00000000000E+00  0.20423757547E+04  0.20423757547E+04  0.00000000000E+00 0.  1.
         -2   -1    0    0    0  501 -0.00000000000E+00 -0.00000000000E+00 -0.92498517920E+01  0.92498517920E+01  0.00000000000E+00 0.  1.
         35    2    1    2    0    0  0.00000000000E+00  0.00000000000E+00  0.20331259029E+04  0.20516256065E+04  0.27489396526E+03 0.  0.
         25    1    3    3    0    0 -0.68477190343E+01 -0.54269046210E+02  0.72754274380E+03  0.73939871834E+03  0.12000000000E+03 0.  0.
         25    1    3    3    0    0  0.68477190343E+01  0.54269046210E+02  0.13055831591E+04  0.13122268882E+04  0.12000000000E+03 0.  0.
<mgrwt>
<rscale>  0 0.27489397E+03</rscale>
<asrwt>0</asrwt>
<pdfrwt beam="1">  1        2 0.31421129E+00 0.27489397E+03</pdfrwt>
<pdfrwt beam="2">  1       -2 0.14230558E-02 0.27489397E+03</pdfrwt>
<totfact> 0.89931361E+03</totfact>
</mgrwt>
</event>
<event>
 5    1  0.1147887E+001  0.2744456E+03  0.7818608E-02  0.1098762E+00
         -2   -1    0    0    0  501 -0.00000000000E+00  0.00000000000E+00  0.89091068290E+01  0.89091068290E+01  0.00000000000E+00 0. -1.
          2   -1    0    0  501    0  0.00000000000E+00 -0.00000000000E+00 -0.21135781232E+04  0.21135781232E+04  0.00000000000E+00 0. -1.
         35    2    1    2    0    0  0.00000000000E+00  0.00000000000E+00 -0.21046690163E+04  0.21224872300E+04  0.27444557414E+03 0.  0.
         25    1    3    3    0    0 -0.11132866588E+02 -0.45817653914E+02 -0.68902253897E+03  0.70098163838E+03  0.12000000000E+03 0.  0.
         25    1    3    3    0    0  0.11132866588E+02  0.45817653914E+02 -0.14156464773E+04  0.14215055916E+04  0.12000000000E+03 0.  0.
<mgrwt>
<rscale>  0 0.27444557E+03</rscale>
<asrwt>0</asrwt>
<pdfrwt beam="1">  1        2 0.32516632E+00 0.27444557E+03</pdfrwt>
<pdfrwt beam="2">  1       -2 0.13706299E-02 0.27444557E+03</pdfrwt>
<totfact> 0.87122641E+03</totfact>
</mgrwt>
</event>
<event>
 5    1  0.1147887E+001  0.2752968E+03  0.7818608E-02  0.1098286E+00
         -2   -1    0    0    0  501 -0.00000000000E+00  0.00000000000E+00  0.97890186894E+01  0.97890186894E+01  0.00000000000E+00 0.  1.
          2   -1    0    0  501    0  0.00000000000E+00 -0.00000000000E+00 -0.19355442594E+04  0.19355442594E+04  0.00000000000E+00 0.  1.
         35    2    1    2    0    0  0.00000000000E+00  0.00000000000E+00 -0.19257552407E+04  0.19453332781E+04  0.27529677753E+03 0.  0.
         25    1    3    3    0    0 -0.53287581160E+02 -0.40747091831E+01 -0.12534491459E+04  0.12603138224E+04  0.12000000000E+03 0.  0.
         25    1    3    3    0    0  0.53287581160E+02  0.40747091831E+01 -0.67230609479E+03  0.68501945567E+03  0.12000000000E+03 0.  0.
<mgrwt>
<rscale>  0 0.27529678E+03</rscale>
<asrwt>0</asrwt>
<pdfrwt beam="1">  1        2 0.29777585E+00 0.27529678E+03</pdfrwt>
<pdfrwt beam="2">  1       -2 0.15060038E-02 0.27529678E+03</pdfrwt>
<totfact> 0.94218017E+03</totfact>
</mgrwt>
</event>
<event>
 5    1  0.1147887E+001  0.2753185E+03  0.7818608E-02  0.1098274E+00
          2   -1    0    0  501    0  0.00000000000E+00  0.00000000000E+00  0.18264959806E+04  0.18264959806E+04  0.00000000000E+00 0.  1.
         -2   -1    0    0    0  501 -0.00000000000E+00 -0.00000000000E+00 -0.10375093996E+02  0.10375093996E+02  0.00000000000E+00 0.  1.
         35    2    1    2    0    0  0.00000000000E+00  0.00000000000E+00  0.18161208866E+04  0.18368710746E+04  0.27531848817E+03 0.  0.
         25    1    3    3    0    0 -0.48098722416E+02 -0.29460677382E+02  0.11548855431E+04  0.11624723809E+04  0.12000000000E+03 0.  0.
         25    1    3    3    0    0  0.48098722416E+02  0.29460677382E+02  0.66123534353E+03  0.67439869376E+03  0.12000000000E+03 0.  0.
<mgrwt>
<rscale>  0 0.27531849E+03</rscale>
<asrwt>0</asrwt>
<pdfrwt beam="1">  1        2 0.28099913E+00 0.27531849E+03</pdfrwt>
<pdfrwt beam="2">  1       -2 0.15961698E-02 0.27531849E+03</pdfrwt>
<totfact> 0.98722157E+03</totfact>
</mgrwt>
</event>
<event>
 5    1  0.1147887E+001  0.2773963E+03  0.7818608E-02  0.1097120E+00
         -2   -1    0    0    0  501 -0.00000000000E+00  0.00000000000E+00  0.33287259996E+02  0.33287259996E+02  0.00000000000E+00 0.  1.
          2   -1    0    0  501    0  0.00000000000E+00 -0.00000000000E+00 -0.57791416441E+03  0.57791416441E+03  0.00000000000E+00 0.  1.
         35    2    1    2    0    0  0.00000000000E+00  0.00000000000E+00 -0.54462690442E+03  0.61120142441E+03  0.27739631610E+03 0.  0.
         25    1    3    3    0    0  0.30471573249E+02  0.77465814453E+01 -0.40900385783E+03  0.42740224849E+03  0.12000000000E+03 0.  0.
         25    1    3    3    0    0 -0.30471573249E+02 -0.77465814453E+01 -0.13562304659E+03  0.18379917591E+03  0.12000000000E+03 0.  0.
<mgrwt>
<rscale>  0 0.27739632E+03</rscale>
<asrwt>0</asrwt>
<pdfrwt beam="1">  1        2 0.88909867E-01 0.27739632E+03</pdfrwt>
<pdfrwt beam="2">  1       -2 0.51211172E-02 0.27739632E+03</pdfrwt>
<totfact> 0.99068955E+03</totfact>
</mgrwt>
</event>
<event>
 5    1  0.1147887E+001  0.2758516E+03  0.7818608E-02  0.1097977E+00
         -2   -1    0    0    0  501 -0.00000000000E+00  0.00000000000E+00  0.22182445286E+03  0.22182445286E+03  0.00000000000E+00 0. -1.
          2   -1    0    0  501    0  0.00000000000E+00 -0.00000000000E+00 -0.85759389502E+02  0.85759389502E+02  0.00000000000E+00 0. -1.
         35    2    1    2    0    0  0.00000000000E+00  0.00000000000E+00  0.13606506336E+03  0.30758384236E+03  0.27585162428E+03 0.  0.
         25    1    3    3    0    0  0.35610797050E+02  0.56328417137E+02  0.52968835243E+02  0.14712823302E+03  0.12000000000E+03 0.  0.
         25    1    3    3    0    0 -0.35610797050E+02 -0.56328417137E+02  0.83096228118E+02  0.16045560935E+03  0.12000000000E+03 0.  0.
<mgrwt>
<rscale>  0 0.27585162E+03</rscale>
<asrwt>0</asrwt>
<pdfrwt beam="1">  1        2 0.13193752E-01 0.27585162E+03</pdfrwt>
<pdfrwt beam="2">  1       -2 0.34126839E-01 0.27585162E+03</pdfrwt>
<totfact> 0.36468574E+03</totfact>
</mgrwt>
</event>
<event>
 5    1  0.1147887E+001  0.2743056E+03  0.7818608E-02  0.1098840E+00
          2   -1    0    0  501    0  0.00000000000E+00  0.00000000000E+00  0.57815190619E+03  0.57815190619E+03  0.00000000000E+00 0. -1.
         -2   -1    0    0    0  501 -0.00000000000E+00 -0.00000000000E+00 -0.32536233005E+02  0.32536233005E+02  0.00000000000E+00 0. -1.
         35    2    1    2    0    0  0.00000000000E+00  0.00000000000E+00  0.54561567318E+03  0.61068813919E+03  0.27430556051E+03 0.  0.
         25    1    3    3    0    0  0.43428511027E+02  0.34549374128E+02  0.19157998858E+03  0.23277153358E+03  0.12000000000E+03 0.  0.
         25    1    3    3    0    0 -0.43428511027E+02 -0.34549374128E+02  0.35403568461E+03  0.37791660561E+03  0.12000000000E+03 0.  0.
<mgrwt>
<rscale>  0 0.27430556E+03</rscale>
<asrwt>0</asrwt>
<pdfrwt beam="1">  1        2 0.88946439E-01 0.27430556E+03</pdfrwt>
<pdfrwt beam="2">  1       -2 0.50055748E-02 0.27430556E+03</pdfrwt>
<totfact> 0.10247531E+04</totfact>
</mgrwt>
</event>
<event>
 5    1  0.1147887E+001  0.2750619E+03  0.7818608E-02  0.1098417E+00
          1   -1    0    0  501    0  0.00000000000E+00  0.00000000000E+00  0.14318507458E+04  0.14318507458E+04  0.00000000000E+00 0. -1.
         -1   -1    0    0    0  501 -0.00000000000E+00 -0.00000000000E+00 -0.13210013374E+02  0.13210013374E+02  0.00000000000E+00 0. -1.
         35    2    1    2    0    0  0.00000000000E+00  0.00000000000E+00  0.14186407325E+04  0.14450607592E+04  0.27506193849E+03 0.  0.
         25    1    3    3    0    0  0.59909989328E+02 -0.16020870421E+02  0.57344718730E+03  0.58914136820E+03  0.12000000000E+03 0.  0.
         25    1    3    3    0    0 -0.59909989328E+02  0.16020870421E+02  0.84519354517E+03  0.85591939101E+03  0.12000000000E+03 0.  0.
<mgrwt>
<rscale>  0 0.27506194E+03</rscale>
<asrwt>0</asrwt>
<pdfrwt beam="1">  1        1 0.22028461E+00 0.27506194E+03</pdfrwt>
<pdfrwt beam="2">  1       -1 0.20323109E-02 0.27506194E+03</pdfrwt>
<totfact> 0.53215896E+03</totfact>
</mgrwt>
</event>
<event>
 5    1  0.1147887E+001  0.2764898E+03  0.7818608E-02  0.1097622E+00
          1   -1    0    0  501    0  0.00000000000E+00  0.00000000000E+00  0.46031709790E+03  0.46031709790E+03  0.00000000000E+00 0. -1.
         -1   -1    0    0    0  501 -0.00000000000E+00 -0.00000000000E+00 -0.41518458534E+02  0.41518458534E+02  0.00000000000E+00 0. -1.
         35    2    1    2    0    0  0.00000000000E+00  0.00000000000E+00  0.41879863937E+03  0.50183555644E+03  0.27648982869E+03 0.  0.
         25    1    3    3    0    0 -0.21206546429E+02  0.64212800708E+02  0.23077155602E+03  0.26875362779E+03  0.12000000000E+03 0.  0.
         25    1    3    3    0    0  0.21206546429E+02 -0.64212800708E+02  0.18802708335E+03  0.23308192865E+03  0.12000000000E+03 0.  0.
<mgrwt>
<rscale>  0 0.27648983E+03</rscale>
<asrwt>0</asrwt>
<pdfrwt beam="1">  1        1 0.70818011E-01 0.27648983E+03</pdfrwt>
<pdfrwt beam="2">  1       -1 0.63874555E-02 0.27648983E+03</pdfrwt>
<totfact> 0.60951061E+03</totfact>
</mgrwt>
</event>
<event>
 5    1  0.1147887E+001  0.2748520E+03  0.7818608E-02  0.1098534E+00
          3   -1    0    0  501    0  0.00000000000E+00  0.00000000000E+00  0.79526359931E+02  0.79526359931E+02  0.00000000000E+00 0. -1.
         -3   -1    0    0    0  501 -0.00000000000E+00 -0.00000000000E+00 -0.23747973403E+03  0.23747973403E+03  0.00000000000E+00 0. -1.
         35    2    1    2    0    0  0.00000000000E+00  0.00000000000E+00 -0.15795337410E+03  0.31700609396E+03  0.27485195146E+03 0.  0.
         25    1    3    3    0    0 -0.22901356043E+01 -0.62513972866E+02 -0.10657713809E+03  0.17225541468E+03  0.12000000000E+03 0.  0.
         25    1    3    3    0    0  0.22901356043E+01  0.62513972866E+02 -0.51376236011E+02  0.14475067928E+03  0.12000000000E+03 0.  0.
<mgrwt>
<rscale>  0 0.27485195E+03</rscale>
<asrwt>0</asrwt>
<pdfrwt beam="1">  1        3 0.12234825E-01 0.27485195E+03</pdfrwt>
<pdfrwt beam="2">  1       -3 0.36535344E-01 0.27485195E+03</pdfrwt>
<totfact> 0.98888918E+02</totfact>
</mgrwt>
</event>
<event>
 5    1  0.1147887E+001  0.2744473E+03  0.7818608E-02  0.1098761E+00
          1   -1    0    0  501    0  0.00000000000E+00  0.00000000000E+00  0.11658556095E+04  0.11658556095E+04  0.00000000000E+00 0.  1.
         -1   -1    0    0    0  501 -0.00000000000E+00 -0.00000000000E+00 -0.16151507215E+02  0.16151507215E+02  0.00000000000E+00 0.  1.
         35    2    1    2    0    0  0.00000000000E+00  0.00000000000E+00  0.11497041023E+04  0.11820071167E+04  0.27444726479E+03 0.  0.
         25    1    3    3    0    0 -0.17388161739E+02  0.48099563059E+02  0.75830673249E+03  0.76944461573E+03  0.12000000000E+03 0.  0.
         25    1    3    3    0    0  0.17388161739E+02 -0.48099563059E+02  0.39139736977E+03  0.41256250096E+03  0.12000000000E+03 0.  0.
<mgrwt>
<rscale>  0 0.27444726E+03</rscale>
<asrwt>0</asrwt>
<pdfrwt beam="1">  1        1 0.17936234E+00 0.27444726E+03</pdfrwt>
<pdfrwt beam="2">  1       -1 0.24848482E-02 0.27444726E+03</pdfrwt>
<totfact> 0.60294042E+03</totfact>
</mgrwt>
</event>
<event>
 5    1  0.1147887E+001  0.2779801E+03  0.7818608E-02  0.1096797E+00
         -2   -1    0    0    0  501 -0.00000000000E+00  0.00000000000E+00  0.47236048558E+03  0.47236048558E+03  0.00000000000E+00 0. -1.
          2   -1    0    0  501    0  0.00000000000E+00 -0.00000000000E+00 -0.40897222728E+02  0.40897222728E+02  0.00000000000E+00 0. -1.
         35    2    1    2    0    0  0.00000000000E+00  0.00000000000E+00  0.43146326285E+03  0.51325770831E+03  0.27798008552E+03 0.  0.
         25    1    3    3    0    0 -0.60771774243E+02 -0.27708371504E+02  0.17624883025E+03  0.22343816272E+03  0.12000000000E+03 0.  0.
         25    1    3    3    0    0  0.60771774243E+02  0.27708371504E+02  0.25521443260E+03  0.28981954559E+03  0.12000000000E+03 0.  0.
<mgrwt>
<rscale>  0 0.27798009E+03</rscale>
<asrwt>0</asrwt>
<pdfrwt beam="1">  1        2 0.62918808E-02 0.27798009E+03</pdfrwt>
<pdfrwt beam="2">  1       -2 0.72670840E-01 0.27798009E+03</pdfrwt>
<totfact> 0.20383706E+03</totfact>
</mgrwt>
</event>
<event>
 5    1  0.1147887E+001  0.2750572E+03  0.7818608E-02  0.1098420E+00
         -1   -1    0    0    0  501 -0.00000000000E+00  0.00000000000E+00  0.29095677928E+03  0.29095677928E+03  0.00000000000E+00 0.  1.
          1   -1    0    0  501    0  0.00000000000E+00 -0.00000000000E+00 -0.65006623720E+02  0.65006623720E+02  0.00000000000E+00 0.  1.
         35    2    1    2    0    0  0.00000000000E+00  0.00000000000E+00  0.22595015556E+03  0.35596340300E+03  0.27505721492E+03 0.  0.
         25    1    3    3    0    0  0.18102538065E+02  0.62636797362E+02  0.91985703989E+02  0.16465855583E+03  0.12000000000E+03 0.  0.
         25    1    3    3    0    0 -0.18102538065E+02 -0.62636797362E+02  0.13396445157E+03  0.19130484718E+03  0.12000000000E+03 0.  0.
<mgrwt>
<rscale>  0 0.27505721E+03</rscale>
<asrwt>0</asrwt>
<pdfrwt beam="1">  1        1 0.10001019E-01 0.27505721E+03</pdfrwt>
<pdfrwt beam="2">  1       -1 0.44762581E-01 0.27505721E+03</pdfrwt>
<totfact> 0.32185239E+03</totfact>
</mgrwt>
</event>
<event>
 5    1  0.1147887E+001  0.2748821E+03  0.7818608E-02  0.1098518E+00
          2   -1    0    0  501    0  0.00000000000E+00  0.00000000000E+00  0.30882614086E+04  0.30882614086E+04  0.00000000000E+00 0. -1.
         -2   -1    0    0    0  501 -0.00000000000E+00 -0.00000000000E+00 -0.61167241498E+01  0.61167241498E+01  0.00000000000E+00 0. -1.
         35    2    1    2    0    0  0.00000000000E+00  0.00000000000E+00  0.30821446844E+04  0.30943781327E+04  0.27488210665E+03 0.  0.
         25    1    3    3    0    0  0.58168630606E+02 -0.28647946690E+02  0.13507809925E+04  0.13576500227E+04  0.12000000000E+03 0.  0.
         25    1    3    3    0    0 -0.58168630606E+02  0.28647946690E+02  0.17313636919E+04  0.17367281100E+04  0.12000000000E+03 0.  0.
<mgrwt>
<rscale>  0 0.27488211E+03</rscale>
<asrwt>0</asrwt>
<pdfrwt beam="1">  1        2 0.47511589E+00 0.27488211E+03</pdfrwt>
<pdfrwt beam="2">  1       -2 0.94103695E-03 0.27488211E+03</pdfrwt>
<totfact> 0.42972535E+03</totfact>
</mgrwt>
</event>
<event>
 5    1  0.1147887E+001  0.2740329E+03  0.7818608E-02  0.1098993E+00
          4   -1    0    0  501    0  0.00000000000E+00  0.00000000000E+00  0.19396157300E+03  0.19396157300E+03  0.00000000000E+00 0. -1.
         -4   -1    0    0    0  501 -0.00000000000E+00 -0.00000000000E+00 -0.96789821412E+02  0.96789821412E+02  0.00000000000E+00 0. -1.
         35    2    1    2    0    0  0.00000000000E+00  0.00000000000E+00  0.97171751593E+02  0.29075139442E+03  0.27403288862E+03 0.  0.
         25    1    3    3    0    0 -0.56705677596E+01  0.18361751601E+01 -0.21295725316E+02  0.12202063266E+03  0.12000000000E+03 0.  0.
         25    1    3    3    0    0  0.56705677596E+01 -0.18361751601E+01  0.11846747691E+03  0.16873076176E+03  0.12000000000E+03 0.  0.
<mgrwt>
<rscale>  0 0.27403289E+03</rscale>
<asrwt>0</asrwt>
<pdfrwt beam="1">  1        4 0.29840242E-01 0.27403289E+03</pdfrwt>
<pdfrwt beam="2">  1       -4 0.14890742E-01 0.27403289E+03</pdfrwt>
<totfact> 0.76868780E+02</totfact>
</mgrwt>
</event>
<event>
 5    1  0.1147887E+001  0.2727042E+03  0.7818608E-02  0.1099742E+00
          1   -1    0    0  501    0  0.00000000000E+00  0.00000000000E+00  0.54686867318E+03  0.54686867318E+03  0.00000000000E+00 0. -1.
         -1   -1    0    0    0  501 -0.00000000000E+00 -0.00000000000E+00 -0.33996991074E+02  0.33996991074E+02  0.00000000000E+00 0. -1.
         35    2    1    2    0    0  0.00000000000E+00  0.00000000000E+00  0.51287168210E+03  0.58086566425E+03  0.27270415766E+03 0.  0.
         25    1    3    3    0    0 -0.29729396713E+02 -0.48247912661E+02  0.18974911953E+03  0.23155221110E+03  0.12000000000E+03 0.  0.
         25    1    3    3    0    0  0.29729396713E+02  0.48247912661E+02  0.32312256258E+03  0.34931345315E+03  0.12000000000E+03 0.  0.
<mgrwt>
<rscale>  0 0.27270416E+03</rscale>
<asrwt>0</asrwt>
<pdfrwt beam="1">  1        1 0.84133636E-01 0.27270416E+03</pdfrwt>
<pdfrwt beam="2">  1       -1 0.52303067E-02 0.27270416E+03</pdfrwt>
<totfact> 0.65462166E+03</totfact>
</mgrwt>
</event>
<event>
 5    1  0.1147887E+001  0.2646203E+03  0.7818608E-02  0.1104399E+00
          4   -1    0    0  501    0  0.00000000000E+00  0.00000000000E+00  0.27825674765E+03  0.27825674765E+03  0.00000000000E+00 0. -1.
         -4   -1    0    0    0  501 -0.00000000000E+00 -0.00000000000E+00 -0.62913021117E+02  0.62913021117E+02  0.00000000000E+00 0. -1.
         35    2    1    2    0    0  0.00000000000E+00  0.00000000000E+00  0.21534372654E+03  0.34116976877E+03  0.26462027618E+03 0.  0.
         25    1    3    3    0    0 -0.55615471188E+02 -0.13942478376E+01  0.11193781934E+03  0.17327752296E+03  0.12000000000E+03 0.  0.
         25    1    3    3    0    0  0.55615471188E+02  0.13942478376E+01  0.10340590719E+03  0.16789224582E+03  0.12000000000E+03 0.  0.
<mgrwt>
<rscale>  0 0.26462028E+03</rscale>
<asrwt>0</asrwt>
<pdfrwt beam="1">  1        4 0.42808730E-01 0.26462028E+03</pdfrwt>
<pdfrwt beam="2">  1       -4 0.96789265E-02 0.26462028E+03</pdfrwt>
<totfact> 0.79473687E+02</totfact>
</mgrwt>
</event>
<event>
 5    1  0.1147887E+001  0.2772702E+03  0.7818608E-02  0.1097189E+00
         -2   -1    0    0    0  501 -0.00000000000E+00  0.00000000000E+00  0.40098652526E+03  0.40098652526E+03  0.00000000000E+00 0.  1.
          2   -1    0    0  501    0  0.00000000000E+00 -0.00000000000E+00 -0.47930999726E+02  0.47930999726E+02  0.00000000000E+00 0.  1.
         35    2    1    2    0    0  0.00000000000E+00  0.00000000000E+00  0.35305552553E+03  0.44891752499E+03  0.27727015730E+03 0.  0.
         25    1    3    3    0    0  0.36218366684E+02 -0.56859530007E+02  0.20337241288E+03  0.24557099698E+03  0.12000000000E+03 0.  0.
         25    1    3    3    0    0 -0.36218366684E+02  0.56859530007E+02  0.14968311266E+03  0.20334652801E+03  0.12000000000E+03 0.  0.
<mgrwt>
<rscale>  0 0.27727016E+03</rscale>
<asrwt>0</asrwt>
<pdfrwt beam="1">  1        2 0.73740002E-02 0.27727016E+03</pdfrwt>
<pdfrwt beam="2">  1       -2 0.61690232E-01 0.27727016E+03</pdfrwt>
<totfact> 0.23508320E+03</totfact>
</mgrwt>
</event>
<event>
 5    1  0.1147887E+001  0.2762906E+03  0.7818608E-02  0.1097732E+00
         -4   -1    0    0    0  501 -0.00000000000E+00  0.00000000000E+00  0.45229484595E+03  0.45229484595E+03  0.00000000000E+00 0.  1.
          4   -1    0    0  501    0  0.00000000000E+00 -0.00000000000E+00 -0.42193999237E+02  0.42193999237E+02  0.00000000000E+00 0.  1.
         35    2    1    2    0    0  0.00000000000E+00  0.00000000000E+00  0.41010084672E+03  0.49448884519E+03  0.27629063238E+03 0.  0.
         25    1    3    3    0    0 -0.14627333132E+02  0.29037413899E+02  0.31283683230E+03  0.33663632294E+03  0.12000000000E+03 0.  0.
         25    1    3    3    0    0  0.14627333132E+02 -0.29037413899E+02  0.97264014422E+02  0.15785252225E+03  0.12000000000E+03 0.  0.
<mgrwt>
<rscale>  0 0.27629063E+03</rscale>
<asrwt>0</asrwt>
<pdfrwt beam="1">  1        4 0.64913848E-02 0.27629063E+03</pdfrwt>
<pdfrwt beam="2">  1       -4 0.69583819E-01 0.27629063E+03</pdfrwt>
<totfact> 0.56486408E+02</totfact>
</mgrwt>
</event>
<event>
 5    1  0.1147887E+001  0.2757341E+03  0.7818608E-02  0.1098042E+00
          2   -1    0    0  501    0  0.00000000000E+00  0.00000000000E+00  0.10505333953E+04  0.10505333953E+04  0.00000000000E+00 0.  1.
         -2   -1    0    0    0  501 -0.00000000000E+00 -0.00000000000E+00 -0.18093025649E+02  0.18093025649E+02  0.00000000000E+00 0.  1.
         35    2    1    2    0    0  0.00000000000E+00  0.00000000000E+00  0.10324403696E+04  0.10686264209E+04  0.27573413039E+03 0.  0.
         25    1    3    3    0    0  0.67641483752E+02 -0.97738665928E+00  0.53779915109E+03  0.55516146527E+03  0.12000000000E+03 0.  0.
         25    1    3    3    0    0 -0.67641483752E+02  0.97738665928E+00  0.49464121855E+03  0.51346495567E+03  0.12000000000E+03 0.  0.
<mgrwt>
<rscale>  0 0.27573413E+03</rscale>
<asrwt>0</asrwt>
<pdfrwt beam="1">  1        2 0.16162047E+00 0.27573413E+03</pdfrwt>
<pdfrwt beam="2">  1       -2 0.27835432E-02 0.27573413E+03</pdfrwt>
<totfact> 0.11559217E+04</totfact>
</mgrwt>
</event>
<event>
 5    1  0.1147887E+001  0.2748741E+03  0.7818608E-02  0.1098522E+00
         -3   -1    0    0    0  501 -0.00000000000E+00  0.00000000000E+00  0.37177399187E+02  0.37177399187E+02  0.00000000000E+00 0.  1.
          3   -1    0    0  501    0  0.00000000000E+00 -0.00000000000E+00 -0.50807602352E+03  0.50807602352E+03  0.00000000000E+00 0.  1.
         35    2    1    2    0    0  0.00000000000E+00  0.00000000000E+00 -0.47089862433E+03  0.54525342271E+03  0.27487411769E+03 0.  0.
         25    1    3    3    0    0  0.53458200278E+02  0.10733247182E+02 -0.31268337945E+03  0.33932856873E+03  0.12000000000E+03 0.  0.
         25    1    3    3    0    0 -0.53458200278E+02 -0.10733247182E+02 -0.15821524488E+03  0.20592485397E+03  0.12000000000E+03 0.  0.
<mgrwt>
<rscale>  0 0.27487412E+03</rscale>
<asrwt>0</asrwt>
<pdfrwt beam="1">  1        3 0.78165541E-01 0.27487412E+03</pdfrwt>
<pdfrwt beam="2">  1       -3 0.57195999E-02 0.27487412E+03</pdfrwt>
<totfact> 0.73328456E+02</totfact>
</mgrwt>
</event>
<event>
 5    1  0.1147887E+001  0.2753365E+03  0.7818608E-02  0.1098264E+00
         -1   -1    0    0    0  501 -0.00000000000E+00  0.00000000000E+00  0.60126559462E+02  0.60126559462E+02  0.00000000000E+00 0.  1.
          1   -1    0    0  501    0  0.00000000000E+00 -0.00000000000E+00 -0.31521090276E+03  0.31521090276E+03  0.00000000000E+00 0.  1.
         35    2    1    2    0    0  0.00000000000E+00  0.00000000000E+00 -0.25508434330E+03  0.37533746222E+03  0.27533650022E+03 0.  0.
         25    1    3    3    0    0  0.63201735716E+01 -0.53071901032E+02 -0.71402747594E+02  0.14951563008E+03  0.12000000000E+03 0.  0.
         25    1    3    3    0    0 -0.63201735716E+01  0.53071901032E+02 -0.18368159570E+03  0.22582183214E+03  0.12000000000E+03 0.  0.
<mgrwt>
<rscale>  0 0.27533650E+03</rscale>
<asrwt>0</asrwt>
<pdfrwt beam="1">  1        1 0.48493985E-01 0.27533650E+03</pdfrwt>
<pdfrwt beam="2">  1       -1 0.92502399E-02 0.27533650E+03</pdfrwt>
<totfact> 0.56241978E+03</totfact>
</mgrwt>
</event>
<event>
 5    1  0.1147887E+001  0.2744872E+03  0.7818608E-02  0.1098739E+00
          2   -1    0    0  501    0  0.00000000000E+00  0.00000000000E+00  0.11787318376E+04  0.11787318376E+04  0.00000000000E+00 0.  1.
         -2   -1    0    0    0  501 -0.00000000000E+00 -0.00000000000E+00 -0.15979716695E+02  0.15979716695E+02  0.00000000000E+00 0.  1.
         35    2    1    2    0    0  0.00000000000E+00  0.00000000000E+00  0.11627521209E+04  0.11947115543E+04  0.27448716418E+03 0.  0.
         25    1    3    3    0    0  0.54661719558E+01  0.21217798395E+02  0.85512608666E+03  0.86378278410E+03  0.12000000000E+03 0.  0.
         25    1    3    3    0    0 -0.54661719558E+01 -0.21217798395E+02  0.30762603426E+03  0.33092877022E+03  0.12000000000E+03 0.  0.
<mgrwt>
<rscale>  0 0.27448716E+03</rscale>
<asrwt>0</asrwt>
<pdfrwt beam="1">  1        2 0.18134329E+00 0.27448716E+03</pdfrwt>
<pdfrwt beam="2">  1       -2 0.24584189E-02 0.27448716E+03</pdfrwt>
<totfact> 0.11691082E+04</totfact>
</mgrwt>
</event>
<event>
 5    1  0.1147887E+001  0.2787877E+03  0.7818608E-02  0.1096353E+00
         -1   -1    0    0    0  501 -0.00000000000E+00  0.00000000000E+00  0.21905289643E+02  0.21905289643E+02  0.00000000000E+00 0.  1.
          1   -1    0    0  501    0  0.00000000000E+00 -0.00000000000E+00 -0.88702974090E+03  0.88702974090E+03  0.00000000000E+00 0.  1.
         35    2    1    2    0    0  0.00000000000E+00  0.00000000000E+00 -0.86512445125E+03  0.90893503054E+03  0.27878768550E+03 0.  0.
         25    1    3    3    0    0 -0.44400838398E+02  0.37873214549E+02 -0.56398269927E+03  0.57955353498E+03  0.12000000000E+03 0.  0.
         25    1    3    3    0    0  0.44400838398E+02 -0.37873214549E+02 -0.30114175199E+03  0.32938149556E+03  0.12000000000E+03 0.  0.
<mgrwt>
<rscale>  0 0.27878769E+03</rscale>
<asrwt>0</asrwt>
<pdfrwt beam="1">  1        1 0.13646614E+00 0.27878769E+03</pdfrwt>
<pdfrwt beam="2">  1       -1 0.33700439E-02 0.27878769E+03</pdfrwt>
<totfact> 0.62024185E+03</totfact>
</mgrwt>
</event>
<event>
 5    1  0.1147887E+001  0.2751232E+03  0.7818608E-02  0.1098383E+00
          3   -1    0    0  501    0  0.00000000000E+00  0.00000000000E+00  0.38309939158E+03  0.38309939158E+03  0.00000000000E+00 0. -1.
         -3   -1    0    0    0  501 -0.00000000000E+00 -0.00000000000E+00 -0.49395006814E+02  0.49395006814E+02  0.00000000000E+00 0. -1.
         35    2    1    2    0    0  0.00000000000E+00  0.00000000000E+00  0.33370438477E+03  0.43249439840E+03  0.27512322372E+03 0.  0.
         25    1    3    3    0    0 -0.13015961753E+02  0.12250503491E+02  0.26877454795E+03  0.29488853440E+03  0.12000000000E+03 0.  0.
         25    1    3    3    0    0  0.13015961753E+02 -0.12250503491E+02  0.64929836816E+02  0.13760586399E+03  0.12000000000E+03 0.  0.
<mgrwt>
<rscale>  0 0.27512322E+03</rscale>
<asrwt>0</asrwt>
<pdfrwt beam="1">  1        3 0.58938366E-01 0.27512322E+03</pdfrwt>
<pdfrwt beam="2">  1       -3 0.75992321E-02 0.27512322E+03</pdfrwt>
<totfact> 0.84302410E+02</totfact>
</mgrwt>
</event>
<event>
 5    1  0.1147887E+001  0.2822699E+03  0.7818608E-02  0.1094456E+00
          2   -1    0    0  501    0  0.00000000000E+00  0.00000000000E+00  0.11178315479E+04  0.11178315479E+04  0.00000000000E+00 0. -1.
         -2   -1    0    0    0  501 -0.00000000000E+00 -0.00000000000E+00 -0.17819393032E+02  0.17819393032E+02  0.00000000000E+00 0. -1.
         35    2    1    2    0    0  0.00000000000E+00  0.00000000000E+00  0.11000121549E+04  0.11356509410E+04  0.28226993957E+03 0.  0.
         25    1    3    3    0    0  0.22044783150E+01  0.61865333472E+02  0.71524979866E+03  0.72788354404E+03  0.12000000000E+03 0.  0.
         25    1    3    3    0    0 -0.22044783150E+01 -0.61865333472E+02  0.38476235625E+03  0.40776739692E+03  0.12000000000E+03 0.  0.
<mgrwt>
<rscale>  0 0.28226994E+03</rscale>
<asrwt>0</asrwt>
<pdfrwt beam="1">  1        2 0.17197403E+00 0.28226994E+03</pdfrwt>
<pdfrwt beam="2">  1       -2 0.27414460E-02 0.28226994E+03</pdfrwt>
<totfact> 0.10795624E+04</totfact>
</mgrwt>
</event>
<event>
 5    1  0.1147887E+001  0.2749035E+03  0.7818608E-02  0.1098506E+00
         -4   -1    0    0    0  501 -0.00000000000E+00  0.00000000000E+00  0.11522601188E+03  0.11522601188E+03  0.00000000000E+00 0. -1.
          4   -1    0    0  501    0  0.00000000000E+00 -0.00000000000E+00 -0.16396458508E+03  0.16396458508E+03  0.00000000000E+00 0. -1.
         35    2    1    2    0    0  0.00000000000E+00  0.00000000000E+00 -0.48738573193E+02  0.27919059696E+03  0.27490351201E+03 0.  0.
         25    1    3    3    0    0 -0.30473212666E+02  0.12485823348E+02  0.34923302181E+02  0.12924453377E+03  0.12000000000E+03 0.  0.
         25    1    3    3    0    0  0.30473212666E+02 -0.12485823348E+02 -0.83661875373E+02  0.14994606319E+03  0.12000000000E+03 0.  0.
<mgrwt>
<rscale>  0 0.27490351E+03</rscale>
<asrwt>0</asrwt>
<pdfrwt beam="1">  1        4 0.25225321E-01 0.27490351E+03</pdfrwt>
<pdfrwt beam="2">  1       -4 0.17727079E-01 0.27490351E+03</pdfrwt>
<totfact> 0.77455879E+02</totfact>
</mgrwt>
</event>
<event>
 5    1  0.1147887E+001  0.2746458E+03  0.7818608E-02  0.1098650E+00
         -1   -1    0    0    0  501 -0.00000000000E+00  0.00000000000E+00  0.11623453761E+02  0.11623453761E+02  0.00000000000E+00 0.  1.
          1   -1    0    0  501    0  0.00000000000E+00 -0.00000000000E+00 -0.16223727882E+04  0.16223727882E+04  0.00000000000E+00 0.  1.
         35    2    1    2    0    0  0.00000000000E+00  0.00000000000E+00 -0.16107493344E+04  0.16339962419E+04  0.27464577249E+03 0.  0.
         25    1    3    3    0    0  0.14806486678E+02 -0.51614062969E+02 -0.56931258510E+03  0.58429450031E+03  0.12000000000E+03 0.  0.
         25    1    3    3    0    0 -0.14806486678E+02  0.51614062969E+02 -0.10414367493E+04  0.10497017416E+04  0.12000000000E+03 0.  0.
<mgrwt>
<rscale>  0 0.27464577E+03</rscale>
<asrwt>0</asrwt>
<pdfrwt beam="1">  1        1 0.24959581E+00 0.27464577E+03</pdfrwt>
<pdfrwt beam="2">  1       -1 0.17882237E-02 0.27464577E+03</pdfrwt>
<totfact> 0.47996706E+03</totfact>
</mgrwt>
</event>
<event>
 5    1  0.1147887E+001  0.2760089E+03  0.7818608E-02  0.1097889E+00
          4   -1    0    0  501    0  0.00000000000E+00  0.00000000000E+00  0.19833716090E+03  0.19833716090E+03  0.00000000000E+00 0. -1.
         -4   -1    0    0    0  501 -0.00000000000E+00 -0.00000000000E+00 -0.96024528823E+02  0.96024528823E+02  0.00000000000E+00 0. -1.
         35    2    1    2    0    0  0.00000000000E+00  0.00000000000E+00  0.10231263208E+03  0.29436168972E+03  0.27600893046E+03 0.  0.
         25    1    3    3    0    0  0.18880410411E+02  0.53802469018E+02  0.11336578238E+02  0.13334051738E+03  0.12000000000E+03 0.  0.
         25    1    3    3    0    0 -0.18880410411E+02 -0.53802469018E+02  0.90976053839E+02  0.16102117234E+03  0.12000000000E+03 0.  0.
<mgrwt>
<rscale>  0 0.27600893E+03</rscale>
<asrwt>0</asrwt>
<pdfrwt beam="1">  1        4 0.30513409E-01 0.27600893E+03</pdfrwt>
<pdfrwt beam="2">  1       -4 0.14773004E-01 0.27600893E+03</pdfrwt>
<totfact> 0.74775445E+02</totfact>
</mgrwt>
</event>
<event>
 5    1  0.1147887E+001  0.2755675E+03  0.7818608E-02  0.1098135E+00
         -2   -1    0    0    0  501 -0.00000000000E+00  0.00000000000E+00  0.26068280062E+02  0.26068280062E+02  0.00000000000E+00 0.  1.
          2   -1    0    0  501    0  0.00000000000E+00 -0.00000000000E+00 -0.72825535161E+03  0.72825535161E+03  0.00000000000E+00 0.  1.
         35    2    1    2    0    0  0.00000000000E+00  0.00000000000E+00 -0.70218707155E+03  0.75432363167E+03  0.27556751958E+03 0.  0.
         25    1    3    3    0    0  0.56794122789E+02  0.15136969044E+02 -0.44309704199E+03  0.46280631892E+03  0.12000000000E+03 0.  0.
         25    1    3    3    0    0 -0.56794122789E+02 -0.15136969044E+02 -0.25909002956E+03  0.29151731275E+03  0.12000000000E+03 0.  0.
<mgrwt>
<rscale>  0 0.27556752E+03</rscale>
<asrwt>0</asrwt>
<pdfrwt beam="1">  1        2 0.11203928E+00 0.27556752E+03</pdfrwt>
<pdfrwt beam="2">  1       -2 0.40105047E-02 0.27556752E+03</pdfrwt>
<totfact> 0.10893957E+04</totfact>
</mgrwt>
</event>
<event>
 5    1  0.1147887E+001  0.2754254E+03  0.7818608E-02  0.1098214E+00
          2   -1    0    0  501    0  0.00000000000E+00  0.00000000000E+00  0.20043997948E+03  0.20043997948E+03  0.00000000000E+00 0.  1.
         -2   -1    0    0    0  501 -0.00000000000E+00 -0.00000000000E+00 -0.94615790188E+02  0.94615790188E+02  0.00000000000E+00 0.  1.
         35    2    1    2    0    0  0.00000000000E+00  0.00000000000E+00  0.10582418929E+03  0.29505576967E+03  0.27542539493E+03 0.  0.
         25    1    3    3    0    0 -0.66473775491E+02 -0.55067782596E+01  0.41389081009E+02  0.14339506080E+03  0.12000000000E+03 0.  0.
         25    1    3    3    0    0  0.66473775491E+02  0.55067782596E+01  0.64435108280E+02  0.15166070887E+03  0.12000000000E+03 0.  0.
<mgrwt>
<rscale>  0 0.27542539E+03</rscale>
<asrwt>0</asrwt>
<pdfrwt beam="1">  1        2 0.30836920E-01 0.27542539E+03</pdfrwt>
<pdfrwt beam="2">  1       -2 0.14556275E-01 0.27542539E+03</pdfrwt>
<totfact> 0.60757170E+03</totfact>
</mgrwt>
</event>
<event>
 5    1  0.1147887E+001  0.2698336E+03  0.7818608E-02  0.1101375E+00
         -1   -1    0    0    0  501 -0.00000000000E+00  0.00000000000E+00  0.58314221289E+02  0.58314221289E+02  0.00000000000E+00 0.  1.
          1   -1    0    0  501    0  0.00000000000E+00 -0.00000000000E+00 -0.31214574759E+03  0.31214574759E+03  0.00000000000E+00 0.  1.
         35    2    1    2    0    0  0.00000000000E+00  0.00000000000E+00 -0.25383152630E+03  0.37045996887E+03  0.26983355017E+03 0.  0.
         25    1    3    3    0    0  0.35258137401E+02 -0.47120293892E+02 -0.10163471658E+03  0.16790793300E+03  0.12000000000E+03 0.  0.
         25    1    3    3    0    0 -0.35258137401E+02  0.47120293892E+02 -0.15219680972E+03  0.20255203588E+03  0.12000000000E+03 0.  0.
<mgrwt>
<rscale>  0 0.26983355E+03</rscale>
<asrwt>0</asrwt>
<pdfrwt beam="1">  1        1 0.48022423E-01 0.26983355E+03</pdfrwt>
<pdfrwt beam="2">  1       -1 0.89714186E-02 0.26983355E+03</pdfrwt>
<totfact> 0.59641568E+03</totfact>
</mgrwt>
</event>
<event>
 5    1  0.1147887E+001  0.2742918E+03  0.7818608E-02  0.1098848E+00
          3   -1    0    0  501    0  0.00000000000E+00  0.00000000000E+00  0.33433285630E+03  0.33433285630E+03  0.00000000000E+00 0.  1.
         -3   -1    0    0    0  501 -0.00000000000E+00 -0.00000000000E+00 -0.56258279253E+02  0.56258279253E+02  0.00000000000E+00 0.  1.
         35    2    1    2    0    0  0.00000000000E+00  0.00000000000E+00  0.27807457705E+03  0.39059113556E+03  0.27429175120E+03 0.  0.
         25    1    3    3    0    0 -0.39397395994E+02 -0.40755869847E+02  0.89795016286E+02  0.16023838706E+03  0.12000000000E+03 0.  0.
         25    1    3    3    0    0  0.39397395994E+02  0.40755869847E+02  0.18827956076E+03  0.23035274849E+03  0.12000000000E+03 0.  0.
<mgrwt>
<rscale>  0 0.27429175E+03</rscale>
<asrwt>0</asrwt>
<pdfrwt beam="1">  1        3 0.51435823E-01 0.27429175E+03</pdfrwt>
<pdfrwt beam="2">  1       -3 0.86551201E-02 0.27429175E+03</pdfrwt>
<totfact> 0.89937841E+02</totfact>
</mgrwt>
</event>
<event>
 5    1  0.1147887E+001  0.2789305E+03  0.7818608E-02  0.1096275E+00
          1   -1    0    0  501    0  0.00000000000E+00  0.00000000000E+00  0.70570921770E+03  0.70570921770E+03  0.00000000000E+00 0.  1.
         -1   -1    0    0    0  501 -0.00000000000E+00 -0.00000000000E+00 -0.27561717664E+02  0.27561717664E+02  0.00000000000E+00 0.  1.
         35    2    1    2    0    0  0.00000000000E+00  0.00000000000E+00  0.67814750004E+03  0.73327093536E+03  0.27893051616E+03 0.  0.
         25    1    3    3    0    0 -0.22768159738E+02  0.55760104425E+02  0.23990660309E+03  0.27492318300E+03  0.12000000000E+03 0.  0.
         25    1    3    3    0    0  0.22768159738E+02 -0.55760104425E+02  0.43824089694E+03  0.45834775236E+03  0.12000000000E+03 0.  0.
<mgrwt>
<rscale>  0 0.27893052E+03</rscale>
<asrwt>0</asrwt>
<pdfrwt beam="1">  1        1 0.10857064E+00 0.27893052E+03</pdfrwt>
<pdfrwt beam="2">  1       -1 0.42402648E-02 0.27893052E+03</pdfrwt>
<totfact> 0.62646111E+03</totfact>
</mgrwt>
</event>
<event>
 5    1  0.1147887E+001  0.2749329E+03  0.7818608E-02  0.1098489E+00
         -2   -1    0    0    0  501 -0.00000000000E+00  0.00000000000E+00  0.96980615808E+01  0.96980615808E+01  0.00000000000E+00 0.  1.
          2   -1    0    0  501    0  0.00000000000E+00 -0.00000000000E+00 -0.19485362016E+04  0.19485362016E+04  0.00000000000E+00 0.  1.
         35    2    1    2    0    0  0.00000000000E+00  0.00000000000E+00 -0.19388381401E+04  0.19582342632E+04  0.27493289418E+03 0.  0.
         25    1    3    3    0    0 -0.38586301004E+02  0.28849482562E+02 -0.13016578340E+04  0.13080651024E+04  0.12000000000E+03 0.  0.
         25    1    3    3    0    0  0.38586301004E+02 -0.28849482562E+02 -0.63718030604E+03  0.65016916082E+03  0.12000000000E+03 0.  0.
<mgrwt>
<rscale>  0 0.27493289E+03</rscale>
<asrwt>0</asrwt>
<pdfrwt beam="1">  1        2 0.29977452E+00 0.27493289E+03</pdfrwt>
<pdfrwt beam="2">  1       -2 0.14920108E-02 0.27493289E+03</pdfrwt>
<totfact> 0.94022905E+03</totfact>
</mgrwt>
</event>
<event>
 5    1  0.1147887E+001  0.2748446E+03  0.7818608E-02  0.1098539E+00
          2   -1    0    0  501    0  0.00000000000E+00  0.00000000000E+00  0.67893619653E+03  0.67893619653E+03  0.00000000000E+00 0.  1.
         -2   -1    0    0    0  501 -0.00000000000E+00 -0.00000000000E+00 -0.27815400100E+02  0.27815400100E+02  0.00000000000E+00 0.  1.
         35    2    1    2    0    0  0.00000000000E+00  0.00000000000E+00  0.65112079643E+03  0.70675159663E+03  0.27484455205E+03 0.  0.
         25    1    3    3    0    0 -0.52377820467E+02 -0.39655984342E+02  0.35897441033E+03  0.38415968092E+03  0.12000000000E+03 0.  0.
         25    1    3    3    0    0  0.52377820467E+02  0.39655984342E+02  0.29214638610E+03  0.32259191571E+03  0.12000000000E+03 0.  0.
<mgrwt>
<rscale>  0 0.27484455E+03</rscale>
<asrwt>0</asrwt>
<pdfrwt beam="1">  1        2 0.10445171E+00 0.27484455E+03</pdfrwt>
<pdfrwt beam="2">  1       -2 0.42792928E-02 0.27484455E+03</pdfrwt>
<totfact> 0.10757700E+04</totfact>
</mgrwt>
</event>
<event>
 5    1  0.1147887E+001  0.2735453E+03  0.7818608E-02  0.1099268E+00
          1   -1    0    0  501    0  0.00000000000E+00  0.00000000000E+00  0.13483442245E+04  0.13483442245E+04  0.00000000000E+00 0. -1.
         -1   -1    0    0    0  501 -0.00000000000E+00 -0.00000000000E+00 -0.13873876087E+02  0.13873876087E+02  0.00000000000E+00 0. -1.
         35    2    1    2    0    0  0.00000000000E+00  0.00000000000E+00  0.13344703484E+04  0.13622181006E+04  0.27354532124E+03 0.  0.
         25    1    3    3    0    0 -0.31131929400E+02  0.47154839579E+02  0.50102523815E+03  0.51828473370E+03  0.12000000000E+03 0.  0.
         25    1    3    3    0    0  0.31131929400E+02 -0.47154839579E+02  0.83344511024E+03  0.84393336687E+03  0.12000000000E+03 0.  0.
<mgrwt>
<rscale>  0 0.27354532E+03</rscale>
<asrwt>0</asrwt>
<pdfrwt beam="1">  1        1 0.20743747E+00 0.27354532E+03</pdfrwt>
<pdfrwt beam="2">  1       -1 0.21344435E-02 0.27354532E+03</pdfrwt>
<totfact> 0.56368331E+03</totfact>
</mgrwt>
</event>
<event>
 5    1  0.1147887E+001  0.2751158E+03  0.7818608E-02  0.1098387E+00
          1   -1    0    0  501    0  0.00000000000E+00  0.00000000000E+00  0.56946051898E+02  0.56946051898E+02  0.00000000000E+00 0.  1.
         -1   -1    0    0    0  501 -0.00000000000E+00 -0.00000000000E+00 -0.33228253005E+03  0.33228253005E+03  0.00000000000E+00 0.  1.
         35    2    1    2    0    0  0.00000000000E+00  0.00000000000E+00 -0.27533647815E+03  0.38922858195E+03  0.27511581707E+03 0.  0.
         25    1    3    3    0    0 -0.57377482463E+02  0.30162376239E+02 -0.16298585028E+03  0.21252372062E+03  0.12000000000E+03 0.  0.
         25    1    3    3    0    0  0.57377482463E+02 -0.30162376239E+02 -0.11235062787E+03  0.17670486133E+03  0.12000000000E+03 0.  0.
<mgrwt>
<rscale>  0 0.27511582E+03</rscale>
<asrwt>0</asrwt>
<pdfrwt beam="1">  1        1 0.87609311E-02 0.27511582E+03</pdfrwt>
<pdfrwt beam="2">  1       -1 0.51120389E-01 0.27511582E+03</pdfrwt>
<totfact> 0.30162128E+03</totfact>
</mgrwt>
</event>
<event>
 5    1  0.1147887E+001  0.2757359E+03  0.7818608E-02  0.1098041E+00
          1   -1    0    0  501    0  0.00000000000E+00  0.00000000000E+00  0.19442538195E+03  0.19442538195E+03  0.00000000000E+00 0.  1.
         -1   -1    0    0    0  501 -0.00000000000E+00 -0.00000000000E+00 -0.97762831154E+02  0.97762831154E+02  0.00000000000E+00 0.  1.
         35    2    1    2    0    0  0.00000000000E+00  0.00000000000E+00  0.96662550800E+02  0.29218821311E+03  0.27573593011E+03 0.  0.
         25    1    3    3    0    0  0.11883156504E+00  0.42831932995E+02  0.10413243994E+03  0.16455440940E+03  0.12000000000E+03 0.  0.
         25    1    3    3    0    0 -0.11883156504E+00 -0.42831932995E+02 -0.74698891411E+01  0.12763380371E+03  0.12000000000E+03 0.  0.
<mgrwt>
<rscale>  0 0.27573593E+03</rscale>
<asrwt>0</asrwt>
<pdfrwt beam="1">  1        1 0.29911597E-01 0.27573593E+03</pdfrwt>
<pdfrwt beam="2">  1       -1 0.15040436E-01 0.27573593E+03</pdfrwt>
<totfact> 0.48334029E+03</totfact>
</mgrwt>
</event>
<event>
 5    1  0.1147887E+001  0.2734736E+03  0.7818608E-02  0.1099308E+00
         -2   -1    0    0    0  501 -0.00000000000E+00  0.00000000000E+00  0.73485699871E+02  0.73485699871E+02  0.00000000000E+00 0.  1.
          2   -1    0    0  501    0  0.00000000000E+00 -0.00000000000E+00 -0.25442973517E+03  0.25442973517E+03  0.00000000000E+00 0.  1.
         35    2    1    2    0    0  0.00000000000E+00  0.00000000000E+00 -0.18094403530E+03  0.32791543504E+03  0.27347356111E+03 0.  0.
         25    1    3    3    0    0  0.24047665365E+02 -0.60802754190E+02 -0.96055388690E+02  0.16703862674E+03  0.12000000000E+03 0.  0.
         25    1    3    3    0    0 -0.24047665365E+02  0.60802754190E+02 -0.84888646613E+02  0.16087680830E+03  0.12000000000E+03 0.  0.
<mgrwt>
<rscale>  0 0.27347356E+03</rscale>
<asrwt>0</asrwt>
<pdfrwt beam="1">  1        2 0.39143037E-01 0.27347356E+03</pdfrwt>
<pdfrwt beam="2">  1       -2 0.11305492E-01 0.27347356E+03</pdfrwt>
<totfact> 0.70688600E+03</totfact>
</mgrwt>
</event>
<event>
 5    1  0.1147887E+001  0.2754424E+03  0.7818608E-02  0.1098205E+00
          2   -1    0    0  501    0  0.00000000000E+00  0.00000000000E+00  0.24590072551E+03  0.24590072551E+03  0.00000000000E+00 0. -1.
         -2   -1    0    0    0  501 -0.00000000000E+00 -0.00000000000E+00 -0.77133257259E+02  0.77133257259E+02  0.00000000000E+00 0. -1.
         35    2    1    2    0    0  0.00000000000E+00  0.00000000000E+00  0.16876746825E+03  0.32303398277E+03  0.27544236363E+03 0.  0.
         25    1    3    3    0    0  0.34456153159E+01 -0.40075857736E+02  0.14807324528E+03  0.19479125392E+03  0.12000000000E+03 0.  0.
         25    1    3    3    0    0 -0.34456153159E+01  0.40075857736E+02  0.20694222979E+02  0.12824272885E+03  0.12000000000E+03 0.  0.
<mgrwt>
<rscale>  0 0.27544236E+03</rscale>
<asrwt>0</asrwt>
<pdfrwt beam="1">  1        2 0.37830881E-01 0.27544236E+03</pdfrwt>
<pdfrwt beam="2">  1       -2 0.11866655E-01 0.27544236E+03</pdfrwt>
<totfact> 0.67859465E+03</totfact>
</mgrwt>
</event>
<event>
 5    1  0.1147887E+001  0.2752026E+03  0.7818608E-02  0.1098338E+00
         -1   -1    0    0    0  501 -0.00000000000E+00  0.00000000000E+00  0.49793206000E+02  0.49793206000E+02  0.00000000000E+00 0. -1.
          1   -1    0    0  501    0  0.00000000000E+00 -0.00000000000E+00 -0.38025502989E+03  0.38025502989E+03  0.00000000000E+00 0. -1.
         35    2    1    2    0    0  0.00000000000E+00  0.00000000000E+00 -0.33046182389E+03  0.43004823589E+03  0.27520259473E+03 0.  0.
         25    1    3    3    0    0  0.60095134350E+01  0.23552194497E+02 -0.26335923698E+03  0.29042883435E+03  0.12000000000E+03 0.  0.
         25    1    3    3    0    0 -0.60095134350E+01 -0.23552194497E+02 -0.67102586909E+02  0.13961940154E+03  0.12000000000E+03 0.  0.
<mgrwt>
<rscale>  0 0.27520259E+03</rscale>
<asrwt>0</asrwt>
<pdfrwt beam="1">  1        1 0.58500773E-01 0.27520259E+03</pdfrwt>
<pdfrwt beam="2">  1       -1 0.76604933E-02 0.27520259E+03</pdfrwt>
<totfact> 0.59182931E+03</totfact>
</mgrwt>
</event>
<event>
 5    1  0.1147887E+001  0.2744272E+03  0.7818608E-02  0.1098772E+00
          2   -1    0    0  501    0  0.00000000000E+00  0.00000000000E+00  0.20594168477E+04  0.20594168477E+04  0.00000000000E+00 0. -1.
         -2   -1    0    0    0  501 -0.00000000000E+00 -0.00000000000E+00 -0.91421892429E+01  0.91421892429E+01  0.00000000000E+00 0. -1.
         35    2    1    2    0    0  0.00000000000E+00  0.00000000000E+00  0.20502746584E+04  0.20685590369E+04  0.27442724756E+03 0.  0.
         25    1    3    3    0    0  0.56642459559E+02 -0.25108209568E+02  0.12080400714E+04  0.12155655492E+04  0.12000000000E+03 0.  0.
         25    1    3    3    0    0 -0.56642459559E+02  0.25108209568E+02  0.84223458704E+03  0.85299348768E+03  0.12000000000E+03 0.  0.
<mgrwt>
<rscale>  0 0.27442725E+03</rscale>
<asrwt>0</asrwt>
<pdfrwt beam="1">  1        2 0.31683299E+00 0.27442725E+03</pdfrwt>
<pdfrwt beam="2">  1       -2 0.14064923E-02 0.27442725E+03</pdfrwt>
<totfact> 0.89608923E+03</totfact>
</mgrwt>
</event>
<event>
 5    1  0.1147887E+001  0.2749382E+03  0.7818608E-02  0.1098486E+00
         -2   -1    0    0    0  501 -0.00000000000E+00  0.00000000000E+00  0.35074269997E+02  0.35074269997E+02  0.00000000000E+00 0. -1.
          2   -1    0    0  501    0  0.00000000000E+00 -0.00000000000E+00 -0.53879235036E+03  0.53879235036E+03  0.00000000000E+00 0. -1.
         35    2    1    2    0    0  0.00000000000E+00  0.00000000000E+00 -0.50371808036E+03  0.57386662035E+03  0.27493816300E+03 0.  0.
         25    1    3    3    0    0  0.91211698783E+01  0.55147385673E+02 -0.32920926317E+03  0.35482836533E+03  0.12000000000E+03 0.  0.
         25    1    3    3    0    0 -0.91211698783E+01 -0.55147385673E+02 -0.17450881719E+03  0.21903825502E+03  0.12000000000E+03 0.  0.
<mgrwt>
<rscale>  0 0.27493816E+03</rscale>
<asrwt>0</asrwt>
<pdfrwt beam="1">  1        2 0.82891134E-01 0.27493816E+03</pdfrwt>
<pdfrwt beam="2">  1       -2 0.53960413E-02 0.27493816E+03</pdfrwt>
<totfact> 0.99075416E+03</totfact>
</mgrwt>
</event>
<event>
 5    1  0.1147887E+001  0.2743464E+03  0.7818608E-02  0.1098818E+00
          2   -1    0    0  501    0  0.00000000000E+00  0.00000000000E+00  0.21871195774E+04  0.21871195774E+04  0.00000000000E+00 0. -1.
         -2   -1    0    0    0  501 -0.00000000000E+00 -0.00000000000E+00 -0.86033180105E+01  0.86033180105E+01  0.00000000000E+00 0. -1.
         35    2    1    2    0    0  0.00000000000E+00  0.00000000000E+00  0.21785162594E+04  0.21957228954E+04  0.27434638872E+03 0.  0.
         25    1    3    3    0    0 -0.41393484945E+02  0.26247908883E+02  0.73007156466E+03  0.74148962423E+03  0.12000000000E+03 0.  0.
         25    1    3    3    0    0  0.41393484945E+02 -0.26247908883E+02  0.14484446948E+04  0.14542332712E+04  0.12000000000E+03 0.  0.
<mgrwt>
<rscale>  0 0.27434639E+03</rscale>
<asrwt>0</asrwt>
<pdfrwt beam="1">  1        2 0.33647949E+00 0.27434639E+03</pdfrwt>
<pdfrwt beam="2">  1       -2 0.13235891E-02 0.27434639E+03</pdfrwt>
<totfact> 0.83808786E+03</totfact>
</mgrwt>
</event>
<event>
 5    1  0.1147887E+001  0.2773425E+03  0.7818608E-02  0.1097149E+00
         -2   -1    0    0    0  501 -0.00000000000E+00  0.00000000000E+00  0.17799690868E+02  0.17799690868E+02  0.00000000000E+00 0.  1.
          2   -1    0    0  501    0  0.00000000000E+00 -0.00000000000E+00 -0.10803399350E+04  0.10803399350E+04  0.00000000000E+00 0.  1.
         35    2    1    2    0    0  0.00000000000E+00  0.00000000000E+00 -0.10625402441E+04  0.10981396258E+04  0.27734250936E+03 0.  0.
         25    1    3    3    0    0 -0.73553545575E+01  0.18820516948E+02 -0.79455214809E+03  0.80381678828E+03  0.12000000000E+03 0.  0.
         25    1    3    3    0    0  0.73553545575E+01 -0.18820516948E+02 -0.26798809601E+03  0.29432283755E+03  0.12000000000E+03 0.  0.
<mgrwt>
<rscale>  0 0.27734251E+03</rscale>
<asrwt>0</asrwt>
<pdfrwt beam="1">  1        2 0.16620618E+00 0.27734251E+03</pdfrwt>
<pdfrwt beam="2">  1       -2 0.27384134E-02 0.27734251E+03</pdfrwt>
<totfact> 0.11370843E+04</totfact>
</mgrwt>
</event>
<event>
 5    1  0.1147887E+001  0.2751223E+03  0.7818608E-02  0.1098383E+00
          2   -1    0    0  501    0  0.00000000000E+00  0.00000000000E+00  0.91115591354E+03  0.91115591354E+03  0.00000000000E+00 0.  1.
         -2   -1    0    0    0  501 -0.00000000000E+00 -0.00000000000E+00 -0.20768206267E+02  0.20768206267E+02  0.00000000000E+00 0.  1.
         35    2    1    2    0    0  0.00000000000E+00  0.00000000000E+00  0.89038770727E+03  0.93192411981E+03  0.27512232882E+03 0.  0.
         25    1    3    3    0    0 -0.71234002283E+01 -0.32911416951E+02  0.24799636746E+03  0.27755378302E+03  0.12000000000E+03 0.  0.
         25    1    3    3    0    0  0.71234002283E+01  0.32911416951E+02  0.64239133981E+03  0.65437033678E+03  0.12000000000E+03 0.  0.
<mgrwt>
<rscale>  0 0.27512233E+03</rscale>
<asrwt>0</asrwt>
<pdfrwt beam="1">  1        2 0.14017780E+00 0.27512233E+03</pdfrwt>
<pdfrwt beam="2">  1       -2 0.31951094E-02 0.27512233E+03</pdfrwt>
<totfact> 0.11482976E+04</totfact>
</mgrwt>
</event>
<event>
 5    1  0.1147887E+001  0.2743327E+03  0.7818608E-02  0.1098825E+00
          2   -1    0    0  501    0  0.00000000000E+00  0.00000000000E+00  0.61036410621E+03  0.61036410621E+03  0.00000000000E+00 0. -1.
         -2   -1    0    0    0  501 -0.00000000000E+00 -0.00000000000E+00 -0.30825216263E+02  0.30825216263E+02  0.00000000000E+00 0. -1.
         35    2    1    2    0    0  0.00000000000E+00  0.00000000000E+00  0.57953888994E+03  0.64118932247E+03  0.27433268543E+03 0.  0.
         25    1    3    3    0    0 -0.29122431773E+02  0.54496449797E+02  0.34685943886E+03  0.37219544517E+03  0.12000000000E+03 0.  0.
         25    1    3    3    0    0  0.29122431773E+02 -0.54496449797E+02  0.23267945108E+03  0.26899387730E+03  0.12000000000E+03 0.  0.
<mgrwt>
<rscale>  0 0.27433269E+03</rscale>
<asrwt>0</asrwt>
<pdfrwt beam="1">  1        2 0.93902161E-01 0.27433269E+03</pdfrwt>
<pdfrwt beam="2">  1       -2 0.47423414E-02 0.27433269E+03</pdfrwt>
<totfact> 0.10445866E+04</totfact>
</mgrwt>
</event>
<event>
 5    1  0.1147887E+001  0.2749639E+03  0.7818608E-02  0.1098472E+00
          2   -1    0    0  501    0  0.00000000000E+00  0.00000000000E+00  0.28090936167E+03  0.28090936167E+03  0.00000000000E+00 0.  1.
         -2   -1    0    0    0  501 -0.00000000000E+00 -0.00000000000E+00 -0.67286083867E+02  0.67286083867E+02  0.00000000000E+00 0.  1.
         35    2    1    2    0    0  0.00000000000E+00  0.00000000000E+00  0.21362327780E+03  0.34819544554E+03  0.27496393122E+03 0.  0.
         25    1    3    3    0    0  0.29556504113E+02  0.59802424239E+02  0.97735126655E+02  0.16852914247E+03  0.12000000000E+03 0.  0.
         25    1    3    3    0    0 -0.29556504113E+02 -0.59802424239E+02  0.11588815115E+03  0.17966630306E+03  0.12000000000E+03 0.  0.
<mgrwt>
<rscale>  0 0.27496393E+03</rscale>
<asrwt>0</asrwt>
<pdfrwt beam="1">  1        2 0.43216824E-01 0.27496393E+03</pdfrwt>
<pdfrwt beam="2">  1       -2 0.10351705E-01 0.27496393E+03</pdfrwt>
<totfact> 0.73176621E+03</totfact>
</mgrwt>
</event>
<event>
 5    1  0.1147887E+001  0.2751428E+03  0.7818608E-02  0.1098372E+00
         -2   -1    0    0    0  501 -0.00000000000E+00  0.00000000000E+00  0.56613982977E+01  0.56613982977E+01  0.00000000000E+00 0. -1.
          2   -1    0    0  501    0  0.00000000000E+00 -0.00000000000E+00 -0.33429705221E+04  0.33429705221E+04  0.00000000000E+00 0. -1.
         35    2    1    2    0    0  0.00000000000E+00  0.00000000000E+00 -0.33373091238E+04  0.33486319204E+04  0.27514278201E+03 0.  0.
         25    1    3    3    0    0  0.48774885293E+02 -0.43471304056E+02 -0.14734915951E+04  0.14798129019E+04  0.12000000000E+03 0.  0.
         25    1    3    3    0    0 -0.48774885293E+02  0.43471304056E+02 -0.18638175287E+04  0.18688190185E+04  0.12000000000E+03 0.  0.
<mgrwt>
<rscale>  0 0.27514278E+03</rscale>
<asrwt>0</asrwt>
<pdfrwt beam="1">  1        2 0.51430413E+00 0.27514278E+03</pdfrwt>
<pdfrwt beam="2">  1       -2 0.87098271E-03 0.27514278E+03</pdfrwt>
<totfact> 0.33423059E+03</totfact>
</mgrwt>
</event>
<event>
 5    1  0.1147887E+001  0.2642937E+03  0.7818608E-02  0.1104591E+00
          2   -1    0    0  501    0  0.00000000000E+00  0.00000000000E+00  0.28114583437E+04  0.28114583437E+04  0.00000000000E+00 0.  1.
         -2   -1    0    0    0  501 -0.00000000000E+00 -0.00000000000E+00 -0.62112910025E+01  0.62112910025E+01  0.00000000000E+00 0.  1.
         35    2    1    2    0    0  0.00000000000E+00  0.00000000000E+00  0.28052470527E+04  0.28176696347E+04  0.26429366934E+03 0.  0.
         25    1    3    3    0    0 -0.11423666501E+02  0.53960115914E+02  0.13542454199E+04  0.13606700010E+04  0.12000000000E+03 0.  0.
         25    1    3    3    0    0  0.11423666501E+02 -0.53960115914E+02  0.14510016328E+04  0.14569996337E+04  0.12000000000E+03 0.  0.
<mgrwt>
<rscale>  0 0.26429367E+03</rscale>
<asrwt>0</asrwt>
<pdfrwt beam="1">  1        2 0.43253104E+00 0.26429367E+03</pdfrwt>
<pdfrwt beam="2">  1       -2 0.95558548E-03 0.26429367E+03</pdfrwt>
<totfact> 0.61146851E+03</totfact>
</mgrwt>
</event>
<event>
 5    1  0.1147887E+001  0.2750354E+03  0.7818608E-02  0.1098432E+00
          2   -1    0    0  501    0  0.00000000000E+00  0.00000000000E+00  0.16275487971E+04  0.16275487971E+04  0.00000000000E+00 0.  1.
         -2   -1    0    0    0  501 -0.00000000000E+00 -0.00000000000E+00 -0.11619388358E+02  0.11619388358E+02  0.00000000000E+00 0.  1.
         35    2    1    2    0    0  0.00000000000E+00  0.00000000000E+00  0.16159294087E+04  0.16391681854E+04  0.27503542714E+03 0.  0.
         25    1    3    3    0    0 -0.66937525756E+02 -0.37798837010E+01  0.78397555921E+03  0.79593504592E+03  0.12000000000E+03 0.  0.
         25    1    3    3    0    0  0.66937525756E+02  0.37798837010E+01  0.83195384950E+03  0.84323313951E+03  0.12000000000E+03 0.  0.
<mgrwt>
<rscale>  0 0.27503543E+03</rscale>
<asrwt>0</asrwt>
<pdfrwt beam="1">  1        2 0.25039194E+00 0.27503543E+03</pdfrwt>
<pdfrwt beam="2">  1       -2 0.17875995E-02 0.27503543E+03</pdfrwt>
<totfact> 0.10641546E+04</totfact>
</mgrwt>
</event>
<event>
 5    1  0.1147887E+001  0.2746536E+03  0.7818608E-02  0.1098645E+00
          2   -1    0    0  501    0  0.00000000000E+00  0.00000000000E+00  0.48372177742E+03  0.48372177742E+03  0.00000000000E+00 0. -1.
         -2   -1    0    0    0  501 -0.00000000000E+00 -0.00000000000E+00 -0.38986571527E+02  0.38986571527E+02  0.00000000000E+00 0. -1.
         35    2    1    2    0    0  0.00000000000E+00  0.00000000000E+00  0.44473520590E+03  0.52270834895E+03  0.27465362677E+03 0.  0.
         25    1    3    3    0    0 -0.13304537147E+01 -0.10707176073E+02  0.34777726801E+03  0.36805630258E+03  0.12000000000E+03 0.  0.
         25    1    3    3    0    0  0.13304537147E+01  0.10707176073E+02  0.96957937889E+02  0.15465204637E+03  0.12000000000E+03 0.  0.
<mgrwt>
<rscale>  0 0.27465363E+03</rscale>
<asrwt>0</asrwt>
<pdfrwt beam="1">  1        2 0.74418731E-01 0.27465363E+03</pdfrwt>
<pdfrwt beam="2">  1       -2 0.59979344E-02 0.27465363E+03</pdfrwt>
<totfact> 0.95122959E+03</totfact>
</mgrwt>
</event>
<event>
 5    1  0.1147887E+001  0.2748408E+03  0.7818608E-02  0.1098541E+00
         -1   -1    0    0    0  501 -0.00000000000E+00  0.00000000000E+00  0.26392433472E+02  0.26392433472E+02  0.00000000000E+00 0. -1.
          1   -1    0    0  501    0  0.00000000000E+00 -0.00000000000E+00 -0.71552214052E+03  0.71552214052E+03  0.00000000000E+00 0. -1.
         35    2    1    2    0    0  0.00000000000E+00  0.00000000000E+00 -0.68912970705E+03  0.74191457399E+03  0.27484083023E+03 0.  0.
         25    1    3    3    0    0  0.53230037106E+01 -0.63868312571E+02 -0.39696966752E+03  0.41963366482E+03  0.12000000000E+03 0.  0.
         25    1    3    3    0    0 -0.53230037106E+01  0.63868312571E+02 -0.29216003953E+03  0.32228090917E+03  0.12000000000E+03 0.  0.
<mgrwt>
<rscale>  0 0.27484083E+03</rscale>
<asrwt>0</asrwt>
<pdfrwt beam="1">  1        1 0.11008033E+00 0.27484083E+03</pdfrwt>
<pdfrwt beam="2">  1       -1 0.40603744E-02 0.27484083E+03</pdfrwt>
<totfact> 0.65456853E+03</totfact>
</mgrwt>
</event>
<event>
 5    1  0.1147887E+001  0.2788932E+03  0.7818608E-02  0.1096295E+00
          2   -1    0    0  501    0  0.00000000000E+00  0.00000000000E+00  0.11434630945E+03  0.11434630945E+03  0.00000000000E+00 0.  1.
         -2   -1    0    0    0  501 -0.00000000000E+00 -0.00000000000E+00 -0.17005668594E+03  0.17005668594E+03  0.00000000000E+00 0.  1.
         35    2    1    2    0    0  0.00000000000E+00  0.00000000000E+00 -0.55710376487E+02  0.28440299539E+03  0.27889320132E+03 0.  0.
         25    1    3    3    0    0 -0.10048534775E+02  0.35020546405E+02 -0.90034739814E+02  0.15438156009E+03  0.12000000000E+03 0.  0.
         25    1    3    3    0    0  0.10048534775E+02 -0.35020546405E+02  0.34324363327E+02  0.13002143531E+03  0.12000000000E+03 0.  0.
<mgrwt>
<rscale>  0 0.27889320E+03</rscale>
<asrwt>0</asrwt>
<pdfrwt beam="1">  1        2 0.17591740E-01 0.27889320E+03</pdfrwt>
<pdfrwt beam="2">  1       -2 0.26162567E-01 0.27889320E+03</pdfrwt>
<totfact> 0.42049550E+03</totfact>
</mgrwt>
</event>
<event>
 5    1  0.1147887E+001  0.2748476E+03  0.7818608E-02  0.1098537E+00
          1   -1    0    0  501    0  0.00000000000E+00  0.00000000000E+00  0.11379255291E+04  0.11379255291E+04  0.00000000000E+00 0.  1.
         -1   -1    0    0    0  501 -0.00000000000E+00 -0.00000000000E+00 -0.16596251663E+02  0.16596251663E+02  0.00000000000E+00 0.  1.
         35    2    1    2    0    0  0.00000000000E+00  0.00000000000E+00  0.11213292775E+04  0.11545217808E+04  0.27484758289E+03 0.  0.
         25    1    3    3    0    0 -0.36551792689E+02  0.46151119719E+02  0.69477722593E+03  0.70751774046E+03  0.12000000000E+03 0.  0.
         25    1    3    3    0    0  0.36551792689E+02 -0.46151119719E+02  0.42655205154E+03  0.44700404033E+03  0.12000000000E+03 0.  0.
<mgrwt>
<rscale>  0 0.27484758E+03</rscale>
<asrwt>0</asrwt>
<pdfrwt beam="1">  1        1 0.17506540E+00 0.27484758E+03</pdfrwt>
<pdfrwt beam="2">  1       -1 0.25532704E-02 0.27484758E+03</pdfrwt>
<totfact> 0.60639880E+03</totfact>
</mgrwt>
</event>
<event>
 5    1  0.1147887E+001  0.2753344E+03  0.7818608E-02  0.1098265E+00
          1   -1    0    0  501    0  0.00000000000E+00  0.00000000000E+00  0.58860621290E+03  0.58860621290E+03  0.00000000000E+00 0. -1.
         -1   -1    0    0    0  501 -0.00000000000E+00 -0.00000000000E+00 -0.32198523934E+02  0.32198523934E+02  0.00000000000E+00 0. -1.
         35    2    1    2    0    0  0.00000000000E+00  0.00000000000E+00  0.55640768897E+03  0.62080473683E+03  0.27533435117E+03 0.  0.
         25    1    3    3    0    0 -0.19081172606E+02 -0.62930161920E+02  0.24416153618E+03  0.27989132208E+03  0.12000000000E+03 0.  0.
         25    1    3    3    0    0  0.19081172606E+02  0.62930161920E+02  0.31224615279E+03  0.34091341475E+03  0.12000000000E+03 0.  0.
<mgrwt>
<rscale>  0 0.27533435E+03</rscale>
<asrwt>0</asrwt>
<pdfrwt beam="1">  1        1 0.90554794E-01 0.27533435E+03</pdfrwt>
<pdfrwt beam="2">  1       -1 0.49536195E-02 0.27533435E+03</pdfrwt>
<totfact> 0.64238946E+03</totfact>
</mgrwt>
</event>
<event>
 5    1  0.1147887E+001  0.2748477E+03  0.7818608E-02  0.1098537E+00
          1   -1    0    0  501    0  0.00000000000E+00  0.00000000000E+00  0.28503440381E+03  0.28503440381E+03  0.00000000000E+00 0. -1.
         -1   -1    0    0    0  501 -0.00000000000E+00 -0.00000000000E+00 -0.66256276456E+02  0.66256276456E+02  0.00000000000E+00 0. -1.
         35    2    1    2    0    0  0.00000000000E+00  0.00000000000E+00  0.21877812735E+03  0.35129068026E+03  0.27484772699E+03 0.  0.
         25    1    3    3    0    0  0.14444103039E+02 -0.51338930006E+02  0.16116510276E+03  0.20789061593E+03  0.12000000000E+03 0.  0.
         25    1    3    3    0    0 -0.14444103039E+02  0.51338930006E+02  0.57613024595E+02  0.14340006433E+03  0.12000000000E+03 0.  0.
<mgrwt>
<rscale>  0 0.27484773E+03</rscale>
<asrwt>0</asrwt>
<pdfrwt beam="1">  1        1 0.43851446E-01 0.27484773E+03</pdfrwt>
<pdfrwt beam="2">  1       -1 0.10193273E-01 0.27484773E+03</pdfrwt>
<totfact> 0.54947947E+03</totfact>
</mgrwt>
</event>
<event>
 5    1  0.1147887E+001  0.2746836E+03  0.7818608E-02  0.1098629E+00
         -2   -1    0    0    0  501 -0.00000000000E+00  0.00000000000E+00  0.28418240491E+02  0.28418240491E+02  0.00000000000E+00 0. -1.
          2   -1    0    0  501    0  0.00000000000E+00 -0.00000000000E+00 -0.66375591295E+03  0.66375591295E+03  0.00000000000E+00 0. -1.
         35    2    1    2    0    0  0.00000000000E+00  0.00000000000E+00 -0.63533767246E+03  0.69217415344E+03  0.27468363738E+03 0.  0.
         25    1    3    3    0    0 -0.21640691090E+02  0.54697738914E+02 -0.23787869092E+03  0.27284873785E+03  0.12000000000E+03 0.  0.
         25    1    3    3    0    0  0.21640691090E+02 -0.54697738914E+02 -0.39745898154E+03  0.41932541559E+03  0.12000000000E+03 0.  0.
<mgrwt>
<rscale>  0 0.27468364E+03</rscale>
<asrwt>0</asrwt>
<pdfrwt beam="1">  1        2 0.10211629E+00 0.27468364E+03</pdfrwt>
<pdfrwt beam="2">  1       -2 0.43720373E-02 0.27468364E+03</pdfrwt>
<totfact> 0.10700840E+04</totfact>
</mgrwt>
</event>
<event>
 5    1  0.1147887E+001  0.2754376E+03  0.7818608E-02  0.1098207E+00
         -2   -1    0    0    0  501 -0.00000000000E+00  0.00000000000E+00  0.22316996842E+02  0.22316996842E+02  0.00000000000E+00 0.  1.
          2   -1    0    0  501    0  0.00000000000E+00 -0.00000000000E+00 -0.84986675755E+03  0.84986675755E+03  0.00000000000E+00 0.  1.
         35    2    1    2    0    0  0.00000000000E+00  0.00000000000E+00 -0.82754976071E+03  0.87218375439E+03  0.27543764263E+03 0.  0.
         25    1    3    3    0    0  0.42064135911E+02 -0.10136870653E+02 -0.24940971657E+03  0.28013809879E+03  0.12000000000E+03 0.  0.
         25    1    3    3    0    0 -0.42064135911E+02  0.10136870653E+02 -0.57814004414E+03  0.59204565560E+03  0.12000000000E+03 0.  0.
<mgrwt>
<rscale>  0 0.27543764E+03</rscale>
<asrwt>0</asrwt>
<pdfrwt beam="1">  1        2 0.13074875E+00 0.27543764E+03</pdfrwt>
<pdfrwt beam="2">  1       -2 0.34333838E-02 0.27543764E+03</pdfrwt>
<totfact> 0.11311016E+04</totfact>
</mgrwt>
</event>
<event>
 5    1  0.1147887E+001  0.2755224E+03  0.7818608E-02  0.1098160E+00
          2   -1    0    0  501    0  0.00000000000E+00  0.00000000000E+00  0.28918465466E+04  0.28918465466E+04  0.00000000000E+00 0. -1.
         -2   -1    0    0    0  501 -0.00000000000E+00 -0.00000000000E+00 -0.65626397393E+01  0.65626397393E+01  0.00000000000E+00 0. -1.
         35    2    1    2    0    0  0.00000000000E+00  0.00000000000E+00  0.28852839068E+04  0.28984091863E+04  0.27552239159E+03 0.  0.
         25    1    3    3    0    0  0.21909608043E+02  0.15677856799E+02  0.78971585387E+03  0.79923523193E+03  0.12000000000E+03 0.  0.
         25    1    3    3    0    0 -0.21909608043E+02 -0.15677856799E+02  0.20955680530E+04  0.20991739544E+04  0.12000000000E+03 0.  0.
<mgrwt>
<rscale>  0 0.27552239E+03</rscale>
<asrwt>0</asrwt>
<pdfrwt beam="1">  1        2 0.44489845E+00 0.27552239E+03</pdfrwt>
<pdfrwt beam="2">  1       -2 0.10096392E-02 0.27552239E+03</pdfrwt>
<totfact> 0.50704795E+03</totfact>
</mgrwt>
</event>
<event>
 5    1  0.1147887E+001  0.2756018E+03  0.7818608E-02  0.1098116E+00
         -2   -1    0    0    0  501 -0.00000000000E+00  0.00000000000E+00  0.34521574183E+02  0.34521574183E+02  0.00000000000E+00 0.  1.
          2   -1    0    0  501    0  0.00000000000E+00 -0.00000000000E+00 -0.55006430739E+03  0.55006430739E+03  0.00000000000E+00 0.  1.
         35    2    1    2    0    0  0.00000000000E+00  0.00000000000E+00 -0.51554273320E+03  0.58458588157E+03  0.27560178369E+03 0.  0.
         25    1    3    3    0    0  0.30690010709E+02 -0.49522642420E+02 -0.33108737398E+03  0.35694988175E+03  0.12000000000E+03 0.  0.
         25    1    3    3    0    0 -0.30690010709E+02  0.49522642420E+02 -0.18445535922E+03  0.22763599982E+03  0.12000000000E+03 0.  0.
<mgrwt>
<rscale>  0 0.27560178E+03</rscale>
<asrwt>0</asrwt>
<pdfrwt beam="1">  1        2 0.84625280E-01 0.27560178E+03</pdfrwt>
<pdfrwt beam="2">  1       -2 0.53110113E-02 0.27560178E+03</pdfrwt>
<totfact> 0.99153392E+03</totfact>
</mgrwt>
</event>
<event>
 5    1  0.1147887E+001  0.2749082E+03  0.7818608E-02  0.1098503E+00
          2   -1    0    0  501    0  0.00000000000E+00  0.00000000000E+00  0.29331382386E+03  0.29331382386E+03  0.00000000000E+00 0. -1.
         -2   -1    0    0    0  501 -0.00000000000E+00 -0.00000000000E+00 -0.64414396410E+02  0.64414396410E+02  0.00000000000E+00 0. -1.
         35    2    1    2    0    0  0.00000000000E+00  0.00000000000E+00  0.22889942745E+03  0.35772822027E+03  0.27490822412E+03 0.  0.
         25    1    3    3    0    0  0.63704859337E+02 -0.15989284161E+02  0.13189182922E+03  0.19002479029E+03  0.12000000000E+03 0.  0.
         25    1    3    3    0    0 -0.63704859337E+02  0.15989284161E+02  0.97007598229E+02  0.16770342997E+03  0.12000000000E+03 0.  0.
<mgrwt>
<rscale>  0 0.27490822E+03</rscale>
<asrwt>0</asrwt>
<pdfrwt beam="1">  1        2 0.45125203E-01 0.27490822E+03</pdfrwt>
<pdfrwt beam="2">  1       -2 0.99099073E-02 0.27490822E+03</pdfrwt>
<totfact> 0.74872919E+03</totfact>
</mgrwt>
</event>
<event>
 5    1  0.1147887E+001  0.2762070E+03  0.7818608E-02  0.1097779E+00
         -1   -1    0    0    0  501 -0.00000000000E+00  0.00000000000E+00  0.21870990756E+04  0.21870990756E+04  0.00000000000E+00 0. -1.
          1   -1    0    0  501    0  0.00000000000E+00 -0.00000000000E+00 -0.87204922277E+01  0.87204922277E+01  0.00000000000E+00 0. -1.
         35    2    1    2    0    0  0.00000000000E+00  0.00000000000E+00  0.21783785833E+04  0.21958195678E+04  0.27620702735E+03 0.  0.
         25    1    3    3    0    0 -0.74448084658E+01  0.67936100632E+02  0.10784009818E+04  0.10872071636E+04  0.12000000000E+03 0.  0.
         25    1    3    3    0    0  0.74448084658E+01 -0.67936100632E+02  0.10999776015E+04  0.11086124042E+04  0.12000000000E+03 0.  0.
<mgrwt>
<rscale>  0 0.27620703E+03</rscale>
<asrwt>0</asrwt>
<pdfrwt beam="1">  1        1 0.13416159E-02 0.27620703E+03</pdfrwt>
<pdfrwt beam="2">  1       -1 0.33647634E+00 0.27620703E+03</pdfrwt>
<totfact> 0.24269825E+02</totfact>
</mgrwt>
</event>
<event>
 5    1  0.1147887E+001  0.2757960E+03  0.7818608E-02  0.1098008E+00
         -2   -1    0    0    0  501 -0.00000000000E+00  0.00000000000E+00  0.41638850602E+02  0.41638850602E+02  0.00000000000E+00 0.  1.
          2   -1    0    0  501    0  0.00000000000E+00 -0.00000000000E+00 -0.45668535491E+03  0.45668535491E+03  0.00000000000E+00 0.  1.
         35    2    1    2    0    0  0.00000000000E+00  0.00000000000E+00 -0.41504650430E+03  0.49832420551E+03  0.27579596273E+03 0.  0.
         25    1    3    3    0    0 -0.96865115759E+00 -0.33442776407E+02 -0.31436489984E+03  0.33814885454E+03  0.12000000000E+03 0.  0.
         25    1    3    3    0    0  0.96865115759E+00  0.33442776407E+02 -0.10068160447E+03  0.16017535097E+03  0.12000000000E+03 0.  0.
<mgrwt>
<rscale>  0 0.27579596E+03</rscale>
<asrwt>0</asrwt>
<pdfrwt beam="1">  1        2 0.70259287E-01 0.27579596E+03</pdfrwt>
<pdfrwt beam="2">  1       -2 0.64059768E-02 0.27579596E+03</pdfrwt>
<totfact> 0.91640901E+03</totfact>
</mgrwt>
</event>
<event>
 5    1  0.1147887E+001  0.2745063E+03  0.7818608E-02  0.1098728E+00
          2   -1    0    0  501    0  0.00000000000E+00  0.00000000000E+00  0.10325682752E+04  0.10325682752E+04  0.00000000000E+00 0. -1.
         -2   -1    0    0    0  501 -0.00000000000E+00 -0.00000000000E+00 -0.18244244757E+02  0.18244244757E+02  0.00000000000E+00 0. -1.
         35    2    1    2    0    0  0.00000000000E+00  0.00000000000E+00  0.10143240305E+04  0.10508125200E+04  0.27450630842E+03 0.  0.
         25    1    3    3    0    0 -0.51797714570E+02  0.20852263044E+00  0.66754514460E+03  0.68022023404E+03  0.12000000000E+03 0.  0.
         25    1    3    3    0    0  0.51797714570E+02 -0.20852263044E+00  0.34677888586E+03  0.37059228593E+03  0.12000000000E+03 0.  0.
<mgrwt>
<rscale>  0 0.27450631E+03</rscale>
<asrwt>0</asrwt>
<pdfrwt beam="1">  1        2 0.15885661E+00 0.27450631E+03</pdfrwt>
<pdfrwt beam="2">  1       -2 0.28068077E-02 0.27450631E+03</pdfrwt>
<totfact> 0.11703169E+04</totfact>
</mgrwt>
</event>
<event>
 4    1  0.1147887E+001  0.3056117E+03  0.7818608E-02  0.1082469E+00
         -2   -1    0    0    0  501 -0.00000000000E+00  0.00000000000E+00  0.31457372512E+03  0.31457372512E+03  0.00000000000E+00 0.  1.
          2   -1    0    0  501    0  0.00000000000E+00 -0.00000000000E+00 -0.74226263157E+02  0.74226263157E+02  0.00000000000E+00 0.  1.
         25    1    1    2    0    0  0.96696893918E+01 -0.90184485795E+02  0.15437889314E+03  0.21554486080E+03  0.12000000000E+03 0.  0.
         25    1    1    2    0    0 -0.96696893918E+01  0.90184485795E+02  0.85968568826E+02  0.17325512748E+03  0.12000000000E+03 0.  0.
<mgrwt>
<rscale>  0 0.30561173E+03</rscale>
<asrwt>0</asrwt>
<pdfrwt beam="1">  1        2 0.11419425E-01 0.30561173E+03</pdfrwt>
<pdfrwt beam="2">  1       -2 0.48395957E-01 0.30561173E+03</pdfrwt>
<totfact> 0.22294261E+03</totfact>
</mgrwt>
</event>
<event>
 5    1  0.1147887E+001  0.2751041E+03  0.7818608E-02  0.1098393E+00
         -2   -1    0    0    0  501 -0.00000000000E+00  0.00000000000E+00  0.50055780840E+01  0.50055780840E+01  0.00000000000E+00 0. -1.
          2   -1    0    0  501    0  0.00000000000E+00 -0.00000000000E+00 -0.37798966160E+04  0.37798966160E+04  0.00000000000E+00 0. -1.
         35    2    1    2    0    0  0.00000000000E+00  0.00000000000E+00 -0.37748910379E+04  0.37849021941E+04  0.27510410873E+03 0.  0.
         25    1    3    3    0    0  0.33508327823E+02  0.20741813872E+02 -0.26369179120E+04  0.26399411178E+04  0.12000000000E+03 0.  0.
         25    1    3    3    0    0 -0.33508327823E+02 -0.20741813872E+02 -0.11379731259E+04  0.11449610763E+04  0.12000000000E+03 0.  0.
<mgrwt>
<rscale>  0 0.27510411E+03</rscale>
<asrwt>0</asrwt>
<pdfrwt beam="1">  1        2 0.58152340E+00 0.27510411E+03</pdfrwt>
<pdfrwt beam="2">  1       -2 0.77008782E-03 0.27510411E+03</pdfrwt>
<totfact> 0.20271736E+03</totfact>
</mgrwt>
</event>
<event>
 5    1  0.1147887E+001  0.2750911E+03  0.7818608E-02  0.1098401E+00
         -3   -1    0    0    0  501 -0.00000000000E+00  0.00000000000E+00  0.32244210239E+02  0.32244210239E+02  0.00000000000E+00 0. -1.
          3   -1    0    0  501    0  0.00000000000E+00 -0.00000000000E+00 -0.58673406313E+03  0.58673406313E+03  0.00000000000E+00 0. -1.
         35    2    1    2    0    0  0.00000000000E+00  0.00000000000E+00 -0.55448985289E+03  0.61897827337E+03  0.27509108663E+03 0.  0.
         25    1    3    3    0    0 -0.44996929688E+02  0.26792976672E+02 -0.18241541795E+03  0.22453946643E+03  0.12000000000E+03 0.  0.
         25    1    3    3    0    0  0.44996929688E+02 -0.26792976672E+02 -0.37207443494E+03  0.39443880694E+03  0.12000000000E+03 0.  0.
<mgrwt>
<rscale>  0 0.27509109E+03</rscale>
<asrwt>0</asrwt>
<pdfrwt beam="1">  1        3 0.90266771E-01 0.27509109E+03</pdfrwt>
<pdfrwt beam="2">  1       -3 0.49606482E-02 0.27509109E+03</pdfrwt>
<totfact> 0.66997355E+02</totfact>
</mgrwt>
</event>
<event>
 5    1  0.1147887E+001  0.2750569E+03  0.7818608E-02  0.1098420E+00
         -1   -1    0    0    0  501 -0.00000000000E+00  0.00000000000E+00  0.10164050357E+02  0.10164050357E+02  0.00000000000E+00 0. -1.
          1   -1    0    0  501    0  0.00000000000E+00 -0.00000000000E+00 -0.18608801885E+04  0.18608801885E+04  0.00000000000E+00 0. -1.
         35    2    1    2    0    0  0.00000000000E+00  0.00000000000E+00 -0.18507161381E+04  0.18710442388E+04  0.27505693915E+03 0.  0.
         25    1    3    3    0    0 -0.52140544932E+02  0.27963853109E+02 -0.70880410619E+03  0.72132092334E+03  0.12000000000E+03 0.  0.
         25    1    3    3    0    0  0.52140544932E+02 -0.27963853109E+02 -0.11419120319E+04  0.11497233155E+04  0.12000000000E+03 0.  0.
<mgrwt>
<rscale>  0 0.27505694E+03</rscale>
<asrwt>0</asrwt>
<pdfrwt beam="1">  1        1 0.28628893E+00 0.27505694E+03</pdfrwt>
<pdfrwt beam="2">  1       -1 0.15637019E-02 0.27505694E+03</pdfrwt>
<totfact> 0.40806443E+03</totfact>
</mgrwt>
</event>
<event>
 5    1  0.1147887E+001  0.2746238E+03  0.7818608E-02  0.1098662E+00
          1   -1    0    0  501    0  0.00000000000E+00  0.00000000000E+00  0.33487369744E+03  0.33487369744E+03  0.00000000000E+00 0. -1.
         -1   -1    0    0    0  501 -0.00000000000E+00 -0.00000000000E+00 -0.56303508639E+02  0.56303508639E+02  0.00000000000E+00 0. -1.
         35    2    1    2    0    0  0.00000000000E+00  0.00000000000E+00  0.27857018880E+03  0.39117720608E+03  0.27462384541E+03 0.  0.
         25    1    3    3    0    0  0.36060354114E+02  0.19721041460E+01  0.21923409335E+03  0.25252292177E+03  0.12000000000E+03 0.  0.
         25    1    3    3    0    0 -0.36060354114E+02 -0.19721041460E+01  0.59336095454E+02  0.13865428431E+03  0.12000000000E+03 0.  0.
<mgrwt>
<rscale>  0 0.27462385E+03</rscale>
<asrwt>0</asrwt>
<pdfrwt beam="1">  1        1 0.51519029E-01 0.27462385E+03</pdfrwt>
<pdfrwt beam="2">  1       -1 0.86620785E-02 0.27462385E+03</pdfrwt>
<totfact> 0.57634473E+03</totfact>
</mgrwt>
</event>
<event>
 5    1  0.1147887E+001  0.2750179E+03  0.7818608E-02  0.1098442E+00
          1   -1    0    0  501    0  0.00000000000E+00  0.00000000000E+00  0.39096396095E+02  0.39096396095E+02  0.00000000000E+00 0. -1.
         -1   -1    0    0    0  501 -0.00000000000E+00 -0.00000000000E+00 -0.48364347329E+03  0.48364347329E+03  0.00000000000E+00 0. -1.
         35    2    1    2    0    0  0.00000000000E+00  0.00000000000E+00 -0.44454707720E+03  0.52273986939E+03  0.27501793978E+03 0.  0.
         25    1    3    3    0    0 -0.43993359041E+02 -0.15886799241E+01 -0.12590021753E+03  0.17941238619E+03  0.12000000000E+03 0.  0.
         25    1    3    3    0    0  0.43993359041E+02  0.15886799241E+01 -0.31864685967E+03  0.34332748320E+03  0.12000000000E+03 0.  0.
<mgrwt>
<rscale>  0 0.27501794E+03</rscale>
<asrwt>0</asrwt>
<pdfrwt beam="1">  1        1 0.60148304E-02 0.27501794E+03</pdfrwt>
<pdfrwt beam="2">  1       -1 0.74406685E-01 0.27501794E+03</pdfrwt>
<totfact> 0.24343946E+03</totfact>
</mgrwt>
</event>
<event>
 5    1  0.1147887E+001  0.2708395E+03  0.7818608E-02  0.1100800E+00
         -1   -1    0    0    0  501 -0.00000000000E+00  0.00000000000E+00  0.13069511196E+03  0.13069511196E+03  0.00000000000E+00 0.  1.
          1   -1    0    0  501    0  0.00000000000E+00 -0.00000000000E+00 -0.14031514296E+03  0.14031514296E+03  0.00000000000E+00 0.  1.
         35    2    1    2    0    0  0.00000000000E+00  0.00000000000E+00 -0.96200310058E+01  0.27101025492E+03  0.27083946034E+03 0.  0.
         25    1    3    3    0    0 -0.42634540430E+01 -0.62501054405E+02 -0.10734302065E+01  0.13537249017E+03  0.12000000000E+03 0.  0.
         25    1    3    3    0    0  0.42634540430E+01  0.62501054405E+02 -0.85466007993E+01  0.13563776475E+03  0.12000000000E+03 0.  0.
<mgrwt>
<rscale>  0 0.27083946E+03</rscale>
<asrwt>0</asrwt>
<pdfrwt beam="1">  1        1 0.21586945E-01 0.27083946E+03</pdfrwt>
<pdfrwt beam="2">  1       -1 0.20106940E-01 0.27083946E+03</pdfrwt>
<totfact> 0.45886614E+03</totfact>
</mgrwt>
</event>
<event>
 5    1  0.1147887E+001  0.2751970E+03  0.7818608E-02  0.1098342E+00
         -2   -1    0    0    0  501 -0.00000000000E+00  0.00000000000E+00  0.17832521269E+02  0.17832521269E+02  0.00000000000E+00 0. -1.
          2   -1    0    0  501    0  0.00000000000E+00 -0.00000000000E+00 -0.10617316990E+04  0.10617316990E+04  0.00000000000E+00 0. -1.
         35    2    1    2    0    0  0.00000000000E+00  0.00000000000E+00 -0.10438991777E+04  0.10795642203E+04  0.27519704289E+03 0.  0.
         25    1    3    3    0    0  0.15388117939E+02  0.43843973011E+02 -0.33080178567E+03  0.35494916473E+03  0.12000000000E+03 0.  0.
         25    1    3    3    0    0 -0.15388117939E+02 -0.43843973011E+02 -0.71309739207E+03  0.72461505554E+03  0.12000000000E+03 0.  0.
<mgrwt>
<rscale>  0 0.27519704E+03</rscale>
<asrwt>0</asrwt>
<pdfrwt beam="1">  1        2 0.16334332E+00 0.27519704E+03</pdfrwt>
<pdfrwt beam="2">  1       -2 0.27434652E-02 0.27519704E+03</pdfrwt>
<totfact> 0.11629451E+04</totfact>
</mgrwt>
</event>
<event>
 5    1  0.1147887E+001  0.2738809E+03  0.7818608E-02  0.1099079E+00
         -4   -1    0    0    0  501 -0.00000000000E+00  0.00000000000E+00  0.38954405985E+02  0.38954405985E+02  0.00000000000E+00 0.  1.
          4   -1    0    0  501    0  0.00000000000E+00 -0.00000000000E+00 -0.48140103472E+03  0.48140103472E+03  0.00000000000E+00 0.  1.
         35    2    1    2    0    0  0.00000000000E+00  0.00000000000E+00 -0.44244662873E+03  0.52035544071E+03  0.27388093288E+03 0.  0.
         25    1    3    3    0    0 -0.22178069645E+02  0.25864819992E+02 -0.11388406283E+03  0.16890954814E+03  0.12000000000E+03 0.  0.
         25    1    3    3    0    0  0.22178069645E+02 -0.25864819992E+02 -0.32856256591E+03  0.35144589257E+03  0.12000000000E+03 0.  0.
<mgrwt>
<rscale>  0 0.27388093E+03</rscale>
<asrwt>0</asrwt>
<pdfrwt beam="1">  1        4 0.74061700E-01 0.27388093E+03</pdfrwt>
<pdfrwt beam="2">  1       -4 0.59929853E-02 0.27388093E+03</pdfrwt>
<totfact> 0.56119048E+02</totfact>
</mgrwt>
</event>
<event>
 5    1  0.1147887E+001  0.2753993E+03  0.7818608E-02  0.1098229E+00
         -1   -1    0    0    0  501 -0.00000000000E+00  0.00000000000E+00  0.16426361271E+02  0.16426361271E+02  0.00000000000E+00 0. -1.
          1   -1    0    0  501    0  0.00000000000E+00 -0.00000000000E+00 -0.11543146374E+04  0.11543146374E+04  0.00000000000E+00 0. -1.
         35    2    1    2    0    0  0.00000000000E+00  0.00000000000E+00 -0.11378882762E+04  0.11707409987E+04  0.27539926837E+03 0.  0.
         25    1    3    3    0    0  0.53274560677E+02 -0.30509633964E+02 -0.68859283527E+03  0.70166167728E+03  0.12000000000E+03 0.  0.
         25    1    3    3    0    0 -0.53274560677E+02  0.30509633964E+02 -0.44929544090E+03  0.46907932143E+03  0.12000000000E+03 0.  0.
<mgrwt>
<rscale>  0 0.27539927E+03</rscale>
<asrwt>0</asrwt>
<pdfrwt beam="1">  1        1 0.17758688E+00 0.27539927E+03</pdfrwt>
<pdfrwt beam="2">  1       -1 0.25271323E-02 0.27539927E+03</pdfrwt>
<totfact> 0.59937427E+03</totfact>
</mgrwt>
</event>
<event>
 5    1  0.1147887E+001  0.2750962E+03  0.7818608E-02  0.1098398E+00
         -1   -1    0    0    0  501 -0.00000000000E+00  0.00000000000E+00  0.11159929277E+02  0.11159929277E+02  0.00000000000E+00 0.  1.
          1   -1    0    0  501    0  0.00000000000E+00 -0.00000000000E+00 -0.16953051830E+04  0.16953051830E+04  0.00000000000E+00 0.  1.
         35    2    1    2    0    0  0.00000000000E+00  0.00000000000E+00 -0.16841452538E+04  0.17064651123E+04  0.27509624458E+03 0.  0.
         25    1    3    3    0    0 -0.13193058213E+02  0.65919863480E+02 -0.84224361547E+03  0.85340130829E+03  0.12000000000E+03 0.  0.
         25    1    3    3    0    0  0.13193058213E+02 -0.65919863480E+02 -0.84190163828E+03  0.85306380402E+03  0.12000000000E+03 0.  0.
<mgrwt>
<rscale>  0 0.27509624E+03</rscale>
<asrwt>0</asrwt>
<pdfrwt beam="1">  1        1 0.26081603E+00 0.27509624E+03</pdfrwt>
<pdfrwt beam="2">  1       -1 0.17169132E-02 0.27509624E+03</pdfrwt>
<totfact> 0.45634968E+03</totfact>
</mgrwt>
</event>
<event>
 5    1  0.1147887E+001  0.2756523E+03  0.7818608E-02  0.1098088E+00
         -3   -1    0    0    0  501 -0.00000000000E+00  0.00000000000E+00  0.32670647504E+03  0.32670647504E+03  0.00000000000E+00 0. -1.
          3   -1    0    0  501    0  0.00000000000E+00 -0.00000000000E+00 -0.58144070361E+02  0.58144070361E+02  0.00000000000E+00 0. -1.
         35    2    1    2    0    0  0.00000000000E+00  0.00000000000E+00  0.26856240468E+03  0.38485054541E+03  0.27565227568E+03 0.  0.
         25    1    3    3    0    0 -0.87023186498E+01  0.67210357343E+02  0.13673213804E+03  0.19413562284E+03  0.12000000000E+03 0.  0.
         25    1    3    3    0    0  0.87023186498E+01 -0.67210357343E+02  0.13183026665E+03  0.19071492256E+03  0.12000000000E+03 0.  0.
<mgrwt>
<rscale>  0 0.27565228E+03</rscale>
<asrwt>0</asrwt>
<pdfrwt beam="1">  1        3 0.89452418E-02 0.27565228E+03</pdfrwt>
<pdfrwt beam="2">  1       -3 0.50262533E-01 0.27565228E+03</pdfrwt>
<totfact> 0.89229499E+02</totfact>
</mgrwt>
</event>
<event>
 4    1  0.1147887E+001  0.3154560E+03  0.7818608E-02  0.1077760E+00
         -1   -1    0    0    0  501 -0.00000000000E+00  0.00000000000E+00  0.94206696506E+02  0.94206696506E+02  0.00000000000E+00 0. -1.
          1   -1    0    0  501    0  0.00000000000E+00 -0.00000000000E+00 -0.26408025280E+03  0.26408025280E+03  0.00000000000E+00 0. -1.
         25    1    1    2    0    0  0.69591067911E+02  0.72161824900E+02 -0.10843064030E+03  0.19028255165E+03  0.12000000000E+03 0.  0.
         25    1    1    2    0    0 -0.69591067911E+02 -0.72161824900E+02 -0.61442915988E+02  0.16800439765E+03  0.12000000000E+03 0.  0.
<mgrwt>
<rscale>  0 0.31545604E+03</rscale>
<asrwt>0</asrwt>
<pdfrwt beam="1">  1        1 0.40627731E-01 0.31545604E+03</pdfrwt>
<pdfrwt beam="2">  1       -1 0.14493338E-01 0.31545604E+03</pdfrwt>
<totfact> 0.34972825E+03</totfact>
</mgrwt>
</event>
<event>
 5    1  0.1147887E+001  0.2746083E+03  0.7818608E-02  0.1098671E+00
          2   -1    0    0  501    0  0.00000000000E+00  0.00000000000E+00  0.17929021483E+03  0.17929021483E+03  0.00000000000E+00 0. -1.
         -2   -1    0    0    0  501 -0.00000000000E+00 -0.00000000000E+00 -0.10515032198E+03  0.10515032198E+03  0.00000000000E+00 0. -1.
         35    2    1    2    0    0  0.00000000000E+00  0.00000000000E+00  0.74139892849E+02  0.28444053681E+03  0.27460825783E+03 0.  0.
         25    1    3    3    0    0  0.42024510378E+01  0.10428882918E+02  0.10519725557E+03  0.15997776337E+03  0.12000000000E+03 0.  0.
         25    1    3    3    0    0 -0.42024510378E+01 -0.10428882918E+02 -0.31057362718E+02  0.12446277344E+03  0.12000000000E+03 0.  0.
<mgrwt>
<rscale>  0 0.27460826E+03</rscale>
<asrwt>0</asrwt>
<pdfrwt beam="1">  1        2 0.27583110E-01 0.27460826E+03</pdfrwt>
<pdfrwt beam="2">  1       -2 0.16176973E-01 0.27460826E+03</pdfrwt>
<totfact> 0.57662726E+03</totfact>
</mgrwt>
</event>
<event>
 5    1  0.1147887E+001  0.2754357E+03  0.7818608E-02  0.1098208E+00
         -2   -1    0    0    0  501 -0.00000000000E+00  0.00000000000E+00  0.12748989624E+02  0.12748989624E+02  0.00000000000E+00 0. -1.
          2   -1    0    0  501    0  0.00000000000E+00 -0.00000000000E+00 -0.14876633521E+04  0.14876633521E+04  0.00000000000E+00 0. -1.
         35    2    1    2    0    0  0.00000000000E+00  0.00000000000E+00 -0.14749143625E+04  0.15004123417E+04  0.27543568861E+03 0.  0.
         25    1    3    3    0    0  0.31414159375E+02  0.58989762462E+02 -0.68310215095E+03  0.69677484894E+03  0.12000000000E+03 0.  0.
         25    1    3    3    0    0 -0.31414159375E+02 -0.58989762462E+02 -0.79181221154E+03  0.80363749280E+03  0.12000000000E+03 0.  0.
<mgrwt>
<rscale>  0 0.27543569E+03</rscale>
<asrwt>0</asrwt>
<pdfrwt beam="1">  1        2 0.22887134E+00 0.27543569E+03</pdfrwt>
<pdfrwt beam="2">  1       -2 0.19613826E-02 0.27543569E+03</pdfrwt>
<totfact> 0.11022065E+04</totfact>
</mgrwt>
</event>
<event>
 5    1  0.1147887E+001  0.2756859E+03  0.7818608E-02  0.1098069E+00
          1   -1    0    0  501    0  0.00000000000E+00  0.00000000000E+00  0.87380038785E+02  0.87380038785E+02  0.00000000000E+00 0.  1.
         -1   -1    0    0    0  501 -0.00000000000E+00 -0.00000000000E+00 -0.21744876377E+03  0.21744876377E+03  0.00000000000E+00 0.  1.
         35    2    1    2    0    0  0.00000000000E+00  0.00000000000E+00 -0.13006872498E+03  0.30482880255E+03  0.27568591848E+03 0.  0.
         25    1    3    3    0    0  0.61784758216E+01  0.67471186552E+02 -0.61512221886E+02  0.15091152381E+03  0.12000000000E+03 0.  0.
         25    1    3    3    0    0 -0.61784758216E+01 -0.67471186552E+02 -0.68556503097E+02  0.15391727874E+03  0.12000000000E+03 0.  0.
<mgrwt>
<rscale>  0 0.27568592E+03</rscale>
<asrwt>0</asrwt>
<pdfrwt beam="1">  1        1 0.13443083E-01 0.27568592E+03</pdfrwt>
<pdfrwt beam="2">  1       -1 0.33453656E-01 0.27568592E+03</pdfrwt>
<totfact> 0.36298694E+03</totfact>
</mgrwt>
</event>
<event>
 5    1  0.1147887E+001  0.2762131E+03  0.7818608E-02  0.1097775E+00
         -2   -1    0    0    0  501 -0.00000000000E+00  0.00000000000E+00  0.23178126215E+03  0.23178126215E+03  0.00000000000E+00 0.  1.
          2   -1    0    0  501    0  0.00000000000E+00 -0.00000000000E+00 -0.82290588438E+02  0.82290588438E+02  0.00000000000E+00 0.  1.
         35    2    1    2    0    0  0.00000000000E+00  0.00000000000E+00  0.14949067372E+03  0.31407185059E+03  0.27621308044E+03 0.  0.
         25    1    3    3    0    0 -0.62042736693E+01  0.77538707127E+01 -0.21625488943E+01  0.12042961488E+03  0.12000000000E+03 0.  0.
         25    1    3    3    0    0  0.62042736693E+01 -0.77538707127E+01  0.15165322261E+03  0.19364223571E+03  0.12000000000E+03 0.  0.
<mgrwt>
<rscale>  0 0.27621308E+03</rscale>
<asrwt>0</asrwt>
<pdfrwt beam="1">  1        2 0.12660091E-01 0.27621308E+03</pdfrwt>
<pdfrwt beam="2">  1       -2 0.35658656E-01 0.27621308E+03</pdfrwt>
<totfact> 0.35322024E+03</totfact>
</mgrwt>
</event>
<event>
 5    1  0.1147887E+001  0.2750059E+03  0.7818608E-02  0.1098448E+00
         -1   -1    0    0    0  501 -0.00000000000E+00  0.00000000000E+00  0.27541908885E+02  0.27541908885E+02  0.00000000000E+00 0. -1.
          1   -1    0    0  501    0  0.00000000000E+00 -0.00000000000E+00 -0.68648317524E+03  0.68648317524E+03  0.00000000000E+00 0. -1.
         35    2    1    2    0    0  0.00000000000E+00  0.00000000000E+00 -0.65894126635E+03  0.71402508412E+03  0.27500586949E+03 0.  0.
         25    1    3    3    0    0 -0.32983645726E+02 -0.70903313432E+01 -0.48017061691E+03  0.49608670112E+03  0.12000000000E+03 0.  0.
         25    1    3    3    0    0  0.32983645726E+02  0.70903313432E+01 -0.17877064944E+03  0.21793838300E+03  0.12000000000E+03 0.  0.
<mgrwt>
<rscale>  0 0.27500587E+03</rscale>
<asrwt>0</asrwt>
<pdfrwt beam="1">  1        1 0.10561279E+00 0.27500587E+03</pdfrwt>
<pdfrwt beam="2">  1       -1 0.42372169E-02 0.27500587E+03</pdfrwt>
<totfact> 0.65263885E+03</totfact>
</mgrwt>
</event>
<event>
 5    1  0.1147887E+001  0.2738773E+03  0.7818608E-02  0.1099081E+00
         -1   -1    0    0    0  501 -0.00000000000E+00  0.00000000000E+00  0.30362825084E+02  0.30362825084E+02  0.00000000000E+00 0.  1.
          1   -1    0    0  501    0  0.00000000000E+00 -0.00000000000E+00 -0.61760382941E+03  0.61760382941E+03  0.00000000000E+00 0.  1.
         35    2    1    2    0    0  0.00000000000E+00  0.00000000000E+00 -0.58724100433E+03  0.64796665450E+03  0.27387732322E+03 0.  0.
         25    1    3    3    0    0  0.40149024432E+02  0.46654742707E+02 -0.34978700692E+03  0.37488606188E+03  0.12000000000E+03 0.  0.
         25    1    3    3    0    0 -0.40149024432E+02 -0.46654742707E+02 -0.23745399741E+03  0.27308059262E+03  0.12000000000E+03 0.  0.
<mgrwt>
<rscale>  0 0.27387732E+03</rscale>
<asrwt>0</asrwt>
<pdfrwt beam="1">  1        1 0.95015977E-01 0.27387732E+03</pdfrwt>
<pdfrwt beam="2">  1       -1 0.46712037E-02 0.27387732E+03</pdfrwt>
<totfact> 0.65588525E+03</totfact>
</mgrwt>
</event>
<event>
 5    1  0.1147887E+001  0.2764695E+03  0.7818608E-02  0.1097633E+00
          4   -1    0    0  501    0  0.00000000000E+00  0.00000000000E+00  0.70049104916E+02  0.70049104916E+02  0.00000000000E+00 0. -1.
         -4   -1    0    0    0  501 -0.00000000000E+00 -0.00000000000E+00 -0.27279210351E+03  0.27279210351E+03  0.00000000000E+00 0. -1.
         35    2    1    2    0    0  0.00000000000E+00  0.00000000000E+00 -0.20274299860E+03  0.34284120843E+03  0.27646947520E+03 0.  0.
         25    1    3    3    0    0  0.27063016057E+02 -0.10623311135E+02 -0.24291651999E+02  0.12583857093E+03  0.12000000000E+03 0.  0.
         25    1    3    3    0    0 -0.27063016057E+02  0.10623311135E+02 -0.17845134660E+03  0.21700263750E+03  0.12000000000E+03 0.  0.
<mgrwt>
<rscale>  0 0.27646948E+03</rscale>
<asrwt>0</asrwt>
<pdfrwt beam="1">  1        4 0.10776785E-01 0.27646948E+03</pdfrwt>
<pdfrwt beam="2">  1       -4 0.41968016E-01 0.27646948E+03</pdfrwt>
<totfact> 0.69297744E+02</totfact>
</mgrwt>
</event>
<event>
 5    1  0.1147887E+001  0.2746259E+03  0.7818608E-02  0.1098661E+00
         -2   -1    0    0    0  501 -0.00000000000E+00  0.00000000000E+00  0.12162746633E+02  0.12162746633E+02  0.00000000000E+00 0.  1.
          2   -1    0    0  501    0  0.00000000000E+00 -0.00000000000E+00 -0.15502129147E+04  0.15502129147E+04  0.00000000000E+00 0.  1.
         35    2    1    2    0    0  0.00000000000E+00  0.00000000000E+00 -0.15380501680E+04  0.15623756613E+04  0.27462590489E+03 0.  0.
         25    1    3    3    0    0 -0.56869596109E+02  0.21520827079E+02 -0.61244028449E+03  0.62704098672E+03  0.12000000000E+03 0.  0.
         25    1    3    3    0    0  0.56869596109E+02 -0.21520827079E+02 -0.92560988355E+03  0.93533467459E+03  0.12000000000E+03 0.  0.
<mgrwt>
<rscale>  0 0.27462590E+03</rscale>
<asrwt>0</asrwt>
<pdfrwt beam="1">  1        2 0.23849445E+00 0.27462590E+03</pdfrwt>
<pdfrwt beam="2">  1       -2 0.18711906E-02 0.27462590E+03</pdfrwt>
<totfact> 0.10936405E+04</totfact>
</mgrwt>
</event>
<event>
 5    1  0.1147887E+001  0.2747345E+03  0.7818608E-02  0.1098600E+00
          1   -1    0    0  501    0  0.00000000000E+00  0.00000000000E+00  0.19806301792E+03  0.19806301792E+03  0.00000000000E+00 0.  1.
         -1   -1    0    0    0  501 -0.00000000000E+00 -0.00000000000E+00 -0.95271474680E+02  0.95271474680E+02  0.00000000000E+00 0.  1.
         35    2    1    2    0    0  0.00000000000E+00  0.00000000000E+00  0.10279154324E+03  0.29333449260E+03  0.27473445941E+03 0.  0.
         25    1    3    3    0    0  0.27614752646E+02 -0.16799141657E+02  0.11388114780E+03  0.16856364243E+03  0.12000000000E+03 0.  0.
         25    1    3    3    0    0 -0.27614752646E+02  0.16799141657E+02 -0.11089604558E+02  0.12477085017E+03  0.12000000000E+03 0.  0.
<mgrwt>
<rscale>  0 0.27473446E+03</rscale>
<asrwt>0</asrwt>
<pdfrwt beam="1">  1        1 0.30471234E-01 0.27473446E+03</pdfrwt>
<pdfrwt beam="2">  1       -1 0.14657150E-01 0.27473446E+03</pdfrwt>
<totfact> 0.49183752E+03</totfact>
</mgrwt>
</event>
<event>
 5    1  0.1147887E+001  0.2749040E+03  0.7818608E-02  0.1098505E+00
         -1   -1    0    0    0  501 -0.00000000000E+00  0.00000000000E+00  0.17629347638E+02  0.17629347638E+02  0.00000000000E+00 0.  1.
          1   -1    0    0  501    0  0.00000000000E+00 -0.00000000000E+00 -0.10716819812E+04  0.10716819812E+04  0.00000000000E+00 0.  1.
         35    2    1    2    0    0  0.00000000000E+00  0.00000000000E+00 -0.10540526336E+04  0.10893113288E+04  0.27490401382E+03 0.  0.
         25    1    3    3    0    0  0.56410347952E+01  0.13146502804E+02 -0.26753746503E+03  0.29356591595E+03  0.12000000000E+03 0.  0.
         25    1    3    3    0    0 -0.56410347952E+01 -0.13146502804E+02 -0.78651516854E+03  0.79574541290E+03  0.12000000000E+03 0.  0.
<mgrwt>
<rscale>  0 0.27490401E+03</rscale>
<asrwt>0</asrwt>
<pdfrwt beam="1">  1        1 0.16487414E+00 0.27490401E+03</pdfrwt>
<pdfrwt beam="2">  1       -1 0.27122074E-02 0.27490401E+03</pdfrwt>
<totfact> 0.61925080E+03</totfact>
</mgrwt>
</event>
<event>
 5    1  0.1147887E+001  0.2750704E+03  0.7818608E-02  0.1098412E+00
         -2   -1    0    0    0  501 -0.00000000000E+00  0.00000000000E+00  0.51141695810E+01  0.51141695810E+01  0.00000000000E+00 0.  1.
          2   -1    0    0  501    0  0.00000000000E+00 -0.00000000000E+00 -0.36987284209E+04  0.36987284209E+04  0.00000000000E+00 0.  1.
         35    2    1    2    0    0  0.00000000000E+00  0.00000000000E+00 -0.36936142513E+04  0.37038425905E+04  0.27507035012E+03 0.  0.
         25    1    3    3    0    0 -0.57291456705E+02  0.15718207061E+01 -0.13743494092E+04  0.13807682935E+04  0.12000000000E+03 0.  0.
         25    1    3    3    0    0  0.57291456705E+02 -0.15718207061E+01 -0.23192648421E+04  0.23230742970E+04  0.12000000000E+03 0.  0.
<mgrwt>
<rscale>  0 0.27507035E+03</rscale>
<asrwt>0</asrwt>
<pdfrwt beam="1">  1        2 0.56903513E+00 0.27507035E+03</pdfrwt>
<pdfrwt beam="2">  1       -2 0.78679534E-03 0.27507035E+03</pdfrwt>
<totfact> 0.22428563E+03</totfact>
</mgrwt>
</event>
<event>
 5    1  0.1147887E+001  0.2748608E+03  0.7818608E-02  0.1098529E+00
          2   -1    0    0  501    0  0.00000000000E+00  0.00000000000E+00  0.37796468747E+02  0.37796468747E+02  0.00000000000E+00 0.  1.
         -2   -1    0    0    0  501 -0.00000000000E+00 -0.00000000000E+00 -0.49970569061E+03  0.49970569061E+03  0.00000000000E+00 0.  1.
         35    2    1    2    0    0  0.00000000000E+00  0.00000000000E+00 -0.46190922187E+03  0.53750215936E+03  0.27486076852E+03 0.  0.
         25    1    3    3    0    0  0.64938307146E+02 -0.62654130622E+01 -0.20124120007E+03  0.24321648739E+03  0.12000000000E+03 0.  0.
         25    1    3    3    0    0 -0.64938307146E+02  0.62654130622E+01 -0.26066802180E+03  0.29428567196E+03  0.12000000000E+03 0.  0.
<mgrwt>
<rscale>  0 0.27486077E+03</rscale>
<asrwt>0</asrwt>
<pdfrwt beam="1">  1        2 0.58148420E-02 0.27486077E+03</pdfrwt>
<pdfrwt beam="2">  1       -2 0.76877790E-01 0.27486077E+03</pdfrwt>
<totfact> 0.19983113E+03</totfact>
</mgrwt>
</event>
<event>
 5    1  0.1147887E+001  0.2751810E+03  0.7818608E-02  0.1098350E+00
         -1   -1    0    0    0  501 -0.00000000000E+00  0.00000000000E+00  0.23202178541E+04  0.23202178541E+04  0.00000000000E+00 0.  1.
          1   -1    0    0  501    0  0.00000000000E+00 -0.00000000000E+00 -0.81592099729E+01  0.81592099729E+01  0.00000000000E+00 0.  1.
         35    2    1    2    0    0  0.00000000000E+00  0.00000000000E+00  0.23120586442E+04  0.23283770641E+04  0.27518099248E+03 0.  0.
         25    1    3    3    0    0  0.66101279372E+02 -0.65875934147E+01  0.12480857489E+04  0.12555997818E+04  0.12000000000E+03 0.  0.
         25    1    3    3    0    0 -0.66101279372E+02  0.65875934147E+01  0.10639728953E+04  0.10727772823E+04  0.12000000000E+03 0.  0.
<mgrwt>
<rscale>  0 0.27518099E+03</rscale>
<asrwt>0</asrwt>
<pdfrwt beam="1">  1        1 0.12552649E-02 0.27518099E+03</pdfrwt>
<pdfrwt beam="2">  1       -1 0.35695607E+00 0.27518099E+03</pdfrwt>
<totfact> 0.19730122E+02</totfact>
</mgrwt>
</event>
<event>
 5    1  0.1147887E+001  0.2752408E+03  0.7818608E-02  0.1098317E+00
          1   -1    0    0  501    0  0.00000000000E+00  0.00000000000E+00  0.20087900861E+03  0.20087900861E+03  0.00000000000E+00 0. -1.
         -1   -1    0    0    0  501 -0.00000000000E+00 -0.00000000000E+00 -0.94282492734E+02  0.94282492734E+02  0.00000000000E+00 0. -1.
         35    2    1    2    0    0  0.00000000000E+00  0.00000000000E+00  0.10659651587E+03  0.29516150134E+03  0.27524079399E+03 0.  0.
         25    1    3    3    0    0 -0.16511321553E+02 -0.32229489321E+02  0.11422589579E+03  0.16958454820E+03  0.12000000000E+03 0.  0.
         25    1    3    3    0    0  0.16511321553E+02  0.32229489321E+02 -0.76293799149E+01  0.12557695314E+03  0.12000000000E+03 0.  0.
<mgrwt>
<rscale>  0 0.27524079E+03</rscale>
<asrwt>0</asrwt>
<pdfrwt beam="1">  1        1 0.30904463E-01 0.27524079E+03</pdfrwt>
<pdfrwt beam="2">  1       -1 0.14504999E-01 0.27524079E+03</pdfrwt>
<totfact> 0.49123882E+03</totfact>
</mgrwt>
</event>
<event>
 5    1  0.1147887E+001  0.2750825E+03  0.7818608E-02  0.1098406E+00
          2   -1    0    0  501    0  0.00000000000E+00  0.00000000000E+00  0.33598890325E+03  0.33598890325E+03  0.00000000000E+00 0.  1.
         -2   -1    0    0    0  501 -0.00000000000E+00 -0.00000000000E+00 -0.56304216805E+02  0.56304216805E+02  0.00000000000E+00 0.  1.
         35    2    1    2    0    0  0.00000000000E+00  0.00000000000E+00  0.27968468645E+03  0.39229312006E+03  0.27508247529E+03 0.  0.
         25    1    3    3    0    0 -0.61960994298E+02 -0.16781069088E+02  0.16825070326E+03  0.21640025010E+03  0.12000000000E+03 0.  0.
         25    1    3    3    0    0  0.61960994298E+02  0.16781069088E+02  0.11143398319E+03  0.17589286996E+03  0.12000000000E+03 0.  0.
<mgrwt>
<rscale>  0 0.27508248E+03</rscale>
<asrwt>0</asrwt>
<pdfrwt beam="1">  1        2 0.51690599E-01 0.27508248E+03</pdfrwt>
<pdfrwt beam="2">  1       -2 0.86621874E-02 0.27508248E+03</pdfrwt>
<totfact> 0.80016291E+03</totfact>
</mgrwt>
</event>
<event>
 5    1  0.1147887E+001  0.2745425E+03  0.7818608E-02  0.1098708E+00
          1   -1    0    0  501    0  0.00000000000E+00  0.00000000000E+00  0.85057200590E+02  0.85057200590E+02  0.00000000000E+00 0. -1.
         -1   -1    0    0    0  501 -0.00000000000E+00 -0.00000000000E+00 -0.22153798435E+03  0.22153798435E+03  0.00000000000E+00 0. -1.
         35    2    1    2    0    0  0.00000000000E+00  0.00000000000E+00 -0.13648078376E+03  0.30659518494E+03  0.27454253421E+03 0.  0.
         25    1    3    3    0    0  0.54646352445E+02 -0.17046297963E+02 -0.10638356344E+03  0.17027701747E+03  0.12000000000E+03 0.  0.
         25    1    3    3    0    0 -0.54646352445E+02  0.17046297963E+02 -0.30097220318E+02  0.13631816746E+03  0.12000000000E+03 0.  0.
<mgrwt>
<rscale>  0 0.27454253E+03</rscale>
<asrwt>0</asrwt>
<pdfrwt beam="1">  1        1 0.13085723E-01 0.27454253E+03</pdfrwt>
<pdfrwt beam="2">  1       -1 0.34082767E-01 0.27454253E+03</pdfrwt>
<totfact> 0.36418409E+03</totfact>
</mgrwt>
</event>
<event>
 5    1  0.1147887E+001  0.2752840E+03  0.7818608E-02  0.1098293E+00
         -2   -1    0    0    0  501 -0.00000000000E+00  0.00000000000E+00  0.25220746084E+02  0.25220746084E+02  0.00000000000E+00 0.  1.
          2   -1    0    0  501    0  0.00000000000E+00 -0.00000000000E+00 -0.75117977709E+03  0.75117977709E+03  0.00000000000E+00 0.  1.
         35    2    1    2    0    0  0.00000000000E+00  0.00000000000E+00 -0.72595903101E+03  0.77640052318E+03  0.27528395828E+03 0.  0.
         25    1    3    3    0    0  0.57611054517E+02  0.32492382347E+00 -0.46173953948E+03  0.48054400579E+03  0.12000000000E+03 0.  0.
         25    1    3    3    0    0 -0.57611054517E+02 -0.32492382347E+00 -0.26421949152E+03  0.29585651739E+03  0.12000000000E+03 0.  0.
<mgrwt>
<rscale>  0 0.27528396E+03</rscale>
<asrwt>0</asrwt>
<pdfrwt beam="1">  1        2 0.11556612E+00 0.27528396E+03</pdfrwt>
<pdfrwt beam="2">  1       -2 0.38801149E-02 0.27528396E+03</pdfrwt>
<totfact> 0.11018191E+04</totfact>
</mgrwt>
</event>
<event>
 5    1  0.1147887E+001  0.2748384E+03  0.7818608E-02  0.1098542E+00
          2   -1    0    0  501    0  0.00000000000E+00  0.00000000000E+00  0.16863156781E+04  0.16863156781E+04  0.00000000000E+00 0. -1.
         -2   -1    0    0    0  501 -0.00000000000E+00 -0.00000000000E+00 -0.11198402961E+02  0.11198402961E+02  0.00000000000E+00 0. -1.
         35    2    1    2    0    0  0.00000000000E+00  0.00000000000E+00  0.16751172752E+04  0.16975140811E+04  0.27483844333E+03 0.  0.
         25    1    3    3    0    0 -0.14213814674E+02 -0.62668765228E+02  0.72124591934E+03  0.73397893896E+03  0.12000000000E+03 0.  0.
         25    1    3    3    0    0  0.14213814674E+02  0.62668765228E+02  0.95387135581E+03  0.96353514212E+03  0.12000000000E+03 0.  0.
<mgrwt>
<rscale>  0 0.27483844E+03</rscale>
<asrwt>0</asrwt>
<pdfrwt beam="1">  1        2 0.25943298E+00 0.27483844E+03</pdfrwt>
<pdfrwt beam="2">  1       -2 0.17228326E-02 0.27483844E+03</pdfrwt>
<totfact> 0.10459036E+04</totfact>
</mgrwt>
</event>
<event>
 5    1  0.1147887E+001  0.2753367E+03  0.7818608E-02  0.1098264E+00
          2   -1    0    0  501    0  0.00000000000E+00  0.00000000000E+00  0.49942037345E+02  0.49942037345E+02  0.00000000000E+00 0. -1.
         -2   -1    0    0    0  501 -0.00000000000E+00 -0.00000000000E+00 -0.37949149243E+03  0.37949149243E+03  0.00000000000E+00 0. -1.
         35    2    1    2    0    0  0.00000000000E+00  0.00000000000E+00 -0.32954945508E+03  0.42943352977E+03  0.27533672684E+03 0.  0.
         25    1    3    3    0    0  0.66812709962E+02  0.73584445933E+01 -0.17393481466E+03  0.22174626191E+03  0.12000000000E+03 0.  0.
         25    1    3    3    0    0 -0.66812709962E+02 -0.73584445933E+01 -0.15561464042E+03  0.20768726787E+03  0.12000000000E+03 0.  0.
<mgrwt>
<rscale>  0 0.27533673E+03</rscale>
<asrwt>0</asrwt>
<pdfrwt beam="1">  1        2 0.76833902E-02 0.27533673E+03</pdfrwt>
<pdfrwt beam="2">  1       -2 0.58383308E-01 0.27533673E+03</pdfrwt>
<totfact> 0.24995948E+03</totfact>
</mgrwt>
</event>
<event>
 5    1  0.1147887E+001  0.2738452E+03  0.7818608E-02  0.1099099E+00
         -1   -1    0    0    0  501 -0.00000000000E+00  0.00000000000E+00  0.13024828281E+03  0.13024828281E+03  0.00000000000E+00 0. -1.
          1   -1    0    0  501    0  0.00000000000E+00 -0.00000000000E+00 -0.14393895520E+03  0.14393895520E+03  0.00000000000E+00 0. -1.
         35    2    1    2    0    0  0.00000000000E+00  0.00000000000E+00 -0.13690672399E+02  0.27418723801E+03  0.27384522449E+03 0.  0.
         25    1    3    3    0    0  0.55744777068E+02 -0.15315383070E+01 -0.42074162266E+02  0.13885265900E+03  0.12000000000E+03 0.  0.
         25    1    3    3    0    0 -0.55744777068E+02  0.15315383070E+01  0.28383489867E+02  0.13533457901E+03  0.12000000000E+03 0.  0.
<mgrwt>
<rscale>  0 0.27384522E+03</rscale>
<asrwt>0</asrwt>
<pdfrwt beam="1">  1        1 0.22144455E-01 0.27384522E+03</pdfrwt>
<pdfrwt beam="2">  1       -1 0.20038197E-01 0.27384522E+03</pdfrwt>
<totfact> 0.44674899E+03</totfact>
</mgrwt>
</event>
<event>
 5    1  0.1147887E+001  0.2810384E+03  0.7818608E-02  0.1095123E+00
          2   -1    0    0  501    0  0.00000000000E+00  0.00000000000E+00  0.15100137189E+04  0.15100137189E+04  0.00000000000E+00 0. -1.
         -2   -1    0    0    0  501 -0.00000000000E+00 -0.00000000000E+00 -0.13076466572E+02  0.13076466572E+02  0.00000000000E+00 0. -1.
         35    2    1    2    0    0  0.00000000000E+00  0.00000000000E+00  0.14969372523E+04  0.15230901855E+04  0.28103838825E+03 0.  0.
         25    1    3    3    0    0  0.19287091927E+02 -0.41597802052E+02  0.10571083714E+04  0.10648851947E+04  0.12000000000E+03 0.  0.
         25    1    3    3    0    0 -0.19287091927E+02  0.41597802052E+02  0.43982888093E+03  0.45820499076E+03  0.12000000000E+03 0.  0.
<mgrwt>
<rscale>  0 0.28103839E+03</rscale>
<asrwt>0</asrwt>
<pdfrwt beam="1">  1        2 0.23230967E+00 0.28103839E+03</pdfrwt>
<pdfrwt beam="2">  1       -2 0.20117653E-02 0.28103839E+03</pdfrwt>
<totfact> 0.10333792E+04</totfact>
</mgrwt>
</event>
<event>
 5    1  0.1147887E+001  0.2734088E+03  0.7818608E-02  0.1099344E+00
          1   -1    0    0  501    0  0.00000000000E+00  0.00000000000E+00  0.36986889068E+02  0.36986889068E+02  0.00000000000E+00 0. -1.
         -1   -1    0    0    0  501 -0.00000000000E+00 -0.00000000000E+00 -0.50526280633E+03  0.50526280633E+03  0.00000000000E+00 0. -1.
         35    2    1    2    0    0  0.00000000000E+00  0.00000000000E+00 -0.46827591727E+03  0.54224969540E+03  0.27340884673E+03 0.  0.
         25    1    3    3    0    0 -0.61163917984E+02 -0.14626501059E+02 -0.27033725475E+03  0.30238583085E+03  0.12000000000E+03 0.  0.
         25    1    3    3    0    0  0.61163917984E+02  0.14626501059E+02 -0.19793866252E+03  0.23986386455E+03  0.12000000000E+03 0.  0.
<mgrwt>
<rscale>  0 0.27340885E+03</rscale>
<asrwt>0</asrwt>
<pdfrwt beam="1">  1        1 0.56902911E-02 0.27340885E+03</pdfrwt>
<pdfrwt beam="2">  1       -1 0.77732732E-01 0.27340885E+03</pdfrwt>
<totfact> 0.24027728E+03</totfact>
</mgrwt>
</event>
<event>
 5    1  0.1147887E+001  0.2736673E+03  0.7818608E-02  0.1099199E+00
         -2   -1    0    0    0  501 -0.00000000000E+00  0.00000000000E+00  0.14007916164E+02  0.14007916164E+02  0.00000000000E+00 0. -1.
          2   -1    0    0  501    0  0.00000000000E+00 -0.00000000000E+00 -0.13366336094E+04  0.13366336094E+04  0.00000000000E+00 0. -1.
         35    2    1    2    0    0  0.00000000000E+00  0.00000000000E+00 -0.13226256932E+04  0.13506415255E+04  0.27366732755E+03 0.  0.
         25    1    3    3    0    0 -0.62559456230E+02 -0.17650977823E+02 -0.71022228817E+03  0.72321569479E+03  0.12000000000E+03 0.  0.
         25    1    3    3    0    0  0.62559456230E+02  0.17650977823E+02 -0.61240340503E+03  0.62742583073E+03  0.12000000000E+03 0.  0.
<mgrwt>
<rscale>  0 0.27366733E+03</rscale>
<asrwt>0</asrwt>
<pdfrwt beam="1">  1        2 0.20563593E+00 0.27366733E+03</pdfrwt>
<pdfrwt beam="2">  1       -2 0.21550641E-02 0.27366733E+03</pdfrwt>
<totfact> 0.11584501E+04</totfact>
</mgrwt>
</event>
<event>
 5    1  0.1147887E+001  0.2748119E+03  0.7818608E-02  0.1098557E+00
         -2   -1    0    0    0  501 -0.00000000000E+00  0.00000000000E+00  0.43024519857E+02  0.43024519857E+02  0.00000000000E+00 0.  1.
          2   -1    0    0  501    0  0.00000000000E+00 -0.00000000000E+00 -0.43882874883E+03  0.43882874883E+03  0.00000000000E+00 0.  1.
         35    2    1    2    0    0  0.00000000000E+00  0.00000000000E+00 -0.39580422897E+03  0.48185326868E+03  0.27481190817E+03 0.  0.
         25    1    3    3    0    0 -0.15276320182E+02 -0.59376972351E+02 -0.15080774787E+03  0.20224234874E+03  0.12000000000E+03 0.  0.
         25    1    3    3    0    0  0.15276320182E+02  0.59376972351E+02 -0.24499648110E+03  0.27961091995E+03  0.12000000000E+03 0.  0.
<mgrwt>
<rscale>  0 0.27481191E+03</rscale>
<asrwt>0</asrwt>
<pdfrwt beam="1">  1        2 0.67512114E-01 0.27481191E+03</pdfrwt>
<pdfrwt beam="2">  1       -2 0.66191570E-02 0.27481191E+03</pdfrwt>
<totfact> 0.91027182E+03</totfact>
</mgrwt>
</event>
<event>
 5    1  0.1147887E+001  0.2772378E+03  0.7818608E-02  0.1097207E+00
         -1   -1    0    0    0  501 -0.00000000000E+00  0.00000000000E+00  0.11131223615E+02  0.11131223615E+02  0.00000000000E+00 0. -1.
          1   -1    0    0  501    0  0.00000000000E+00 -0.00000000000E+00 -0.17262432872E+04  0.17262432872E+04  0.00000000000E+00 0. -1.
         35    2    1    2    0    0  0.00000000000E+00  0.00000000000E+00 -0.17151120636E+04  0.17373745108E+04  0.27723780438E+03 0.  0.
         25    1    3    3    0    0 -0.35169137275E+02 -0.33148289792E+02 -0.11696066449E+04  0.11767393004E+04  0.12000000000E+03 0.  0.
         25    1    3    3    0    0  0.35169137275E+02  0.33148289792E+02 -0.54550541868E+03  0.56063521040E+03  0.12000000000E+03 0.  0.
<mgrwt>
<rscale>  0 0.27723780E+03</rscale>
<asrwt>0</asrwt>
<pdfrwt beam="1">  1        1 0.26557602E+00 0.27723780E+03</pdfrwt>
<pdfrwt beam="2">  1       -1 0.17124951E-02 0.27723780E+03</pdfrwt>
<totfact> 0.43727741E+03</totfact>
</mgrwt>
</event>
<event>
 5    1  0.1147887E+001  0.2750940E+03  0.7818608E-02  0.1098399E+00
         -2   -1    0    0    0  501 -0.00000000000E+00  0.00000000000E+00  0.67284971965E+01  0.67284971965E+01  0.00000000000E+00 0. -1.
          2   -1    0    0  501    0  0.00000000000E+00 -0.00000000000E+00 -0.28117984747E+04  0.28117984747E+04  0.00000000000E+00 0. -1.
         35    2    1    2    0    0  0.00000000000E+00  0.00000000000E+00 -0.28050699775E+04  0.28185269719E+04  0.27509400687E+03 0.  0.
         25    1    3    3    0    0 -0.45091308196E+02  0.46901482381E+01 -0.19111128086E+04  0.19154131123E+04  0.12000000000E+03 0.  0.
         25    1    3    3    0    0  0.45091308196E+02 -0.46901482381E+01 -0.89395716884E+03  0.90311385953E+03  0.12000000000E+03 0.  0.
<mgrwt>
<rscale>  0 0.27509401E+03</rscale>
<asrwt>0</asrwt>
<pdfrwt beam="1">  1        2 0.43258440E+00 0.27509401E+03</pdfrwt>
<pdfrwt beam="2">  1       -2 0.10351534E-02 0.27509401E+03</pdfrwt>
<totfact> 0.54389296E+03</totfact>
</mgrwt>
</event>
<event>
 5    1  0.1147887E+001  0.2761405E+03  0.7818608E-02  0.1097816E+00
          2   -1    0    0  501    0  0.00000000000E+00  0.00000000000E+00  0.49784200917E+03  0.49784200917E+03  0.00000000000E+00 0. -1.
         -2   -1    0    0    0  501 -0.00000000000E+00 -0.00000000000E+00 -0.38292046261E+02  0.38292046261E+02  0.00000000000E+00 0. -1.
         35    2    1    2    0    0  0.00000000000E+00  0.00000000000E+00  0.45954996291E+03  0.53613405543E+03  0.27614046604E+03 0.  0.
         25    1    3    3    0    0  0.11576706338E+02 -0.37226779204E+02  0.12091893374E+03  0.17476052688E+03  0.12000000000E+03 0.  0.
         25    1    3    3    0    0 -0.11576706338E+02  0.37226779204E+02  0.33863102917E+03  0.36137352855E+03  0.12000000000E+03 0.  0.
<mgrwt>
<rscale>  0 0.27614047E+03</rscale>
<asrwt>0</asrwt>
<pdfrwt beam="1">  1        2 0.76591074E-01 0.27614047E+03</pdfrwt>
<pdfrwt beam="2">  1       -2 0.58910844E-02 0.27614047E+03</pdfrwt>
<totfact> 0.94712665E+03</totfact>
</mgrwt>
</event>
<event>
 5    1  0.1147887E+001  0.2749277E+03  0.7818608E-02  0.1098492E+00
         -3   -1    0    0    0  501 -0.00000000000E+00  0.00000000000E+00  0.52920485814E+02  0.52920485814E+02  0.00000000000E+00 0. -1.
          3   -1    0    0  501    0  0.00000000000E+00 -0.00000000000E+00 -0.35706974565E+03  0.35706974565E+03  0.00000000000E+00 0. -1.
         35    2    1    2    0    0  0.00000000000E+00  0.00000000000E+00 -0.30414925984E+03  0.40999023146E+03  0.27492765892E+03 0.  0.
         25    1    3    3    0    0 -0.47361729368E+02  0.47099623613E+02 -0.14327787317E+03  0.19846928451E+03  0.12000000000E+03 0.  0.
         25    1    3    3    0    0  0.47361729368E+02 -0.47099623613E+02 -0.16087138666E+03  0.21152094695E+03  0.12000000000E+03 0.  0.
<mgrwt>
<rscale>  0 0.27492766E+03</rscale>
<asrwt>0</asrwt>
<pdfrwt beam="1">  1        3 0.54933807E-01 0.27492766E+03</pdfrwt>
<pdfrwt beam="2">  1       -3 0.81416132E-02 0.27492766E+03</pdfrwt>
<totfact> 0.87023745E+02</totfact>
</mgrwt>
</event>
<event>
 5    1  0.1147887E+001  0.2709214E+03  0.7818608E-02  0.1100753E+00
         -2   -1    0    0    0  501 -0.00000000000E+00  0.00000000000E+00  0.23801326857E+02  0.23801326857E+02  0.00000000000E+00 0. -1.
          2   -1    0    0  501    0  0.00000000000E+00 -0.00000000000E+00 -0.77094889898E+03  0.77094889898E+03  0.00000000000E+00 0. -1.
         35    2    1    2    0    0  0.00000000000E+00  0.00000000000E+00 -0.74714757212E+03  0.79475022584E+03  0.27092144053E+03 0.  0.
         25    1    3    3    0    0  0.58906917144E+02 -0.40791353777E+01 -0.31045613747E+03  0.33803798237E+03  0.12000000000E+03 0.  0.
         25    1    3    3    0    0 -0.58906917144E+02  0.40791353777E+01 -0.43669143466E+03  0.45671224347E+03  0.12000000000E+03 0.  0.
<mgrwt>
<rscale>  0 0.27092144E+03</rscale>
<asrwt>0</asrwt>
<pdfrwt beam="1">  1        2 0.11860753E+00 0.27092144E+03</pdfrwt>
<pdfrwt beam="2">  1       -2 0.36617425E-02 0.27092144E+03</pdfrwt>
<totfact> 0.11628361E+04</totfact>
</mgrwt>
</event>
<event>
 5    1  0.1147887E+001  0.2752848E+03  0.7818608E-02  0.1098293E+00
         -2   -1    0    0    0  501 -0.00000000000E+00  0.00000000000E+00  0.81266423652E+01  0.81266423652E+01  0.00000000000E+00 0.  1.
          2   -1    0    0  501    0  0.00000000000E+00 -0.00000000000E+00 -0.23312741874E+04  0.23312741874E+04  0.00000000000E+00 0.  1.
         35    2    1    2    0    0  0.00000000000E+00  0.00000000000E+00 -0.23231475450E+04  0.23394008298E+04  0.27528480943E+03 0.  0.
         25    1    3    3    0    0 -0.39040148580E+02 -0.30953310116E+02 -0.77556950469E+03  0.78637796078E+03  0.12000000000E+03 0.  0.
         25    1    3    3    0    0  0.39040148580E+02  0.30953310116E+02 -0.15475780404E+04  0.15530228690E+04  0.12000000000E+03 0.  0.
<mgrwt>
<rscale>  0 0.27528481E+03</rscale>
<asrwt>0</asrwt>
<pdfrwt beam="1">  1        2 0.35865745E+00 0.27528481E+03</pdfrwt>
<pdfrwt beam="2">  1       -2 0.12502531E-02 0.27528481E+03</pdfrwt>
<totfact> 0.76268552E+03</totfact>
</mgrwt>
</event>
<event>
 5    1  0.1147887E+001  0.2758044E+03  0.7818608E-02  0.1098003E+00
         -1   -1    0    0    0  501 -0.00000000000E+00  0.00000000000E+00  0.47447873553E+02  0.47447873553E+02  0.00000000000E+00 0.  1.
          1   -1    0    0  501    0  0.00000000000E+00 -0.00000000000E+00 -0.40079816651E+03  0.40079816651E+03  0.00000000000E+00 0.  1.
         35    2    1    2    0    0  0.00000000000E+00  0.00000000000E+00 -0.35335029296E+03  0.44824604006E+03  0.27580442872E+03 0.  0.
         25    1    3    3    0    0  0.51551129151E+02  0.41518030404E+02 -0.20162946101E+03  0.24379439147E+03  0.12000000000E+03 0.  0.
         25    1    3    3    0    0 -0.51551129151E+02 -0.41518030404E+02 -0.15172083195E+03  0.20445164859E+03  0.12000000000E+03 0.  0.
<mgrwt>
<rscale>  0 0.27580443E+03</rscale>
<asrwt>0</asrwt>
<pdfrwt beam="1">  1        1 0.61661257E-01 0.27580443E+03</pdfrwt>
<pdfrwt beam="2">  1       -1 0.72996728E-02 0.27580443E+03</pdfrwt>
<totfact> 0.59551802E+03</totfact>
</mgrwt>
</event>
<event>
 5    1  0.1147887E+001  0.2757817E+03  0.7818608E-02  0.1098015E+00
          2   -1    0    0  501    0  0.00000000000E+00  0.00000000000E+00  0.10920539550E+03  0.10920539550E+03  0.00000000000E+00 0.  1.
         -2   -1    0    0    0  501 -0.00000000000E+00 -0.00000000000E+00 -0.17411119546E+03  0.17411119546E+03  0.00000000000E+00 0.  1.
         35    2    1    2    0    0  0.00000000000E+00  0.00000000000E+00 -0.64905799967E+02  0.28331659096E+03  0.27578166698E+03 0.  0.
         25    1    3    3    0    0 -0.68417293410E+01  0.20675016845E+02  0.33644848073E+02  0.12651577524E+03  0.12000000000E+03 0.  0.
         25    1    3    3    0    0  0.68417293410E+01 -0.20675016845E+02 -0.98550648040E+02  0.15680081572E+03  0.12000000000E+03 0.  0.
<mgrwt>
<rscale>  0 0.27578167E+03</rscale>
<asrwt>0</asrwt>
<pdfrwt beam="1">  1        2 0.16800830E-01 0.27578167E+03</pdfrwt>
<pdfrwt beam="2">  1       -2 0.26786338E-01 0.27578167E+03</pdfrwt>
<totfact> 0.42529884E+03</totfact>
</mgrwt>
</event>
<event>
 5    1  0.1147887E+001  0.2746977E+03  0.7818608E-02  0.1098621E+00
         -2   -1    0    0    0  501 -0.00000000000E+00  0.00000000000E+00  0.31887984957E+03  0.31887984957E+03  0.00000000000E+00 0.  1.
          2   -1    0    0  501    0  0.00000000000E+00 -0.00000000000E+00 -0.59159274964E+02  0.59159274964E+02  0.00000000000E+00 0.  1.
         35    2    1    2    0    0  0.00000000000E+00  0.00000000000E+00  0.25972057460E+03  0.37803912453E+03  0.27469765708E+03 0.  0.
         25    1    3    3    0    0  0.35456647749E+02  0.51254624338E+02  0.16301759677E+03  0.21179930888E+03  0.12000000000E+03 0.  0.
         25    1    3    3    0    0 -0.35456647749E+02 -0.51254624338E+02  0.96702977836E+02  0.16623981565E+03  0.12000000000E+03 0.  0.
<mgrwt>
<rscale>  0 0.27469766E+03</rscale>
<asrwt>0</asrwt>
<pdfrwt beam="1">  1        2 0.91014271E-02 0.27469766E+03</pdfrwt>
<pdfrwt beam="2">  1       -2 0.49058437E-01 0.27469766E+03</pdfrwt>
<totfact> 0.28684287E+03</totfact>
</mgrwt>
</event>
<event>
 5    1  0.1147887E+001  0.2752894E+03  0.7818608E-02  0.1098290E+00
          1   -1    0    0  501    0  0.00000000000E+00  0.00000000000E+00  0.83974339687E+03  0.83974339687E+03  0.00000000000E+00 0. -1.
         -1   -1    0    0    0  501 -0.00000000000E+00 -0.00000000000E+00 -0.22561733196E+02  0.22561733196E+02  0.00000000000E+00 0. -1.
         35    2    1    2    0    0  0.00000000000E+00  0.00000000000E+00  0.81718166367E+03  0.86230513006E+03  0.27528942205E+03 0.  0.
         25    1    3    3    0    0  0.38722494255E+02  0.86601131935E+01  0.57934422793E+03  0.59297062622E+03  0.12000000000E+03 0.  0.
         25    1    3    3    0    0 -0.38722494255E+02 -0.86601131935E+01  0.23783743574E+03  0.26933450385E+03  0.12000000000E+03 0.  0.
<mgrwt>
<rscale>  0 0.27528942E+03</rscale>
<asrwt>0</asrwt>
<pdfrwt beam="1">  1        1 0.12919127E+00 0.27528942E+03</pdfrwt>
<pdfrwt beam="2">  1       -1 0.34710365E-02 0.27528942E+03</pdfrwt>
<totfact> 0.64772508E+03</totfact>
</mgrwt>
</event>
<event>
 5    1  0.1147887E+001  0.2750000E+03  0.7818608E-02  0.1098452E+00
          1   -1    0    0  501    0  0.00000000000E+00  0.00000000000E+00  0.91166548322E+03  0.91166548322E+03  0.00000000000E+00 0.  1.
         -1   -1    0    0    0  501 -0.00000000000E+00 -0.00000000000E+00 -0.20738148009E+02  0.20738148009E+02  0.00000000000E+00 0.  1.
         35    2    1    2    0    0  0.00000000000E+00  0.00000000000E+00  0.89092733521E+03  0.93240363123E+03  0.27500002710E+03 0.  0.
         25    1    3    3    0    0  0.18034343834E+02  0.58186055525E+02  0.54108697704E+03  0.55757149437E+03  0.12000000000E+03 0.  0.
         25    1    3    3    0    0 -0.18034343834E+02 -0.58186055525E+02  0.34984035817E+03  0.37483213686E+03  0.12000000000E+03 0.  0.
<mgrwt>
<rscale>  0 0.27500003E+03</rscale>
<asrwt>0</asrwt>
<pdfrwt beam="1">  1        1 0.14025620E+00 0.27500003E+03</pdfrwt>
<pdfrwt beam="2">  1       -1 0.31904850E-02 0.27500003E+03</pdfrwt>
<totfact> 0.64302857E+03</totfact>
</mgrwt>
</event>
<event>
 5    1  0.1147887E+001  0.2776562E+03  0.7818608E-02  0.1096976E+00
          2   -1    0    0  501    0  0.00000000000E+00  0.00000000000E+00  0.15168820358E+04  0.15168820358E+04  0.00000000000E+00 0.  1.
         -2   -1    0    0    0  501 -0.00000000000E+00 -0.00000000000E+00 -0.12705827532E+02  0.12705827532E+02  0.00000000000E+00 0.  1.
         35    2    1    2    0    0  0.00000000000E+00  0.00000000000E+00  0.15041762083E+04  0.15295878633E+04  0.27765620132E+03 0.  0.
         25    1    3    3    0    0  0.66359522228E+02  0.98297316174E+01  0.64568851957E+03  0.66016200596E+03  0.12000000000E+03 0.  0.
         25    1    3    3    0    0 -0.66359522228E+02 -0.98297316174E+01  0.85848768870E+03  0.86942585737E+03  0.12000000000E+03 0.  0.
<mgrwt>
<rscale>  0 0.27765620E+03</rscale>
<asrwt>0</asrwt>
<pdfrwt beam="1">  1        2 0.23336632E+00 0.27765620E+03</pdfrwt>
<pdfrwt beam="2">  1       -2 0.19547439E-02 0.27765620E+03</pdfrwt>
<totfact> 0.10687126E+04</totfact>
</mgrwt>
</event>
<event>
 5    1  0.1147887E+001  0.2752932E+03  0.7818608E-02  0.1098288E+00
          2   -1    0    0  501    0  0.00000000000E+00  0.00000000000E+00  0.89017372472E+03  0.89017372472E+03  0.00000000000E+00 0. -1.
         -2   -1    0    0    0  501 -0.00000000000E+00 -0.00000000000E+00 -0.21284150856E+02  0.21284150856E+02  0.00000000000E+00 0. -1.
         35    2    1    2    0    0  0.00000000000E+00  0.00000000000E+00  0.86888957386E+03  0.91145787557E+03  0.27529323889E+03 0.  0.
         25    1    3    3    0    0  0.61316645520E+02 -0.54224659448E+01  0.52556615806E+03  0.54259461908E+03  0.12000000000E+03 0.  0.
         25    1    3    3    0    0 -0.61316645520E+02  0.54224659448E+01  0.34332341580E+03  0.36886325649E+03  0.12000000000E+03 0.  0.
<mgrwt>
<rscale>  0 0.27529324E+03</rscale>
<asrwt>0</asrwt>
<pdfrwt beam="1">  1        2 0.13694977E+00 0.27529324E+03</pdfrwt>
<pdfrwt beam="2">  1       -2 0.32744854E-02 0.27529324E+03</pdfrwt>
<totfact> 0.11421183E+04</totfact>
</mgrwt>
</event>
<event>
 5    1  0.1147887E+001  0.2754613E+03  0.7818608E-02  0.1098194E+00
         -2   -1    0    0    0  501 -0.00000000000E+00  0.00000000000E+00  0.73580549004E+02  0.73580549004E+02  0.00000000000E+00 0.  1.
          2   -1    0    0  501    0  0.00000000000E+00 -0.00000000000E+00 -0.25780913545E+03  0.25780913545E+03  0.00000000000E+00 0.  1.
         35    2    1    2    0    0  0.00000000000E+00  0.00000000000E+00 -0.18422858644E+03  0.33138968445E+03  0.27546134193E+03 0.  0.
         25    1    3    3    0    0  0.60431484238E+02 -0.24388541565E+02 -0.11373456178E+03  0.17771414066E+03  0.12000000000E+03 0.  0.
         25    1    3    3    0    0 -0.60431484238E+02  0.24388541565E+02 -0.70494024663E+02  0.15367554379E+03  0.12000000000E+03 0.  0.
<mgrwt>
<rscale>  0 0.27546134E+03</rscale>
<asrwt>0</asrwt>
<pdfrwt beam="1">  1        2 0.39662943E-01 0.27546134E+03</pdfrwt>
<pdfrwt beam="2">  1       -2 0.11320085E-01 0.27546134E+03</pdfrwt>
<totfact> 0.69564051E+03</totfact>
</mgrwt>
</event>
<event>
 5    1  0.1147887E+001  0.2751177E+03  0.7818608E-02  0.1098386E+00
         -2   -1    0    0    0  501 -0.00000000000E+00  0.00000000000E+00  0.70789304127E+01  0.70789304127E+01  0.00000000000E+00 0. -1.
          2   -1    0    0  501    0  0.00000000000E+00 -0.00000000000E+00 -0.26730646182E+04  0.26730646182E+04  0.00000000000E+00 0. -1.
         35    2    1    2    0    0  0.00000000000E+00  0.00000000000E+00 -0.26659856878E+04  0.26801435486E+04  0.27511770878E+03 0.  0.
         25    1    3    3    0    0 -0.50989043698E+02 -0.43846955864E+02 -0.13331630472E+04  0.13402410786E+04  0.12000000000E+03 0.  0.
         25    1    3    3    0    0  0.50989043698E+02  0.43846955864E+02 -0.13328226406E+04  0.13399024701E+04  0.12000000000E+03 0.  0.
<mgrwt>
<rscale>  0 0.27511771E+03</rscale>
<asrwt>0</asrwt>
<pdfrwt beam="1">  1        2 0.41124045E+00 0.27511771E+03</pdfrwt>
<pdfrwt beam="2">  1       -2 0.10890669E-02 0.27511771E+03</pdfrwt>
<totfact> 0.60550858E+03</totfact>
</mgrwt>
</event>
<event>
 5    1  0.1147887E+001  0.2750137E+03  0.7818608E-02  0.1098444E+00
         -2   -1    0    0    0  501 -0.00000000000E+00  0.00000000000E+00  0.40488030435E+02  0.40488030435E+02  0.00000000000E+00 0. -1.
          2   -1    0    0  501    0  0.00000000000E+00 -0.00000000000E+00 -0.46700552445E+03  0.46700552445E+03  0.00000000000E+00 0. -1.
         35    2    1    2    0    0  0.00000000000E+00  0.00000000000E+00 -0.42651749402E+03  0.50749355489E+03  0.27501370066E+03 0.  0.
         25    1    3    3    0    0 -0.46911038923E+02 -0.33012532762E+02 -0.14886563736E+03  0.19962828176E+03  0.12000000000E+03 0.  0.
         25    1    3    3    0    0  0.46911038923E+02  0.33012532762E+02 -0.27765185666E+03  0.30786527313E+03  0.12000000000E+03 0.  0.
<mgrwt>
<rscale>  0 0.27501370E+03</rscale>
<asrwt>0</asrwt>
<pdfrwt beam="1">  1        2 0.71847004E-01 0.27501370E+03</pdfrwt>
<pdfrwt beam="2">  1       -2 0.62289277E-02 0.27501370E+03</pdfrwt>
<totfact> 0.93336320E+03</totfact>
</mgrwt>
</event>
<event>
 5    1  0.1147887E+001  0.2751898E+03  0.7818608E-02  0.1098346E+00
          2   -1    0    0  501    0  0.00000000000E+00  0.00000000000E+00  0.14527143777E+03  0.14527143777E+03  0.00000000000E+00 0. -1.
         -2   -1    0    0    0  501 -0.00000000000E+00 -0.00000000000E+00 -0.13032396876E+03  0.13032396876E+03  0.00000000000E+00 0. -1.
         35    2    1    2    0    0  0.00000000000E+00  0.00000000000E+00  0.14947469008E+02  0.27559540653E+03  0.27518975503E+03 0.  0.
         25    1    3    3    0    0 -0.61706315035E+02 -0.25791471643E+02  0.15197495371E+02  0.13821661691E+03  0.12000000000E+03 0.  0.
         25    1    3    3    0    0  0.61706315035E+02  0.25791471643E+02 -0.25002636324E+00  0.13737878962E+03  0.12000000000E+03 0.  0.
<mgrwt>
<rscale>  0 0.27518976E+03</rscale>
<asrwt>0</asrwt>
<pdfrwt beam="1">  1        2 0.22349452E-01 0.27518976E+03</pdfrwt>
<pdfrwt beam="2">  1       -2 0.20049841E-01 0.27518976E+03</pdfrwt>
<totfact> 0.50792213E+03</totfact>
</mgrwt>
</event>
<event>
 5    1  0.1147887E+001  0.2746226E+03  0.7818608E-02  0.1098663E+00
         -2   -1    0    0    0  501 -0.00000000000E+00  0.00000000000E+00  0.91110694436E+02  0.91110694436E+02  0.00000000000E+00 0.  1.
          2   -1    0    0  501    0  0.00000000000E+00 -0.00000000000E+00 -0.20693941470E+03  0.20693941470E+03  0.00000000000E+00 0.  1.
         35    2    1    2    0    0  0.00000000000E+00  0.00000000000E+00 -0.11582872027E+03  0.29805010914E+03  0.27462260489E+03 0.  0.
         25    1    3    3    0    0 -0.54474972924E+02 -0.34337597734E+02 -0.76955268101E+02  0.15642476333E+03  0.12000000000E+03 0.  0.
         25    1    3    3    0    0  0.54474972924E+02  0.34337597734E+02 -0.38873452167E+02  0.14162534581E+03  0.12000000000E+03 0.  0.
<mgrwt>
<rscale>  0 0.27462260E+03</rscale>
<asrwt>0</asrwt>
<pdfrwt beam="1">  1        2 0.31836833E-01 0.27462260E+03</pdfrwt>
<pdfrwt beam="2">  1       -2 0.14017030E-01 0.27462260E+03</pdfrwt>
<totfact> 0.62421869E+03</totfact>
</mgrwt>
</event>
<event>
 5    1  0.1147887E+001  0.2757940E+03  0.7818608E-02  0.1098009E+00
          1   -1    0    0  501    0  0.00000000000E+00  0.00000000000E+00  0.69993021220E+03  0.69993021220E+03  0.00000000000E+00 0.  1.
         -1   -1    0    0    0  501 -0.00000000000E+00 -0.00000000000E+00 -0.27167830427E+02  0.27167830427E+02  0.00000000000E+00 0.  1.
         35    2    1    2    0    0  0.00000000000E+00  0.00000000000E+00  0.67276238178E+03  0.72709804263E+03  0.27579401963E+03 0.  0.
         25    1    3    3    0    0 -0.31881654234E+02  0.57157974686E+02  0.28833599125E+03  0.31909421461E+03  0.12000000000E+03 0.  0.
         25    1    3    3    0    0  0.31881654234E+02 -0.57157974686E+02  0.38442639053E+03  0.40800382802E+03  0.12000000000E+03 0.  0.
<mgrwt>
<rscale>  0 0.27579402E+03</rscale>
<asrwt>0</asrwt>
<pdfrwt beam="1">  1        1 0.10768156E+00 0.27579402E+03</pdfrwt>
<pdfrwt beam="2">  1       -1 0.41796668E-02 0.27579402E+03</pdfrwt>
<totfact> 0.64758711E+03</totfact>
</mgrwt>
</event>
<event>
 5    1  0.1147887E+001  0.2750556E+03  0.7818608E-02  0.1098421E+00
          1   -1    0    0  501    0  0.00000000000E+00  0.00000000000E+00  0.56683515961E+03  0.56683515961E+03  0.00000000000E+00 0.  1.
         -1   -1    0    0    0  501 -0.00000000000E+00 -0.00000000000E+00 -0.33367538991E+02  0.33367538991E+02  0.00000000000E+00 0.  1.
         35    2    1    2    0    0  0.00000000000E+00  0.00000000000E+00  0.53346762062E+03  0.60020269860E+03  0.27505558921E+03 0.  0.
         25    1    3    3    0    0  0.37215870092E+01  0.66458137089E+02  0.24681072624E+03  0.28239346448E+03  0.12000000000E+03 0.  0.
         25    1    3    3    0    0 -0.37215870092E+01 -0.66458137089E+02  0.28665689437E+03  0.31780923411E+03  0.12000000000E+03 0.  0.
<mgrwt>
<rscale>  0 0.27505559E+03</rscale>
<asrwt>0</asrwt>
<pdfrwt beam="1">  1        1 0.87205402E-01 0.27505559E+03</pdfrwt>
<pdfrwt beam="2">  1       -1 0.51334680E-02 0.27505559E+03</pdfrwt>
<totfact> 0.64131743E+03</totfact>
</mgrwt>
</event>
<event>
 5    1  0.1147887E+001  0.2744139E+03  0.7818608E-02  0.1098780E+00
         -2   -1    0    0    0  501 -0.00000000000E+00  0.00000000000E+00  0.35505253023E+02  0.35505253023E+02  0.00000000000E+00 0. -1.
          2   -1    0    0  501    0  0.00000000000E+00 -0.00000000000E+00 -0.53022410554E+03  0.53022410554E+03  0.00000000000E+00 0. -1.
         35    2    1    2    0    0  0.00000000000E+00  0.00000000000E+00 -0.49471885251E+03  0.56572935856E+03  0.27441385553E+03 0.  0.
         25    1    3    3    0    0 -0.23828688659E+02 -0.78391520324E+01 -0.12033320701E+03  0.17178282632E+03  0.12000000000E+03 0.  0.
         25    1    3    3    0    0  0.23828688659E+02  0.78391520324E+01 -0.37438564550E+03  0.39394653224E+03  0.12000000000E+03 0.  0.
<mgrwt>
<rscale>  0 0.27441386E+03</rscale>
<asrwt>0</asrwt>
<pdfrwt beam="1">  1        2 0.81572931E-01 0.27441386E+03</pdfrwt>
<pdfrwt beam="2">  1       -2 0.54623472E-02 0.27441386E+03</pdfrwt>
<totfact> 0.99020578E+03</totfact>
</mgrwt>
</event>
<event>
 5    1  0.1147887E+001  0.2750796E+03  0.7818608E-02  0.1098407E+00
         -2   -1    0    0    0  501 -0.00000000000E+00  0.00000000000E+00  0.30294407478E+03  0.30294407478E+03  0.00000000000E+00 0. -1.
          2   -1    0    0  501    0  0.00000000000E+00 -0.00000000000E+00 -0.62444532168E+02  0.62444532168E+02  0.00000000000E+00 0. -1.
         35    2    1    2    0    0  0.00000000000E+00  0.00000000000E+00  0.24049954261E+03  0.36538860694E+03  0.27507963227E+03 0.  0.
         25    1    3    3    0    0  0.52408547507E+02  0.36914503423E+02  0.93423854268E+02  0.16503742897E+03  0.12000000000E+03 0.  0.
         25    1    3    3    0    0 -0.52408547507E+02 -0.36914503423E+02  0.14707568834E+03  0.20035117797E+03  0.12000000000E+03 0.  0.
<mgrwt>
<rscale>  0 0.27507963E+03</rscale>
<asrwt>0</asrwt>
<pdfrwt beam="1">  1        2 0.96068512E-02 0.27507963E+03</pdfrwt>
<pdfrwt beam="2">  1       -2 0.46606780E-01 0.27507963E+03</pdfrwt>
<totfact> 0.29669836E+03</totfact>
</mgrwt>
</event>
<event>
 5    1  0.1147887E+001  0.2735246E+03  0.7818608E-02  0.1099279E+00
          2   -1    0    0  501    0  0.00000000000E+00  0.00000000000E+00  0.19461022148E+04  0.19461022148E+04  0.00000000000E+00 0. -1.
         -2   -1    0    0    0  501 -0.00000000000E+00 -0.00000000000E+00 -0.96109674107E+01  0.96109674107E+01  0.00000000000E+00 0. -1.
         35    2    1    2    0    0  0.00000000000E+00  0.00000000000E+00  0.19364912474E+04  0.19557131822E+04  0.27352458730E+03 0.  0.
         25    1    3    3    0    0 -0.29682385162E+02 -0.41096952882E+02  0.12659762424E+04  0.12726609327E+04  0.12000000000E+03 0.  0.
         25    1    3    3    0    0  0.29682385162E+02  0.41096952882E+02  0.67051500501E+03  0.68305224944E+03  0.12000000000E+03 0.  0.
<mgrwt>
<rscale>  0 0.27352459E+03</rscale>
<asrwt>0</asrwt>
<pdfrwt beam="1">  1        2 0.29940003E+00 0.27352459E+03</pdfrwt>
<pdfrwt beam="2">  1       -2 0.14786119E-02 0.27352459E+03</pdfrwt>
<totfact> 0.95547171E+03</totfact>
</mgrwt>
</event>
<event>
 5    1  0.1147887E+001  0.2748674E+03  0.7818608E-02  0.1098526E+00
         -4   -1    0    0    0  501 -0.00000000000E+00  0.00000000000E+00  0.97957876297E+02  0.97957876297E+02  0.00000000000E+00 0. -1.
          4   -1    0    0  501    0  0.00000000000E+00 -0.00000000000E+00 -0.19281784825E+03  0.19281784825E+03  0.00000000000E+00 0. -1.
         35    2    1    2    0    0  0.00000000000E+00  0.00000000000E+00 -0.94859971951E+02  0.29077572454E+03  0.27486743660E+03 0.  0.
         25    1    3    3    0    0  0.78849509693E+01 -0.51540817985E+02 -0.91928723377E+02  0.15990471710E+03  0.12000000000E+03 0.  0.
         25    1    3    3    0    0 -0.78849509693E+01  0.51540817985E+02 -0.29312485740E+01  0.13087100744E+03  0.12000000000E+03 0.  0.
<mgrwt>
<rscale>  0 0.27486744E+03</rscale>
<asrwt>0</asrwt>
<pdfrwt beam="1">  1        4 0.29664284E-01 0.27486744E+03</pdfrwt>
<pdfrwt beam="2">  1       -4 0.15070443E-01 0.27486744E+03</pdfrwt>
<totfact> 0.76146995E+02</totfact>
</mgrwt>
</event>
<event>
 5    1  0.1147887E+001  0.2754505E+03  0.7818608E-02  0.1098200E+00
          1   -1    0    0  501    0  0.00000000000E+00  0.00000000000E+00  0.13927864036E+03  0.13927864036E+03  0.00000000000E+00 0.  1.
         -1   -1    0    0    0  501 -0.00000000000E+00 -0.00000000000E+00 -0.13618913647E+03  0.13618913647E+03  0.00000000000E+00 0.  1.
         35    2    1    2    0    0  0.00000000000E+00  0.00000000000E+00  0.30895038865E+01  0.27546777683E+03  0.27545045115E+03 0.  0.
         25    1    3    3    0    0 -0.68127015718E+01  0.67204971487E+02  0.38506862819E+01  0.13775975058E+03  0.12000000000E+03 0.  0.
         25    1    3    3    0    0  0.68127015718E+01 -0.67204971487E+02 -0.76118239536E+00  0.13770802625E+03  0.12000000000E+03 0.  0.
<mgrwt>
<rscale>  0 0.27545045E+03</rscale>
<asrwt>0</asrwt>
<pdfrwt beam="1">  1        1 0.21427483E-01 0.27545045E+03</pdfrwt>
<pdfrwt beam="2">  1       -1 0.20952175E-01 0.27545045E+03</pdfrwt>
<totfact> 0.43341625E+03</totfact>
</mgrwt>
</event>
<event>
 5    1  0.1147887E+001  0.2745333E+03  0.7818608E-02  0.1098713E+00
         -2   -1    0    0    0  501 -0.00000000000E+00  0.00000000000E+00  0.30634240141E+02  0.30634240141E+02  0.00000000000E+00 0. -1.
          2   -1    0    0  501    0  0.00000000000E+00 -0.00000000000E+00 -0.61506793612E+03  0.61506793612E+03  0.00000000000E+00 0. -1.
         35    2    1    2    0    0  0.00000000000E+00  0.00000000000E+00 -0.58443369598E+03  0.64570217626E+03  0.27453334121E+03 0.  0.
         25    1    3    3    0    0  0.26544302737E+02 -0.23464612962E+02 -0.42499445374E+03  0.44302987911E+03  0.12000000000E+03 0.  0.
         25    1    3    3    0    0 -0.26544302737E+02  0.23464612962E+02 -0.15943924224E+03  0.20267229716E+03  0.12000000000E+03 0.  0.
<mgrwt>
<rscale>  0 0.27453334E+03</rscale>
<asrwt>0</asrwt>
<pdfrwt beam="1">  1        2 0.94625831E-01 0.27453334E+03</pdfrwt>
<pdfrwt beam="2">  1       -2 0.47129603E-02 0.27453334E+03</pdfrwt>
<totfact> 0.10450903E+04</totfact>
</mgrwt>
</event>
<event>
 5    1  0.1147887E+001  0.2747002E+03  0.7818608E-02  0.1098619E+00
          2   -1    0    0  501    0  0.00000000000E+00  0.00000000000E+00  0.42876676888E+03  0.42876676888E+03  0.00000000000E+00 0. -1.
         -2   -1    0    0    0  501 -0.00000000000E+00 -0.00000000000E+00 -0.43998401218E+02  0.43998401218E+02  0.00000000000E+00 0. -1.
         35    2    1    2    0    0  0.00000000000E+00  0.00000000000E+00  0.38476836767E+03  0.47276517010E+03  0.27470021715E+03 0.  0.
         25    1    3    3    0    0 -0.37792482785E+02  0.35407403519E+02  0.26505731556E+03  0.29552890977E+03  0.12000000000E+03 0.  0.
         25    1    3    3    0    0  0.37792482785E+02 -0.35407403519E+02  0.11971105210E+03  0.17723626033E+03  0.12000000000E+03 0.  0.
<mgrwt>
<rscale>  0 0.27470022E+03</rscale>
<asrwt>0</asrwt>
<pdfrwt beam="1">  1        2 0.65964115E-01 0.27470022E+03</pdfrwt>
<pdfrwt beam="2">  1       -2 0.67689851E-02 0.27470022E+03</pdfrwt>
<totfact> 0.90197437E+03</totfact>
</mgrwt>
</event>
<event>
 5    1  0.1147887E+001  0.2753642E+03  0.7818608E-02  0.1098248E+00
         -1   -1    0    0    0  501 -0.00000000000E+00  0.00000000000E+00  0.55704498023E+01  0.55704498023E+01  0.00000000000E+00 0. -1.
          1   -1    0    0  501    0  0.00000000000E+00 -0.00000000000E+00 -0.34030214610E+04  0.34030214610E+04  0.00000000000E+00 0. -1.
         35    2    1    2    0    0  0.00000000000E+00  0.00000000000E+00 -0.33974510112E+04  0.34085919108E+04  0.27536419684E+03 0.  0.
         25    1    3    3    0    0  0.15910176634E+02  0.25202732316E+02 -0.94902968696E+03  0.95705049927E+03  0.12000000000E+03 0.  0.
         25    1    3    3    0    0 -0.15910176634E+02 -0.25202732316E+02 -0.24484213243E+04  0.24515414115E+04  0.12000000000E+03 0.  0.
<mgrwt>
<rscale>  0 0.27536420E+03</rscale>
<asrwt>0</asrwt>
<pdfrwt beam="1">  1        1 0.52354217E+00 0.27536420E+03</pdfrwt>
<pdfrwt beam="2">  1       -1 0.85699161E-03 0.27536420E+03</pdfrwt>
<totfact> 0.87205326E+02</totfact>
</mgrwt>
</event>
<event>
 5    1  0.1147887E+001  0.2747534E+03  0.7818608E-02  0.1098589E+00
          1   -1    0    0  501    0  0.00000000000E+00  0.00000000000E+00  0.12251950686E+04  0.12251950686E+04  0.00000000000E+00 0. -1.
         -1   -1    0    0    0  501 -0.00000000000E+00 -0.00000000000E+00 -0.15403558147E+02  0.15403558147E+02  0.00000000000E+00 0. -1.
         35    2    1    2    0    0  0.00000000000E+00  0.00000000000E+00  0.12097915105E+04  0.12405986268E+04  0.27475344206E+03 0.  0.
         25    1    3    3    0    0 -0.39631590147E+01 -0.21428863291E+02  0.89037875659E+03  0.89869306940E+03  0.12000000000E+03 0.  0.
         25    1    3    3    0    0  0.39631590147E+01  0.21428863291E+02  0.31941275387E+03  0.34190555735E+03  0.12000000000E+03 0.  0.
<mgrwt>
<rscale>  0 0.27475344E+03</rscale>
<asrwt>0</asrwt>
<pdfrwt beam="1">  1        1 0.18849147E+00 0.27475344E+03</pdfrwt>
<pdfrwt beam="2">  1       -1 0.23697791E-02 0.27475344E+03</pdfrwt>
<totfact> 0.58740884E+03</totfact>
</mgrwt>
</event>
<event>
 5    1  0.1147887E+001  0.2746527E+03  0.7818608E-02  0.1098646E+00
          3   -1    0    0  501    0  0.00000000000E+00  0.00000000000E+00  0.16730416050E+03  0.16730416050E+03  0.00000000000E+00 0.  1.
         -3   -1    0    0    0  501 -0.00000000000E+00 -0.00000000000E+00 -0.11272003528E+03  0.11272003528E+03  0.00000000000E+00 0.  1.
         35    2    1    2    0    0  0.00000000000E+00  0.00000000000E+00  0.54584125221E+02  0.28002419578E+03  0.27465273254E+03 0.  0.
         25    1    3    3    0    0 -0.64788243039E+02 -0.14281789848E+02  0.34992583577E+02  0.14151313318E+03  0.12000000000E+03 0.  0.
         25    1    3    3    0    0  0.64788243039E+02  0.14281789848E+02  0.19591541644E+02  0.13851106260E+03  0.12000000000E+03 0.  0.
<mgrwt>
<rscale>  0 0.27465273E+03</rscale>
<asrwt>0</asrwt>
<pdfrwt beam="1">  1        3 0.25739102E-01 0.27465273E+03</pdfrwt>
<pdfrwt beam="2">  1       -3 0.17341544E-01 0.27465273E+03</pdfrwt>
<totfact> 0.10453368E+03</totfact>
</mgrwt>
</event>
<event>
 5    1  0.1147887E+001  0.2747884E+03  0.7818608E-02  0.1098570E+00
         -2   -1    0    0    0  501 -0.00000000000E+00  0.00000000000E+00  0.11755791421E+03  0.11755791421E+03  0.00000000000E+00 0.  1.
          2   -1    0    0  501    0  0.00000000000E+00 -0.00000000000E+00 -0.16057758733E+03  0.16057758733E+03  0.00000000000E+00 0.  1.
         35    2    1    2    0    0  0.00000000000E+00  0.00000000000E+00 -0.43019673118E+02  0.27813550154E+03  0.27478840030E+03 0.  0.
         25    1    3    3    0    0 -0.63409736476E+02 -0.16403147595E+02 -0.35362604111E+02  0.14121038099E+03  0.12000000000E+03 0.  0.
         25    1    3    3    0    0  0.63409736476E+02  0.16403147595E+02 -0.76570690078E+01  0.13692512055E+03  0.12000000000E+03 0.  0.
<mgrwt>
<rscale>  0 0.27478840E+03</rscale>
<asrwt>0</asrwt>
<pdfrwt beam="1">  1        2 0.24704244E-01 0.27478840E+03</pdfrwt>
<pdfrwt beam="2">  1       -2 0.18085833E-01 0.27478840E+03</pdfrwt>
<totfact> 0.54067636E+03</totfact>
</mgrwt>
</event>
<event>
 5    1  0.1147887E+001  0.2742470E+03  0.7818608E-02  0.1098873E+00
          1   -1    0    0  501    0  0.00000000000E+00  0.00000000000E+00  0.94093280223E+03  0.94093280223E+03  0.00000000000E+00 0.  1.
         -1   -1    0    0    0  501 -0.00000000000E+00 -0.00000000000E+00 -0.19983204223E+02  0.19983204223E+02  0.00000000000E+00 0.  1.
         35    2    1    2    0    0  0.00000000000E+00  0.00000000000E+00  0.92094959801E+03  0.96091600645E+03  0.27424698611E+03 0.  0.
         25    1    3    3    0    0 -0.46438638571E+01 -0.53493192432E+02  0.59706886020E+03  0.61137084566E+03  0.12000000000E+03 0.  0.
         25    1    3    3    0    0  0.46438638571E+01  0.53493192432E+02  0.32388073781E+03  0.34954516079E+03  0.12000000000E+03 0.  0.
<mgrwt>
<rscale>  0 0.27424699E+03</rscale>
<asrwt>0</asrwt>
<pdfrwt beam="1">  1        1 0.14475886E+00 0.27424699E+03</pdfrwt>
<pdfrwt beam="2">  1       -1 0.30743398E-02 0.27424699E+03</pdfrwt>
<totfact> 0.64463349E+03</totfact>
</mgrwt>
</event>
<event>
 5    1  0.1147887E+001  0.2741172E+03  0.7818608E-02  0.1098946E+00
          1   -1    0    0  501    0  0.00000000000E+00  0.00000000000E+00  0.74208663938E+03  0.74208663938E+03  0.00000000000E+00 0. -1.
         -1   -1    0    0    0  501 -0.00000000000E+00 -0.00000000000E+00 -0.25313834953E+02  0.25313834953E+02  0.00000000000E+00 0. -1.
         35    2    1    2    0    0  0.00000000000E+00  0.00000000000E+00  0.71677280443E+03  0.76740047434E+03  0.27411719180E+03 0.  0.
         25    1    3    3    0    0 -0.17169287874E+02 -0.69956477782E+01  0.18041581854E+03  0.21747089716E+03  0.12000000000E+03 0.  0.
         25    1    3    3    0    0  0.17169287874E+02  0.69956477782E+01  0.53635698590E+03  0.54992957718E+03  0.12000000000E+03 0.  0.
<mgrwt>
<rscale>  0 0.27411719E+03</rscale>
<asrwt>0</asrwt>
<pdfrwt beam="1">  1        1 0.11416716E+00 0.27411719E+03</pdfrwt>
<pdfrwt beam="2">  1       -1 0.38944367E-02 0.27411719E+03</pdfrwt>
<totfact> 0.65980982E+03</totfact>
</mgrwt>
</event>
<event>
 5    1  0.1147887E+001  0.2749944E+03  0.7818608E-02  0.1098455E+00
         -1   -1    0    0    0  501 -0.00000000000E+00  0.00000000000E+00  0.28665539307E+03  0.28665539307E+03  0.00000000000E+00 0. -1.
          1   -1    0    0  501    0  0.00000000000E+00 -0.00000000000E+00 -0.65951954561E+02  0.65951954561E+02  0.00000000000E+00 0. -1.
         35    2    1    2    0    0  0.00000000000E+00  0.00000000000E+00  0.22070343850E+03  0.35260734763E+03  0.27499442509E+03 0.  0.
         25    1    3    3    0    0  0.14322279247E+02  0.54611236760E+02  0.15690175290E+03  0.20544019793E+03  0.12000000000E+03 0.  0.
         25    1    3    3    0    0 -0.14322279247E+02 -0.54611236760E+02  0.63801685605E+02  0.14716714969E+03  0.12000000000E+03 0.  0.
<mgrwt>
<rscale>  0 0.27499443E+03</rscale>
<asrwt>0</asrwt>
<pdfrwt beam="1">  1        1 0.10146455E-01 0.27499443E+03</pdfrwt>
<pdfrwt beam="2">  1       -1 0.44100829E-01 0.27499443E+03</pdfrwt>
<totfact> 0.32428445E+03</totfact>
</mgrwt>
</event>
<event>
 5    1  0.1147887E+001  0.2752077E+03  0.7818608E-02  0.1098336E+00
          2   -1    0    0  501    0  0.00000000000E+00  0.00000000000E+00  0.87920671102E+02  0.87920671102E+02  0.00000000000E+00 0. -1.
         -2   -1    0    0    0  501 -0.00000000000E+00 -0.00000000000E+00 -0.21536247886E+03  0.21536247886E+03  0.00000000000E+00 0. -1.
         35    2    1    2    0    0  0.00000000000E+00  0.00000000000E+00 -0.12744180776E+03  0.30328314996E+03  0.27520765739E+03 0.  0.
         25    1    3    3    0    0  0.49795195302E+02 -0.26926486339E+01 -0.11359246232E+03  0.17259797023E+03  0.12000000000E+03 0.  0.
         25    1    3    3    0    0 -0.49795195302E+02  0.26926486339E+01 -0.13849345436E+02  0.13068517973E+03  0.12000000000E+03 0.  0.
<mgrwt>
<rscale>  0 0.27520766E+03</rscale>
<asrwt>0</asrwt>
<pdfrwt beam="1">  1        2 0.13526257E-01 0.27520766E+03</pdfrwt>
<pdfrwt beam="2">  1       -2 0.33132688E-01 0.27520766E+03</pdfrwt>
<totfact> 0.37382245E+03</totfact>
</mgrwt>
</event>
<event>
 5    1  0.1147887E+001  0.2723515E+03  0.7818608E-02  0.1099941E+00
          2   -1    0    0  501    0  0.00000000000E+00  0.00000000000E+00  0.55079752871E+02  0.55079752871E+02  0.00000000000E+00 0. -1.
         -2   -1    0    0    0  501 -0.00000000000E+00 -0.00000000000E+00 -0.33667252532E+03  0.33667252532E+03  0.00000000000E+00 0. -1.
         35    2    1    2    0    0  0.00000000000E+00  0.00000000000E+00 -0.28159277245E+03  0.39175227819E+03  0.27235153382E+03 0.  0.
         25    1    3    3    0    0 -0.53992625414E+02 -0.11893912368E+02 -0.93368847922E+02  0.16178507506E+03  0.12000000000E+03 0.  0.
         25    1    3    3    0    0  0.53992625414E+02  0.11893912368E+02 -0.18822392453E+03  0.22996720313E+03  0.12000000000E+03 0.  0.
<mgrwt>
<rscale>  0 0.27235153E+03</rscale>
<asrwt>0</asrwt>
<pdfrwt beam="1">  1        2 0.84738083E-02 0.27235153E+03</pdfrwt>
<pdfrwt beam="2">  1       -2 0.51795772E-01 0.27235153E+03</pdfrwt>
<totfact> 0.28150806E+03</totfact>
</mgrwt>
</event>
<event>
 5    1  0.1147887E+001  0.2754860E+03  0.7818608E-02  0.1098180E+00
         -2   -1    0    0    0  501 -0.00000000000E+00  0.00000000000E+00  0.54595925060E+03  0.54595925060E+03  0.00000000000E+00 0. -1.
          2   -1    0    0  501    0  0.00000000000E+00 -0.00000000000E+00 -0.34751925584E+02  0.34751925584E+02  0.00000000000E+00 0. -1.
         35    2    1    2    0    0  0.00000000000E+00  0.00000000000E+00  0.51120732501E+03  0.58071117618E+03  0.27548600871E+03 0.  0.
         25    1    3    3    0    0 -0.63580395726E+02 -0.51148792844E+01  0.30295083369E+03  0.33203589617E+03  0.12000000000E+03 0.  0.
         25    1    3    3    0    0  0.63580395726E+02  0.51148792844E+01  0.20825649132E+03  0.24867528001E+03  0.12000000000E+03 0.  0.
<mgrwt>
<rscale>  0 0.27548601E+03</rscale>
<asrwt>0</asrwt>
<pdfrwt beam="1">  1        2 0.53464505E-02 0.27548601E+03</pdfrwt>
<pdfrwt beam="2">  1       -2 0.83993725E-01 0.27548601E+03</pdfrwt>
<totfact> 0.18349958E+03</totfact>
</mgrwt>
</event>
<event>
 5    1  0.1147887E+001  0.2750947E+03  0.7818608E-02  0.1098399E+00
          2   -1    0    0  501    0  0.00000000000E+00  0.00000000000E+00  0.23929646970E+04  0.23929646970E+04  0.00000000000E+00 0.  1.
         -2   -1    0    0    0  501 -0.00000000000E+00 -0.00000000000E+00 -0.79062055950E+01  0.79062055950E+01  0.00000000000E+00 0.  1.
         35    2    1    2    0    0  0.00000000000E+00  0.00000000000E+00  0.23850584914E+04  0.24008709026E+04  0.27509468098E+03 0.  0.
         25    1    3    3    0    0  0.26572183948E+02 -0.61702703127E+02  0.12138469639E+04  0.12216127686E+04  0.12000000000E+03 0.  0.
         25    1    3    3    0    0 -0.26572183948E+02  0.61702703127E+02  0.11712115274E+04  0.11792581340E+04  0.12000000000E+03 0.  0.
<mgrwt>
<rscale>  0 0.27509468E+03</rscale>
<asrwt>0</asrwt>
<pdfrwt beam="1">  1        2 0.36814784E+00 0.27509468E+03</pdfrwt>
<pdfrwt beam="2">  1       -2 0.12163412E-02 0.27509468E+03</pdfrwt>
<totfact> 0.73529999E+03</totfact>
</mgrwt>
</event>
<event>
 5    1  0.1147887E+001  0.2746079E+03  0.7818608E-02  0.1098671E+00
          2   -1    0    0  501    0  0.00000000000E+00  0.00000000000E+00  0.47942336244E+03  0.47942336244E+03  0.00000000000E+00 0.  1.
         -2   -1    0    0    0  501 -0.00000000000E+00 -0.00000000000E+00 -0.39323023788E+02  0.39323023788E+02  0.00000000000E+00 0.  1.
         35    2    1    2    0    0  0.00000000000E+00  0.00000000000E+00  0.44010033866E+03  0.51874638623E+03  0.27460791166E+03 0.  0.
         25    1    3    3    0    0 -0.66036509855E+02 -0.95574650950E+01  0.22091689490E+03  0.26010851625E+03  0.12000000000E+03 0.  0.
         25    1    3    3    0    0  0.66036509855E+02  0.95574650950E+01  0.21918344375E+03  0.25863786998E+03  0.12000000000E+03 0.  0.
<mgrwt>
<rscale>  0 0.27460791E+03</rscale>
<asrwt>0</asrwt>
<pdfrwt beam="1">  1        2 0.73757436E-01 0.27460791E+03</pdfrwt>
<pdfrwt beam="2">  1       -2 0.60496963E-02 0.27460791E+03</pdfrwt>
<totfact> 0.94812720E+03</totfact>
</mgrwt>
</event>
<event>
 5    1  0.1147887E+001  0.2746016E+03  0.7818608E-02  0.1098674E+00
          2   -1    0    0  501    0  0.00000000000E+00  0.00000000000E+00  0.16131598254E+04  0.16131598254E+04  0.00000000000E+00 0.  1.
         -2   -1    0    0    0  501 -0.00000000000E+00 -0.00000000000E+00 -0.11686080822E+02  0.11686080822E+02  0.00000000000E+00 0.  1.
         35    2    1    2    0    0  0.00000000000E+00  0.00000000000E+00  0.16014737446E+04  0.16248459062E+04  0.27460164675E+03 0.  0.
         25    1    3    3    0    0  0.55185862621E+02 -0.35916480359E+02  0.73699589573E+03  0.74959884159E+03  0.12000000000E+03 0.  0.
         25    1    3    3    0    0 -0.55185862621E+02  0.35916480359E+02  0.86447784885E+03  0.87524706463E+03  0.12000000000E+03 0.  0.
<mgrwt>
<rscale>  0 0.27460165E+03</rscale>
<asrwt>0</asrwt>
<pdfrwt beam="1">  1        2 0.24817826E+00 0.27460165E+03</pdfrwt>
<pdfrwt beam="2">  1       -2 0.17978599E-02 0.27460165E+03</pdfrwt>
<totfact> 0.10738837E+04</totfact>
</mgrwt>
</event>
<event>
 5    1  0.1147887E+001  0.2746264E+03  0.7818608E-02  0.1098661E+00
         -1   -1    0    0    0  501 -0.00000000000E+00  0.00000000000E+00  0.24291289678E+03  0.24291289678E+03  0.00000000000E+00 0.  1.
          1   -1    0    0  501    0  0.00000000000E+00 -0.00000000000E+00 -0.77620058358E+02  0.77620058358E+02  0.00000000000E+00 0.  1.
         35    2    1    2    0    0  0.00000000000E+00  0.00000000000E+00  0.16529283842E+03  0.32053295514E+03  0.27462638783E+03 0.  0.
         25    1    3    3    0    0  0.25131095919E+02 -0.43919409918E+02  0.13344707550E+03  0.18646342405E+03  0.12000000000E+03 0.  0.
         25    1    3    3    0    0 -0.25131095919E+02  0.43919409918E+02  0.31845762924E+02  0.13406953109E+03  0.12000000000E+03 0.  0.
<mgrwt>
<rscale>  0 0.27462639E+03</rscale>
<asrwt>0</asrwt>
<pdfrwt beam="1">  1        1 0.11941548E-01 0.27462639E+03</pdfrwt>
<pdfrwt beam="2">  1       -1 0.37371214E-01 0.27462639E+03</pdfrwt>
<totfact> 0.35021241E+03</totfact>
</mgrwt>
</event>
<event>
 5    1  0.1147887E+001  0.2764895E+03  0.7818608E-02  0.1097622E+00
          2   -1    0    0  501    0  0.00000000000E+00  0.00000000000E+00  0.25782850501E+03  0.25782850501E+03  0.00000000000E+00 0.  1.
         -2   -1    0    0    0  501 -0.00000000000E+00 -0.00000000000E+00 -0.74125270042E+02  0.74125270042E+02  0.00000000000E+00 0.  1.
         35    2    1    2    0    0  0.00000000000E+00  0.00000000000E+00  0.18370323497E+03  0.33195377505E+03  0.27648947581E+03 0.  0.
         25    1    3    3    0    0 -0.37005236220E+02 -0.45518851459E+02  0.49061416271E+02  0.14229678813E+03  0.12000000000E+03 0.  0.
         25    1    3    3    0    0  0.37005236220E+02  0.45518851459E+02  0.13464181870E+03  0.18965698692E+03  0.12000000000E+03 0.  0.
<mgrwt>
<rscale>  0 0.27648948E+03</rscale>
<asrwt>0</asrwt>
<pdfrwt beam="1">  1        2 0.39665923E-01 0.27648948E+03</pdfrwt>
<pdfrwt beam="2">  1       -2 0.11403888E-01 0.27648948E+03</pdfrwt>
<totfact> 0.68748470E+03</totfact>
</mgrwt>
</event>
<event>
 5    1  0.1147887E+001  0.2749911E+03  0.7818608E-02  0.1098457E+00
          4   -1    0    0  501    0  0.00000000000E+00  0.00000000000E+00  0.14987040199E+03  0.14987040199E+03  0.00000000000E+00 0. -1.
         -4   -1    0    0    0  501 -0.00000000000E+00 -0.00000000000E+00 -0.12614251984E+03  0.12614251984E+03  0.00000000000E+00 0. -1.
         35    2    1    2    0    0  0.00000000000E+00  0.00000000000E+00  0.23727882158E+02  0.27601292183E+03  0.27499112827E+03 0.  0.
         25    1    3    3    0    0  0.47116624325E+02  0.33485101519E+02  0.46105241677E+02  0.14095006783E+03  0.12000000000E+03 0.  0.
         25    1    3    3    0    0 -0.47116624325E+02 -0.33485101519E+02 -0.22377359519E+02  0.13506285400E+03  0.12000000000E+03 0.  0.
<mgrwt>
<rscale>  0 0.27499113E+03</rscale>
<asrwt>0</asrwt>
<pdfrwt beam="1">  1        4 0.23056985E-01 0.27499113E+03</pdfrwt>
<pdfrwt beam="2">  1       -4 0.19406542E-01 0.27499113E+03</pdfrwt>
<totfact> 0.77752498E+02</totfact>
</mgrwt>
</event>
<event>
 5    1  0.1147887E+001  0.2724212E+03  0.7818608E-02  0.1099902E+00
         -1   -1    0    0    0  501 -0.00000000000E+00  0.00000000000E+00  0.84143738626E+02  0.84143738626E+02  0.00000000000E+00 0. -1.
          1   -1    0    0  501    0  0.00000000000E+00 -0.00000000000E+00 -0.22049566478E+03  0.22049566478E+03  0.00000000000E+00 0. -1.
         35    2    1    2    0    0  0.00000000000E+00  0.00000000000E+00 -0.13635192616E+03  0.30463940341E+03  0.27242121493E+03 0.  0.
         25    1    3    3    0    0  0.51528510335E+02 -0.10654169115E+02 -0.26564579276E+02  0.13369508431E+03  0.12000000000E+03 0.  0.
         25    1    3    3    0    0 -0.51528510335E+02  0.10654169115E+02 -0.10978734688E+03  0.17094431910E+03  0.12000000000E+03 0.  0.
<mgrwt>
<rscale>  0 0.27242121E+03</rscale>
<asrwt>0</asrwt>
<pdfrwt beam="1">  1        1 0.33922409E-01 0.27242121E+03</pdfrwt>
<pdfrwt beam="2">  1       -1 0.12945191E-01 0.27242121E+03</pdfrwt>
<totfact> 0.52250904E+03</totfact>
</mgrwt>
</event>
<event>
 5    1  0.1147887E+001  0.2847124E+03  0.7818608E-02  0.1093143E+00
         -1   -1    0    0    0  501 -0.00000000000E+00  0.00000000000E+00  0.55020669540E+02  0.55020669540E+02  0.00000000000E+00 0.  1.
          1   -1    0    0  501    0  0.00000000000E+00 -0.00000000000E+00 -0.36832124933E+03  0.36832124933E+03  0.00000000000E+00 0.  1.
         35    2    1    2    0    0  0.00000000000E+00  0.00000000000E+00 -0.31330057979E+03  0.42334191887E+03  0.28471235831E+03 0.  0.
         25    1    3    3    0    0 -0.68719061228E+02 -0.12560360435E+02 -0.20332152540E+03  0.24621071204E+03  0.12000000000E+03 0.  0.
         25    1    3    3    0    0  0.68719061228E+02  0.12560360435E+02 -0.10997905439E+03  0.17713120684E+03  0.12000000000E+03 0.  0.
<mgrwt>
<rscale>  0 0.28471236E+03</rscale>
<asrwt>0</asrwt>
<pdfrwt beam="1">  1        1 0.56664809E-01 0.28471236E+03</pdfrwt>
<pdfrwt beam="2">  1       -1 0.84647182E-02 0.28471236E+03</pdfrwt>
<totfact> 0.52969258E+03</totfact>
</mgrwt>
</event>
<event>
 5    1  0.1147887E+001  0.2747999E+03  0.7818608E-02  0.1098564E+00
         -1   -1    0    0    0  501 -0.00000000000E+00  0.00000000000E+00  0.13824165777E+03  0.13824165777E+03  0.00000000000E+00 0. -1.
          1   -1    0    0  501    0  0.00000000000E+00 -0.00000000000E+00 -0.13656336562E+03  0.13656336562E+03  0.00000000000E+00 0. -1.
         35    2    1    2    0    0  0.00000000000E+00  0.00000000000E+00  0.16782921448E+01  0.27480502339E+03  0.27479989850E+03 0.  0.
         25    1    3    3    0    0  0.44926393178E+00 -0.35570189966E+01  0.67667720851E+02  0.13781064787E+03  0.12000000000E+03 0.  0.
         25    1    3    3    0    0 -0.44926393178E+00  0.35570189966E+01 -0.65989428706E+02  0.13699437552E+03  0.12000000000E+03 0.  0.
<mgrwt>
<rscale>  0 0.27479990E+03</rscale>
<asrwt>0</asrwt>
<pdfrwt beam="1">  1        1 0.21009749E-01 0.27479990E+03</pdfrwt>
<pdfrwt beam="2">  1       -1 0.21267947E-01 0.27479990E+03</pdfrwt>
<totfact> 0.43374727E+03</totfact>
</mgrwt>
</event>
<event>
 5    1  0.1147887E+001  0.2751475E+03  0.7818608E-02  0.1098369E+00
          1   -1    0    0  501    0  0.00000000000E+00  0.00000000000E+00  0.15843740383E+04  0.15843740383E+04  0.00000000000E+00 0.  1.
         -1   -1    0    0    0  501 -0.00000000000E+00 -0.00000000000E+00 -0.11945746407E+02  0.11945746407E+02  0.00000000000E+00 0.  1.
         35    2    1    2    0    0  0.00000000000E+00  0.00000000000E+00  0.15724282919E+04  0.15963197847E+04  0.27514745483E+03 0.  0.
         25    1    3    3    0    0  0.25784761754E+02  0.61878004995E+02  0.75299268615E+03  0.76543564513E+03  0.12000000000E+03 0.  0.
         25    1    3    3    0    0 -0.25784761754E+02 -0.61878004995E+02  0.81943560573E+03  0.83088413956E+03  0.12000000000E+03 0.  0.
<mgrwt>
<rscale>  0 0.27514745E+03</rscale>
<asrwt>0</asrwt>
<pdfrwt beam="1">  1        1 0.24374969E+00 0.27514745E+03</pdfrwt>
<pdfrwt beam="2">  1       -1 0.18378084E-02 0.27514745E+03</pdfrwt>
<totfact> 0.48845602E+03</totfact>
</mgrwt>
</event>
<event>
 5    1  0.1147887E+001  0.2637246E+03  0.7818608E-02  0.1104926E+00
         -3   -1    0    0    0  501 -0.00000000000E+00  0.00000000000E+00  0.62517346897E+02  0.62517346897E+02  0.00000000000E+00 0.  1.
          3   -1    0    0  501    0  0.00000000000E+00 -0.00000000000E+00 -0.27812544533E+03  0.27812544533E+03  0.00000000000E+00 0.  1.
         35    2    1    2    0    0  0.00000000000E+00  0.00000000000E+00 -0.21560809843E+03  0.34064279223E+03  0.26372459079E+03 0.  0.
         25    1    3    3    0    0 -0.53487089688E+02  0.65390805626E+01 -0.11964489803E+03  0.17781600030E+03  0.12000000000E+03 0.  0.
         25    1    3    3    0    0  0.53487089688E+02 -0.65390805626E+01 -0.95963200401E+02  0.16282679193E+03  0.12000000000E+03 0.  0.
<mgrwt>
<rscale>  0 0.26372459E+03</rscale>
<asrwt>0</asrwt>
<pdfrwt beam="1">  1        3 0.42788528E-01 0.26372459E+03</pdfrwt>
<pdfrwt beam="2">  1       -3 0.96180538E-02 0.26372459E+03</pdfrwt>
<totfact> 0.10854024E+03</totfact>
</mgrwt>
</event>
<event>
 5    1  0.1147887E+001  0.2746976E+03  0.7818608E-02  0.1098621E+00
         -1   -1    0    0    0  501 -0.00000000000E+00  0.00000000000E+00  0.22888459243E+02  0.22888459243E+02  0.00000000000E+00 0.  1.
          1   -1    0    0  501    0  0.00000000000E+00 -0.00000000000E+00 -0.82420082819E+03  0.82420082819E+03  0.00000000000E+00 0.  1.
         35    2    1    2    0    0  0.00000000000E+00  0.00000000000E+00 -0.80131236895E+03  0.84708928744E+03  0.27469755779E+03 0.  0.
         25    1    3    3    0    0 -0.53684651655E+02 -0.36499670386E+02 -0.44945488894E+03  0.46970625390E+03  0.12000000000E+03 0.  0.
         25    1    3    3    0    0  0.53684651655E+02  0.36499670386E+02 -0.35185748001E+03  0.37738303353E+03  0.12000000000E+03 0.  0.
<mgrwt>
<rscale>  0 0.27469756E+03</rscale>
<asrwt>0</asrwt>
<pdfrwt beam="1">  1        1 0.12680016E+00 0.27469756E+03</pdfrwt>
<pdfrwt beam="2">  1       -1 0.35213005E-02 0.27469756E+03</pdfrwt>
<totfact> 0.65287950E+03</totfact>
</mgrwt>
</event>
<event>
 5    1  0.1147887E+001  0.2755860E+03  0.7818608E-02  0.1098125E+00
          2   -1    0    0  501    0  0.00000000000E+00  0.00000000000E+00  0.18713377608E+03  0.18713377608E+03  0.00000000000E+00 0.  1.
         -2   -1    0    0    0  501 -0.00000000000E+00 -0.00000000000E+00 -0.10146167671E+03  0.10146167671E+03  0.00000000000E+00 0.  1.
         35    2    1    2    0    0  0.00000000000E+00  0.00000000000E+00  0.85672099373E+02  0.28859545280E+03  0.27558596982E+03 0.  0.
         25    1    3    3    0    0 -0.39803576763E+02  0.37476942023E+02  0.84698922416E+02  0.15672508850E+03  0.12000000000E+03 0.  0.
         25    1    3    3    0    0  0.39803576763E+02 -0.37476942023E+02  0.97317695626E+00  0.13187036430E+03  0.12000000000E+03 0.  0.
<mgrwt>
<rscale>  0 0.27558597E+03</rscale>
<asrwt>0</asrwt>
<pdfrwt beam="1">  1        2 0.28789812E-01 0.27558597E+03</pdfrwt>
<pdfrwt beam="2">  1       -2 0.15609489E-01 0.27558597E+03</pdfrwt>
<totfact> 0.58373688E+03</totfact>
</mgrwt>
</event>
<event>
 5    1  0.1147887E+001  0.2747219E+03  0.7818608E-02  0.1098607E+00
          2   -1    0    0  501    0  0.00000000000E+00  0.00000000000E+00  0.84856688049E+03  0.84856688049E+03  0.00000000000E+00 0. -1.
         -2   -1    0    0    0  501 -0.00000000000E+00 -0.00000000000E+00 -0.22235168044E+02  0.22235168044E+02  0.00000000000E+00 0. -1.
         35    2    1    2    0    0  0.00000000000E+00  0.00000000000E+00  0.82633171245E+03  0.87080204854E+03  0.27472187524E+03 0.  0.
         25    1    3    3    0    0  0.56077886941E+02  0.25560814727E+02  0.33112220598E+03  0.35754719961E+03  0.12000000000E+03 0.  0.
         25    1    3    3    0    0 -0.56077886941E+02 -0.25560814727E+02  0.49520950647E+03  0.51325484893E+03  0.12000000000E+03 0.  0.
<mgrwt>
<rscale>  0 0.27472188E+03</rscale>
<asrwt>0</asrwt>
<pdfrwt beam="1">  1        2 0.13054873E+00 0.27472188E+03</pdfrwt>
<pdfrwt beam="2">  1       -2 0.34207957E-02 0.27472188E+03</pdfrwt>
<totfact> 0.11395032E+04</totfact>
</mgrwt>
</event>
<event>
 5    1  0.1147887E+001  0.2745367E+03  0.7818608E-02  0.1098711E+00
          2   -1    0    0  501    0  0.00000000000E+00  0.00000000000E+00  0.11272675916E+04  0.11272675916E+04  0.00000000000E+00 0. -1.
         -2   -1    0    0    0  501 -0.00000000000E+00 -0.00000000000E+00 -0.16715283233E+02  0.16715283233E+02  0.00000000000E+00 0. -1.
         35    2    1    2    0    0  0.00000000000E+00  0.00000000000E+00  0.11105523084E+04  0.11439828749E+04  0.27453667933E+03 0.  0.
         25    1    3    3    0    0 -0.30926840774E+02  0.10661654920E+02  0.79726332309E+03  0.80690702482E+03  0.12000000000E+03 0.  0.
         25    1    3    3    0    0  0.30926840774E+02 -0.10661654920E+02  0.31328898532E+03  0.33707585005E+03  0.12000000000E+03 0.  0.
<mgrwt>
<rscale>  0 0.27453668E+03</rscale>
<asrwt>0</asrwt>
<pdfrwt beam="1">  1        2 0.17342572E+00 0.27453668E+03</pdfrwt>
<pdfrwt beam="2">  1       -2 0.25715829E-02 0.27453668E+03</pdfrwt>
<totfact> 0.11711249E+04</totfact>
</mgrwt>
</event>
<event>
 5    1  0.1147887E+001  0.2749549E+03  0.7818608E-02  0.1098477E+00
         -2   -1    0    0    0  501 -0.00000000000E+00  0.00000000000E+00  0.32630875838E+02  0.32630875838E+02  0.00000000000E+00 0.  1.
          2   -1    0    0  501    0  0.00000000000E+00 -0.00000000000E+00 -0.57920736297E+03  0.57920736297E+03  0.00000000000E+00 0.  1.
         35    2    1    2    0    0  0.00000000000E+00  0.00000000000E+00 -0.54657648713E+03  0.61183823881E+03  0.27495485845E+03 0.  0.
         25    1    3    3    0    0 -0.31395765170E+02 -0.47361128605E+01 -0.40478265047E+03  0.42338766983E+03  0.12000000000E+03 0.  0.
         25    1    3    3    0    0  0.31395765170E+02  0.47361128605E+01 -0.14179383666E+03  0.18845056898E+03  0.12000000000E+03 0.  0.
<mgrwt>
<rscale>  0 0.27495486E+03</rscale>
<asrwt>0</asrwt>
<pdfrwt beam="1">  1        2 0.89108821E-01 0.27495486E+03</pdfrwt>
<pdfrwt beam="2">  1       -2 0.50201350E-02 0.27495486E+03</pdfrwt>
<totfact> 0.10181908E+04</totfact>
</mgrwt>
</event>
<event>
 5    1  0.1147887E+001  0.2759044E+03  0.7818608E-02  0.1097947E+00
         -1   -1    0    0    0  501 -0.00000000000E+00  0.00000000000E+00  0.14378897254E+03  0.14378897254E+03  0.00000000000E+00 0.  1.
          1   -1    0    0  501    0  0.00000000000E+00 -0.00000000000E+00 -0.13235240142E+03  0.13235240142E+03  0.00000000000E+00 0.  1.
         35    2    1    2    0    0  0.00000000000E+00  0.00000000000E+00  0.11436571117E+02  0.27614137395E+03  0.27590444587E+03 0.  0.
         25    1    3    3    0    0 -0.76375741455E+01 -0.62933609851E+02  0.30475007807E+02  0.13909600242E+03  0.12000000000E+03 0.  0.
         25    1    3    3    0    0  0.76375741455E+01  0.62933609851E+02 -0.19038436690E+02  0.13704537154E+03  0.12000000000E+03 0.  0.
<mgrwt>
<rscale>  0 0.27590445E+03</rscale>
<asrwt>0</asrwt>
<pdfrwt beam="1">  1        1 0.20361908E-01 0.27590445E+03</pdfrwt>
<pdfrwt beam="2">  1       -1 0.22121380E-01 0.27590445E+03</pdfrwt>
<totfact> 0.42343297E+03</totfact>
</mgrwt>
</event>
<event>
 5    1  0.1147887E+001  0.2747680E+03  0.7818608E-02  0.1098581E+00
         -1   -1    0    0    0  501 -0.00000000000E+00  0.00000000000E+00  0.15312452048E+02  0.15312452048E+02  0.00000000000E+00 0.  1.
          1   -1    0    0  501    0  0.00000000000E+00 -0.00000000000E+00 -0.12326149338E+04  0.12326149338E+04  0.00000000000E+00 0.  1.
         35    2    1    2    0    0  0.00000000000E+00  0.00000000000E+00 -0.12173024818E+04  0.12479273858E+04  0.27476795350E+03 0.  0.
         25    1    3    3    0    0 -0.56013926290E+02 -0.29499953901E+02 -0.70675197629E+03  0.71965697607E+03  0.12000000000E+03 0.  0.
         25    1    3    3    0    0  0.56013926290E+02  0.29499953901E+02 -0.51055050546E+03  0.52827040978E+03  0.12000000000E+03 0.  0.
<mgrwt>
<rscale>  0 0.27476795E+03</rscale>
<asrwt>0</asrwt>
<pdfrwt beam="1">  1        1 0.18963308E+00 0.27476795E+03</pdfrwt>
<pdfrwt beam="2">  1       -1 0.23557616E-02 0.27476795E+03</pdfrwt>
<totfact> 0.58555386E+03</totfact>
</mgrwt>
</event>
<event>
 5    1  0.1147887E+001  0.2779062E+03  0.7818608E-02  0.1096838E+00
         -2   -1    0    0    0  501 -0.00000000000E+00  0.00000000000E+00  0.11627833497E+02  0.11627833497E+02  0.00000000000E+00 0. -1.
          2   -1    0    0  501    0  0.00000000000E+00 -0.00000000000E+00 -0.16604950705E+04  0.16604950705E+04  0.00000000000E+00 0. -1.
         35    2    1    2    0    0  0.00000000000E+00  0.00000000000E+00 -0.16488672370E+04  0.16721229040E+04  0.27790617268E+03 0.  0.
         25    1    3    3    0    0  0.22115181726E+02 -0.56972979701E+02 -0.10305019859E+04  0.10392638475E+04  0.12000000000E+03 0.  0.
         25    1    3    3    0    0 -0.22115181726E+02  0.56972979701E+02 -0.61836525109E+03  0.63285905653E+03  0.12000000000E+03 0.  0.
<mgrwt>
<rscale>  0 0.27790617E+03</rscale>
<asrwt>0</asrwt>
<pdfrwt beam="1">  1        2 0.25546083E+00 0.27790617E+03</pdfrwt>
<pdfrwt beam="2">  1       -2 0.17888971E-02 0.27790617E+03</pdfrwt>
<totfact> 0.10214360E+04</totfact>
</mgrwt>
</event>
<event>
 5    1  0.1147887E+001  0.2750626E+03  0.7818608E-02  0.1098417E+00
          1   -1    0    0  501    0  0.00000000000E+00  0.00000000000E+00  0.29953812311E+03  0.29953812311E+03  0.00000000000E+00 0. -1.
         -1   -1    0    0    0  501 -0.00000000000E+00 -0.00000000000E+00 -0.63146756796E+02  0.63146756796E+02  0.00000000000E+00 0. -1.
         35    2    1    2    0    0  0.00000000000E+00  0.00000000000E+00  0.23639136632E+03  0.36268487991E+03  0.27506261841E+03 0.  0.
         25    1    3    3    0    0 -0.32418536276E+02 -0.21959691274E+02  0.46196466233E+02  0.13441466820E+03  0.12000000000E+03 0.  0.
         25    1    3    3    0    0  0.32418536276E+02  0.21959691274E+02  0.19019490008E+03  0.22827021171E+03  0.12000000000E+03 0.  0.
<mgrwt>
<rscale>  0 0.27506262E+03</rscale>
<asrwt>0</asrwt>
<pdfrwt beam="1">  1        1 0.46082787E-01 0.27506262E+03</pdfrwt>
<pdfrwt beam="2">  1       -1 0.97148859E-02 0.27506262E+03</pdfrwt>
<totfact> 0.55607071E+03</totfact>
</mgrwt>
</event>
<event>
 5    1  0.1147887E+001  0.2802060E+03  0.7818608E-02  0.1095576E+00
         -1   -1    0    0    0  501 -0.00000000000E+00  0.00000000000E+00  0.23314288308E+03  0.23314288308E+03  0.00000000000E+00 0. -1.
          1   -1    0    0  501    0  0.00000000000E+00 -0.00000000000E+00 -0.84192380554E+02  0.84192380554E+02  0.00000000000E+00 0. -1.
         35    2    1    2    0    0  0.00000000000E+00  0.00000000000E+00  0.14895050253E+03  0.31733526364E+03  0.28020602660E+03 0.  0.
         25    1    3    3    0    0  0.29543519766E+01 -0.14150335673E+02  0.15471473820E+03  0.19633036039E+03  0.12000000000E+03 0.  0.
         25    1    3    3    0    0 -0.29543519766E+01  0.14150335673E+02 -0.57642356773E+01  0.12100490324E+03  0.12000000000E+03 0.  0.
<mgrwt>
<rscale>  0 0.28020603E+03</rscale>
<asrwt>0</asrwt>
<pdfrwt beam="1">  1        1 0.12952674E-01 0.28020603E+03</pdfrwt>
<pdfrwt beam="2">  1       -1 0.35868136E-01 0.28020603E+03</pdfrwt>
<totfact> 0.33799274E+03</totfact>
</mgrwt>
</event>
<event>
 5    1  0.1147887E+001  0.2751082E+03  0.7818608E-02  0.1098391E+00
          2   -1    0    0  501    0  0.00000000000E+00  0.00000000000E+00  0.21371012574E+02  0.21371012574E+02  0.00000000000E+00 0. -1.
         -2   -1    0    0    0  501 -0.00000000000E+00 -0.00000000000E+00 -0.88536405653E+03  0.88536405653E+03  0.00000000000E+00 0. -1.
         35    2    1    2    0    0  0.00000000000E+00  0.00000000000E+00 -0.86399304395E+03  0.90673506910E+03  0.27510817062E+03 0.  0.
         25    1    3    3    0    0 -0.35739468802E+02 -0.12998828507E+02 -0.24923334689E+03  0.27921952004E+03  0.12000000000E+03 0.  0.
         25    1    3    3    0    0  0.35739468802E+02  0.12998828507E+02 -0.61475969707E+03  0.62751554906E+03  0.12000000000E+03 0.  0.
<mgrwt>
<rscale>  0 0.27510817E+03</rscale>
<asrwt>0</asrwt>
<pdfrwt beam="1">  1        2 0.32878483E-02 0.27510817E+03</pdfrwt>
<pdfrwt beam="2">  1       -2 0.13620984E+00 0.27510817E+03</pdfrwt>
<totfact> 0.11219993E+03</totfact>
</mgrwt>
</event>
<event>
 5    1  0.1147887E+001  0.2759255E+03  0.7818608E-02  0.1097935E+00
          1   -1    0    0  501    0  0.00000000000E+00  0.00000000000E+00  0.28986246777E+03  0.28986246777E+03  0.00000000000E+00 0.  1.
         -1   -1    0    0    0  501 -0.00000000000E+00 -0.00000000000E+00 -0.65664667270E+02  0.65664667270E+02  0.00000000000E+00 0.  1.
         35    2    1    2    0    0  0.00000000000E+00  0.00000000000E+00  0.22419780050E+03  0.35552713504E+03  0.27592551531E+03 0.  0.
         25    1    3    3    0    0  0.46061021550E+02 -0.10292466633E+02  0.48894976869E+02  0.13790674871E+03  0.12000000000E+03 0.  0.
         25    1    3    3    0    0 -0.46061021550E+02  0.10292466633E+02  0.17530282363E+03  0.21762038634E+03  0.12000000000E+03 0.  0.
<mgrwt>
<rscale>  0 0.27592552E+03</rscale>
<asrwt>0</asrwt>
<pdfrwt beam="1">  1        1 0.44594225E-01 0.27592552E+03</pdfrwt>
<pdfrwt beam="2">  1       -1 0.10102257E-01 0.27592552E+03</pdfrwt>
<totfact> 0.54559331E+03</totfact>
</mgrwt>
</event>
<event>
 5    1  0.1147887E+001  0.2761743E+03  0.7818608E-02  0.1097797E+00
          1   -1    0    0  501    0  0.00000000000E+00  0.00000000000E+00  0.27268550489E+03  0.27268550489E+03  0.00000000000E+00 0. -1.
         -1   -1    0    0    0  501 -0.00000000000E+00 -0.00000000000E+00 -0.69926918352E+02  0.69926918352E+02  0.00000000000E+00 0. -1.
         35    2    1    2    0    0  0.00000000000E+00  0.00000000000E+00  0.20275858654E+03  0.34261242324E+03  0.27617427133E+03 0.  0.
         25    1    3    3    0    0 -0.13142627707E+02 -0.29355384728E+02  0.17615970229E+03  0.21556137870E+03  0.12000000000E+03 0.  0.
         25    1    3    3    0    0  0.13142627707E+02  0.29355384728E+02  0.26598884245E+02  0.12705104454E+03  0.12000000000E+03 0.  0.
<mgrwt>
<rscale>  0 0.27617427E+03</rscale>
<asrwt>0</asrwt>
<pdfrwt beam="1">  1        1 0.41951615E-01 0.27617427E+03</pdfrwt>
<pdfrwt beam="2">  1       -1 0.10757988E-01 0.27617427E+03</pdfrwt>
<totfact> 0.53441624E+03</totfact>
</mgrwt>
</event>
<event>
 5    1  0.1147887E+001  0.2747007E+03  0.7818608E-02  0.1098619E+00
          2   -1    0    0  501    0  0.00000000000E+00  0.00000000000E+00  0.53727815600E+03  0.53727815600E+03  0.00000000000E+00 0.  1.
         -2   -1    0    0    0  501 -0.00000000000E+00 -0.00000000000E+00 -0.35112398213E+02  0.35112398213E+02  0.00000000000E+00 0.  1.
         35    2    1    2    0    0  0.00000000000E+00  0.00000000000E+00  0.50216575779E+03  0.57239055422E+03  0.27470074310E+03 0.  0.
         25    1    3    3    0    0  0.55607926037E+02  0.23280318334E+02  0.19101952322E+03  0.23350090559E+03  0.12000000000E+03 0.  0.
         25    1    3    3    0    0 -0.55607926037E+02 -0.23280318334E+02  0.31114623457E+03  0.33888964863E+03  0.12000000000E+03 0.  0.
<mgrwt>
<rscale>  0 0.27470074E+03</rscale>
<asrwt>0</asrwt>
<pdfrwt beam="1">  1        2 0.82658172E-01 0.27470074E+03</pdfrwt>
<pdfrwt beam="2">  1       -2 0.54019078E-02 0.27470074E+03</pdfrwt>
<totfact> 0.99224230E+03</totfact>
</mgrwt>
</event>
<event>
 5    1  0.1147887E+001  0.2755176E+03  0.7818608E-02  0.1098163E+00
          1   -1    0    0  501    0  0.00000000000E+00  0.00000000000E+00  0.45766161357E+03  0.45766161357E+03  0.00000000000E+00 0.  1.
         -1   -1    0    0    0  501 -0.00000000000E+00 -0.00000000000E+00 -0.41466203557E+02  0.41466203557E+02  0.00000000000E+00 0.  1.
         35    2    1    2    0    0  0.00000000000E+00  0.00000000000E+00  0.41619541001E+03  0.49912781713E+03  0.27551761924E+03 0.  0.
         25    1    3    3    0    0  0.49814923198E+02  0.23625570797E+02  0.13705627668E+03  0.19032634381E+03  0.12000000000E+03 0.  0.
         25    1    3    3    0    0 -0.49814923198E+02 -0.23625570797E+02  0.27913913333E+03  0.30880147332E+03  0.12000000000E+03 0.  0.
<mgrwt>
<rscale>  0 0.27551762E+03</rscale>
<asrwt>0</asrwt>
<pdfrwt beam="1">  1        1 0.70409476E-01 0.27551762E+03</pdfrwt>
<pdfrwt beam="2">  1       -1 0.63794162E-02 0.27551762E+03</pdfrwt>
<totfact> 0.61524455E+03</totfact>
</mgrwt>
</event>
<event>
 5    1  0.1147887E+001  0.2748811E+03  0.7818608E-02  0.1098518E+00
         -1   -1    0    0    0  501 -0.00000000000E+00  0.00000000000E+00  0.22655177370E+02  0.22655177370E+02  0.00000000000E+00 0. -1.
          1   -1    0    0  501    0  0.00000000000E+00 -0.00000000000E+00 -0.83380050260E+03  0.83380050260E+03  0.00000000000E+00 0. -1.
         35    2    1    2    0    0  0.00000000000E+00  0.00000000000E+00 -0.81114532523E+03  0.85645567997E+03  0.27488105266E+03 0.  0.
         25    1    3    3    0    0  0.47285523595E+02  0.32552017035E+02 -0.51325011070E+03  0.53020866712E+03  0.12000000000E+03 0.  0.
         25    1    3    3    0    0 -0.47285523595E+02 -0.32552017035E+02 -0.29789521453E+03  0.32624701285E+03  0.12000000000E+03 0.  0.
<mgrwt>
<rscale>  0 0.27488105E+03</rscale>
<asrwt>0</asrwt>
<pdfrwt beam="1">  1        1 0.12827701E+00 0.27488105E+03</pdfrwt>
<pdfrwt beam="2">  1       -1 0.34854117E-02 0.27488105E+03</pdfrwt>
<totfact> 0.65097292E+03</totfact>
</mgrwt>
</event>
<event>
 5    1  0.1147887E+001  0.2749760E+03  0.7818608E-02  0.1098465E+00
          1   -1    0    0  501    0  0.00000000000E+00  0.00000000000E+00  0.12866698893E+04  0.12866698893E+04  0.00000000000E+00 0.  1.
         -1   -1    0    0    0  501 -0.00000000000E+00 -0.00000000000E+00 -0.14691376989E+02  0.14691376989E+02  0.00000000000E+00 0.  1.
         35    2    1    2    0    0  0.00000000000E+00  0.00000000000E+00  0.12719785123E+04  0.13013612663E+04  0.27497601644E+03 0.  0.
         25    1    3    3    0    0  0.45060078444E+01  0.49503748429E+02  0.84932705872E+03  0.85920159328E+03  0.12000000000E+03 0.  0.
         25    1    3    3    0    0 -0.45060078444E+01 -0.49503748429E+02  0.42265145358E+03  0.44215967300E+03  0.12000000000E+03 0.  0.
<mgrwt>
<rscale>  0 0.27497602E+03</rscale>
<asrwt>0</asrwt>
<pdfrwt beam="1">  1        1 0.19794912E+00 0.27497602E+03</pdfrwt>
<pdfrwt beam="2">  1       -1 0.22602129E-02 0.27497602E+03</pdfrwt>
<totfact> 0.57103447E+03</totfact>
</mgrwt>
</event>
<event>
 5    1  0.1147887E+001  0.2799728E+03  0.7818608E-02  0.1095704E+00
          2   -1    0    0  501    0  0.00000000000E+00  0.00000000000E+00  0.43385755659E+03  0.43385755659E+03  0.00000000000E+00 0. -1.
         -2   -1    0    0    0  501 -0.00000000000E+00 -0.00000000000E+00 -0.45167349872E+02  0.45167349872E+02  0.00000000000E+00 0. -1.
         35    2    1    2    0    0  0.00000000000E+00  0.00000000000E+00  0.38869020672E+03  0.47902490647E+03  0.27997282763E+03 0.  0.
         25    1    3    3    0    0 -0.34025334877E+02  0.52087299099E+02  0.13205581255E+03  0.18896970067E+03  0.12000000000E+03 0.  0.
         25    1    3    3    0    0  0.34025334877E+02 -0.52087299099E+02  0.25663439417E+03  0.29005520580E+03  0.12000000000E+03 0.  0.
<mgrwt>
<rscale>  0 0.27997283E+03</rscale>
<asrwt>0</asrwt>
<pdfrwt beam="1">  1        2 0.66747313E-01 0.27997283E+03</pdfrwt>
<pdfrwt beam="2">  1       -2 0.69488234E-02 0.27997283E+03</pdfrwt>
<totfact> 0.85561061E+03</totfact>
</mgrwt>
</event>
<event>
 5    1  0.1147887E+001  0.2757929E+03  0.7818608E-02  0.1098009E+00
          2   -1    0    0  501    0  0.00000000000E+00  0.00000000000E+00  0.39104176613E+04  0.39104176613E+04  0.00000000000E+00 0.  1.
         -2   -1    0    0    0  501 -0.00000000000E+00 -0.00000000000E+00 -0.48627629393E+01  0.48627629393E+01  0.00000000000E+00 0.  1.
         35    2    1    2    0    0  0.00000000000E+00  0.00000000000E+00  0.39055548984E+04  0.39152804243E+04  0.27579292290E+03 0.  0.
         25    1    3    3    0    0 -0.54006334217E+02  0.31203688534E+02  0.15705053084E+04  0.15763176324E+04  0.12000000000E+03 0.  0.
         25    1    3    3    0    0  0.54006334217E+02 -0.31203688534E+02  0.23350495900E+04  0.23389627919E+04  0.12000000000E+03 0.  0.
<mgrwt>
<rscale>  0 0.27579292E+03</rscale>
<asrwt>0</asrwt>
<pdfrwt beam="1">  1        2 0.60160021E+00 0.27579292E+03</pdfrwt>
<pdfrwt beam="2">  1       -2 0.74812050E-03 0.27579292E+03</pdfrwt>
<totfact> 0.16973260E+03</totfact>
</mgrwt>
</event>
<event>
 5    1  0.1147887E+001  0.2750905E+03  0.7818608E-02  0.1098401E+00
         -2   -1    0    0    0  501 -0.00000000000E+00  0.00000000000E+00  0.16844675042E+02  0.16844675042E+02  0.00000000000E+00 0.  1.
          2   -1    0    0  501    0  0.00000000000E+00 -0.00000000000E+00 -0.11231263174E+04  0.11231263174E+04  0.00000000000E+00 0.  1.
         35    2    1    2    0    0  0.00000000000E+00  0.00000000000E+00 -0.11062816424E+04  0.11399709925E+04  0.27509051491E+03 0.  0.
         25    1    3    3    0    0  0.39398992860E+02  0.27996339965E+02 -0.74674176236E+03  0.75786498490E+03  0.12000000000E+03 0.  0.
         25    1    3    3    0    0 -0.39398992860E+02 -0.27996339965E+02 -0.35953988004E+03  0.38210600758E+03  0.12000000000E+03 0.  0.
<mgrwt>
<rscale>  0 0.27509051E+03</rscale>
<asrwt>0</asrwt>
<pdfrwt beam="1">  1        2 0.17278870E+00 0.27509051E+03</pdfrwt>
<pdfrwt beam="2">  1       -2 0.25914879E-02 0.27509051E+03</pdfrwt>
<totfact> 0.11643372E+04</totfact>
</mgrwt>
</event>
<event>
 5    1  0.1147887E+001  0.2747488E+03  0.7818608E-02  0.1098592E+00
          2   -1    0    0  501    0  0.00000000000E+00  0.00000000000E+00  0.10577154211E+04  0.10577154211E+04  0.00000000000E+00 0.  1.
         -2   -1    0    0    0  501 -0.00000000000E+00 -0.00000000000E+00 -0.17841968867E+02  0.17841968867E+02  0.00000000000E+00 0.  1.
         35    2    1    2    0    0  0.00000000000E+00  0.00000000000E+00  0.10398734523E+04  0.10755573900E+04  0.27474879883E+03 0.  0.
         25    1    3    3    0    0 -0.59715903182E+02  0.29887815961E+02  0.50612114115E+03  0.52442147187E+03  0.12000000000E+03 0.  0.
         25    1    3    3    0    0  0.59715903182E+02 -0.29887815961E+02  0.53375231111E+03  0.55113591813E+03  0.12000000000E+03 0.  0.
<mgrwt>
<rscale>  0 0.27474880E+03</rscale>
<asrwt>0</asrwt>
<pdfrwt beam="1">  1        2 0.16272540E+00 0.27474880E+03</pdfrwt>
<pdfrwt beam="2">  1       -2 0.27449191E-02 0.27474880E+03</pdfrwt>
<totfact> 0.11684032E+04</totfact>
</mgrwt>
</event>
<event>
 5    1  0.1147887E+001  0.2742121E+03  0.7818608E-02  0.1098893E+00
          1   -1    0    0  501    0  0.00000000000E+00  0.00000000000E+00  0.53084772170E+02  0.53084772170E+02  0.00000000000E+00 0. -1.
         -1   -1    0    0    0  501 -0.00000000000E+00 -0.00000000000E+00 -0.35411411573E+03  0.35411411573E+03  0.00000000000E+00 0. -1.
         35    2    1    2    0    0  0.00000000000E+00  0.00000000000E+00 -0.30102934356E+03  0.40719888790E+03  0.27421208694E+03 0.  0.
         25    1    3    3    0    0  0.65333321509E+02 -0.77061211195E+01 -0.13806917900E+03  0.19439888217E+03  0.12000000000E+03 0.  0.
         25    1    3    3    0    0 -0.65333321509E+02  0.77061211195E+01 -0.16296016456E+03  0.21280000572E+03  0.12000000000E+03 0.  0.
<mgrwt>
<rscale>  0 0.27421209E+03</rscale>
<asrwt>0</asrwt>
<pdfrwt beam="1">  1        1 0.81668884E-02 0.27421209E+03</pdfrwt>
<pdfrwt beam="2">  1       -1 0.54479093E-01 0.27421209E+03</pdfrwt>
<totfact> 0.29451714E+03</totfact>
</mgrwt>
</event>
<event>
 5    1  0.1147887E+001  0.2747439E+03  0.7818608E-02  0.1098595E+00
          2   -1    0    0  501    0  0.00000000000E+00  0.00000000000E+00  0.20630312539E+04  0.20630312539E+04  0.00000000000E+00 0.  1.
         -2   -1    0    0    0  501 -0.00000000000E+00 -0.00000000000E+00 -0.91472453255E+01  0.91472453255E+01  0.00000000000E+00 0.  1.
         35    2    1    2    0    0  0.00000000000E+00  0.00000000000E+00  0.20538840086E+04  0.20721784992E+04  0.27474390252E+03 0.  0.
         25    1    3    3    0    0  0.51141835681E+02  0.27726665840E+02  0.77830060376E+03  0.78964301122E+03  0.12000000000E+03 0.  0.
         25    1    3    3    0    0 -0.51141835681E+02 -0.27726665840E+02  0.12755834048E+04  0.12825354880E+04  0.12000000000E+03 0.  0.
<mgrwt>
<rscale>  0 0.27474390E+03</rscale>
<asrwt>0</asrwt>
<pdfrwt beam="1">  1        2 0.31738905E+00 0.27474390E+03</pdfrwt>
<pdfrwt beam="2">  1       -2 0.14072702E-02 0.27474390E+03</pdfrwt>
<totfact> 0.89145188E+03</totfact>
</mgrwt>
</event>
<event>
 5    1  0.1147887E+001  0.2763343E+03  0.7818608E-02  0.1097708E+00
         -4   -1    0    0    0  501 -0.00000000000E+00  0.00000000000E+00  0.10030879370E+03  0.10030879370E+03  0.00000000000E+00 0.  1.
          4   -1    0    0  501    0  0.00000000000E+00 -0.00000000000E+00 -0.19031395888E+03  0.19031395888E+03  0.00000000000E+00 0.  1.
         35    2    1    2    0    0  0.00000000000E+00  0.00000000000E+00 -0.90005165181E+02  0.29062275258E+03  0.27633431665E+03 0.  0.
         25    1    3    3    0    0 -0.33988458388E+02 -0.56043108651E+02 -0.24123659449E+02  0.13884522417E+03  0.12000000000E+03 0.  0.
         25    1    3    3    0    0  0.33988458388E+02  0.56043108651E+02 -0.65881505733E+02  0.15177752840E+03  0.12000000000E+03 0.  0.
<mgrwt>
<rscale>  0 0.27633432E+03</rscale>
<asrwt>0</asrwt>
<pdfrwt beam="1">  1        4 0.29279070E-01 0.27633432E+03</pdfrwt>
<pdfrwt beam="2">  1       -4 0.15432122E-01 0.27633432E+03</pdfrwt>
<totfact> 0.74921261E+02</totfact>
</mgrwt>
</event>
<event>
 5    1  0.1147887E+001  0.2730588E+03  0.7818608E-02  0.1099542E+00
         -1   -1    0    0    0  501 -0.00000000000E+00  0.00000000000E+00  0.34555180063E+03  0.34555180063E+03  0.00000000000E+00 0. -1.
          1   -1    0    0  501    0  0.00000000000E+00 -0.00000000000E+00 -0.53943517711E+02  0.53943517711E+02  0.00000000000E+00 0. -1.
         35    2    1    2    0    0  0.00000000000E+00  0.00000000000E+00  0.29160828292E+03  0.39949531834E+03  0.27305881914E+03 0.  0.
         25    1    3    3    0    0  0.36728156306E+02  0.34006929111E+02  0.20674191392E+03  0.24422867904E+03  0.12000000000E+03 0.  0.
         25    1    3    3    0    0 -0.36728156306E+02 -0.34006929111E+02  0.84866368995E+02  0.15526663930E+03  0.12000000000E+03 0.  0.
<mgrwt>
<rscale>  0 0.27305882E+03</rscale>
<asrwt>0</asrwt>
<pdfrwt beam="1">  1        1 0.82990029E-02 0.27305882E+03</pdfrwt>
<pdfrwt beam="2">  1       -1 0.53161814E-01 0.27305882E+03</pdfrwt>
<totfact> 0.30168309E+03</totfact>
</mgrwt>
</event>
<event>
 5    1  0.1147887E+001  0.2747740E+03  0.7818608E-02  0.1098578E+00
         -1   -1    0    0    0  501 -0.00000000000E+00  0.00000000000E+00  0.32267910683E+02  0.32267910683E+02  0.00000000000E+00 0. -1.
          1   -1    0    0  501    0  0.00000000000E+00 -0.00000000000E+00 -0.58495225334E+03  0.58495225334E+03  0.00000000000E+00 0. -1.
         35    2    1    2    0    0  0.00000000000E+00  0.00000000000E+00 -0.55268434266E+03  0.61722016403E+03  0.27477399487E+03 0.  0.
         25    1    3    3    0    0  0.55240087880E+02  0.37243599113E+02 -0.26274629745E+03  0.29643577687E+03  0.12000000000E+03 0.  0.
         25    1    3    3    0    0 -0.55240087880E+02 -0.37243599113E+02 -0.28993804521E+03  0.32078438716E+03  0.12000000000E+03 0.  0.
<mgrwt>
<rscale>  0 0.27477399E+03</rscale>
<asrwt>0</asrwt>
<pdfrwt beam="1">  1        1 0.89992650E-01 0.27477399E+03</pdfrwt>
<pdfrwt beam="2">  1       -1 0.49642942E-02 0.27477399E+03</pdfrwt>
<totfact> 0.64581063E+03</totfact>
</mgrwt>
</event>
<event>
 5    1  0.1147887E+001  0.2755805E+03  0.7818608E-02  0.1098128E+00
          2   -1    0    0  501    0  0.00000000000E+00  0.00000000000E+00  0.13747638409E+04  0.13747638409E+04  0.00000000000E+00 0. -1.
         -2   -1    0    0    0  501 -0.00000000000E+00 -0.00000000000E+00 -0.13810482954E+02  0.13810482954E+02  0.00000000000E+00 0. -1.
         35    2    1    2    0    0  0.00000000000E+00  0.00000000000E+00  0.13609533579E+04  0.13885743238E+04  0.27558049706E+03 0.  0.
         25    1    3    3    0    0 -0.16872266969E+02 -0.26885964297E+02  0.37905207860E+03  0.39885837933E+03  0.12000000000E+03 0.  0.
         25    1    3    3    0    0  0.16872266969E+02  0.26885964297E+02  0.98190127931E+03  0.98971594449E+03  0.12000000000E+03 0.  0.
<mgrwt>
<rscale>  0 0.27558050E+03</rscale>
<asrwt>0</asrwt>
<pdfrwt beam="1">  1        2 0.21150202E+00 0.27558050E+03</pdfrwt>
<pdfrwt beam="2">  1       -2 0.21246908E-02 0.27558050E+03</pdfrwt>
<totfact> 0.11276195E+04</totfact>
</mgrwt>
</event>
<event>
 5    1  0.1147887E+001  0.2759574E+03  0.7818608E-02  0.1097918E+00
         -2   -1    0    0    0  501 -0.00000000000E+00  0.00000000000E+00  0.22578784571E+02  0.22578784571E+02  0.00000000000E+00 0.  1.
          2   -1    0    0  501    0  0.00000000000E+00 -0.00000000000E+00 -0.84318634438E+03  0.84318634438E+03  0.00000000000E+00 0.  1.
         35    2    1    2    0    0  0.00000000000E+00  0.00000000000E+00 -0.82060755980E+03  0.86576512895E+03  0.27595740847E+03 0.  0.
         25    1    3    3    0    0 -0.41924879118E+02 -0.32415885223E+02 -0.27610746685E+03  0.30568581641E+03  0.12000000000E+03 0.  0.
         25    1    3    3    0    0  0.41924879118E+02  0.32415885223E+02 -0.54450009296E+03  0.56007931254E+03  0.12000000000E+03 0.  0.
<mgrwt>
<rscale>  0 0.27595741E+03</rscale>
<asrwt>0</asrwt>
<pdfrwt beam="1">  1        2 0.12972094E+00 0.27595741E+03</pdfrwt>
<pdfrwt beam="2">  1       -2 0.34736600E-02 0.27595741E+03</pdfrwt>
<totfact> 0.11231023E+04</totfact>
</mgrwt>
</event>
<event>
 5    1  0.1147887E+001  0.2737606E+03  0.7818608E-02  0.1099146E+00
          2   -1    0    0  501    0  0.00000000000E+00  0.00000000000E+00  0.72377580963E+03  0.72377580963E+03  0.00000000000E+00 0.  1.
         -2   -1    0    0    0  501 -0.00000000000E+00 -0.00000000000E+00 -0.25886761102E+02  0.25886761102E+02  0.00000000000E+00 0.  1.
         35    2    1    2    0    0  0.00000000000E+00  0.00000000000E+00  0.69788904853E+03  0.74966257073E+03  0.27376056308E+03 0.  0.
         25    1    3    3    0    0  0.64565506425E+02 -0.77921865674E+01  0.32064640590E+03  0.34848750395E+03  0.12000000000E+03 0.  0.
         25    1    3    3    0    0 -0.64565506425E+02  0.77921865674E+01  0.37724264263E+03  0.40117506678E+03  0.12000000000E+03 0.  0.
<mgrwt>
<rscale>  0 0.27376056E+03</rscale>
<asrwt>0</asrwt>
<pdfrwt beam="1">  1        2 0.11135011E+00 0.27376056E+03</pdfrwt>
<pdfrwt beam="2">  1       -2 0.39825792E-02 0.27376056E+03</pdfrwt>
<totfact> 0.11090148E+04</totfact>
</mgrwt>
</event>
<event>
 5    1  0.1147887E+001  0.2750785E+03  0.7818608E-02  0.1098408E+00
         -1   -1    0    0    0  501 -0.00000000000E+00  0.00000000000E+00  0.25017824799E+03  0.25017824799E+03  0.00000000000E+00 0. -1.
          1   -1    0    0  501    0  0.00000000000E+00 -0.00000000000E+00 -0.75614279164E+02  0.75614279164E+02  0.00000000000E+00 0. -1.
         35    2    1    2    0    0  0.00000000000E+00  0.00000000000E+00  0.17456396883E+03  0.32579252716E+03  0.27507851886E+03 0.  0.
         25    1    3    3    0    0 -0.37217774617E+02  0.51949789321E+02  0.11192993432E+03  0.17610296294E+03  0.12000000000E+03 0.  0.
         25    1    3    3    0    0  0.37217774617E+02 -0.51949789321E+02  0.62634034506E+02  0.14968956422E+03  0.12000000000E+03 0.  0.
<mgrwt>
<rscale>  0 0.27507852E+03</rscale>
<asrwt>0</asrwt>
<pdfrwt beam="1">  1        1 0.11632966E-01 0.27507852E+03</pdfrwt>
<pdfrwt beam="2">  1       -1 0.38488961E-01 0.27507852E+03</pdfrwt>
<totfact> 0.34433067E+03</totfact>
</mgrwt>
</event>
<event>
 5    1  0.1147887E+001  0.2723078E+03  0.7818608E-02  0.1099966E+00
          4   -1    0    0  501    0  0.00000000000E+00  0.00000000000E+00  0.20362922740E+03  0.20362922740E+03  0.00000000000E+00 0. -1.
         -4   -1    0    0    0  501 -0.00000000000E+00 -0.00000000000E+00 -0.91037460487E+02  0.91037460487E+02  0.00000000000E+00 0. -1.
         35    2    1    2    0    0  0.00000000000E+00  0.00000000000E+00  0.11259176691E+03  0.29466668789E+03  0.27230782393E+03 0.  0.
         25    1    3    3    0    0 -0.12857848455E+02 -0.50195205324E+02  0.15047735615E+02  0.13157247908E+03  0.12000000000E+03 0.  0.
         25    1    3    3    0    0  0.12857848455E+02  0.50195205324E+02  0.97544031298E+02  0.16309420881E+03  0.12000000000E+03 0.  0.
<mgrwt>
<rscale>  0 0.27230782E+03</rscale>
<asrwt>0</asrwt>
<pdfrwt beam="1">  1        4 0.31327573E-01 0.27230782E+03</pdfrwt>
<pdfrwt beam="2">  1       -4 0.14005763E-01 0.27230782E+03</pdfrwt>
<totfact> 0.77924729E+02</totfact>
</mgrwt>
</event>
<event>
 5    1  0.1147887E+001  0.2715248E+03  0.7818608E-02  0.1100410E+00
         -2   -1    0    0    0  501 -0.00000000000E+00  0.00000000000E+00  0.21915251733E+02  0.21915251733E+02  0.00000000000E+00 0. -1.
          2   -1    0    0  501    0  0.00000000000E+00 -0.00000000000E+00 -0.84103196362E+03  0.84103196362E+03  0.00000000000E+00 0. -1.
         35    2    1    2    0    0  0.00000000000E+00  0.00000000000E+00 -0.81911671189E+03  0.86294721535E+03  0.27152478486E+03 0.  0.
         25    1    3    3    0    0 -0.45141320028E+02  0.43444204743E+02 -0.37679261963E+03  0.40037209682E+03  0.12000000000E+03 0.  0.
         25    1    3    3    0    0  0.45141320028E+02 -0.43444204743E+02 -0.44232409225E+03  0.46257511853E+03  0.12000000000E+03 0.  0.
<mgrwt>
<rscale>  0 0.27152478E+03</rscale>
<asrwt>0</asrwt>
<pdfrwt beam="1">  1        2 0.12938955E+00 0.27152478E+03</pdfrwt>
<pdfrwt beam="2">  1       -2 0.33715768E-02 0.27152478E+03</pdfrwt>
<totfact> 0.11775661E+04</totfact>
</mgrwt>
</event>
<event>
 5    1  0.1147887E+001  0.2766534E+03  0.7818608E-02  0.1097531E+00
         -3   -1    0    0    0  501 -0.00000000000E+00  0.00000000000E+00  0.18730570334E+03  0.18730570334E+03  0.00000000000E+00 0.  1.
          3   -1    0    0  501    0  0.00000000000E+00 -0.00000000000E+00 -0.10215535170E+03  0.10215535170E+03  0.00000000000E+00 0.  1.
         35    2    1    2    0    0  0.00000000000E+00  0.00000000000E+00  0.85150351641E+02  0.28946105503E+03  0.27665342939E+03 0.  0.
         25    1    3    3    0    0  0.37183623502E+02  0.49369463064E+01  0.10292820384E+03  0.16248449292E+03  0.12000000000E+03 0.  0.
         25    1    3    3    0    0 -0.37183623502E+02 -0.49369463064E+01 -0.17777852198E+02  0.12697656211E+03  0.12000000000E+03 0.  0.
<mgrwt>
<rscale>  0 0.27665343E+03</rscale>
<asrwt>0</asrwt>
<pdfrwt beam="1">  1        3 0.15716208E-01 0.27665343E+03</pdfrwt>
<pdfrwt beam="2">  1       -3 0.28816262E-01 0.27665343E+03</pdfrwt>
<totfact> 0.10083035E+03</totfact>
</mgrwt>
</event>
<event>
 5    1  0.1147887E+001  0.2752051E+03  0.7818608E-02  0.1098337E+00
          1   -1    0    0  501    0  0.00000000000E+00  0.00000000000E+00  0.20667550992E+03  0.20667550992E+03  0.00000000000E+00 0.  1.
         -1   -1    0    0    0  501 -0.00000000000E+00 -0.00000000000E+00 -0.91614440807E+02  0.91614440807E+02  0.00000000000E+00 0.  1.
         35    2    1    2    0    0  0.00000000000E+00  0.00000000000E+00  0.11506106911E+03  0.29828995072E+03  0.27520509639E+03 0.  0.
         25    1    3    3    0    0  0.47970745625E+02  0.47244487628E+02  0.56329808828E+02  0.14868181264E+03  0.12000000000E+03 0.  0.
         25    1    3    3    0    0 -0.47970745625E+02 -0.47244487628E+02  0.58731260282E+02  0.14960813809E+03  0.12000000000E+03 0.  0.
<mgrwt>
<rscale>  0 0.27520510E+03</rscale>
<asrwt>0</asrwt>
<pdfrwt beam="1">  1        1 0.31796232E-01 0.27520510E+03</pdfrwt>
<pdfrwt beam="2">  1       -1 0.14094529E-01 0.27520510E+03</pdfrwt>
<totfact> 0.49594876E+03</totfact>
</mgrwt>
</event>
<event>
 5    1  0.1147887E+001  0.2758026E+03  0.7818608E-02  0.1098004E+00
         -1   -1    0    0    0  501 -0.00000000000E+00  0.00000000000E+00  0.15157886728E+02  0.15157886728E+02  0.00000000000E+00 0.  1.
          1   -1    0    0  501    0  0.00000000000E+00 -0.00000000000E+00 -0.12545792221E+04  0.12545792221E+04  0.00000000000E+00 0.  1.
         35    2    1    2    0    0  0.00000000000E+00  0.00000000000E+00 -0.12394213354E+04  0.12697371089E+04  0.27580260869E+03 0.  0.
         25    1    3    3    0    0 -0.60900801204E+02 -0.28224966621E+02 -0.57116013199E+03  0.58747719335E+03  0.12000000000E+03 0.  0.
         25    1    3    3    0    0  0.60900801204E+02  0.28224966621E+02 -0.66826120343E+03  0.68225991553E+03  0.12000000000E+03 0.  0.
<mgrwt>
<rscale>  0 0.27580261E+03</rscale>
<asrwt>0</asrwt>
<pdfrwt beam="1">  1        1 0.19301223E+00 0.27580261E+03</pdfrwt>
<pdfrwt beam="2">  1       -1 0.23319821E-02 0.27580261E+03</pdfrwt>
<totfact> 0.57391892E+03</totfact>
</mgrwt>
</event>
<event>
 5    1  0.1147887E+001  0.2731944E+03  0.7818608E-02  0.1099465E+00
         -2   -1    0    0    0  501 -0.00000000000E+00  0.00000000000E+00  0.49823495952E+02  0.49823495952E+02  0.00000000000E+00 0. -1.
          2   -1    0    0  501    0  0.00000000000E+00 -0.00000000000E+00 -0.37449788722E+03  0.37449788722E+03  0.00000000000E+00 0. -1.
         35    2    1    2    0    0  0.00000000000E+00  0.00000000000E+00 -0.32467439127E+03  0.42432138317E+03  0.27319439210E+03 0.  0.
         25    1    3    3    0    0  0.44954129699E+02 -0.29030688580E+02 -0.10432331381E+03  0.16777070203E+03  0.12000000000E+03 0.  0.
         25    1    3    3    0    0 -0.44954129699E+02  0.29030688580E+02 -0.22035107746E+03  0.25655068114E+03  0.12000000000E+03 0.  0.
<mgrwt>
<rscale>  0 0.27319439E+03</rscale>
<asrwt>0</asrwt>
<pdfrwt beam="1">  1        2 0.57615060E-01 0.27319439E+03</pdfrwt>
<pdfrwt beam="2">  1       -2 0.76651531E-02 0.27319439E+03</pdfrwt>
<totfact> 0.86146650E+03</totfact>
</mgrwt>
</event>
<event>
 5    1  0.1147887E+001  0.2755063E+03  0.7818608E-02  0.1098169E+00
         -2   -1    0    0    0  501 -0.00000000000E+00  0.00000000000E+00  0.67671276330E+02  0.67671276330E+02  0.00000000000E+00 0.  1.
          2   -1    0    0  501    0  0.00000000000E+00 -0.00000000000E+00 -0.28041338398E+03  0.28041338398E+03  0.00000000000E+00 0.  1.
         35    2    1    2    0    0  0.00000000000E+00  0.00000000000E+00 -0.21274210765E+03  0.34808466031E+03  0.27550630914E+03 0.  0.
         25    1    3    3    0    0 -0.26555954575E+02 -0.18654309034E+02 -0.31382842954E+02  0.12821109469E+03  0.12000000000E+03 0.  0.
         25    1    3    3    0    0  0.26555954575E+02  0.18654309034E+02 -0.18135926469E+03  0.21987356562E+03  0.12000000000E+03 0.  0.
<mgrwt>
<rscale>  0 0.27550631E+03</rscale>
<asrwt>0</asrwt>
<pdfrwt beam="1">  1        2 0.43140521E-01 0.27550631E+03</pdfrwt>
<pdfrwt beam="2">  1       -2 0.10410966E-01 0.27550631E+03</pdfrwt>
<totfact> 0.72657077E+03</totfact>
</mgrwt>
</event>
<event>
 5    1  0.1147887E+001  0.2750513E+03  0.7818608E-02  0.1098423E+00
          1   -1    0    0  501    0  0.00000000000E+00  0.00000000000E+00  0.43123530429E+03  0.43123530429E+03  0.00000000000E+00 0. -1.
         -1   -1    0    0    0  501 -0.00000000000E+00 -0.00000000000E+00 -0.43858446071E+02  0.43858446071E+02  0.00000000000E+00 0. -1.
         35    2    1    2    0    0  0.00000000000E+00  0.00000000000E+00  0.38737685822E+03  0.47509375036E+03  0.27505134311E+03 0.  0.
         25    1    3    3    0    0 -0.24907170834E+02  0.61410945405E+02  0.21273873271E+03  0.25307990787E+03  0.12000000000E+03 0.  0.
         25    1    3    3    0    0  0.24907170834E+02 -0.61410945405E+02  0.17463812551E+03  0.22201384249E+03  0.12000000000E+03 0.  0.
<mgrwt>
<rscale>  0 0.27505134E+03</rscale>
<asrwt>0</asrwt>
<pdfrwt beam="1">  1        1 0.66343890E-01 0.27505134E+03</pdfrwt>
<pdfrwt beam="2">  1       -1 0.67474535E-02 0.27505134E+03</pdfrwt>
<totfact> 0.61059597E+03</totfact>
</mgrwt>
</event>
<event>
 5    1  0.1147887E+001  0.2754880E+03  0.7818608E-02  0.1098179E+00
         -2   -1    0    0    0  501 -0.00000000000E+00  0.00000000000E+00  0.13740682170E+02  0.13740682170E+02  0.00000000000E+00 0. -1.
          2   -1    0    0  501    0  0.00000000000E+00 -0.00000000000E+00 -0.13808197880E+04  0.13808197880E+04  0.00000000000E+00 0. -1.
         35    2    1    2    0    0  0.00000000000E+00  0.00000000000E+00 -0.13670791058E+04  0.13945604701E+04  0.27548797317E+03 0.  0.
         25    1    3    3    0    0 -0.39172355451E+02 -0.51521303678E+02 -0.58427917619E+03  0.59997589442E+03  0.12000000000E+03 0.  0.
         25    1    3    3    0    0  0.39172355451E+02  0.51521303678E+02 -0.78279992961E+03  0.79458457572E+03  0.12000000000E+03 0.  0.
<mgrwt>
<rscale>  0 0.27548797E+03</rscale>
<asrwt>0</asrwt>
<pdfrwt beam="1">  1        2 0.21243380E+00 0.27548797E+03</pdfrwt>
<pdfrwt beam="2">  1       -2 0.21139512E-02 0.27548797E+03</pdfrwt>
<totfact> 0.11274572E+04</totfact>
</mgrwt>
</event>
<event>
 5    1  0.1147887E+001  0.2748463E+03  0.7818608E-02  0.1098538E+00
          2   -1    0    0  501    0  0.00000000000E+00  0.00000000000E+00  0.16911158048E+04  0.16911158048E+04  0.00000000000E+00 0. -1.
         -2   -1    0    0    0  501 -0.00000000000E+00 -0.00000000000E+00 -0.11167255012E+02  0.11167255012E+02  0.00000000000E+00 0. -1.
         35    2    1    2    0    0  0.00000000000E+00  0.00000000000E+00  0.16799485498E+04  0.17022830598E+04  0.27484629484E+03 0.  0.
         25    1    3    3    0    0  0.87602601413E+01 -0.33271855210E+02  0.11958419380E+04  0.12023400930E+04  0.12000000000E+03 0.  0.
         25    1    3    3    0    0 -0.87602601413E+01  0.33271855210E+02  0.48410661176E+03  0.49994296680E+03  0.12000000000E+03 0.  0.
<mgrwt>
<rscale>  0 0.27484629E+03</rscale>
<asrwt>0</asrwt>
<pdfrwt beam="1">  1        2 0.26017146E+00 0.27484629E+03</pdfrwt>
<pdfrwt beam="2">  1       -2 0.17180406E-02 0.27484629E+03</pdfrwt>
<totfact> 0.10440865E+04</totfact>
</mgrwt>
</event>
<event>
 5    1  0.1147887E+001  0.2752999E+03  0.7818608E-02  0.1098284E+00
         -2   -1    0    0    0  501 -0.00000000000E+00  0.00000000000E+00  0.43690085539E+02  0.43690085539E+02  0.00000000000E+00 0. -1.
          2   -1    0    0  501    0  0.00000000000E+00 -0.00000000000E+00 -0.43367992249E+03  0.43367992249E+03  0.00000000000E+00 0. -1.
         35    2    1    2    0    0  0.00000000000E+00  0.00000000000E+00 -0.38998983695E+03  0.47737000803E+03  0.27529993033E+03 0.  0.
         25    1    3    3    0    0  0.56140571135E+00  0.43807833239E+02 -0.10610190785E+03  0.16606341042E+03  0.12000000000E+03 0.  0.
         25    1    3    3    0    0 -0.56140571135E+00 -0.43807833239E+02 -0.28388792910E+03  0.31130659762E+03  0.12000000000E+03 0.  0.
<mgrwt>
<rscale>  0 0.27529993E+03</rscale>
<asrwt>0</asrwt>
<pdfrwt beam="1">  1        2 0.66719986E-01 0.27529993E+03</pdfrwt>
<pdfrwt beam="2">  1       -2 0.67215518E-02 0.27529993E+03</pdfrwt>
<totfact> 0.90059476E+03</totfact>
</mgrwt>
</event>
<event>
 5    1  0.1147887E+001  0.2756146E+03  0.7818608E-02  0.1098109E+00
          1   -1    0    0  501    0  0.00000000000E+00  0.00000000000E+00  0.16193082640E+04  0.16193082640E+04  0.00000000000E+00 0. -1.
         -1   -1    0    0    0  501 -0.00000000000E+00 -0.00000000000E+00 -0.11727756207E+02  0.11727756207E+02  0.00000000000E+00 0. -1.
         35    2    1    2    0    0  0.00000000000E+00  0.00000000000E+00  0.16075805078E+04  0.16310360202E+04  0.27561460444E+03 0.  0.
         25    1    3    3    0    0  0.29926481980E+02  0.58371773655E+02  0.90421789061E+03  0.91450142263E+03  0.12000000000E+03 0.  0.
         25    1    3    3    0    0 -0.29926481980E+02 -0.58371773655E+02  0.70336261719E+03  0.71653459759E+03  0.12000000000E+03 0.  0.
<mgrwt>
<rscale>  0 0.27561460E+03</rscale>
<asrwt>0</asrwt>
<pdfrwt beam="1">  1        1 0.24912417E+00 0.27561460E+03</pdfrwt>
<pdfrwt beam="2">  1       -1 0.18042715E-02 0.27561460E+03</pdfrwt>
<totfact> 0.47595581E+03</totfact>
</mgrwt>
</event>
<event>
 5    1  0.1147887E+001  0.2768806E+03  0.7818608E-02  0.1097405E+00
         -2   -1    0    0    0  501 -0.00000000000E+00  0.00000000000E+00  0.52286814685E+02  0.52286814685E+02  0.00000000000E+00 0.  1.
          2   -1    0    0  501    0  0.00000000000E+00 -0.00000000000E+00 -0.36654960157E+03  0.36654960157E+03  0.00000000000E+00 0.  1.
         35    2    1    2    0    0  0.00000000000E+00  0.00000000000E+00 -0.31426278689E+03  0.41883641626E+03  0.27688055974E+03 0.  0.
         25    1    3    3    0    0  0.16939828357E+02 -0.66776626977E+02 -0.15042835374E+03  0.20438876022E+03  0.12000000000E+03 0.  0.
         25    1    3    3    0    0 -0.16939828357E+02  0.66776626977E+02 -0.16383443315E+03  0.21444765604E+03  0.12000000000E+03 0.  0.
<mgrwt>
<rscale>  0 0.27688056E+03</rscale>
<asrwt>0</asrwt>
<pdfrwt beam="1">  1        2 0.56392249E-01 0.27688056E+03</pdfrwt>
<pdfrwt beam="2">  1       -2 0.80441250E-02 0.27688056E+03</pdfrwt>
<totfact> 0.81817145E+03</totfact>
</mgrwt>
</event>
<event>
 5    1  0.1147887E+001  0.2746881E+03  0.7818608E-02  0.1098626E+00
         -2   -1    0    0    0  501 -0.00000000000E+00  0.00000000000E+00  0.21479085905E+02  0.21479085905E+02  0.00000000000E+00 0.  1.
          2   -1    0    0  501    0  0.00000000000E+00 -0.00000000000E+00 -0.87822133463E+03  0.87822133463E+03  0.00000000000E+00 0.  1.
         35    2    1    2    0    0  0.00000000000E+00  0.00000000000E+00 -0.85674224872E+03  0.89970042053E+03  0.27468812490E+03 0.  0.
         25    1    3    3    0    0  0.46635762184E+02  0.35437860120E+02 -0.32311782547E+03  0.34962246121E+03  0.12000000000E+03 0.  0.
         25    1    3    3    0    0 -0.46635762184E+02 -0.35437860120E+02 -0.53362442325E+03  0.55007795932E+03  0.12000000000E+03 0.  0.
<mgrwt>
<rscale>  0 0.27468812E+03</rscale>
<asrwt>0</asrwt>
<pdfrwt beam="1">  1        2 0.13511094E+00 0.27468812E+03</pdfrwt>
<pdfrwt beam="2">  1       -2 0.33044755E-02 0.27468812E+03</pdfrwt>
<totfact> 0.11469994E+04</totfact>
</mgrwt>
</event>
<event>
 5    1  0.1147887E+001  0.2748871E+03  0.7818608E-02  0.1098515E+00
          1   -1    0    0  501    0  0.00000000000E+00  0.00000000000E+00  0.18541966957E+04  0.18541966957E+04  0.00000000000E+00 0.  1.
         -1   -1    0    0    0  501 -0.00000000000E+00 -0.00000000000E+00 -0.10188091255E+02  0.10188091255E+02  0.00000000000E+00 0.  1.
         35    2    1    2    0    0  0.00000000000E+00  0.00000000000E+00  0.18440086044E+04  0.18643847869E+04  0.27488706874E+03 0.  0.
         25    1    3    3    0    0  0.19689199349E+02  0.13067271090E+02  0.49669493467E+03  0.51153130527E+03  0.12000000000E+03 0.  0.
         25    1    3    3    0    0 -0.19689199349E+02 -0.13067271090E+02  0.13473136697E+04  0.13528534816E+04  0.12000000000E+03 0.  0.
<mgrwt>
<rscale>  0 0.27488707E+03</rscale>
<asrwt>0</asrwt>
<pdfrwt beam="1">  1        1 0.28526076E+00 0.27488707E+03</pdfrwt>
<pdfrwt beam="2">  1       -1 0.15674001E-02 0.27488707E+03</pdfrwt>
<totfact> 0.41074672E+03</totfact>
</mgrwt>
</event>
<event>
 5    1  0.1147887E+001  0.2809316E+03  0.7818608E-02  0.1095181E+00
          2   -1    0    0  501    0  0.00000000000E+00  0.00000000000E+00  0.91721354628E+03  0.91721354628E+03  0.00000000000E+00 0. -1.
         -2   -1    0    0    0  501 -0.00000000000E+00 -0.00000000000E+00 -0.21511497470E+02  0.21511497470E+02  0.00000000000E+00 0. -1.
         35    2    1    2    0    0  0.00000000000E+00  0.00000000000E+00  0.89570204881E+03  0.93872504375E+03  0.28093157089E+03 0.  0.
         25    1    3    3    0    0  0.43406998877E+02  0.47080696467E+02  0.56503514312E+03  0.58117593936E+03  0.12000000000E+03 0.  0.
         25    1    3    3    0    0 -0.43406998877E+02 -0.47080696467E+02  0.33066690570E+03  0.35754910439E+03  0.12000000000E+03 0.  0.
<mgrwt>
<rscale>  0 0.28093157E+03</rscale>
<asrwt>0</asrwt>
<pdfrwt beam="1">  1        2 0.14110975E+00 0.28093157E+03</pdfrwt>
<pdfrwt beam="2">  1       -2 0.33094619E-02 0.28093157E+03</pdfrwt>
<totfact> 0.10806046E+04</totfact>
</mgrwt>
</event>
<event>
 5    1  0.1147887E+001  0.2764636E+03  0.7818608E-02  0.1097636E+00
         -2   -1    0    0    0  501 -0.00000000000E+00  0.00000000000E+00  0.10330259984E+03  0.10330259984E+03  0.00000000000E+00 0.  1.
          2   -1    0    0  501    0  0.00000000000E+00 -0.00000000000E+00 -0.18497147653E+03  0.18497147653E+03  0.00000000000E+00 0.  1.
         35    2    1    2    0    0  0.00000000000E+00  0.00000000000E+00 -0.81668876694E+02  0.28827407637E+03  0.27646362815E+03 0.  0.
         25    1    3    3    0    0  0.29875197635E+02  0.40750873248E+02  0.75692502213E+01  0.13042413371E+03  0.12000000000E+03 0.  0.
         25    1    3    3    0    0 -0.29875197635E+02 -0.40750873248E+02 -0.89238126916E+02  0.15784994267E+03  0.12000000000E+03 0.  0.
<mgrwt>
<rscale>  0 0.27646363E+03</rscale>
<asrwt>0</asrwt>
<pdfrwt beam="1">  1        2 0.28457150E-01 0.27646363E+03</pdfrwt>
<pdfrwt beam="2">  1       -2 0.15892708E-01 0.27646363E+03</pdfrwt>
<totfact> 0.57392737E+03</totfact>
</mgrwt>
</event>
<event>
 5    1  0.1147887E+001  0.2730705E+03  0.7818608E-02  0.1099535E+00
          2   -1    0    0  501    0  0.00000000000E+00  0.00000000000E+00  0.99929748199E+02  0.99929748199E+02  0.00000000000E+00 0.  1.
         -2   -1    0    0    0  501 -0.00000000000E+00 -0.00000000000E+00 -0.18654980268E+03  0.18654980268E+03  0.00000000000E+00 0.  1.
         35    2    1    2    0    0  0.00000000000E+00  0.00000000000E+00 -0.86620054476E+02  0.28647955087E+03  0.27307050231E+03 0.  0.
         25    1    3    3    0    0  0.50068638139E+02  0.28696518679E+02 -0.74983888461E+02  0.15281669489E+03  0.12000000000E+03 0.  0.
         25    1    3    3    0    0 -0.50068638139E+02 -0.28696518679E+02 -0.11636166015E+02  0.13366285598E+03  0.12000000000E+03 0.  0.
<mgrwt>
<rscale>  0 0.27307050E+03</rscale>
<asrwt>0</asrwt>
<pdfrwt beam="1">  1        2 0.15373808E-01 0.27307050E+03</pdfrwt>
<pdfrwt beam="2">  1       -2 0.28699969E-01 0.27307050E+03</pdfrwt>
<totfact> 0.41700120E+03</totfact>
</mgrwt>
</event>
<event>
 5    1  0.1147887E+001  0.2800661E+03  0.7818608E-02  0.1095653E+00
         -1   -1    0    0    0  501 -0.00000000000E+00  0.00000000000E+00  0.13795044498E+03  0.13795044498E+03  0.00000000000E+00 0. -1.
          1   -1    0    0  501    0  0.00000000000E+00 -0.00000000000E+00 -0.14214707248E+03  0.14214707248E+03  0.00000000000E+00 0. -1.
         35    2    1    2    0    0  0.00000000000E+00  0.00000000000E+00 -0.41966275048E+01  0.28009751746E+03  0.28006607721E+03 0.  0.
         25    1    3    3    0    0 -0.92326409797E-01  0.26716586673E+02 -0.69154087206E+02  0.14105343776E+03  0.12000000000E+03 0.  0.
         25    1    3    3    0    0  0.92326409797E-01 -0.26716586673E+02  0.64957459702E+02  0.13904407970E+03  0.12000000000E+03 0.  0.
<mgrwt>
<rscale>  0 0.28006608E+03</rscale>
<asrwt>0</asrwt>
<pdfrwt beam="1">  1        1 0.21868780E-01 0.28006608E+03</pdfrwt>
<pdfrwt beam="2">  1       -1 0.21223145E-01 0.28006608E+03</pdfrwt>
<totfact> 0.41365898E+03</totfact>
</mgrwt>
</event>
<event>
 5    1  0.1147887E+001  0.2754106E+03  0.7818608E-02  0.1098222E+00
          2   -1    0    0  501    0  0.00000000000E+00  0.00000000000E+00  0.14295799359E+04  0.14295799359E+04  0.00000000000E+00 0.  1.
         -2   -1    0    0    0  501 -0.00000000000E+00 -0.00000000000E+00 -0.13264565226E+02  0.13264565226E+02  0.00000000000E+00 0.  1.
         35    2    1    2    0    0  0.00000000000E+00  0.00000000000E+00  0.14163153706E+04  0.14428445011E+04  0.27541064834E+03 0.  0.
         25    1    3    3    0    0 -0.53754966230E+02  0.31987820070E+02  0.84171731086E+03  0.85252615703E+03  0.12000000000E+03 0.  0.
         25    1    3    3    0    0  0.53754966230E+02 -0.31987820070E+02  0.57459805978E+03  0.59031834406E+03  0.12000000000E+03 0.  0.
<mgrwt>
<rscale>  0 0.27541065E+03</rscale>
<asrwt>0</asrwt>
<pdfrwt beam="1">  1        2 0.21993525E+00 0.27541065E+03</pdfrwt>
<pdfrwt beam="2">  1       -2 0.20407035E-02 0.27541065E+03</pdfrwt>
<totfact> 0.11173626E+04</totfact>
</mgrwt>
</event>
<event>
 4    1  0.1147887E+001  0.3280228E+03  0.7818608E-02  0.1072015E+00
         -1   -1    0    0    0  501 -0.00000000000E+00  0.00000000000E+00  0.84062716876E+02  0.84062716876E+02  0.00000000000E+00 0.  1.
          1   -1    0    0  501    0  0.00000000000E+00 -0.00000000000E+00 -0.31999616706E+03  0.31999616706E+03  0.00000000000E+00 0.  1.
         25    1    1    2    0    0  0.84978868573E+02  0.65010166082E+02 -0.15791996705E+03  0.22535848285E+03  0.12000000000E+03 0.  0.
         25    1    1    2    0    0 -0.84978868573E+02 -0.65010166082E+02 -0.78013483127E+02  0.17870040108E+03  0.12000000000E+03 0.  0.
<mgrwt>
<rscale>  0 0.32802285E+03</rscale>
<asrwt>0</asrwt>
<pdfrwt beam="1">  1        1 0.49230179E-01 0.32802285E+03</pdfrwt>
<pdfrwt beam="2">  1       -1 0.12932726E-01 0.32802285E+03</pdfrwt>
<totfact> 0.32887364E+03</totfact>
</mgrwt>
</event>
<event>
 5    1  0.1147887E+001  0.2749945E+03  0.7818608E-02  0.1098455E+00
         -1   -1    0    0    0  501 -0.00000000000E+00  0.00000000000E+00  0.83009426158E+03  0.83009426158E+03  0.00000000000E+00 0.  1.
          1   -1    0    0  501    0  0.00000000000E+00 -0.00000000000E+00 -0.22775123924E+02  0.22775123924E+02  0.00000000000E+00 0.  1.
         35    2    1    2    0    0  0.00000000000E+00  0.00000000000E+00  0.80731913766E+03  0.85286938551E+03  0.27499454304E+03 0.  0.
         25    1    3    3    0    0  0.20111889382E+02  0.54161369335E+02  0.29768598614E+03  0.32612097198E+03  0.12000000000E+03 0.  0.
         25    1    3    3    0    0 -0.20111889382E+02 -0.54161369335E+02  0.50963315152E+03  0.52674841352E+03  0.12000000000E+03 0.  0.
<mgrwt>
<rscale>  0 0.27499454E+03</rscale>
<asrwt>0</asrwt>
<pdfrwt beam="1">  1        1 0.35038658E-02 0.27499454E+03</pdfrwt>
<pdfrwt beam="2">  1       -1 0.12770679E+00 0.27499454E+03</pdfrwt>
<totfact> 0.15568618E+03</totfact>
</mgrwt>
</event>
<event>
 5    1  0.1147887E+001  0.2733174E+03  0.7818608E-02  0.1099396E+00
         -1   -1    0    0    0  501 -0.00000000000E+00  0.00000000000E+00  0.36139450840E+03  0.36139450840E+03  0.00000000000E+00 0.  1.
          1   -1    0    0  501    0  0.00000000000E+00 -0.00000000000E+00 -0.51676487265E+02  0.51676487265E+02  0.00000000000E+00 0.  1.
         35    2    1    2    0    0  0.00000000000E+00  0.00000000000E+00  0.30971802114E+03  0.41307099567E+03  0.27331738848E+03 0.  0.
         25    1    3    3    0    0 -0.62831900875E+02  0.17361581232E+02  0.16261350543E+03  0.21234976906E+03  0.12000000000E+03 0.  0.
         25    1    3    3    0    0  0.62831900875E+02 -0.17361581232E+02  0.14710451571E+03  0.20072122661E+03  0.12000000000E+03 0.  0.
<mgrwt>
<rscale>  0 0.27331739E+03</rscale>
<asrwt>0</asrwt>
<pdfrwt beam="1">  1        1 0.79502291E-02 0.27331739E+03</pdfrwt>
<pdfrwt beam="2">  1       -1 0.55599153E-01 0.27331739E+03</pdfrwt>
<totfact> 0.29395174E+03</totfact>
</mgrwt>
</event>
<event>
 5    1  0.1147887E+001  0.2744443E+03  0.7818608E-02  0.1098763E+00
          2   -1    0    0  501    0  0.00000000000E+00  0.00000000000E+00  0.91363585020E+03  0.91363585020E+03  0.00000000000E+00 0. -1.
         -2   -1    0    0    0  501 -0.00000000000E+00 -0.00000000000E+00 -0.20609876052E+02  0.20609876052E+02  0.00000000000E+00 0. -1.
         35    2    1    2    0    0  0.00000000000E+00  0.00000000000E+00  0.89302597415E+03  0.93424572626E+03  0.27444432316E+03 0.  0.
         25    1    3    3    0    0 -0.77027684924E+01 -0.18022466912E+02  0.22998801964E+03  0.26015116977E+03  0.12000000000E+03 0.  0.
         25    1    3    3    0    0  0.77027684924E+01  0.18022466912E+02  0.66303795452E+03  0.67409455649E+03  0.12000000000E+03 0.  0.
<mgrwt>
<rscale>  0 0.27444432E+03</rscale>
<asrwt>0</asrwt>
<pdfrwt beam="1">  1        2 0.14055933E+00 0.27444432E+03</pdfrwt>
<pdfrwt beam="2">  1       -2 0.31707509E-02 0.27444432E+03</pdfrwt>
<totfact> 0.11571374E+04</totfact>
</mgrwt>
</event>
<event>
 5    1  0.1147887E+001  0.2778647E+03  0.7818608E-02  0.1096861E+00
         -2   -1    0    0    0  501 -0.00000000000E+00  0.00000000000E+00  0.28803791212E+03  0.28803791212E+03  0.00000000000E+00 0.  1.
          2   -1    0    0  501    0  0.00000000000E+00 -0.00000000000E+00 -0.67012699642E+02  0.67012699642E+02  0.00000000000E+00 0.  1.
         35    2    1    2    0    0  0.00000000000E+00  0.00000000000E+00  0.22102521248E+03  0.35505061176E+03  0.27786470154E+03 0.  0.
         25    1    3    3    0    0  0.65785156819E+02  0.10072814979E+02  0.82721218106E+02  0.16022468095E+03  0.12000000000E+03 0.  0.
         25    1    3    3    0    0 -0.65785156819E+02 -0.10072814979E+02  0.13830399437E+03  0.19482593082E+03  0.12000000000E+03 0.  0.
<mgrwt>
<rscale>  0 0.27786470E+03</rscale>
<asrwt>0</asrwt>
<pdfrwt beam="1">  1        2 0.10309646E-01 0.27786470E+03</pdfrwt>
<pdfrwt beam="2">  1       -2 0.44313524E-01 0.27786470E+03</pdfrwt>
<totfact> 0.30007071E+03</totfact>
</mgrwt>
</event>
<event>
 5    1  0.1147887E+001  0.2752298E+03  0.7818608E-02  0.1098323E+00
         -2   -1    0    0    0  501 -0.00000000000E+00  0.00000000000E+00  0.10941634422E+02  0.10941634422E+02  0.00000000000E+00 0.  1.
          2   -1    0    0  501    0  0.00000000000E+00 -0.00000000000E+00 -0.17308071853E+04  0.17308071853E+04  0.00000000000E+00 0.  1.
         35    2    1    2    0    0  0.00000000000E+00  0.00000000000E+00 -0.17198655509E+04  0.17417488197E+04  0.27522979109E+03 0.  0.
         25    1    3    3    0    0 -0.16352712312E+02  0.36076925164E+02 -0.12047493580E+04  0.12113587294E+04  0.12000000000E+03 0.  0.
         25    1    3    3    0    0  0.16352712312E+02 -0.36076925164E+02 -0.51511619286E+03  0.53039009028E+03  0.12000000000E+03 0.  0.
<mgrwt>
<rscale>  0 0.27522979E+03</rscale>
<asrwt>0</asrwt>
<pdfrwt beam="1">  1        2 0.26627801E+00 0.27522979E+03</pdfrwt>
<pdfrwt beam="2">  1       -2 0.16833285E-02 0.27522979E+03</pdfrwt>
<totfact> 0.10252944E+04</totfact>
</mgrwt>
</event>
<event>
 5    1  0.1147887E+001  0.2749478E+03  0.7818608E-02  0.1098481E+00
         -2   -1    0    0    0  501 -0.00000000000E+00  0.00000000000E+00  0.85969506144E+01  0.85969506144E+01  0.00000000000E+00 0. -1.
          2   -1    0    0  501    0  0.00000000000E+00 -0.00000000000E+00 -0.21983461491E+04  0.21983461491E+04  0.00000000000E+00 0. -1.
         35    2    1    2    0    0  0.00000000000E+00  0.00000000000E+00 -0.21897491985E+04  0.22069430997E+04  0.27494780070E+03 0.  0.
         25    1    3    3    0    0  0.53305563679E+02  0.14371653495E+02 -0.78911405947E+03  0.80009313608E+03  0.12000000000E+03 0.  0.
         25    1    3    3    0    0 -0.53305563679E+02 -0.14371653495E+02 -0.14006351390E+04  0.14068499637E+04  0.12000000000E+03 0.  0.
<mgrwt>
<rscale>  0 0.27494780E+03</rscale>
<asrwt>0</asrwt>
<pdfrwt beam="1">  1        2 0.33820705E+00 0.27494780E+03</pdfrwt>
<pdfrwt beam="2">  1       -2 0.13226080E-02 0.27494780E+03</pdfrwt>
<totfact> 0.82754824E+03</totfact>
</mgrwt>
</event>
<event>
 5    1  0.1147887E+001  0.2748695E+03  0.7818608E-02  0.1098525E+00
         -2   -1    0    0    0  501 -0.00000000000E+00  0.00000000000E+00  0.78945862899E+02  0.78945862899E+02  0.00000000000E+00 0. -1.
          2   -1    0    0  501    0  0.00000000000E+00 -0.00000000000E+00 -0.23925646850E+03  0.23925646850E+03  0.00000000000E+00 0. -1.
         35    2    1    2    0    0  0.00000000000E+00  0.00000000000E+00 -0.16031060560E+03  0.31820233140E+03  0.27486948437E+03 0.  0.
         25    1    3    3    0    0  0.37392771666E+02  0.91045828091E+01 -0.16672270158E+02  0.12711835978E+03  0.12000000000E+03 0.  0.
         25    1    3    3    0    0 -0.37392771666E+02 -0.91045828091E+01 -0.14363833544E+03  0.19108397162E+03  0.12000000000E+03 0.  0.
<mgrwt>
<rscale>  0 0.27486948E+03</rscale>
<asrwt>0</asrwt>
<pdfrwt beam="1">  1        2 0.36808687E-01 0.27486948E+03</pdfrwt>
<pdfrwt beam="2">  1       -2 0.12145518E-01 0.27486948E+03</pdfrwt>
<totfact> 0.67322807E+03</totfact>
</mgrwt>
</event>
<event>
 5    1  0.1147887E+001  0.2757988E+03  0.7818608E-02  0.1098006E+00
         -2   -1    0    0    0  501 -0.00000000000E+00  0.00000000000E+00  0.11202490887E+02  0.11202490887E+02  0.00000000000E+00 0. -1.
          2   -1    0    0  501    0  0.00000000000E+00 -0.00000000000E+00 -0.16975014741E+04  0.16975014741E+04  0.00000000000E+00 0. -1.
         35    2    1    2    0    0  0.00000000000E+00  0.00000000000E+00 -0.16862989832E+04  0.17087039650E+04  0.27579880199E+03 0.  0.
         25    1    3    3    0    0  0.38278179747E+02 -0.39306621725E+02 -0.10914338056E+04  0.10993807264E+04  0.12000000000E+03 0.  0.
         25    1    3    3    0    0 -0.38278179747E+02  0.39306621725E+02 -0.59486517762E+03  0.60932323860E+03  0.12000000000E+03 0.  0.
<mgrwt>
<rscale>  0 0.27579880E+03</rscale>
<asrwt>0</asrwt>
<pdfrwt beam="1">  1        2 0.26115389E+00 0.27579880E+03</pdfrwt>
<pdfrwt beam="2">  1       -2 0.17234613E-02 0.27579880E+03</pdfrwt>
<totfact> 0.10313133E+04</totfact>
</mgrwt>
</event>
<event>
 5    1  0.1147887E+001  0.2745937E+03  0.7818608E-02  0.1098679E+00
          1   -1    0    0  501    0  0.00000000000E+00  0.00000000000E+00  0.37737753647E+03  0.37737753647E+03  0.00000000000E+00 0. -1.
         -1   -1    0    0    0  501 -0.00000000000E+00 -0.00000000000E+00 -0.49951090596E+02  0.49951090596E+02  0.00000000000E+00 0. -1.
         35    2    1    2    0    0  0.00000000000E+00  0.00000000000E+00  0.32742644587E+03  0.42732862706E+03  0.27459365989E+03 0.  0.
         25    1    3    3    0    0 -0.13268890773E+02 -0.65334182123E+02  0.16746132639E+03  0.21653617401E+03  0.12000000000E+03 0.  0.
         25    1    3    3    0    0  0.13268890773E+02  0.65334182123E+02  0.15996511948E+03  0.21079245306E+03  0.12000000000E+03 0.  0.
<mgrwt>
<rscale>  0 0.27459366E+03</rscale>
<asrwt>0</asrwt>
<pdfrwt beam="1">  1        1 0.58058081E-01 0.27459366E+03</pdfrwt>
<pdfrwt beam="2">  1       -1 0.76847834E-02 0.27459366E+03</pdfrwt>
<totfact> 0.59467171E+03</totfact>
</mgrwt>
</event>
<event>
 5    1  0.1147887E+001  0.2741411E+03  0.7818608E-02  0.1098933E+00
          2   -1    0    0  501    0  0.00000000000E+00  0.00000000000E+00  0.43922856863E+03  0.43922856863E+03  0.00000000000E+00 0.  1.
         -2   -1    0    0    0  501 -0.00000000000E+00 -0.00000000000E+00 -0.42775765362E+02  0.42775765362E+02  0.00000000000E+00 0.  1.
         35    2    1    2    0    0  0.00000000000E+00  0.00000000000E+00  0.39645280327E+03  0.48200433399E+03  0.27414111835E+03 0.  0.
         25    1    3    3    0    0 -0.23329823321E+02 -0.58579274815E+02  0.23393743994E+03  0.27037481003E+03  0.12000000000E+03 0.  0.
         25    1    3    3    0    0  0.23329823321E+02  0.58579274815E+02  0.16251536333E+03  0.21162952396E+03  0.12000000000E+03 0.  0.
<mgrwt>
<rscale>  0 0.27414112E+03</rscale>
<asrwt>0</asrwt>
<pdfrwt beam="1">  1        2 0.67573623E-01 0.27414112E+03</pdfrwt>
<pdfrwt beam="2">  1       -2 0.65808873E-02 0.27414112E+03</pdfrwt>
<totfact> 0.91744765E+03</totfact>
</mgrwt>
</event>
<event>
 5    1  0.1147887E+001  0.2743369E+03  0.7818608E-02  0.1098823E+00
         -2   -1    0    0    0  501 -0.00000000000E+00  0.00000000000E+00  0.34880156242E+02  0.34880156242E+02  0.00000000000E+00 0.  1.
          2   -1    0    0  501    0  0.00000000000E+00 -0.00000000000E+00 -0.53942379094E+03  0.53942379094E+03  0.00000000000E+00 0.  1.
         35    2    1    2    0    0  0.00000000000E+00  0.00000000000E+00 -0.50454363470E+03  0.57430394718E+03  0.27433691774E+03 0.  0.
         25    1    3    3    0    0  0.15391776767E+02  0.24253059838E+02 -0.37770397938E+03  0.39734797564E+03  0.12000000000E+03 0.  0.
         25    1    3    3    0    0 -0.15391776767E+02 -0.24253059838E+02 -0.12683965531E+03  0.17695597154E+03  0.12000000000E+03 0.  0.
<mgrwt>
<rscale>  0 0.27433692E+03</rscale>
<asrwt>0</asrwt>
<pdfrwt beam="1">  1        2 0.82988272E-01 0.27433692E+03</pdfrwt>
<pdfrwt beam="2">  1       -2 0.53661781E-02 0.27433692E+03</pdfrwt>
<totfact> 0.99776504E+03</totfact>
</mgrwt>
</event>
<event>
 5    1  0.1147887E+001  0.2736789E+03  0.7818608E-02  0.1099192E+00
         -2   -1    0    0    0  501 -0.00000000000E+00  0.00000000000E+00  0.47171820992E+02  0.47171820992E+02  0.00000000000E+00 0. -1.
          2   -1    0    0  501    0  0.00000000000E+00 -0.00000000000E+00 -0.39695396303E+03  0.39695396303E+03  0.00000000000E+00 0. -1.
         35    2    1    2    0    0  0.00000000000E+00  0.00000000000E+00 -0.34978214204E+03  0.44412578402E+03  0.27367894538E+03 0.  0.
         25    1    3    3    0    0  0.32019458229E+02 -0.57266024116E+02 -0.16756182901E+03  0.21629056791E+03  0.12000000000E+03 0.  0.
         25    1    3    3    0    0 -0.32019458229E+02  0.57266024116E+02 -0.18222031303E+03  0.22783521612E+03  0.12000000000E+03 0.  0.
<mgrwt>
<rscale>  0 0.27367895E+03</rscale>
<asrwt>0</asrwt>
<pdfrwt beam="1">  1        2 0.61069840E-01 0.27367895E+03</pdfrwt>
<pdfrwt beam="2">  1       -2 0.72572033E-02 0.27367895E+03</pdfrwt>
<totfact> 0.88062456E+03</totfact>
</mgrwt>
</event>
<event>
 5    1  0.1147887E+001  0.2714454E+03  0.7818608E-02  0.1100455E+00
          1   -1    0    0  501    0  0.00000000000E+00  0.00000000000E+00  0.31224222618E+03  0.31224222618E+03  0.00000000000E+00 0.  1.
         -1   -1    0    0    0  501 -0.00000000000E+00 -0.00000000000E+00 -0.58994741232E+02  0.58994741232E+02  0.00000000000E+00 0.  1.
         35    2    1    2    0    0  0.00000000000E+00  0.00000000000E+00  0.25324748495E+03  0.37123696741E+03  0.27144538556E+03 0.  0.
         25    1    3    3    0    0  0.35922032982E+02  0.21108004704E+02  0.19199460288E+03  0.23021265789E+03  0.12000000000E+03 0.  0.
         25    1    3    3    0    0 -0.35922032982E+02 -0.21108004704E+02  0.61252882070E+02  0.14102430953E+03  0.12000000000E+03 0.  0.
<mgrwt>
<rscale>  0 0.27144539E+03</rscale>
<asrwt>0</asrwt>
<pdfrwt beam="1">  1        1 0.48037265E-01 0.27144539E+03</pdfrwt>
<pdfrwt beam="2">  1       -1 0.90761142E-02 0.27144539E+03</pdfrwt>
<totfact> 0.58576847E+03</totfact>
</mgrwt>
</event>
<event>
 5    1  0.1147887E+001  0.2750570E+03  0.7818608E-02  0.1098420E+00
          1   -1    0    0  501    0  0.00000000000E+00  0.00000000000E+00  0.35136316847E+02  0.35136316847E+02  0.00000000000E+00 0. -1.
         -1   -1    0    0    0  501 -0.00000000000E+00 -0.00000000000E+00 -0.53830611107E+03  0.53830611107E+03  0.00000000000E+00 0. -1.
         35    2    1    2    0    0  0.00000000000E+00  0.00000000000E+00 -0.50316979422E+03  0.57344242792E+03  0.27505704193E+03 0.  0.
         25    1    3    3    0    0  0.47600142582E+01  0.35967256197E+02 -0.13369075781E+03  0.18327443896E+03  0.12000000000E+03 0.  0.
         25    1    3    3    0    0 -0.47600142582E+01 -0.35967256197E+02 -0.36947903642E+03  0.39016798896E+03  0.12000000000E+03 0.  0.
<mgrwt>
<rscale>  0 0.27505704E+03</rscale>
<asrwt>0</asrwt>
<pdfrwt beam="1">  1        1 0.54055876E-02 0.27505704E+03</pdfrwt>
<pdfrwt beam="2">  1       -1 0.82816318E-01 0.27505704E+03</pdfrwt>
<totfact> 0.22618425E+03</totfact>
</mgrwt>
</event>
<event>
 5    1  0.1147887E+001  0.2756620E+03  0.7818608E-02  0.1098082E+00
          2   -1    0    0  501    0  0.00000000000E+00  0.00000000000E+00  0.19296543984E+04  0.19296543984E+04  0.00000000000E+00 0. -1.
         -2   -1    0    0    0  501 -0.00000000000E+00 -0.00000000000E+00 -0.98449690954E+01  0.98449690954E+01  0.00000000000E+00 0. -1.
         35    2    1    2    0    0  0.00000000000E+00  0.00000000000E+00  0.19198094293E+04  0.19394993675E+04  0.27566202435E+03 0.  0.
         25    1    3    3    0    0  0.64466778368E+02 -0.15570736772E+02  0.86065906527E+03  0.87151158339E+03  0.12000000000E+03 0.  0.
         25    1    3    3    0    0 -0.64466778368E+02  0.15570736772E+02  0.10591503640E+04  0.10679877841E+04  0.12000000000E+03 0.  0.
<mgrwt>
<rscale>  0 0.27566202E+03</rscale>
<asrwt>0</asrwt>
<pdfrwt beam="1">  1        2 0.29686961E+00 0.27566202E+03</pdfrwt>
<pdfrwt beam="2">  1       -2 0.15146122E-02 0.27566202E+03</pdfrwt>
<totfact> 0.94104957E+03</totfact>
</mgrwt>
</event>
<event>
 5    1  0.1147887E+001  0.2747594E+03  0.7818608E-02  0.1098586E+00
         -2   -1    0    0    0  501 -0.00000000000E+00  0.00000000000E+00  0.36629455567E+02  0.36629455567E+02  0.00000000000E+00 0.  1.
          2   -1    0    0  501    0  0.00000000000E+00 -0.00000000000E+00 -0.51524591471E+03  0.51524591471E+03  0.00000000000E+00 0.  1.
         35    2    1    2    0    0  0.00000000000E+00  0.00000000000E+00 -0.47861645915E+03  0.55187537028E+03  0.27475936628E+03 0.  0.
         25    1    3    3    0    0  0.22129729533E+02 -0.58719928090E+02 -0.19283136769E+03  0.23563041241E+03  0.12000000000E+03 0.  0.
         25    1    3    3    0    0 -0.22129729533E+02  0.58719928090E+02 -0.28578509145E+03  0.31624495787E+03  0.12000000000E+03 0.  0.
<mgrwt>
<rscale>  0 0.27475937E+03</rscale>
<asrwt>0</asrwt>
<pdfrwt beam="1">  1        2 0.79268600E-01 0.27475937E+03</pdfrwt>
<pdfrwt beam="2">  1       -2 0.56353010E-02 0.27475937E+03</pdfrwt>
<totfact> 0.97521493E+03</totfact>
</mgrwt>
</event>
<event>
 5    1  0.1147887E+001  0.2752433E+03  0.7818608E-02  0.1098316E+00
          1   -1    0    0  501    0  0.00000000000E+00  0.00000000000E+00  0.24514360657E+03  0.24514360657E+03  0.00000000000E+00 0.  1.
         -1   -1    0    0    0  501 -0.00000000000E+00 -0.00000000000E+00 -0.77259685239E+02  0.77259685239E+02  0.00000000000E+00 0.  1.
         35    2    1    2    0    0  0.00000000000E+00  0.00000000000E+00  0.16788392133E+03  0.32240329180E+03  0.27524329515E+03 0.  0.
         25    1    3    3    0    0 -0.30025150779E+02 -0.10630517852E+02  0.14395566498E+02  0.12498699902E+03  0.12000000000E+03 0.  0.
         25    1    3    3    0    0  0.30025150779E+02  0.10630517852E+02  0.15348835483E+03  0.19741629278E+03  0.12000000000E+03 0.  0.
<mgrwt>
<rscale>  0 0.27524330E+03</rscale>
<asrwt>0</asrwt>
<pdfrwt beam="1">  1        1 0.37714401E-01 0.27524330E+03</pdfrwt>
<pdfrwt beam="2">  1       -1 0.11886105E-01 0.27524330E+03</pdfrwt>
<totfact> 0.52294058E+03</totfact>
</mgrwt>
</event>
<event>
 5    1  0.1147887E+001  0.2749331E+03  0.7818608E-02  0.1098489E+00
         -1   -1    0    0    0  501 -0.00000000000E+00  0.00000000000E+00  0.44201754650E+03  0.44201754650E+03  0.00000000000E+00 0. -1.
          1   -1    0    0  501    0  0.00000000000E+00 -0.00000000000E+00 -0.42751811740E+02  0.42751811740E+02  0.00000000000E+00 0. -1.
         35    2    1    2    0    0  0.00000000000E+00  0.00000000000E+00  0.39926573476E+03  0.48476935824E+03  0.27493308956E+03 0.  0.
         25    1    3    3    0    0  0.60132191190E+02 -0.25639742607E+02  0.17325661603E+03  0.22066067120E+03  0.12000000000E+03 0.  0.
         25    1    3    3    0    0 -0.60132191190E+02  0.25639742607E+02  0.22600911874E+03  0.26410868704E+03  0.12000000000E+03 0.  0.
<mgrwt>
<rscale>  0 0.27493309E+03</rscale>
<asrwt>0</asrwt>
<pdfrwt beam="1">  1        1 0.65772021E-02 0.27493309E+03</pdfrwt>
<pdfrwt beam="2">  1       -1 0.68002696E-01 0.27493309E+03</pdfrwt>
<totfact> 0.25792810E+03</totfact>
</mgrwt>
</event>
<event>
 5    1  0.1147887E+001  0.2750996E+03  0.7818608E-02  0.1098396E+00
          2   -1    0    0  501    0  0.00000000000E+00  0.00000000000E+00  0.14796447192E+04  0.14796447192E+04  0.00000000000E+00 0.  1.
         -2   -1    0    0    0  501 -0.00000000000E+00 -0.00000000000E+00 -0.12786817179E+02  0.12786817179E+02  0.00000000000E+00 0.  1.
         35    2    1    2    0    0  0.00000000000E+00  0.00000000000E+00  0.14668579020E+04  0.14924315364E+04  0.27509959298E+03 0.  0.
         25    1    3    3    0    0  0.62586830071E+02  0.83377800867E+01  0.85871336231E+03  0.86935336226E+03  0.12000000000E+03 0.  0.
         25    1    3    3    0    0 -0.62586830071E+02 -0.83377800867E+01  0.60814453973E+03  0.62307817413E+03  0.12000000000E+03 0.  0.
<mgrwt>
<rscale>  0 0.27509959E+03</rscale>
<asrwt>0</asrwt>
<pdfrwt beam="1">  1        2 0.22763751E+00 0.27509959E+03</pdfrwt>
<pdfrwt beam="2">  1       -2 0.19672038E-02 0.27509959E+03</pdfrwt>
<totfact> 0.11083093E+04</totfact>
</mgrwt>
</event>
<event>
 5    1  0.1147887E+001  0.2748601E+03  0.7818608E-02  0.1098530E+00
         -2   -1    0    0    0  501 -0.00000000000E+00  0.00000000000E+00  0.88890343512E+01  0.88890343512E+01  0.00000000000E+00 0.  1.
          2   -1    0    0  501    0  0.00000000000E+00 -0.00000000000E+00 -0.21247542685E+04  0.21247542685E+04  0.00000000000E+00 0.  1.
         35    2    1    2    0    0  0.00000000000E+00  0.00000000000E+00 -0.21158652341E+04  0.21336433028E+04  0.27486006389E+03 0.  0.
         25    1    3    3    0    0  0.29543280563E+02 -0.59529505802E+02 -0.11230862951E+04  0.11314324521E+04  0.12000000000E+03 0.  0.
         25    1    3    3    0    0 -0.29543280563E+02  0.59529505802E+02 -0.99277893901E+03  0.10022108507E+04  0.12000000000E+03 0.  0.
<mgrwt>
<rscale>  0 0.27486006E+03</rscale>
<asrwt>0</asrwt>
<pdfrwt beam="1">  1        2 0.32688546E+00 0.27486006E+03</pdfrwt>
<pdfrwt beam="2">  1       -2 0.13675430E-02 0.27486006E+03</pdfrwt>
<totfact> 0.86228956E+03</totfact>
</mgrwt>
</event>
<event>
 5    1  0.1147887E+001  0.2752960E+03  0.7818608E-02  0.1098286E+00
         -2   -1    0    0    0  501 -0.00000000000E+00  0.00000000000E+00  0.15013908597E+02  0.15013908597E+02  0.00000000000E+00 0. -1.
          2   -1    0    0  501    0  0.00000000000E+00 -0.00000000000E+00 -0.12619611162E+04  0.12619611162E+04  0.00000000000E+00 0. -1.
         35    2    1    2    0    0  0.00000000000E+00  0.00000000000E+00 -0.12469472077E+04  0.12769750248E+04  0.27529597783E+03 0.  0.
         25    1    3    3    0    0  0.20621197526E+02  0.57661336546E+01 -0.32687859702E+03  0.34886687902E+03  0.12000000000E+03 0.  0.
         25    1    3    3    0    0 -0.20621197526E+02 -0.57661336546E+01 -0.92006861063E+03  0.92810814583E+03  0.12000000000E+03 0.  0.
<mgrwt>
<rscale>  0 0.27529598E+03</rscale>
<asrwt>0</asrwt>
<pdfrwt beam="1">  1        2 0.19414781E+00 0.27529598E+03</pdfrwt>
<pdfrwt beam="2">  1       -2 0.23098328E-02 0.27529598E+03</pdfrwt>
<totfact> 0.11504595E+04</totfact>
</mgrwt>
</event>
<event>
 5    1  0.1147887E+001  0.2734627E+03  0.7818608E-02  0.1099314E+00
         -2   -1    0    0    0  501 -0.00000000000E+00  0.00000000000E+00  0.21161098818E+02  0.21161098818E+02  0.00000000000E+00 0. -1.
          2   -1    0    0  501    0  0.00000000000E+00 -0.00000000000E+00 -0.88348248004E+03  0.88348248004E+03  0.00000000000E+00 0. -1.
         35    2    1    2    0    0  0.00000000000E+00  0.00000000000E+00 -0.86232138122E+03  0.90464357886E+03  0.27346268531E+03 0.  0.
         25    1    3    3    0    0  0.96963562307E+01 -0.31258668687E+02 -0.61900567433E+03  0.63137876789E+03  0.12000000000E+03 0.  0.
         25    1    3    3    0    0 -0.96963562307E+01  0.31258668687E+02 -0.24331570690E+03  0.27326481097E+03  0.12000000000E+03 0.  0.
<mgrwt>
<rscale>  0 0.27346269E+03</rscale>
<asrwt>0</asrwt>
<pdfrwt beam="1">  1        2 0.13592039E+00 0.27346269E+03</pdfrwt>
<pdfrwt beam="2">  1       -2 0.32555536E-02 0.27346269E+03</pdfrwt>
<totfact> 0.11633986E+04</totfact>
</mgrwt>
</event>
<event>
 5    1  0.1147887E+001  0.2782575E+03  0.7818608E-02  0.1096644E+00
         -1   -1    0    0    0  501 -0.00000000000E+00  0.00000000000E+00  0.56692318836E+02  0.56692318836E+02  0.00000000000E+00 0. -1.
          1   -1    0    0  501    0  0.00000000000E+00 -0.00000000000E+00 -0.34143619717E+03  0.34143619717E+03  0.00000000000E+00 0. -1.
         35    2    1    2    0    0  0.00000000000E+00  0.00000000000E+00 -0.28474387833E+03  0.39812851601E+03  0.27825750486E+03 0.  0.
         25    1    3    3    0    0 -0.32789386232E+02  0.56555318924E+02 -0.17976906167E+03  0.22581090205E+03  0.12000000000E+03 0.  0.
         25    1    3    3    0    0  0.32789386232E+02 -0.56555318924E+02 -0.10497481666E+03  0.17231761396E+03  0.12000000000E+03 0.  0.
<mgrwt>
<rscale>  0 0.27825750E+03</rscale>
<asrwt>0</asrwt>
<pdfrwt beam="1">  1        1 0.52528646E-01 0.27825750E+03</pdfrwt>
<pdfrwt beam="2">  1       -1 0.87218952E-02 0.27825750E+03</pdfrwt>
<totfact> 0.55669368E+03</totfact>
</mgrwt>
</event>
<event>
 5    1  0.1147887E+001  0.2749811E+03  0.7818608E-02  0.1098462E+00
          1   -1    0    0  501    0  0.00000000000E+00  0.00000000000E+00  0.20863491593E+03  0.20863491593E+03  0.00000000000E+00 0. -1.
         -1   -1    0    0    0  501 -0.00000000000E+00 -0.00000000000E+00 -0.90606365976E+02  0.90606365976E+02  0.00000000000E+00 0. -1.
         35    2    1    2    0    0  0.00000000000E+00  0.00000000000E+00  0.11802854996E+03  0.29924128191E+03  0.27498110152E+03 0.  0.
         25    1    3    3    0    0 -0.24251940386E+02 -0.73637588309E+01 -0.86070605907E+01  0.12294902622E+03  0.12000000000E+03 0.  0.
         25    1    3    3    0    0  0.24251940386E+02  0.73637588309E+01  0.12663561055E+03  0.17629225569E+03  0.12000000000E+03 0.  0.
<mgrwt>
<rscale>  0 0.27498110E+03</rscale>
<asrwt>0</asrwt>
<pdfrwt beam="1">  1        1 0.32097679E-01 0.27498110E+03</pdfrwt>
<pdfrwt beam="2">  1       -1 0.13939441E-01 0.27498110E+03</pdfrwt>
<totfact> 0.49871434E+03</totfact>
</mgrwt>
</event>
<event>
 5    1  0.1147887E+001  0.2748723E+03  0.7818608E-02  0.1098523E+00
          2   -1    0    0  501    0  0.00000000000E+00  0.00000000000E+00  0.14208605565E+04  0.14208605565E+04  0.00000000000E+00 0.  1.
         -2   -1    0    0    0  501 -0.00000000000E+00 -0.00000000000E+00 -0.13293837103E+02  0.13293837103E+02  0.00000000000E+00 0.  1.
         35    2    1    2    0    0  0.00000000000E+00  0.00000000000E+00  0.14075667194E+04  0.14341543936E+04  0.27487225240E+03 0.  0.
         25    1    3    3    0    0 -0.26620625208E+02  0.60066461580E+02  0.63534588523E+03  0.64990847923E+03  0.12000000000E+03 0.  0.
         25    1    3    3    0    0  0.26620625208E+02 -0.60066461580E+02  0.77222083415E+03  0.78424591436E+03  0.12000000000E+03 0.  0.
<mgrwt>
<rscale>  0 0.27487225E+03</rscale>
<asrwt>0</asrwt>
<pdfrwt beam="1">  1        2 0.21859381E+00 0.27487225E+03</pdfrwt>
<pdfrwt beam="2">  1       -2 0.20452068E-02 0.27487225E+03</pdfrwt>
<totfact> 0.11258526E+04</totfact>
</mgrwt>
</event>
<event>
 5    1  0.1147887E+001  0.2749684E+03  0.7818608E-02  0.1098469E+00
         -2   -1    0    0    0  501 -0.00000000000E+00  0.00000000000E+00  0.10130817894E+03  0.10130817894E+03  0.00000000000E+00 0.  1.
          2   -1    0    0  501    0  0.00000000000E+00 -0.00000000000E+00 -0.18657821700E+03  0.18657821700E+03  0.00000000000E+00 0.  1.
         35    2    1    2    0    0  0.00000000000E+00  0.00000000000E+00 -0.85270038067E+02  0.28788639594E+03  0.27496835741E+03 0.  0.
         25    1    3    3    0    0 -0.44121123318E+02  0.76489608769E+00  0.10282971696E+02  0.12826924065E+03  0.12000000000E+03 0.  0.
         25    1    3    3    0    0  0.44121123318E+02 -0.76489608769E+00 -0.95553009763E+02  0.15961715529E+03  0.12000000000E+03 0.  0.
<mgrwt>
<rscale>  0 0.27496836E+03</rscale>
<asrwt>0</asrwt>
<pdfrwt beam="1">  1        2 0.28704341E-01 0.27496836E+03</pdfrwt>
<pdfrwt beam="2">  1       -2 0.15585874E-01 0.27496836E+03</pdfrwt>
<totfact> 0.58707719E+03</totfact>
</mgrwt>
</event>
<event>
 5    1  0.1147887E+001  0.2755356E+03  0.7818608E-02  0.1098153E+00
          1   -1    0    0  501    0  0.00000000000E+00  0.00000000000E+00  0.76263606606E+03  0.76263606606E+03  0.00000000000E+00 0.  1.
         -1   -1    0    0    0  501 -0.00000000000E+00 -0.00000000000E+00 -0.24887325944E+02  0.24887325944E+02  0.00000000000E+00 0.  1.
         35    2    1    2    0    0  0.00000000000E+00  0.00000000000E+00  0.73774874012E+03  0.78752339200E+03  0.27553564091E+03 0.  0.
         25    1    3    3    0    0  0.29740850069E+02  0.47199330155E+02  0.25937768133E+03  0.29118563924E+03  0.12000000000E+03 0.  0.
         25    1    3    3    0    0 -0.29740850069E+02 -0.47199330155E+02  0.47837105879E+03  0.49633775276E+03  0.12000000000E+03 0.  0.
<mgrwt>
<rscale>  0 0.27553564E+03</rscale>
<asrwt>0</asrwt>
<pdfrwt beam="1">  1        1 0.11732861E+00 0.27553564E+03</pdfrwt>
<pdfrwt beam="2">  1       -1 0.38288200E-02 0.27553564E+03</pdfrwt>
<totfact> 0.64960819E+03</totfact>
</mgrwt>
</event>
<event>
 5    1  0.1147887E+001  0.2748586E+03  0.7818608E-02  0.1098531E+00
         -1   -1    0    0    0  501 -0.00000000000E+00  0.00000000000E+00  0.12498376841E+03  0.12498376841E+03  0.00000000000E+00 0.  1.
          1   -1    0    0  501    0  0.00000000000E+00 -0.00000000000E+00 -0.15111407977E+03  0.15111407977E+03  0.00000000000E+00 0.  1.
         35    2    1    2    0    0  0.00000000000E+00  0.00000000000E+00 -0.26130311360E+02  0.27609784819E+03  0.27485856109E+03 0.  0.
         25    1    3    3    0    0 -0.24373926369E+02 -0.56566565442E+02 -0.39507646642E+02  0.14055148080E+03  0.12000000000E+03 0.  0.
         25    1    3    3    0    0  0.24373926369E+02  0.56566565442E+02  0.13377335283E+02  0.13554636739E+03  0.12000000000E+03 0.  0.
<mgrwt>
<rscale>  0 0.27485856E+03</rscale>
<asrwt>0</asrwt>
<pdfrwt beam="1">  1        1 0.23248320E-01 0.27485856E+03</pdfrwt>
<pdfrwt beam="2">  1       -1 0.19228272E-01 0.27485856E+03</pdfrwt>
<totfact> 0.44891877E+03</totfact>
</mgrwt>
</event>
<event>
 5    1  0.1147887E+001  0.2750286E+03  0.7818608E-02  0.1098436E+00
         -2   -1    0    0    0  501 -0.00000000000E+00  0.00000000000E+00  0.49382156543E+02  0.49382156543E+02  0.00000000000E+00 0. -1.
          2   -1    0    0  501    0  0.00000000000E+00 -0.00000000000E+00 -0.38293559396E+03  0.38293559396E+03  0.00000000000E+00 0. -1.
         35    2    1    2    0    0  0.00000000000E+00  0.00000000000E+00 -0.33355343742E+03  0.43231775050E+03  0.27502861994E+03 0.  0.
         25    1    3    3    0    0 -0.17808396632E+02 -0.64406424429E+02 -0.17730481197E+03  0.22428179339E+03  0.12000000000E+03 0.  0.
         25    1    3    3    0    0  0.17808396632E+02  0.64406424429E+02 -0.15624862545E+03  0.20803595712E+03  0.12000000000E+03 0.  0.
<mgrwt>
<rscale>  0 0.27502862E+03</rscale>
<asrwt>0</asrwt>
<pdfrwt beam="1">  1        2 0.58913167E-01 0.27502862E+03</pdfrwt>
<pdfrwt beam="2">  1       -2 0.75972550E-02 0.27502862E+03</pdfrwt>
<totfact> 0.85289689E+03</totfact>
</mgrwt>
</event>
<event>
 5    1  0.1147887E+001  0.2759422E+03  0.7818608E-02  0.1097926E+00
          3   -1    0    0  501    0  0.00000000000E+00  0.00000000000E+00  0.26706425849E+03  0.26706425849E+03  0.00000000000E+00 0.  1.
         -3   -1    0    0    0  501 -0.00000000000E+00 -0.00000000000E+00 -0.71278817217E+02  0.71278817217E+02  0.00000000000E+00 0.  1.
         35    2    1    2    0    0  0.00000000000E+00  0.00000000000E+00  0.19578544128E+03  0.33834307571E+03  0.27594220023E+03 0.  0.
         25    1    3    3    0    0  0.45449768524E+02 -0.44619087230E+02  0.68376658282E+02  0.15209178742E+03  0.12000000000E+03 0.  0.
         25    1    3    3    0    0 -0.45449768524E+02  0.44619087230E+02  0.12740878299E+03  0.18625128829E+03  0.12000000000E+03 0.  0.
<mgrwt>
<rscale>  0 0.27594220E+03</rscale>
<asrwt>0</asrwt>
<pdfrwt beam="1">  1        3 0.41086808E-01 0.27594220E+03</pdfrwt>
<pdfrwt beam="2">  1       -3 0.10965972E-01 0.27594220E+03</pdfrwt>
<totfact> 0.94842318E+02</totfact>
</mgrwt>
</event>
<event>
 5    1  0.1147887E+001  0.2748178E+03  0.7818608E-02  0.1098553E+00
          1   -1    0    0  501    0  0.00000000000E+00  0.00000000000E+00  0.53065081519E+02  0.53065081519E+02  0.00000000000E+00 0.  1.
         -1   -1    0    0    0  501 -0.00000000000E+00 -0.00000000000E+00 -0.35581225828E+03  0.35581225828E+03  0.00000000000E+00 0.  1.
         35    2    1    2    0    0  0.00000000000E+00  0.00000000000E+00 -0.30274717676E+03  0.40887733980E+03  0.27481780504E+03 0.  0.
         25    1    3    3    0    0 -0.45863228998E+02 -0.29283084412E+02 -0.20938437829E+03  0.24739190100E+03  0.12000000000E+03 0.  0.
         25    1    3    3    0    0  0.45863228998E+02  0.29283084412E+02 -0.93362798470E+02  0.16148543880E+03  0.12000000000E+03 0.  0.
<mgrwt>
<rscale>  0 0.27481781E+03</rscale>
<asrwt>0</asrwt>
<pdfrwt beam="1">  1        1 0.81638587E-02 0.27481781E+03</pdfrwt>
<pdfrwt beam="2">  1       -1 0.54740347E-01 0.27481781E+03</pdfrwt>
<totfact> 0.29204024E+03</totfact>
</mgrwt>
</event>
<event>
 5    1  0.1147887E+001  0.2756445E+03  0.7818608E-02  0.1098092E+00
         -1   -1    0    0    0  501 -0.00000000000E+00  0.00000000000E+00  0.75273450470E+03  0.75273450470E+03  0.00000000000E+00 0.  1.
          1   -1    0    0  501    0  0.00000000000E+00 -0.00000000000E+00 -0.25234615847E+02  0.25234615847E+02  0.00000000000E+00 0.  1.
         35    2    1    2    0    0  0.00000000000E+00  0.00000000000E+00  0.72749988886E+03  0.77796912055E+03  0.27564445259E+03 0.  0.
         25    1    3    3    0    0  0.44876851509E+02 -0.36036456052E+01  0.22072405049E+03  0.25523719268E+03  0.12000000000E+03 0.  0.
         25    1    3    3    0    0 -0.44876851509E+02  0.36036456052E+01  0.50677583836E+03  0.52273192787E+03  0.12000000000E+03 0.  0.
<mgrwt>
<rscale>  0 0.27564445E+03</rscale>
<asrwt>0</asrwt>
<pdfrwt beam="1">  1        1 0.38822492E-02 0.27564445E+03</pdfrwt>
<pdfrwt beam="2">  1       -1 0.11580529E+00 0.27564445E+03</pdfrwt>
<totfact> 0.17052376E+03</totfact>
</mgrwt>
</event>
<event>
 5    1  0.1147887E+001  0.2760442E+03  0.7818608E-02  0.1097869E+00
         -1   -1    0    0    0  501 -0.00000000000E+00  0.00000000000E+00  0.38830622943E+02  0.38830622943E+02  0.00000000000E+00 0. -1.
          1   -1    0    0  501    0  0.00000000000E+00 -0.00000000000E+00 -0.49059486704E+03  0.49059486704E+03  0.00000000000E+00 0. -1.
         35    2    1    2    0    0  0.00000000000E+00  0.00000000000E+00 -0.45176424409E+03  0.52942548998E+03  0.27604423051E+03 0.  0.
         25    1    3    3    0    0  0.18478358508E+02 -0.61206317060E+02 -0.18039747998E+03  0.22590022967E+03  0.12000000000E+03 0.  0.
         25    1    3    3    0    0 -0.18478358508E+02  0.61206317060E+02 -0.27136676411E+03  0.30352526031E+03  0.12000000000E+03 0.  0.
<mgrwt>
<rscale>  0 0.27604423E+03</rscale>
<asrwt>0</asrwt>
<pdfrwt beam="1">  1        1 0.75476134E-01 0.27604423E+03</pdfrwt>
<pdfrwt beam="2">  1       -1 0.59739419E-02 0.27604423E+03</pdfrwt>
<totfact> 0.62008290E+03</totfact>
</mgrwt>
</event>
<event>
 5    1  0.1147887E+001  0.2728933E+03  0.7818608E-02  0.1099635E+00
         -1   -1    0    0    0  501 -0.00000000000E+00  0.00000000000E+00  0.60128148099E+02  0.60128148099E+02  0.00000000000E+00 0. -1.
          1   -1    0    0  501    0  0.00000000000E+00 -0.00000000000E+00 -0.30963345831E+03  0.30963345831E+03  0.00000000000E+00 0. -1.
         35    2    1    2    0    0  0.00000000000E+00  0.00000000000E+00 -0.24950531021E+03  0.36976160641E+03  0.27289328638E+03 0.  0.
         25    1    3    3    0    0  0.52671516379E+01  0.40547724461E+02 -0.19311914575E+03  0.23101269511E+03  0.12000000000E+03 0.  0.
         25    1    3    3    0    0 -0.52671516379E+01 -0.40547724461E+02 -0.56386164462E+02  0.13874891130E+03  0.12000000000E+03 0.  0.
<mgrwt>
<rscale>  0 0.27289329E+03</rscale>
<asrwt>0</asrwt>
<pdfrwt beam="1">  1        1 0.47635918E-01 0.27289329E+03</pdfrwt>
<pdfrwt beam="2">  1       -1 0.92504842E-02 0.27289329E+03</pdfrwt>
<totfact> 0.57501826E+03</totfact>
</mgrwt>
</event>
<event>
 5    1  0.1147887E+001  0.2737695E+03  0.7818608E-02  0.1099141E+00
          1   -1    0    0  501    0  0.00000000000E+00  0.00000000000E+00  0.48156093655E+02  0.48156093655E+02  0.00000000000E+00 0. -1.
         -1   -1    0    0    0  501 -0.00000000000E+00 -0.00000000000E+00 -0.38909787724E+03  0.38909787724E+03  0.00000000000E+00 0. -1.
         35    2    1    2    0    0  0.00000000000E+00  0.00000000000E+00 -0.34094178358E+03  0.43725397089E+03  0.27376949295E+03 0.  0.
         25    1    3    3    0    0 -0.50150862108E+02 -0.32363068860E+02 -0.12600905429E+03  0.18395857947E+03  0.12000000000E+03 0.  0.
         25    1    3    3    0    0  0.50150862108E+02  0.32363068860E+02 -0.21493272929E+03  0.25329539143E+03  0.12000000000E+03 0.  0.
<mgrwt>
<rscale>  0 0.27376949E+03</rscale>
<asrwt>0</asrwt>
<pdfrwt beam="1">  1        1 0.74086302E-02 0.27376949E+03</pdfrwt>
<pdfrwt beam="2">  1       -1 0.59861209E-01 0.27376949E+03</pdfrwt>
<totfact> 0.28111107E+03</totfact>
</mgrwt>
</event>
<event>
 5    1  0.1147887E+001  0.2749796E+03  0.7818608E-02  0.1098463E+00
         -1   -1    0    0    0  501 -0.00000000000E+00  0.00000000000E+00  0.47549630197E+02  0.47549630197E+02  0.00000000000E+00 0.  1.
          1   -1    0    0  501    0  0.00000000000E+00 -0.00000000000E+00 -0.39755175946E+03  0.39755175946E+03  0.00000000000E+00 0.  1.
         35    2    1    2    0    0  0.00000000000E+00  0.00000000000E+00 -0.35000212926E+03  0.44510138966E+03  0.27497955667E+03 0.  0.
         25    1    3    3    0    0  0.15090622497E+01  0.65112588133E+02 -0.20117716649E+03  0.24313407560E+03  0.12000000000E+03 0.  0.
         25    1    3    3    0    0 -0.15090622497E+01 -0.65112588133E+02 -0.14882496278E+03  0.20196731406E+03  0.12000000000E+03 0.  0.
<mgrwt>
<rscale>  0 0.27497956E+03</rscale>
<asrwt>0</asrwt>
<pdfrwt beam="1">  1        1 0.61161810E-01 0.27497956E+03</pdfrwt>
<pdfrwt beam="2">  1       -1 0.73153276E-02 0.27497956E+03</pdfrwt>
<totfact> 0.59974761E+03</totfact>
</mgrwt>
</event>
<event>
 5    1  0.1147887E+001  0.2737372E+03  0.7818608E-02  0.1099160E+00
          1   -1    0    0  501    0  0.00000000000E+00  0.00000000000E+00  0.78754057025E+03  0.78754057025E+03  0.00000000000E+00 0.  1.
         -1   -1    0    0    0  501 -0.00000000000E+00 -0.00000000000E+00 -0.23786730224E+02  0.23786730224E+02  0.00000000000E+00 0.  1.
         35    2    1    2    0    0  0.00000000000E+00  0.00000000000E+00  0.76375384003E+03  0.81132730048E+03  0.27373721037E+03 0.  0.
         25    1    3    3    0    0  0.54004703581E+02 -0.24367072031E+02  0.46689219375E+03  0.48569391883E+03  0.12000000000E+03 0.  0.
         25    1    3    3    0    0 -0.54004703581E+02  0.24367072031E+02  0.29686164628E+03  0.32563338165E+03  0.12000000000E+03 0.  0.
<mgrwt>
<rscale>  0 0.27373721E+03</rscale>
<asrwt>0</asrwt>
<pdfrwt beam="1">  1        1 0.12116007E+00 0.27373721E+03</pdfrwt>
<pdfrwt beam="2">  1       -1 0.36594976E-02 0.27373721E+03</pdfrwt>
<totfact> 0.66150909E+03</totfact>
</mgrwt>
</event>
<event>
 5    1  0.1147887E+001  0.2753575E+03  0.7818608E-02  0.1098252E+00
         -1   -1    0    0    0  501 -0.00000000000E+00  0.00000000000E+00  0.10481388117E+02  0.10481388117E+02  0.00000000000E+00 0.  1.
          1   -1    0    0  501    0  0.00000000000E+00 -0.00000000000E+00 -0.18084858118E+04  0.18084858118E+04  0.00000000000E+00 0.  1.
         35    2    1    2    0    0  0.00000000000E+00  0.00000000000E+00 -0.17980044237E+04  0.18189671999E+04  0.27535752540E+03 0.  0.
         25    1    3    3    0    0 -0.58321010519E+02  0.31443106507E+02 -0.81403755411E+03  0.82549812158E+03  0.12000000000E+03 0.  0.
         25    1    3    3    0    0  0.58321010519E+02 -0.31443106507E+02 -0.98396686959E+03  0.99346907837E+03  0.12000000000E+03 0.  0.
<mgrwt>
<rscale>  0 0.27535753E+03</rscale>
<asrwt>0</asrwt>
<pdfrwt beam="1">  1        1 0.27822859E+00 0.27535753E+03</pdfrwt>
<pdfrwt beam="2">  1       -1 0.16125212E-02 0.27535753E+03</pdfrwt>
<totfact> 0.42200113E+03</totfact>
</mgrwt>
</event>
<event>
 5    1  0.1147887E+001  0.2749607E+03  0.7818608E-02  0.1098474E+00
         -2   -1    0    0    0  501 -0.00000000000E+00  0.00000000000E+00  0.17635015995E+03  0.17635015995E+03  0.00000000000E+00 0. -1.
          2   -1    0    0  501    0  0.00000000000E+00 -0.00000000000E+00 -0.10717794341E+03  0.10717794341E+03  0.00000000000E+00 0. -1.
         35    2    1    2    0    0  0.00000000000E+00  0.00000000000E+00  0.69172216531E+02  0.28352810336E+03  0.27496070602E+03 0.  0.
         25    1    3    3    0    0 -0.22335966933E+02  0.56338276037E+02  0.64256803098E+02  0.14900279699E+03  0.12000000000E+03 0.  0.
         25    1    3    3    0    0  0.22335966933E+02 -0.56338276037E+02  0.49154134334E+01  0.13452530637E+03  0.12000000000E+03 0.  0.
<mgrwt>
<rscale>  0 0.27496071E+03</rscale>
<asrwt>0</asrwt>
<pdfrwt beam="1">  1        2 0.16488914E-01 0.27496071E+03</pdfrwt>
<pdfrwt beam="2">  1       -2 0.27130794E-01 0.27496071E+03</pdfrwt>
<totfact> 0.42489106E+03</totfact>
</mgrwt>
</event>
<event>
 5    1  0.1147887E+001  0.2757066E+03  0.7818608E-02  0.1098057E+00
         -1   -1    0    0    0  501 -0.00000000000E+00  0.00000000000E+00  0.67650430343E+02  0.67650430343E+02  0.00000000000E+00 0.  1.
          1   -1    0    0  501    0  0.00000000000E+00 -0.00000000000E+00 -0.28090773822E+03  0.28090773822E+03  0.00000000000E+00 0.  1.
         35    2    1    2    0    0  0.00000000000E+00  0.00000000000E+00 -0.21325730788E+03  0.34855816856E+03  0.27570657865E+03 0.  0.
         25    1    3    3    0    0 -0.21265891486E+02 -0.53766466716E+01 -0.18779991636E+03  0.22394185642E+03  0.12000000000E+03 0.  0.
         25    1    3    3    0    0  0.21265891486E+02  0.53766466716E+01 -0.25457391516E+02  0.12461631215E+03  0.12000000000E+03 0.  0.
<mgrwt>
<rscale>  0 0.27570658E+03</rscale>
<asrwt>0</asrwt>
<pdfrwt beam="1">  1        1 0.43216575E-01 0.27570658E+03</pdfrwt>
<pdfrwt beam="2">  1       -1 0.10407758E-01 0.27570658E+03</pdfrwt>
<totfact> 0.54193669E+03</totfact>
</mgrwt>
</event>
<event>
 5    1  0.1147887E+001  0.2792233E+03  0.7818608E-02  0.1096114E+00
          3   -1    0    0  501    0  0.00000000000E+00  0.00000000000E+00  0.87171363534E+02  0.87171363534E+02  0.00000000000E+00 0. -1.
         -3   -1    0    0    0  501 -0.00000000000E+00 -0.00000000000E+00 -0.22359872756E+03  0.22359872756E+03  0.00000000000E+00 0. -1.
         35    2    1    2    0    0  0.00000000000E+00  0.00000000000E+00 -0.13642736403E+03  0.31077009110E+03  0.27922325094E+03 0.  0.
         25    1    3    3    0    0 -0.14797032080E+02 -0.54479096739E+02 -0.19642793042E+02  0.13406253563E+03  0.12000000000E+03 0.  0.
         25    1    3    3    0    0  0.14797032080E+02  0.54479096739E+02 -0.11678457099E+03  0.17670755547E+03  0.12000000000E+03 0.  0.
<mgrwt>
<rscale>  0 0.27922325E+03</rscale>
<asrwt>0</asrwt>
<pdfrwt beam="1">  1        3 0.13410979E-01 0.27922325E+03</pdfrwt>
<pdfrwt beam="2">  1       -3 0.34399804E-01 0.27922325E+03</pdfrwt>
<totfact> 0.95060582E+02</totfact>
</mgrwt>
</event>
<event>
 5    1  0.1147887E+001  0.2757001E+03  0.7818608E-02  0.1098061E+00
          3   -1    0    0  501    0  0.00000000000E+00  0.00000000000E+00  0.10806711474E+03  0.10806711474E+03  0.00000000000E+00 0. -1.
         -3   -1    0    0    0  501 -0.00000000000E+00 -0.00000000000E+00 -0.17584108649E+03  0.17584108649E+03  0.00000000000E+00 0. -1.
         35    2    1    2    0    0  0.00000000000E+00  0.00000000000E+00 -0.67773971753E+02  0.28390820123E+03  0.27570011875E+03 0.  0.
         25    1    3    3    0    0 -0.37460421177E+02 -0.20018907161E+02  0.20589781363E+02  0.12894952073E+03  0.12000000000E+03 0.  0.
         25    1    3    3    0    0  0.37460421177E+02  0.20018907161E+02 -0.88363753116E+02  0.15495868050E+03  0.12000000000E+03 0.  0.
<mgrwt>
<rscale>  0 0.27570012E+03</rscale>
<asrwt>0</asrwt>
<pdfrwt beam="1">  1        3 0.16625710E-01 0.27570012E+03</pdfrwt>
<pdfrwt beam="2">  1       -3 0.27052475E-01 0.27570012E+03</pdfrwt>
<totfact> 0.10273000E+03</totfact>
</mgrwt>
</event>
<event>
 5    1  0.1147887E+001  0.2748107E+03  0.7818608E-02  0.1098557E+00
         -4   -1    0    0    0  501 -0.00000000000E+00  0.00000000000E+00  0.35604359345E+03  0.35604359345E+03  0.00000000000E+00 0. -1.
          4   -1    0    0  501    0  0.00000000000E+00 -0.00000000000E+00 -0.53027859338E+02  0.53027859338E+02  0.00000000000E+00 0. -1.
         35    2    1    2    0    0  0.00000000000E+00  0.00000000000E+00  0.30301573411E+03  0.40907145278E+03  0.27481069551E+03 0.  0.
         25    1    3    3    0    0  0.13075903469E+02 -0.11977869239E+02  0.55432122520E+02  0.13336854506E+03  0.12000000000E+03 0.  0.
         25    1    3    3    0    0 -0.13075903469E+02  0.11977869239E+02  0.24758361159E+03  0.27570290773E+03  0.12000000000E+03 0.  0.
<mgrwt>
<rscale>  0 0.27481070E+03</rscale>
<asrwt>0</asrwt>
<pdfrwt beam="1">  1        4 0.81581324E-02 0.27481070E+03</pdfrwt>
<pdfrwt beam="2">  1       -4 0.54775936E-01 0.27481070E+03</pdfrwt>
<totfact> 0.64333948E+02</totfact>
</mgrwt>
</event>
<event>
 5    1  0.1147887E+001  0.2741774E+03  0.7818608E-02  0.1098912E+00
         -2   -1    0    0    0  501 -0.00000000000E+00  0.00000000000E+00  0.97942322784E+01  0.97942322784E+01  0.00000000000E+00 0.  1.
          2   -1    0    0  501    0  0.00000000000E+00 -0.00000000000E+00 -0.19188137098E+04  0.19188137098E+04  0.00000000000E+00 0.  1.
         35    2    1    2    0    0  0.00000000000E+00  0.00000000000E+00 -0.19090194775E+04  0.19286079420E+04  0.27417736721E+03 0.  0.
         25    1    3    3    0    0 -0.17053869723E+02 -0.26048453994E+02 -0.13661104374E+04  0.13717241281E+04  0.12000000000E+03 0.  0.
         25    1    3    3    0    0  0.17053869723E+02  0.26048453994E+02 -0.54290904006E+03  0.55688381392E+03  0.12000000000E+03 0.  0.
<mgrwt>
<rscale>  0 0.27417737E+03</rscale>
<asrwt>0</asrwt>
<pdfrwt beam="1">  1        2 0.29520210E+00 0.27417737E+03</pdfrwt>
<pdfrwt beam="2">  1       -2 0.15068050E-02 0.27417737E+03</pdfrwt>
<totfact> 0.96064178E+03</totfact>
</mgrwt>
</event>
<event>
 5    1  0.1147887E+001  0.2761992E+03  0.7818608E-02  0.1097783E+00
          1   -1    0    0  501    0  0.00000000000E+00  0.00000000000E+00  0.15910612906E+04  0.15910612906E+04  0.00000000000E+00 0.  1.
         -1   -1    0    0    0  501 -0.00000000000E+00 -0.00000000000E+00 -0.11986656597E+02  0.11986656597E+02  0.00000000000E+00 0.  1.
         35    2    1    2    0    0  0.00000000000E+00  0.00000000000E+00  0.15790746340E+04  0.16030479472E+04  0.27619924196E+03 0.  0.
         25    1    3    3    0    0  0.28870847135E+02 -0.35299025282E+02  0.49405054998E+03  0.51045616162E+03  0.12000000000E+03 0.  0.
         25    1    3    3    0    0 -0.28870847135E+02  0.35299025282E+02  0.10850240840E+04  0.10925917856E+04  0.12000000000E+03 0.  0.
<mgrwt>
<rscale>  0 0.27619924E+03</rscale>
<asrwt>0</asrwt>
<pdfrwt beam="1">  1        1 0.24477849E+00 0.27619924E+03</pdfrwt>
<pdfrwt beam="2">  1       -1 0.18441023E-02 0.27619924E+03</pdfrwt>
<totfact> 0.48113942E+03</totfact>
</mgrwt>
</event>
<event>
 5    1  0.1147887E+001  0.2743285E+03  0.7818608E-02  0.1098828E+00
          1   -1    0    0  501    0  0.00000000000E+00  0.00000000000E+00  0.19006447651E+03  0.19006447651E+03  0.00000000000E+00 0.  1.
         -1   -1    0    0    0  501 -0.00000000000E+00 -0.00000000000E+00 -0.98987618967E+02  0.98987618967E+02  0.00000000000E+00 0.  1.
         35    2    1    2    0    0  0.00000000000E+00  0.00000000000E+00  0.91076857541E+02  0.28905209548E+03  0.27432848908E+03 0.  0.
         25    1    3    3    0    0  0.30125625505E+02  0.47471112868E+02  0.82412857271E+01  0.13277416413E+03  0.12000000000E+03 0.  0.
         25    1    3    3    0    0 -0.30125625505E+02 -0.47471112868E+02  0.82835571814E+02  0.15627793135E+03  0.12000000000E+03 0.  0.
<mgrwt>
<rscale>  0 0.27432849E+03</rscale>
<asrwt>0</asrwt>
<pdfrwt beam="1">  1        1 0.29240689E-01 0.27432849E+03</pdfrwt>
<pdfrwt beam="2">  1       -1 0.15228865E-01 0.27432849E+03</pdfrwt>
<totfact> 0.48756700E+03</totfact>
</mgrwt>
</event>
<event>
 5    1  0.1147887E+001  0.2747966E+03  0.7818608E-02  0.1098565E+00
         -1   -1    0    0    0  501 -0.00000000000E+00  0.00000000000E+00  0.12274715566E+02  0.12274715566E+02  0.00000000000E+00 0. -1.
          1   -1    0    0  501    0  0.00000000000E+00 -0.00000000000E+00 -0.15379822977E+04  0.15379822977E+04  0.00000000000E+00 0. -1.
         35    2    1    2    0    0  0.00000000000E+00  0.00000000000E+00 -0.15257075821E+04  0.15502570133E+04  0.27479661752E+03 0.  0.
         25    1    3    3    0    0  0.55477053011E+02 -0.14555119183E+02 -0.95736105434E+03  0.96655560795E+03  0.12000000000E+03 0.  0.
         25    1    3    3    0    0 -0.55477053011E+02  0.14555119183E+02 -0.56834652781E+03  0.58370140533E+03  0.12000000000E+03 0.  0.
<mgrwt>
<rscale>  0 0.27479662E+03</rscale>
<asrwt>0</asrwt>
<pdfrwt beam="1">  1        1 0.23661244E+00 0.27479662E+03</pdfrwt>
<pdfrwt beam="2">  1       -1 0.18884195E-02 0.27479662E+03</pdfrwt>
<totfact> 0.50368495E+03</totfact>
</mgrwt>
</event>
<event>
 5    1  0.1147887E+001  0.2752219E+03  0.7818608E-02  0.1098328E+00
         -1   -1    0    0    0  501 -0.00000000000E+00  0.00000000000E+00  0.37984721232E+02  0.37984721232E+02  0.00000000000E+00 0. -1.
          1   -1    0    0  501    0  0.00000000000E+00 -0.00000000000E+00 -0.49853673352E+03  0.49853673352E+03  0.00000000000E+00 0. -1.
         35    2    1    2    0    0  0.00000000000E+00  0.00000000000E+00 -0.46055201229E+03  0.53652145475E+03  0.27522193842E+03 0.  0.
         25    1    3    3    0    0 -0.26225214923E+02 -0.61816666609E+02 -0.24053901336E+03  0.27707053094E+03  0.12000000000E+03 0.  0.
         25    1    3    3    0    0  0.26225214923E+02  0.61816666609E+02 -0.22001299893E+03  0.25945092381E+03  0.12000000000E+03 0.  0.
<mgrwt>
<rscale>  0 0.27522194E+03</rscale>
<asrwt>0</asrwt>
<pdfrwt beam="1">  1        1 0.76697950E-01 0.27522194E+03</pdfrwt>
<pdfrwt beam="2">  1       -1 0.58438040E-02 0.27522194E+03</pdfrwt>
<totfact> 0.62745513E+03</totfact>
</mgrwt>
</event>
<event>
 5    1  0.1147887E+001  0.2745553E+03  0.7818608E-02  0.1098700E+00
          1   -1    0    0  501    0  0.00000000000E+00  0.00000000000E+00  0.61228959060E+02  0.61228959060E+02  0.00000000000E+00 0.  1.
         -1   -1    0    0    0  501 -0.00000000000E+00 -0.00000000000E+00 -0.30778163212E+03  0.30778163212E+03  0.00000000000E+00 0.  1.
         35    2    1    2    0    0  0.00000000000E+00  0.00000000000E+00 -0.24655267306E+03  0.36901059118E+03  0.27455526913E+03 0.  0.
         25    1    3    3    0    0  0.65752038827E+02  0.35815008661E+01 -0.13730785762E+03  0.19388038973E+03  0.12000000000E+03 0.  0.
         25    1    3    3    0    0 -0.65752038827E+02 -0.35815008661E+01 -0.10924481544E+03  0.17513020145E+03  0.12000000000E+03 0.  0.
<mgrwt>
<rscale>  0 0.27455527E+03</rscale>
<asrwt>0</asrwt>
<pdfrwt beam="1">  1        1 0.94198398E-02 0.27455527E+03</pdfrwt>
<pdfrwt beam="2">  1       -1 0.47351021E-01 0.27455527E+03</pdfrwt>
<totfact> 0.31492322E+03</totfact>
</mgrwt>
</event>
<event>
 5    1  0.1147887E+001  0.2748340E+03  0.7818608E-02  0.1098544E+00
          2   -1    0    0  501    0  0.00000000000E+00  0.00000000000E+00  0.34980372855E+04  0.34980372855E+04  0.00000000000E+00 0. -1.
         -2   -1    0    0    0  501 -0.00000000000E+00 -0.00000000000E+00 -0.53982916987E+01  0.53982916987E+01  0.00000000000E+00 0. -1.
         35    2    1    2    0    0  0.00000000000E+00  0.00000000000E+00  0.34926389938E+04  0.35034355772E+04  0.27483395453E+03 0.  0.
         25    1    3    3    0    0 -0.57088942222E+02  0.27468776715E+02  0.14700361825E+04  0.14762859002E+04  0.12000000000E+03 0.  0.
         25    1    3    3    0    0  0.57088942222E+02 -0.27468776715E+02  0.20226028112E+04  0.20271496770E+04  0.12000000000E+03 0.  0.
<mgrwt>
<rscale>  0 0.27483395E+03</rscale>
<asrwt>0</asrwt>
<pdfrwt beam="1">  1        2 0.53815777E+00 0.27483395E+03</pdfrwt>
<pdfrwt beam="2">  1       -2 0.83050921E-03 0.27483395E+03</pdfrwt>
<totfact> 0.28398480E+03</totfact>
</mgrwt>
</event>
<event>
 5    1  0.1147887E+001  0.2744824E+03  0.7818608E-02  0.1098741E+00
          1   -1    0    0  501    0  0.00000000000E+00  0.00000000000E+00  0.12167391784E+04  0.12167391784E+04  0.00000000000E+00 0.  1.
         -1   -1    0    0    0  501 -0.00000000000E+00 -0.00000000000E+00 -0.15480024778E+02  0.15480024778E+02  0.00000000000E+00 0.  1.
         35    2    1    2    0    0  0.00000000000E+00  0.00000000000E+00  0.12012591537E+04  0.12322192032E+04  0.27448244119E+03 0.  0.
         25    1    3    3    0    0 -0.62884046601E+02 -0.10771894353E+02  0.51489607198E+03  0.53253018878E+03  0.12000000000E+03 0.  0.
         25    1    3    3    0    0  0.62884046601E+02  0.10771894353E+02  0.68636308167E+03  0.69968901442E+03  0.12000000000E+03 0.  0.
<mgrwt>
<rscale>  0 0.27448244E+03</rscale>
<asrwt>0</asrwt>
<pdfrwt beam="1">  1        1 0.18719057E+00 0.27448244E+03</pdfrwt>
<pdfrwt beam="2">  1       -1 0.23815432E-02 0.27448244E+03</pdfrwt>
<totfact> 0.59110278E+03</totfact>
</mgrwt>
</event>
<event>
 5    1  0.1147887E+001  0.2769862E+03  0.7818608E-02  0.1097346E+00
          1   -1    0    0  501    0  0.00000000000E+00  0.00000000000E+00  0.17010127348E+04  0.17010127348E+04  0.00000000000E+00 0.  1.
         -1   -1    0    0    0  501 -0.00000000000E+00 -0.00000000000E+00 -0.11275837127E+02  0.11275837127E+02  0.00000000000E+00 0.  1.
         35    2    1    2    0    0  0.00000000000E+00  0.00000000000E+00  0.16897368976E+04  0.17122885719E+04  0.27698622744E+03 0.  0.
         25    1    3    3    0    0 -0.19530226978E+02  0.12775930895E+02  0.12471969351E+04  0.12531739102E+04  0.12000000000E+03 0.  0.
         25    1    3    3    0    0  0.19530226978E+02 -0.12775930895E+02  0.44253996253E+03  0.45911466173E+03  0.12000000000E+03 0.  0.
<mgrwt>
<rscale>  0 0.27698623E+03</rscale>
<asrwt>0</asrwt>
<pdfrwt beam="1">  1        1 0.26169406E+00 0.27698623E+03</pdfrwt>
<pdfrwt beam="2">  1       -1 0.17347455E-02 0.27698623E+03</pdfrwt>
<totfact> 0.44569332E+03</totfact>
</mgrwt>
</event>
<event>
 5    1  0.1147887E+001  0.2749998E+03  0.7818608E-02  0.1098452E+00
         -2   -1    0    0    0  501 -0.00000000000E+00  0.00000000000E+00  0.12500078228E+02  0.12500078228E+02  0.00000000000E+00 0.  1.
          2   -1    0    0  501    0  0.00000000000E+00 -0.00000000000E+00 -0.15124881904E+04  0.15124881904E+04  0.00000000000E+00 0.  1.
         35    2    1    2    0    0  0.00000000000E+00  0.00000000000E+00 -0.14999881122E+04  0.15249882687E+04  0.27499978691E+03 0.  0.
         25    1    3    3    0    0 -0.24414218928E+02 -0.60894189403E+02 -0.82882177375E+03  0.84002957628E+03  0.12000000000E+03 0.  0.
         25    1    3    3    0    0  0.24414218928E+02  0.60894189403E+02 -0.67116633846E+03  0.68495869238E+03  0.12000000000E+03 0.  0.
<mgrwt>
<rscale>  0 0.27499979E+03</rscale>
<asrwt>0</asrwt>
<pdfrwt beam="1">  1        2 0.23269035E+00 0.27499979E+03</pdfrwt>
<pdfrwt beam="2">  1       -2 0.19230901E-02 0.27499979E+03</pdfrwt>
<totfact> 0.11003982E+04</totfact>
</mgrwt>
</event>
<event>
 5    1  0.1147887E+001  0.2755937E+03  0.7818608E-02  0.1098120E+00
          2   -1    0    0  501    0  0.00000000000E+00  0.00000000000E+00  0.58323704249E+03  0.58323704249E+03  0.00000000000E+00 0. -1.
         -2   -1    0    0    0  501 -0.00000000000E+00 -0.00000000000E+00 -0.32556178345E+02  0.32556178345E+02  0.00000000000E+00 0. -1.
         35    2    1    2    0    0  0.00000000000E+00  0.00000000000E+00  0.55068086414E+03  0.61579322083E+03  0.27559368043E+03 0.  0.
         25    1    3    3    0    0 -0.52012482196E+02  0.43048833820E+02  0.26321082613E+03  0.29704955713E+03  0.12000000000E+03 0.  0.
         25    1    3    3    0    0  0.52012482196E+02 -0.43048833820E+02  0.28747003801E+03  0.31874366371E+03  0.12000000000E+03 0.  0.
<mgrwt>
<rscale>  0 0.27559368E+03</rscale>
<asrwt>0</asrwt>
<pdfrwt beam="1">  1        2 0.89728768E-01 0.27559368E+03</pdfrwt>
<pdfrwt beam="2">  1       -2 0.50086432E-02 0.27559368E+03</pdfrwt>
<totfact> 0.10136999E+04</totfact>
</mgrwt>
</event>
<event>
 4    1  0.1147887E+001  0.2946086E+03  0.7818608E-02  0.1087967E+00
          2   -1    0    0  501    0  0.00000000000E+00  0.00000000000E+00  0.22617457174E+03  0.22617457174E+03  0.00000000000E+00 0.  1.
         -2   -1    0    0    0  501 -0.00000000000E+00 -0.00000000000E+00 -0.95937188478E+02  0.95937188478E+02  0.00000000000E+00 0.  1.
         25    1    1    2    0    0  0.43775833594E+02  0.43980834135E+02  0.91803235703E+00  0.13509803907E+03  0.12000000000E+03 0.  0.
         25    1    1    2    0    0 -0.43775833594E+02 -0.43980834135E+02  0.12931935090E+03  0.18701372114E+03  0.12000000000E+03 0.  0.
<mgrwt>
<rscale>  0 0.29460857E+03</rscale>
<asrwt>0</asrwt>
<pdfrwt beam="1">  1        2 0.34796088E-01 0.29460857E+03</pdfrwt>
<pdfrwt beam="2">  1       -2 0.14759568E-01 0.29460857E+03</pdfrwt>
<totfact> 0.52161130E+03</totfact>
</mgrwt>
</event>
<event>
 5    1  0.1147887E+001  0.2740911E+03  0.7818608E-02  0.1098961E+00
         -2   -1    0    0    0  501 -0.00000000000E+00  0.00000000000E+00  0.14368018428E+02  0.14368018428E+02  0.00000000000E+00 0.  1.
          2   -1    0    0  501    0  0.00000000000E+00 -0.00000000000E+00 -0.13071726067E+04  0.13071726067E+04  0.00000000000E+00 0.  1.
         35    2    1    2    0    0  0.00000000000E+00  0.00000000000E+00 -0.12928045883E+04  0.13215406252E+04  0.27409108049E+03 0.  0.
         25    1    3    3    0    0  0.62501747786E+02  0.51377473317E+01 -0.74852506661E+03  0.76067249212E+03  0.12000000000E+03 0.  0.
         25    1    3    3    0    0 -0.62501747786E+02 -0.51377473317E+01 -0.54427952169E+03  0.56086813303E+03  0.12000000000E+03 0.  0.
<mgrwt>
<rscale>  0 0.27409108E+03</rscale>
<asrwt>0</asrwt>
<pdfrwt beam="1">  1        2 0.20110350E+00 0.27409108E+03</pdfrwt>
<pdfrwt beam="2">  1       -2 0.22104641E-02 0.27409108E+03</pdfrwt>
<totfact> 0.11584513E+04</totfact>
</mgrwt>
</event>
<event>
 5    1  0.1147887E+001  0.2792664E+03  0.7818608E-02  0.1096090E+00
         -1   -1    0    0    0  501 -0.00000000000E+00  0.00000000000E+00  0.10425047189E+03  0.10425047189E+03  0.00000000000E+00 0.  1.
          1   -1    0    0  501    0  0.00000000000E+00 -0.00000000000E+00 -0.18702480865E+03  0.18702480865E+03  0.00000000000E+00 0.  1.
         35    2    1    2    0    0  0.00000000000E+00  0.00000000000E+00 -0.82774336755E+02  0.29127528055E+03  0.27926635714E+03 0.  0.
         25    1    3    3    0    0 -0.44216203793E+02  0.53530764031E+02 -0.58740195892E+02  0.15056900740E+03  0.12000000000E+03 0.  0.
         25    1    3    3    0    0  0.44216203793E+02 -0.53530764031E+02 -0.24034140863E+02  0.14070627315E+03  0.12000000000E+03 0.  0.
<mgrwt>
<rscale>  0 0.27926636E+03</rscale>
<asrwt>0</asrwt>
<pdfrwt beam="1">  1        1 0.28773047E-01 0.27926636E+03</pdfrwt>
<pdfrwt beam="2">  1       -1 0.16038534E-01 0.27926636E+03</pdfrwt>
<totfact> 0.45847173E+03</totfact>
</mgrwt>
</event>
<event>
 5    1  0.1147887E+001  0.2747812E+03  0.7818608E-02  0.1098574E+00
         -3   -1    0    0    0  501 -0.00000000000E+00  0.00000000000E+00  0.19711761837E+03  0.19711761837E+03  0.00000000000E+00 0.  1.
          3   -1    0    0  501    0  0.00000000000E+00 -0.00000000000E+00 -0.95761013912E+02  0.95761013912E+02  0.00000000000E+00 0.  1.
         35    2    1    2    0    0  0.00000000000E+00  0.00000000000E+00  0.10135660446E+03  0.29287863228E+03  0.27478124387E+03 0.  0.
         25    1    3    3    0    0 -0.65083481462E+02 -0.21179643302E+01  0.67046738203E+02  0.15210394615E+03  0.12000000000E+03 0.  0.
         25    1    3    3    0    0  0.65083481462E+02  0.21179643302E+01  0.34309866258E+02  0.14077468613E+03  0.12000000000E+03 0.  0.
<mgrwt>
<rscale>  0 0.27478124E+03</rscale>
<asrwt>0</asrwt>
<pdfrwt beam="1">  1        3 0.14732464E-01 0.27478124E+03</pdfrwt>
<pdfrwt beam="2">  1       -3 0.30325787E-01 0.27478124E+03</pdfrwt>
<totfact> 0.10244340E+03</totfact>
</mgrwt>
</event>
<event>
 5    1  0.1147887E+001  0.2748830E+03  0.7818608E-02  0.1098517E+00
          1   -1    0    0  501    0  0.00000000000E+00  0.00000000000E+00  0.10966636529E+04  0.10966636529E+04  0.00000000000E+00 0. -1.
         -1   -1    0    0    0  501 -0.00000000000E+00 -0.00000000000E+00 -0.17225121280E+02  0.17225121280E+02  0.00000000000E+00 0. -1.
         35    2    1    2    0    0  0.00000000000E+00  0.00000000000E+00  0.10794385316E+04  0.11138887742E+04  0.27488298911E+03 0.  0.
         25    1    3    3    0    0 -0.52091546400E+02  0.17587046697E+02  0.38449557347E+03  0.40652143785E+03  0.12000000000E+03 0.  0.
         25    1    3    3    0    0  0.52091546400E+02 -0.17587046697E+02  0.69494295817E+03  0.70736733635E+03  0.12000000000E+03 0.  0.
<mgrwt>
<rscale>  0 0.27488299E+03</rscale>
<asrwt>0</asrwt>
<pdfrwt beam="1">  1        1 0.16871743E+00 0.27488299E+03</pdfrwt>
<pdfrwt beam="2">  1       -1 0.26500195E-02 0.27488299E+03</pdfrwt>
<totfact> 0.61458799E+03</totfact>
</mgrwt>
</event>
<event>
 5    1  0.1147887E+001  0.2745915E+03  0.7818608E-02  0.1098680E+00
         -2   -1    0    0    0  501 -0.00000000000E+00  0.00000000000E+00  0.93585216342E+01  0.93585216342E+01  0.00000000000E+00 0. -1.
          2   -1    0    0  501    0  0.00000000000E+00 -0.00000000000E+00 -0.20142197538E+04  0.20142197538E+04  0.00000000000E+00 0. -1.
         35    2    1    2    0    0  0.00000000000E+00  0.00000000000E+00 -0.20048612322E+04  0.20235782755E+04  0.27459147214E+03 0.  0.
         25    1    3    3    0    0 -0.22130014260E+02 -0.62907879669E+02 -0.98970842268E+03  0.99918461797E+03  0.12000000000E+03 0.  0.
         25    1    3    3    0    0  0.22130014260E+02  0.62907879669E+02 -0.10151528095E+04  0.10243936575E+04  0.12000000000E+03 0.  0.
<mgrwt>
<rscale>  0 0.27459147E+03</rscale>
<asrwt>0</asrwt>
<pdfrwt beam="1">  1        2 0.30987990E+00 0.27459147E+03</pdfrwt>
<pdfrwt beam="2">  1       -2 0.14397729E-02 0.27459147E+03</pdfrwt>
<totfact> 0.91479124E+03</totfact>
</mgrwt>
</event>
<event>
 4    1  0.1147887E+001  0.2524596E+03  0.7818608E-02  0.1111760E+00
          2   -1    0    0  501    0  0.00000000000E+00  0.00000000000E+00  0.15875058437E+04  0.15875058437E+04  0.00000000000E+00 0.  1.
         -2   -1    0    0    0  501 -0.00000000000E+00 -0.00000000000E+00 -0.10037106645E+02  0.10037106645E+02  0.00000000000E+00 0.  1.
         25    1    1    2    0    0  0.21566458086E+02 -0.94761673895E+01  0.59073478009E+03  0.60325988617E+03  0.12000000000E+03 0.  0.
         25    1    1    2    0    0 -0.21566458086E+02  0.94761673895E+01  0.98673395698E+03  0.99428306418E+03  0.12000000000E+03 0.  0.
<mgrwt>
<rscale>  0 0.25245962E+03</rscale>
<asrwt>0</asrwt>
<pdfrwt beam="1">  1        2 0.24423147E+00 0.25245962E+03</pdfrwt>
<pdfrwt beam="2">  1       -2 0.15441715E-02 0.25245962E+03</pdfrwt>
<totfact> 0.13816770E+04</totfact>
</mgrwt>
</event>
<event>
 5    1  0.1147887E+001  0.2778815E+03  0.7818608E-02  0.1096852E+00
          1   -1    0    0  501    0  0.00000000000E+00  0.00000000000E+00  0.42020276119E+03  0.42020276119E+03  0.00000000000E+00 0.  1.
         -1   -1    0    0    0  501 -0.00000000000E+00 -0.00000000000E+00 -0.45940993140E+02  0.45940993140E+02  0.00000000000E+00 0.  1.
         35    2    1    2    0    0  0.00000000000E+00  0.00000000000E+00  0.37426176805E+03  0.46614375433E+03  0.27788150114E+03 0.  0.
         25    1    3    3    0    0  0.11798862496E+02 -0.68184998282E+02  0.20520775004E+03  0.24758559696E+03  0.12000000000E+03 0.  0.
         25    1    3    3    0    0 -0.11798862496E+02  0.68184998282E+02  0.16905401801E+03  0.21855815737E+03  0.12000000000E+03 0.  0.
<mgrwt>
<rscale>  0 0.27788150E+03</rscale>
<asrwt>0</asrwt>
<pdfrwt beam="1">  1        1 0.64646576E-01 0.27788150E+03</pdfrwt>
<pdfrwt beam="2">  1       -1 0.70678454E-02 0.27788150E+03</pdfrwt>
<totfact> 0.58867457E+03</totfact>
</mgrwt>
</event>
<event>
 5    1  0.1147887E+001  0.2773797E+03  0.7818608E-02  0.1097129E+00
         -1   -1    0    0    0  501 -0.00000000000E+00  0.00000000000E+00  0.19819621243E+03  0.19819621243E+03  0.00000000000E+00 0.  1.
          1   -1    0    0  501    0  0.00000000000E+00 -0.00000000000E+00 -0.97049683383E+02  0.97049683383E+02  0.00000000000E+00 0.  1.
         35    2    1    2    0    0  0.00000000000E+00  0.00000000000E+00  0.10114652905E+03  0.29524589581E+03  0.27737973728E+03 0.  0.
         25    1    3    3    0    0 -0.38858807046E+02 -0.53701407811E+02  0.72926684606E+02  0.15528087266E+03  0.12000000000E+03 0.  0.
         25    1    3    3    0    0  0.38858807046E+02  0.53701407811E+02  0.28219844439E+02  0.13996502315E+03  0.12000000000E+03 0.  0.
<mgrwt>
<rscale>  0 0.27737974E+03</rscale>
<asrwt>0</asrwt>
<pdfrwt beam="1">  1        1 0.14930721E-01 0.27737974E+03</pdfrwt>
<pdfrwt beam="2">  1       -1 0.30491725E-01 0.27737974E+03</pdfrwt>
<totfact> 0.37069370E+03</totfact>
</mgrwt>
</event>
<event>
 5    1  0.1147887E+001  0.2766824E+03  0.7818608E-02  0.1097515E+00
          1   -1    0    0  501    0  0.00000000000E+00  0.00000000000E+00  0.15090957604E+03  0.15090957604E+03  0.00000000000E+00 0. -1.
         -1   -1    0    0    0  501 -0.00000000000E+00 -0.00000000000E+00 -0.12681957479E+03  0.12681957479E+03  0.00000000000E+00 0. -1.
         35    2    1    2    0    0  0.00000000000E+00  0.00000000000E+00  0.24090001248E+02  0.27772915082E+03  0.27668240468E+03 0.  0.
         25    1    3    3    0    0 -0.26234360699E+02 -0.49006888994E+02  0.52798739830E+02  0.14239952169E+03  0.12000000000E+03 0.  0.
         25    1    3    3    0    0  0.26234360699E+02  0.49006888994E+02 -0.28708738582E+02  0.13532962913E+03  0.12000000000E+03 0.  0.
<mgrwt>
<rscale>  0 0.27668240E+03</rscale>
<asrwt>0</asrwt>
<pdfrwt beam="1">  1        1 0.23216858E-01 0.27668240E+03</pdfrwt>
<pdfrwt beam="2">  1       -1 0.19510704E-01 0.27668240E+03</pdfrwt>
<totfact> 0.43928077E+03</totfact>
</mgrwt>
</event>
<event>
 5    1  0.1147887E+001  0.2747136E+03  0.7818608E-02  0.1098612E+00
         -1   -1    0    0    0  501 -0.00000000000E+00  0.00000000000E+00  0.18245249410E+03  0.18245249410E+03  0.00000000000E+00 0. -1.
          1   -1    0    0  501    0  0.00000000000E+00 -0.00000000000E+00 -0.10340714964E+03  0.10340714964E+03  0.00000000000E+00 0. -1.
         35    2    1    2    0    0  0.00000000000E+00  0.00000000000E+00  0.79045344455E+02  0.28585964374E+03  0.27471361349E+03 0.  0.
         25    1    3    3    0    0 -0.16550863435E+02  0.40678388113E+02  0.91947637895E+02  0.15742626990E+03  0.12000000000E+03 0.  0.
         25    1    3    3    0    0  0.16550863435E+02 -0.40678388113E+02 -0.12902293440E+02  0.12843337384E+03  0.12000000000E+03 0.  0.
<mgrwt>
<rscale>  0 0.27471361E+03</rscale>
<asrwt>0</asrwt>
<pdfrwt beam="1">  1        1 0.15908792E-01 0.27471361E+03</pdfrwt>
<pdfrwt beam="2">  1       -1 0.28069614E-01 0.27471361E+03</pdfrwt>
<totfact> 0.39242014E+03</totfact>
</mgrwt>
</event>
<event>
 5    1  0.1147887E+001  0.2758846E+03  0.7818608E-02  0.1097958E+00
          1   -1    0    0  501    0  0.00000000000E+00  0.00000000000E+00  0.14798858929E+03  0.14798858929E+03  0.00000000000E+00 0.  1.
         -1   -1    0    0    0  501 -0.00000000000E+00 -0.00000000000E+00 -0.12857799271E+03  0.12857799271E+03  0.00000000000E+00 0.  1.
         35    2    1    2    0    0  0.00000000000E+00  0.00000000000E+00  0.19410596588E+02  0.27656658200E+03  0.27588458278E+03 0.  0.
         25    1    3    3    0    0 -0.13162266140E+02 -0.62377117513E+02 -0.14100525815E+02  0.13661249894E+03  0.12000000000E+03 0.  0.
         25    1    3    3    0    0  0.13162266140E+02  0.62377117513E+02  0.33511122403E+02  0.13995408306E+03  0.12000000000E+03 0.  0.
<mgrwt>
<rscale>  0 0.27588458E+03</rscale>
<asrwt>0</asrwt>
<pdfrwt beam="1">  1        1 0.22767475E-01 0.27588458E+03</pdfrwt>
<pdfrwt beam="2">  1       -1 0.19781230E-01 0.27588458E+03</pdfrwt>
<totfact> 0.44040148E+03</totfact>
</mgrwt>
</event>
<event>
 5    1  0.1147887E+001  0.2754875E+03  0.7818608E-02  0.1098179E+00
          2   -1    0    0  501    0  0.00000000000E+00  0.00000000000E+00  0.64431346178E+03  0.64431346178E+03  0.00000000000E+00 0. -1.
         -2   -1    0    0    0  501 -0.00000000000E+00 -0.00000000000E+00 -0.29447386076E+02  0.29447386076E+02  0.00000000000E+00 0. -1.
         35    2    1    2    0    0  0.00000000000E+00  0.00000000000E+00  0.61486607570E+03  0.67376084786E+03  0.27548754791E+03 0.  0.
         25    1    3    3    0    0  0.38377294319E+01  0.57402380390E+01  0.14290300690E+03  0.18673228934E+03  0.12000000000E+03 0.  0.
         25    1    3    3    0    0 -0.38377294319E+01 -0.57402380390E+01  0.47196306880E+03  0.48702855852E+03  0.12000000000E+03 0.  0.
<mgrwt>
<rscale>  0 0.27548755E+03</rscale>
<asrwt>0</asrwt>
<pdfrwt beam="1">  1        2 0.99125137E-01 0.27548755E+03</pdfrwt>
<pdfrwt beam="2">  1       -2 0.45303676E-02 0.27548755E+03</pdfrwt>
<totfact> 0.10506609E+04</totfact>
</mgrwt>
</event>
<event>
 5    1  0.1147887E+001  0.2748171E+03  0.7818608E-02  0.1098554E+00
          2   -1    0    0  501    0  0.00000000000E+00  0.00000000000E+00  0.32928204704E+02  0.32928204704E+02  0.00000000000E+00 0. -1.
         -2   -1    0    0    0  501 -0.00000000000E+00 -0.00000000000E+00 -0.57340243963E+03  0.57340243963E+03  0.00000000000E+00 0. -1.
         35    2    1    2    0    0  0.00000000000E+00  0.00000000000E+00 -0.54047423493E+03  0.60633064433E+03  0.27481712399E+03 0.  0.
         25    1    3    3    0    0 -0.64384359679E+02 -0.16410968227E+02 -0.28822186180E+03  0.31919665924E+03  0.12000000000E+03 0.  0.
         25    1    3    3    0    0  0.64384359679E+02  0.16410968227E+02 -0.25225237312E+03  0.28713398509E+03  0.12000000000E+03 0.  0.
<mgrwt>
<rscale>  0 0.27481712E+03</rscale>
<asrwt>0</asrwt>
<pdfrwt beam="1">  1        2 0.50658779E-02 0.27481712E+03</pdfrwt>
<pdfrwt beam="2">  1       -2 0.88215756E-01 0.27481712E+03</pdfrwt>
<totfact> 0.17650314E+03</totfact>
</mgrwt>
</event>
<event>
 5    1  0.1147887E+001  0.2753345E+03  0.7818608E-02  0.1098265E+00
          1   -1    0    0  501    0  0.00000000000E+00  0.00000000000E+00  0.74283904272E+03  0.74283904272E+03  0.00000000000E+00 0.  1.
         -1   -1    0    0    0  501 -0.00000000000E+00 -0.00000000000E+00 -0.25513293125E+02  0.25513293125E+02  0.00000000000E+00 0.  1.
         35    2    1    2    0    0  0.00000000000E+00  0.00000000000E+00  0.71732574960E+03  0.76835233584E+03  0.27533448924E+03 0.  0.
         25    1    3    3    0    0 -0.37197704200E+01 -0.57655894259E+02  0.45590412436E+03  0.47495958717E+03  0.12000000000E+03 0.  0.
         25    1    3    3    0    0  0.37197704200E+01  0.57655894259E+02  0.26142162523E+03  0.29339274867E+03  0.12000000000E+03 0.  0.
<mgrwt>
<rscale>  0 0.27533449E+03</rscale>
<asrwt>0</asrwt>
<pdfrwt beam="1">  1        1 0.11428291E+00 0.27533449E+03</pdfrwt>
<pdfrwt beam="2">  1       -1 0.39251226E-02 0.27533449E+03</pdfrwt>
<totfact> 0.65125003E+03</totfact>
</mgrwt>
</event>
<event>
 5    1  0.1147887E+001  0.2746766E+03  0.7818608E-02  0.1098633E+00
          1   -1    0    0  501    0  0.00000000000E+00  0.00000000000E+00  0.10006007929E+03  0.10006007929E+03  0.00000000000E+00 0.  1.
         -1   -1    0    0    0  501 -0.00000000000E+00 -0.00000000000E+00 -0.18850476882E+03  0.18850476882E+03  0.00000000000E+00 0.  1.
         35    2    1    2    0    0  0.00000000000E+00  0.00000000000E+00 -0.88444689531E+02  0.28856484811E+03  0.27467655244E+03 0.  0.
         25    1    3    3    0    0 -0.29316443342E+02  0.38208948760E+01 -0.10714874174E+03  0.16356926956E+03  0.12000000000E+03 0.  0.
         25    1    3    3    0    0  0.29316443342E+02 -0.38208948760E+01  0.18704052209E+02  0.12499557855E+03  0.12000000000E+03 0.  0.
<mgrwt>
<rscale>  0 0.27467655E+03</rscale>
<asrwt>0</asrwt>
<pdfrwt beam="1">  1        1 0.15393859E-01 0.27467655E+03</pdfrwt>
<pdfrwt beam="2">  1       -1 0.29000733E-01 0.27467655E+03</pdfrwt>
<totfact> 0.38769881E+03</totfact>
</mgrwt>
</event>
<event>
 5    1  0.1147887E+001  0.2756974E+03  0.7818608E-02  0.1098062E+00
          3   -1    0    0  501    0  0.00000000000E+00  0.00000000000E+00  0.21452167002E+03  0.21452167002E+03  0.00000000000E+00 0. -1.
         -3   -1    0    0    0  501 -0.00000000000E+00 -0.00000000000E+00 -0.88579712783E+02  0.88579712783E+02  0.00000000000E+00 0. -1.
         35    2    1    2    0    0  0.00000000000E+00  0.00000000000E+00  0.12594195724E+03  0.30310138280E+03  0.27569742774E+03 0.  0.
         25    1    3    3    0    0  0.75387328417E+01 -0.55453803267E+02  0.20814936920E+02  0.13403439256E+03  0.12000000000E+03 0.  0.
         25    1    3    3    0    0 -0.75387328417E+01  0.55453803267E+02  0.10512702032E+03  0.16906699024E+03  0.12000000000E+03 0.  0.
<mgrwt>
<rscale>  0 0.27569743E+03</rscale>
<asrwt>0</asrwt>
<pdfrwt beam="1">  1        3 0.33003334E-01 0.27569743E+03</pdfrwt>
<pdfrwt beam="2">  1       -3 0.13627648E-01 0.27569743E+03</pdfrwt>
<totfact> 0.99943774E+02</totfact>
</mgrwt>
</event>
<event>
 5    1  0.1147887E+001  0.2747563E+03  0.7818608E-02  0.1098588E+00
          2   -1    0    0  501    0  0.00000000000E+00  0.00000000000E+00  0.86109769938E+03  0.86109769938E+03  0.00000000000E+00 0. -1.
         -2   -1    0    0    0  501 -0.00000000000E+00 -0.00000000000E+00 -0.21917088354E+02  0.21917088354E+02  0.00000000000E+00 0. -1.
         35    2    1    2    0    0  0.00000000000E+00  0.00000000000E+00  0.83918061102E+03  0.88301478773E+03  0.27475628734E+03 0.  0.
         25    1    3    3    0    0  0.47658044078E+02 -0.42199596395E+00  0.26880511714E+03  0.29820740810E+03  0.12000000000E+03 0.  0.
         25    1    3    3    0    0 -0.47658044078E+02  0.42199596395E+00  0.57037549389E+03  0.58480737963E+03  0.12000000000E+03 0.  0.
<mgrwt>
<rscale>  0 0.27475629E+03</rscale>
<asrwt>0</asrwt>
<pdfrwt beam="1">  1        2 0.13247654E+00 0.27475629E+03</pdfrwt>
<pdfrwt beam="2">  1       -2 0.33718604E-02 0.27475629E+03</pdfrwt>
<totfact> 0.11422001E+04</totfact>
</mgrwt>
</event>
<event>
 5    1  0.1147887E+001  0.2760021E+03  0.7818608E-02  0.1097893E+00
         -2   -1    0    0    0  501 -0.00000000000E+00  0.00000000000E+00  0.15249081686E+02  0.15249081686E+02  0.00000000000E+00 0. -1.
          2   -1    0    0  501    0  0.00000000000E+00 -0.00000000000E+00 -0.12488808905E+04  0.12488808905E+04  0.00000000000E+00 0. -1.
         35    2    1    2    0    0  0.00000000000E+00  0.00000000000E+00 -0.12336318088E+04  0.12641299722E+04  0.27600207764E+03 0.  0.
         25    1    3    3    0    0  0.65590184018E+02  0.18390164473E+02 -0.60763693576E+03  0.62310746752E+03  0.12000000000E+03 0.  0.
         25    1    3    3    0    0 -0.65590184018E+02 -0.18390164473E+02 -0.62599487307E+03  0.64102250467E+03  0.12000000000E+03 0.  0.
<mgrwt>
<rscale>  0 0.27600208E+03</rscale>
<asrwt>0</asrwt>
<pdfrwt beam="1">  1        2 0.19213555E+00 0.27600208E+03</pdfrwt>
<pdfrwt beam="2">  1       -2 0.23460122E-02 0.27600208E+03</pdfrwt>
<totfact> 0.11435423E+04</totfact>
</mgrwt>
</event>
<event>
 5    1  0.1147887E+001  0.2754750E+03  0.7818608E-02  0.1098186E+00
          1   -1    0    0  501    0  0.00000000000E+00  0.00000000000E+00  0.24485761618E+04  0.24485761618E+04  0.00000000000E+00 0. -1.
         -1   -1    0    0    0  501 -0.00000000000E+00 -0.00000000000E+00 -0.77480218869E+01  0.77480218869E+01  0.00000000000E+00 0. -1.
         35    2    1    2    0    0  0.00000000000E+00  0.00000000000E+00  0.24408281399E+04  0.24563241837E+04  0.27547502024E+03 0.  0.
         25    1    3    3    0    0  0.57103136003E+02  0.35094591572E+02  0.12997791824E+04  0.13070265191E+04  0.12000000000E+03 0.  0.
         25    1    3    3    0    0 -0.57103136003E+02 -0.35094591572E+02  0.11410489575E+04  0.11492976646E+04  0.12000000000E+03 0.  0.
<mgrwt>
<rscale>  0 0.27547502E+03</rscale>
<asrwt>0</asrwt>
<pdfrwt beam="1">  1        1 0.37670341E+00 0.27547502E+03</pdfrwt>
<pdfrwt beam="2">  1       -1 0.11920053E-02 0.27547502E+03</pdfrwt>
<totfact> 0.25012039E+03</totfact>
</mgrwt>
</event>
<event>
 5    1  0.1147887E+001  0.2750956E+03  0.7818608E-02  0.1098398E+00
         -2   -1    0    0    0  501 -0.00000000000E+00  0.00000000000E+00  0.12875506931E+02  0.12875506931E+02  0.00000000000E+00 0.  1.
          2   -1    0    0  501    0  0.00000000000E+00 -0.00000000000E+00 -0.14694094537E+04  0.14694094537E+04  0.00000000000E+00 0.  1.
         35    2    1    2    0    0  0.00000000000E+00  0.00000000000E+00 -0.14565339467E+04  0.14822849606E+04  0.27509555871E+03 0.  0.
         25    1    3    3    0    0 -0.25197293474E+02  0.89290323810E+01 -0.39590465556E+03  0.41455413098E+03  0.12000000000E+03 0.  0.
         25    1    3    3    0    0  0.25197293474E+02 -0.89290323810E+01 -0.10606292912E+04  0.10677308296E+04  0.12000000000E+03 0.  0.
<mgrwt>
<rscale>  0 0.27509556E+03</rscale>
<asrwt>0</asrwt>
<pdfrwt beam="1">  1        2 0.22606286E+00 0.27509556E+03</pdfrwt>
<pdfrwt beam="2">  1       -2 0.19808484E-02 0.27509556E+03</pdfrwt>
<totfact> 0.11110732E+04</totfact>
</mgrwt>
</event>
<event>
 5    1  0.1147887E+001  0.2746128E+03  0.7818608E-02  0.1098668E+00
          2   -1    0    0  501    0  0.00000000000E+00  0.00000000000E+00  0.10592881369E+04  0.10592881369E+04  0.00000000000E+00 0.  1.
         -2   -1    0    0    0  501 -0.00000000000E+00 -0.00000000000E+00 -0.17797842212E+02  0.17797842212E+02  0.00000000000E+00 0.  1.
         35    2    1    2    0    0  0.00000000000E+00  0.00000000000E+00  0.10414902947E+04  0.10770859791E+04  0.27461276822E+03 0.  0.
         25    1    3    3    0    0 -0.15556642997E+02 -0.39106122407E+01  0.26668649684E+03  0.29288050401E+03  0.12000000000E+03 0.  0.
         25    1    3    3    0    0  0.15556642997E+02  0.39106122407E+01  0.77480379783E+03  0.78420547509E+03  0.12000000000E+03 0.  0.
<mgrwt>
<rscale>  0 0.27461277E+03</rscale>
<asrwt>0</asrwt>
<pdfrwt beam="1">  1        2 0.16296736E+00 0.27461277E+03</pdfrwt>
<pdfrwt beam="2">  1       -2 0.27381304E-02 0.27461277E+03</pdfrwt>
<totfact> 0.11701542E+04</totfact>
</mgrwt>
</event>
<event>
 5    1  0.1147887E+001  0.2752019E+03  0.7818608E-02  0.1098339E+00
          2   -1    0    0  501    0  0.00000000000E+00  0.00000000000E+00  0.32981216358E+03  0.32981216358E+03  0.00000000000E+00 0.  1.
         -2   -1    0    0    0  501 -0.00000000000E+00 -0.00000000000E+00 -0.57408515196E+02  0.57408515196E+02  0.00000000000E+00 0.  1.
         35    2    1    2    0    0  0.00000000000E+00  0.00000000000E+00  0.27240364839E+03  0.38722067878E+03  0.27520193753E+03 0.  0.
         25    1    3    3    0    0  0.54996751034E+02 -0.70018579777E+01  0.82432235219E+02  0.15578428047E+03  0.12000000000E+03 0.  0.
         25    1    3    3    0    0 -0.54996751034E+02  0.70018579777E+01  0.18997141317E+03  0.23143639831E+03  0.12000000000E+03 0.  0.
<mgrwt>
<rscale>  0 0.27520194E+03</rscale>
<asrwt>0</asrwt>
<pdfrwt beam="1">  1        2 0.50740332E-01 0.27520194E+03</pdfrwt>
<pdfrwt beam="2">  1       -2 0.88320795E-02 0.27520194E+03</pdfrwt>
<totfact> 0.79177897E+03</totfact>
</mgrwt>
</event>
<event>
 5    1  0.1147887E+001  0.2740210E+03  0.7818608E-02  0.1099000E+00
         -2   -1    0    0    0  501 -0.00000000000E+00  0.00000000000E+00  0.19542526822E+02  0.19542526822E+02  0.00000000000E+00 0.  1.
          2   -1    0    0  501    0  0.00000000000E+00 -0.00000000000E+00 -0.96056554755E+03  0.96056554755E+03  0.00000000000E+00 0.  1.
         35    2    1    2    0    0  0.00000000000E+00  0.00000000000E+00 -0.94102302072E+03  0.98010807437E+03  0.27402100633E+03 0.  0.
         25    1    3    3    0    0  0.55602307086E+02 -0.35204322664E+02 -0.49339079691E+03  0.51202093645E+03  0.12000000000E+03 0.  0.
         25    1    3    3    0    0 -0.55602307086E+02  0.35204322664E+02 -0.44763222382E+03  0.46808713792E+03  0.12000000000E+03 0.  0.
<mgrwt>
<rscale>  0 0.27402101E+03</rscale>
<asrwt>0</asrwt>
<pdfrwt beam="1">  1        2 0.14777929E+00 0.27402101E+03</pdfrwt>
<pdfrwt beam="2">  1       -2 0.30065431E-02 0.27402101E+03</pdfrwt>
<totfact> 0.11697260E+04</totfact>
</mgrwt>
</event>
<event>
 5    1  0.1147887E+001  0.2769298E+03  0.7818608E-02  0.1097378E+00
         -1   -1    0    0    0  501 -0.00000000000E+00  0.00000000000E+00  0.66301839854E+01  0.66301839854E+01  0.00000000000E+00 0.  1.
          1   -1    0    0  501    0  0.00000000000E+00 -0.00000000000E+00 -0.28917038705E+04  0.28917038705E+04  0.00000000000E+00 0.  1.
         35    2    1    2    0    0  0.00000000000E+00  0.00000000000E+00 -0.28850736865E+04  0.28983340545E+04  0.27692980116E+03 0.  0.
         25    1    3    3    0    0 -0.54101797248E+02  0.10496310320E+02 -0.10065508890E+04  0.10151757824E+04  0.12000000000E+03 0.  0.
         25    1    3    3    0    0  0.54101797248E+02 -0.10496310320E+02 -0.18785227975E+04  0.18831582721E+04  0.12000000000E+03 0.  0.
<mgrwt>
<rscale>  0 0.27692980E+03</rscale>
<asrwt>0</asrwt>
<pdfrwt beam="1">  1        1 0.44487734E+00 0.27692980E+03</pdfrwt>
<pdfrwt beam="2">  1       -1 0.10200287E-02 0.27692980E+03</pdfrwt>
<totfact> 0.15731259E+03</totfact>
</mgrwt>
</event>
<event>
 5    1  0.1147887E+001  0.2746085E+03  0.7818608E-02  0.1098671E+00
         -2   -1    0    0    0  501 -0.00000000000E+00  0.00000000000E+00  0.28598542812E+02  0.28598542812E+02  0.00000000000E+00 0.  1.
          2   -1    0    0  501    0  0.00000000000E+00 -0.00000000000E+00 -0.65921041191E+03  0.65921041191E+03  0.00000000000E+00 0.  1.
         35    2    1    2    0    0  0.00000000000E+00  0.00000000000E+00 -0.63061186910E+03  0.68780895472E+03  0.27460850087E+03 0.  0.
         25    1    3    3    0    0  0.46841671706E+02 -0.30249933115E+02 -0.22350791160E+03  0.25974023025E+03  0.12000000000E+03 0.  0.
         25    1    3    3    0    0 -0.46841671706E+02  0.30249933115E+02 -0.40710395750E+03  0.42806872447E+03  0.12000000000E+03 0.  0.
<mgrwt>
<rscale>  0 0.27460850E+03</rscale>
<asrwt>0</asrwt>
<pdfrwt beam="1">  1        2 0.10141697E+00 0.27460850E+03</pdfrwt>
<pdfrwt beam="2">  1       -2 0.43997764E-02 0.27460850E+03</pdfrwt>
<totfact> 0.10686219E+04</totfact>
</mgrwt>
</event>
<event>
 5    1  0.1147887E+001  0.2748052E+03  0.7818608E-02  0.1098561E+00
         -2   -1    0    0    0  501 -0.00000000000E+00  0.00000000000E+00  0.20864928919E+03  0.20864928919E+03  0.00000000000E+00 0.  1.
          2   -1    0    0  501    0  0.00000000000E+00 -0.00000000000E+00 -0.90484262914E+02  0.90484262914E+02  0.00000000000E+00 0.  1.
         35    2    1    2    0    0  0.00000000000E+00  0.00000000000E+00  0.11816502627E+03  0.29913355210E+03  0.27480521931E+03 0.  0.
         25    1    3    3    0    0  0.62814905082E+02  0.12641754146E+02  0.38032739132E+02  0.14125160351E+03  0.12000000000E+03 0.  0.
         25    1    3    3    0    0 -0.62814905082E+02 -0.12641754146E+02  0.80132287141E+02  0.15788194859E+03  0.12000000000E+03 0.  0.
<mgrwt>
<rscale>  0 0.27480522E+03</rscale>
<asrwt>0</asrwt>
<pdfrwt beam="1">  1        2 0.13920656E-01 0.27480522E+03</pdfrwt>
<pdfrwt beam="2">  1       -2 0.32099890E-01 0.27480522E+03</pdfrwt>
<totfact> 0.38284168E+03</totfact>
</mgrwt>
</event>
<event>
 4    1  0.1147887E+001  0.3243219E+03  0.7818608E-02  0.1073677E+00
          1   -1    0    0  501    0  0.00000000000E+00  0.00000000000E+00  0.11041409214E+02  0.11041409214E+02  0.00000000000E+00 0. -1.
         -1   -1    0    0    0  501 -0.00000000000E+00 -0.00000000000E+00 -0.23815954340E+04  0.23815954340E+04  0.00000000000E+00 0. -1.
         25    1    1    2    0    0  0.73821347855E+02 -0.65533932358E+02 -0.15275004719E+04  0.15353833330E+04  0.12000000000E+03 0.  0.
         25    1    1    2    0    0 -0.73821347855E+02  0.65533932358E+02 -0.84305355288E+03  0.85725351017E+03  0.12000000000E+03 0.  0.
<mgrwt>
<rscale>  0 0.32432188E+03</rscale>
<asrwt>0</asrwt>
<pdfrwt beam="1">  1        1 0.16986774E-02 0.32432188E+03</pdfrwt>
<pdfrwt beam="2">  1       -1 0.36639951E+00 0.32432188E+03</pdfrwt>
<totfact> 0.11083659E+02</totfact>
</mgrwt>
</event>
<event>
 5    1  0.1147887E+001  0.2658365E+03  0.7818608E-02  0.1103686E+00
          1   -1    0    0  501    0  0.00000000000E+00  0.00000000000E+00  0.26022071825E+04  0.26022071825E+04  0.00000000000E+00 0. -1.
         -1   -1    0    0    0  501 -0.00000000000E+00 -0.00000000000E+00 -0.67893378059E+01  0.67893378059E+01  0.00000000000E+00 0. -1.
         35    2    1    2    0    0  0.00000000000E+00  0.00000000000E+00  0.25954178447E+04  0.26089965203E+04  0.26583651821E+03 0.  0.
         25    1    3    3    0    0  0.11446361493E+02 -0.98932685549E+01  0.18386861966E+04  0.18426599864E+04  0.12000000000E+03 0.  0.
         25    1    3    3    0    0 -0.11446361493E+02  0.98932685549E+01  0.75673164808E+03  0.76633653389E+03  0.12000000000E+03 0.  0.
<mgrwt>
<rscale>  0 0.26583652E+03</rscale>
<asrwt>0</asrwt>
<pdfrwt beam="1">  1        1 0.40033877E+00 0.26583652E+03</pdfrwt>
<pdfrwt beam="2">  1       -1 0.10445156E-02 0.26583652E+03</pdfrwt>
<totfact> 0.23942010E+03</totfact>
</mgrwt>
</event>
<event>
 5    1  0.1147887E+001  0.2734099E+03  0.7818608E-02  0.1099344E+00
          1   -1    0    0  501    0  0.00000000000E+00  0.00000000000E+00  0.42488180980E+03  0.42488180980E+03  0.00000000000E+00 0.  1.
         -1   -1    0    0    0  501 -0.00000000000E+00 -0.00000000000E+00 -0.43984568196E+02  0.43984568196E+02  0.00000000000E+00 0.  1.
         35    2    1    2    0    0  0.00000000000E+00  0.00000000000E+00  0.38089724161E+03  0.46886637800E+03  0.27340989696E+03 0.  0.
         25    1    3    3    0    0  0.41388689409E+02  0.23322963423E+02  0.11315965795E+03  0.17164525167E+03  0.12000000000E+03 0.  0.
         25    1    3    3    0    0 -0.41388689409E+02 -0.23322963423E+02  0.26773758365E+03  0.29722112633E+03  0.12000000000E+03 0.  0.
<mgrwt>
<rscale>  0 0.27340990E+03</rscale>
<asrwt>0</asrwt>
<pdfrwt beam="1">  1        1 0.65366430E-01 0.27340990E+03</pdfrwt>
<pdfrwt beam="2">  1       -1 0.67668569E-02 0.27340990E+03</pdfrwt>
<totfact> 0.61961447E+03</totfact>
</mgrwt>
</event>
<event>
 5    1  0.1147887E+001  0.2748197E+03  0.7818608E-02  0.1098552E+00
         -1   -1    0    0    0  501 -0.00000000000E+00  0.00000000000E+00  0.10759509004E+02  0.10759509004E+02  0.00000000000E+00 0. -1.
          1   -1    0    0  501    0  0.00000000000E+00 -0.00000000000E+00 -0.17548626945E+04  0.17548626945E+04  0.00000000000E+00 0. -1.
         35    2    1    2    0    0  0.00000000000E+00  0.00000000000E+00 -0.17441031855E+04  0.17656222035E+04  0.27481965696E+03 0.  0.
         25    1    3    3    0    0  0.47211938899E+02 -0.74635292721E+01 -0.57092839592E+03  0.58535792872E+03  0.12000000000E+03 0.  0.
         25    1    3    3    0    0 -0.47211938899E+02  0.74635292721E+01 -0.11731747896E+04  0.11802642748E+04  0.12000000000E+03 0.  0.
<mgrwt>
<rscale>  0 0.27481966E+03</rscale>
<asrwt>0</asrwt>
<pdfrwt beam="1">  1        1 0.26997872E+00 0.27481966E+03</pdfrwt>
<pdfrwt beam="2">  1       -1 0.16553101E-02 0.27481966E+03</pdfrwt>
<totfact> 0.44016490E+03</totfact>
</mgrwt>
</event>
<event>
 5    1  0.1147887E+001  0.2746984E+03  0.7818608E-02  0.1098620E+00
          3   -1    0    0  501    0  0.00000000000E+00  0.00000000000E+00  0.11494587949E+04  0.11494587949E+04  0.00000000000E+00 0. -1.
         -3   -1    0    0    0  501 -0.00000000000E+00 -0.00000000000E+00 -0.16411897693E+02  0.16411897693E+02  0.00000000000E+00 0. -1.
         35    2    1    2    0    0  0.00000000000E+00  0.00000000000E+00  0.11330468972E+04  0.11658706926E+04  0.27469838109E+03 0.  0.
         25    1    3    3    0    0 -0.66396482452E+02 -0.44441806201E+01  0.59218463378E+03  0.60787406928E+03  0.12000000000E+03 0.  0.
         25    1    3    3    0    0  0.66396482452E+02  0.44441806201E+01  0.54086226340E+03  0.55799662328E+03  0.12000000000E+03 0.  0.
<mgrwt>
<rscale>  0 0.27469838E+03</rscale>
<asrwt>0</asrwt>
<pdfrwt beam="1">  1        3 0.17683975E+00 0.27469838E+03</pdfrwt>
<pdfrwt beam="2">  1       -3 0.25249083E-02 0.27469838E+03</pdfrwt>
<totfact> 0.37835406E+02</totfact>
</mgrwt>
</event>
<event>
 5    1  0.1147887E+001  0.2746933E+03  0.7818608E-02  0.1098623E+00
         -2   -1    0    0    0  501 -0.00000000000E+00  0.00000000000E+00  0.34498737227E+02  0.34498737227E+02  0.00000000000E+00 0. -1.
          2   -1    0    0  501    0  0.00000000000E+00 -0.00000000000E+00 -0.54680567172E+03  0.54680567172E+03  0.00000000000E+00 0. -1.
         35    2    1    2    0    0  0.00000000000E+00  0.00000000000E+00 -0.51230693449E+03  0.58130440895E+03  0.27469332124E+03 0.  0.
         25    1    3    3    0    0  0.15081496763E+02 -0.19180680967E+02 -0.38777930154E+03  0.40665481279E+03  0.12000000000E+03 0.  0.
         25    1    3    3    0    0 -0.15081496763E+02  0.19180680967E+02 -0.12452763295E+03  0.17464959615E+03  0.12000000000E+03 0.  0.
<mgrwt>
<rscale>  0 0.27469332E+03</rscale>
<asrwt>0</asrwt>
<pdfrwt beam="1">  1        2 0.84123952E-01 0.27469332E+03</pdfrwt>
<pdfrwt beam="2">  1       -2 0.53074979E-02 0.27469332E+03</pdfrwt>
<totfact> 0.99914162E+03</totfact>
</mgrwt>
</event>
<event>
 5    1  0.1147887E+001  0.2748879E+03  0.7818608E-02  0.1098514E+00
          2   -1    0    0  501    0  0.00000000000E+00  0.00000000000E+00  0.36771953317E+04  0.36771953317E+04  0.00000000000E+00 0. -1.
         -2   -1    0    0    0  501 -0.00000000000E+00 -0.00000000000E+00 -0.51372950505E+01  0.51372950505E+01  0.00000000000E+00 0. -1.
         35    2    1    2    0    0  0.00000000000E+00  0.00000000000E+00  0.36720580366E+04  0.36823326267E+04  0.27488788534E+03 0.  0.
         25    1    3    3    0    0  0.65301988892E+02 -0.52025287828E+01  0.20251994290E+04  0.20298088933E+04  0.12000000000E+03 0.  0.
         25    1    3    3    0    0 -0.65301988892E+02  0.52025287828E+01  0.16468586076E+04  0.16525237335E+04  0.12000000000E+03 0.  0.
<mgrwt>
<rscale>  0 0.27488789E+03</rscale>
<asrwt>0</asrwt>
<pdfrwt beam="1">  1        2 0.56572025E+00 0.27488789E+03</pdfrwt>
<pdfrwt beam="2">  1       -2 0.79035603E-03 0.27488789E+03</pdfrwt>
<totfact> 0.23066886E+03</totfact>
</mgrwt>
</event>
<event>
 5    1  0.1147887E+001  0.2734679E+03  0.7818608E-02  0.1099311E+00
         -1   -1    0    0    0  501 -0.00000000000E+00  0.00000000000E+00  0.12565213206E+02  0.12565213206E+02  0.00000000000E+00 0. -1.
          1   -1    0    0  501    0  0.00000000000E+00 -0.00000000000E+00 -0.14879315468E+04  0.14879315468E+04  0.00000000000E+00 0. -1.
         35    2    1    2    0    0  0.00000000000E+00  0.00000000000E+00 -0.14753663336E+04  0.15004967600E+04  0.27346792954E+03 0.  0.
         25    1    3    3    0    0  0.30652113650E+02 -0.73660217023E+01 -0.42237057634E+03  0.44021666723E+03  0.12000000000E+03 0.  0.
         25    1    3    3    0    0 -0.30652113650E+02  0.73660217023E+01 -0.10529957573E+04  0.10602800928E+04  0.12000000000E+03 0.  0.
<mgrwt>
<rscale>  0 0.27346793E+03</rscale>
<asrwt>0</asrwt>
<pdfrwt beam="1">  1        1 0.22891227E+00 0.27346793E+03</pdfrwt>
<pdfrwt beam="2">  1       -1 0.19331120E-02 0.27346793E+03</pdfrwt>
<totfact> 0.52533045E+03</totfact>
</mgrwt>
</event>
<event>
 5    1  0.1147887E+001  0.2750211E+03  0.7818608E-02  0.1098440E+00
          2   -1    0    0  501    0  0.00000000000E+00  0.00000000000E+00  0.21027350537E+04  0.21027350537E+04  0.00000000000E+00 0.  1.
         -2   -1    0    0    0  501 -0.00000000000E+00 -0.00000000000E+00 -0.89926442775E+01  0.89926442775E+01  0.00000000000E+00 0.  1.
         35    2    1    2    0    0  0.00000000000E+00  0.00000000000E+00  0.20937424095E+04  0.21117276980E+04  0.27502107809E+03 0.  0.
         25    1    3    3    0    0  0.26394089026E+02  0.41817092300E+02  0.13956973457E+04  0.14017190866E+04  0.12000000000E+03 0.  0.
         25    1    3    3    0    0 -0.26394089026E+02 -0.41817092300E+02  0.69804506382E+03  0.71000861140E+03  0.12000000000E+03 0.  0.
<mgrwt>
<rscale>  0 0.27502108E+03</rscale>
<asrwt>0</asrwt>
<pdfrwt beam="1">  1        2 0.32349731E+00 0.27502108E+03</pdfrwt>
<pdfrwt beam="2">  1       -2 0.13834854E-02 0.27502108E+03</pdfrwt>
<totfact> 0.87086689E+03</totfact>
</mgrwt>
</event>
<event>
 5    1  0.1147887E+001  0.2752474E+03  0.7818608E-02  0.1098313E+00
          2   -1    0    0  501    0  0.00000000000E+00  0.00000000000E+00  0.12601497665E+04  0.12601497665E+04  0.00000000000E+00 0.  1.
         -2   -1    0    0    0  501 -0.00000000000E+00 -0.00000000000E+00 -0.15030182151E+02  0.15030182151E+02  0.00000000000E+00 0.  1.
         35    2    1    2    0    0  0.00000000000E+00  0.00000000000E+00  0.12451195843E+04  0.12751799486E+04  0.27524738347E+03 0.  0.
         25    1    3    3    0    0 -0.37212597453E+02  0.49023737380E+02  0.49550001301E+03  0.51352542988E+03  0.12000000000E+03 0.  0.
         25    1    3    3    0    0  0.37212597453E+02 -0.49023737380E+02  0.74961957130E+03  0.76165451874E+03  0.12000000000E+03 0.  0.
<mgrwt>
<rscale>  0 0.27524738E+03</rscale>
<asrwt>0</asrwt>
<pdfrwt beam="1">  1        2 0.19386911E+00 0.27524738E+03</pdfrwt>
<pdfrwt beam="2">  1       -2 0.23123367E-02 0.27524738E+03</pdfrwt>
<totfact> 0.11512961E+04</totfact>
</mgrwt>
</event>
<event>
 5    1  0.1147887E+001  0.2752466E+03  0.7818608E-02  0.1098314E+00
          1   -1    0    0  501    0  0.00000000000E+00  0.00000000000E+00  0.14302138525E+04  0.14302138525E+04  0.00000000000E+00 0. -1.
         -1   -1    0    0    0  501 -0.00000000000E+00 -0.00000000000E+00 -0.13242897195E+02  0.13242897195E+02  0.00000000000E+00 0. -1.
         35    2    1    2    0    0  0.00000000000E+00  0.00000000000E+00  0.14169709553E+04  0.14434567497E+04  0.27524661681E+03 0.  0.
         25    1    3    3    0    0 -0.56868217453E+02 -0.34208137633E+02  0.64733132147E+03  0.66169632808E+03  0.12000000000E+03 0.  0.
         25    1    3    3    0    0  0.56868217453E+02  0.34208137633E+02  0.76963963382E+03  0.78176042161E+03  0.12000000000E+03 0.  0.
<mgrwt>
<rscale>  0 0.27524662E+03</rscale>
<asrwt>0</asrwt>
<pdfrwt beam="1">  1        1 0.22003278E+00 0.27524662E+03</pdfrwt>
<pdfrwt beam="2">  1       -1 0.20373699E-02 0.27524662E+03</pdfrwt>
<totfact> 0.53156860E+03</totfact>
</mgrwt>
</event>
<event>
 5    1  0.1147887E+001  0.2737976E+03  0.7818608E-02  0.1099126E+00
         -2   -1    0    0    0  501 -0.00000000000E+00  0.00000000000E+00  0.64185494560E+01  0.64185494560E+01  0.00000000000E+00 0.  1.
          2   -1    0    0  501    0  0.00000000000E+00 -0.00000000000E+00 -0.29198627808E+04  0.29198627808E+04  0.00000000000E+00 0.  1.
         35    2    1    2    0    0  0.00000000000E+00  0.00000000000E+00 -0.29134442313E+04  0.29262813303E+04  0.27379761623E+03 0.  0.
         25    1    3    3    0    0  0.31128071638E+02  0.47506605614E+02 -0.10997688823E+04  0.11077533249E+04  0.12000000000E+03 0.  0.
         25    1    3    3    0    0 -0.31128071638E+02 -0.47506605614E+02 -0.18136753490E+04  0.18185280053E+04  0.12000000000E+03 0.  0.
<mgrwt>
<rscale>  0 0.27379762E+03</rscale>
<asrwt>0</asrwt>
<pdfrwt beam="1">  1        2 0.44921072E+00 0.27379762E+03</pdfrwt>
<pdfrwt beam="2">  1       -2 0.98746681E-03 0.27379762E+03</pdfrwt>
<totfact> 0.50440057E+03</totfact>
</mgrwt>
</event>
<event>
 5    1  0.1147887E+001  0.2749639E+03  0.7818608E-02  0.1098472E+00
          1   -1    0    0  501    0  0.00000000000E+00  0.00000000000E+00  0.11326172435E+04  0.11326172435E+04  0.00000000000E+00 0. -1.
         -1   -1    0    0    0  501 -0.00000000000E+00 -0.00000000000E+00 -0.16688147667E+02  0.16688147667E+02  0.00000000000E+00 0. -1.
         35    2    1    2    0    0  0.00000000000E+00  0.00000000000E+00  0.11159290958E+04  0.11493053911E+04  0.27496387987E+03 0.  0.
         25    1    3    3    0    0  0.47061673026E+02 -0.24226009703E+02  0.38564640294E+03  0.40733873952E+03  0.12000000000E+03 0.  0.
         25    1    3    3    0    0 -0.47061673026E+02  0.24226009703E+02  0.73028269286E+03  0.74196665161E+03  0.12000000000E+03 0.  0.
<mgrwt>
<rscale>  0 0.27496388E+03</rscale>
<asrwt>0</asrwt>
<pdfrwt beam="1">  1        1 0.17424875E+00 0.27496388E+03</pdfrwt>
<pdfrwt beam="2">  1       -1 0.25674082E-02 0.27496388E+03</pdfrwt>
<totfact> 0.60676409E+03</totfact>
</mgrwt>
</event>
<event>
 5    1  0.1147887E+001  0.2753786E+03  0.7818608E-02  0.1098240E+00
          2   -1    0    0  501    0  0.00000000000E+00  0.00000000000E+00  0.68639876168E+02  0.68639876168E+02  0.00000000000E+00 0.  1.
         -2   -1    0    0    0  501 -0.00000000000E+00 -0.00000000000E+00 -0.27620022888E+03  0.27620022888E+03  0.00000000000E+00 0.  1.
         35    2    1    2    0    0  0.00000000000E+00  0.00000000000E+00 -0.20756035271E+03  0.34484010505E+03  0.27537864484E+03 0.  0.
         25    1    3    3    0    0 -0.61645578398E+02 -0.21869306763E+02 -0.12473062362E+03  0.18503019317E+03  0.12000000000E+03 0.  0.
         25    1    3    3    0    0  0.61645578398E+02  0.21869306763E+02 -0.82829729093E+02  0.15980991188E+03  0.12000000000E+03 0.  0.
<mgrwt>
<rscale>  0 0.27537864E+03</rscale>
<asrwt>0</asrwt>
<pdfrwt beam="1">  1        2 0.10559981E-01 0.27537864E+03</pdfrwt>
<pdfrwt beam="2">  1       -2 0.42492343E-01 0.27537864E+03</pdfrwt>
<totfact> 0.31592120E+03</totfact>
</mgrwt>
</event>
<event>
 5    1  0.1147887E+001  0.2761714E+03  0.7818608E-02  0.1097799E+00
          1   -1    0    0  501    0  0.00000000000E+00  0.00000000000E+00  0.85143194590E+03  0.85143194590E+03  0.00000000000E+00 0.  1.
         -1   -1    0    0    0  501 -0.00000000000E+00 -0.00000000000E+00 -0.22394811723E+02  0.22394811723E+02  0.00000000000E+00 0.  1.
         35    2    1    2    0    0  0.00000000000E+00  0.00000000000E+00  0.82903713417E+03  0.87382675762E+03  0.27617138247E+03 0.  0.
         25    1    3    3    0    0  0.77199223335E+01 -0.62287686085E+02  0.49990784406E+03  0.51792586882E+03  0.12000000000E+03 0.  0.
         25    1    3    3    0    0 -0.77199223335E+01  0.62287686085E+02  0.32912929011E+03  0.35590088880E+03  0.12000000000E+03 0.  0.
<mgrwt>
<rscale>  0 0.27617138E+03</rscale>
<asrwt>0</asrwt>
<pdfrwt beam="1">  1        1 0.13098950E+00 0.27617138E+03</pdfrwt>
<pdfrwt beam="2">  1       -1 0.34453563E-02 0.27617138E+03</pdfrwt>
<totfact> 0.64079709E+03</totfact>
</mgrwt>
</event>
<event>
 5    1  0.1147887E+001  0.2729113E+03  0.7818608E-02  0.1099625E+00
          2   -1    0    0  501    0  0.00000000000E+00  0.00000000000E+00  0.39061998174E+03  0.39061998174E+03  0.00000000000E+00 0.  1.
         -2   -1    0    0    0  501 -0.00000000000E+00 -0.00000000000E+00 -0.47668168432E+02  0.47668168432E+02  0.00000000000E+00 0.  1.
         35    2    1    2    0    0  0.00000000000E+00  0.00000000000E+00  0.34295181331E+03  0.43828815017E+03  0.27291126091E+03 0.  0.
         25    1    3    3    0    0  0.54161501460E+02 -0.10488158878E+02  0.11638682960E+03  0.17603796131E+03  0.12000000000E+03 0.  0.
         25    1    3    3    0    0 -0.54161501460E+02  0.10488158878E+02  0.22656498371E+03  0.26225018886E+03  0.12000000000E+03 0.  0.
<mgrwt>
<rscale>  0 0.27291126E+03</rscale>
<asrwt>0</asrwt>
<pdfrwt beam="1">  1        2 0.60095380E-01 0.27291126E+03</pdfrwt>
<pdfrwt beam="2">  1       -2 0.73335646E-02 0.27291126E+03</pdfrwt>
<totfact> 0.88159180E+03</totfact>
</mgrwt>
</event>
<event>
 5    1  0.1147887E+001  0.2729920E+03  0.7818608E-02  0.1099579E+00
         -1   -1    0    0    0  501 -0.00000000000E+00  0.00000000000E+00  0.18924069138E+02  0.18924069138E+02  0.00000000000E+00 0. -1.
          1   -1    0    0  501    0  0.00000000000E+00 -0.00000000000E+00 -0.98452165008E+03  0.98452165008E+03  0.00000000000E+00 0. -1.
         35    2    1    2    0    0  0.00000000000E+00  0.00000000000E+00 -0.96559758094E+03  0.10034457192E+04  0.27299198358E+03 0.  0.
         25    1    3    3    0    0  0.18786070930E+02 -0.57937640185E+02 -0.56673673041E+03  0.58249481389E+03  0.12000000000E+03 0.  0.
         25    1    3    3    0    0 -0.18786070930E+02  0.57937640185E+02 -0.39886085053E+03  0.42095090533E+03  0.12000000000E+03 0.  0.
<mgrwt>
<rscale>  0 0.27299198E+03</rscale>
<asrwt>0</asrwt>
<pdfrwt beam="1">  1        1 0.15146488E+00 0.27299198E+03</pdfrwt>
<pdfrwt beam="2">  1       -1 0.29113950E-02 0.27299198E+03</pdfrwt>
<totfact> 0.64712051E+03</totfact>
</mgrwt>
</event>
<event>
 5    1  0.1147887E+001  0.2742925E+03  0.7818608E-02  0.1098848E+00
         -2   -1    0    0    0  501 -0.00000000000E+00  0.00000000000E+00  0.58939462787E+02  0.58939462787E+02  0.00000000000E+00 0. -1.
          2   -1    0    0  501    0  0.00000000000E+00 -0.00000000000E+00 -0.31912564990E+03  0.31912564990E+03  0.00000000000E+00 0. -1.
         35    2    1    2    0    0  0.00000000000E+00  0.00000000000E+00 -0.26018618711E+03  0.37806511269E+03  0.27429250348E+03 0.  0.
         25    1    3    3    0    0  0.21509987064E+02 -0.57209401653E+02 -0.94322907234E+02  0.16441534603E+03  0.12000000000E+03 0.  0.
         25    1    3    3    0    0 -0.21509987064E+02  0.57209401653E+02 -0.16586327988E+03  0.21364976666E+03  0.12000000000E+03 0.  0.
<mgrwt>
<rscale>  0 0.27429250E+03</rscale>
<asrwt>0</asrwt>
<pdfrwt beam="1">  1        2 0.49096254E-01 0.27429250E+03</pdfrwt>
<pdfrwt beam="2">  1       -2 0.90676097E-02 0.27429250E+03</pdfrwt>
<totfact> 0.78694090E+03</totfact>
</mgrwt>
</event>
<event>
 5    1  0.1147887E+001  0.2760631E+03  0.7818608E-02  0.1097859E+00
          1   -1    0    0  501    0  0.00000000000E+00  0.00000000000E+00  0.14077155715E+02  0.14077155715E+02  0.00000000000E+00 0. -1.
         -1   -1    0    0    0  501 -0.00000000000E+00 -0.00000000000E+00 -0.13534484441E+04  0.13534484441E+04  0.00000000000E+00 0. -1.
         35    2    1    2    0    0  0.00000000000E+00  0.00000000000E+00 -0.13393712884E+04  0.13675255998E+04  0.27606306889E+03 0.  0.
         25    1    3    3    0    0  0.22592338423E+02  0.60742522595E+02 -0.56429500647E+03  0.58054192108E+03  0.12000000000E+03 0.  0.
         25    1    3    3    0    0 -0.22592338423E+02 -0.60742522595E+02 -0.77507628194E+03  0.78698367876E+03  0.12000000000E+03 0.  0.
<mgrwt>
<rscale>  0 0.27606307E+03</rscale>
<asrwt>0</asrwt>
<pdfrwt beam="1">  1        1 0.21657171E-02 0.27606307E+03</pdfrwt>
<pdfrwt beam="2">  1       -1 0.20822276E+00 0.27606307E+03</pdfrwt>
<totfact> 0.79570709E+02</totfact>
</mgrwt>
</event>
<event>
 5    1  0.1147887E+001  0.2753474E+03  0.7818608E-02  0.1098258E+00
         -2   -1    0    0    0  501 -0.00000000000E+00  0.00000000000E+00  0.38166526717E+02  0.38166526717E+02  0.00000000000E+00 0.  1.
          2   -1    0    0  501    0  0.00000000000E+00 -0.00000000000E+00 -0.49661449422E+03  0.49661449422E+03  0.00000000000E+00 0.  1.
         35    2    1    2    0    0  0.00000000000E+00  0.00000000000E+00 -0.45844796751E+03  0.53478102094E+03  0.27534741954E+03 0.  0.
         25    1    3    3    0    0  0.55448484255E+02  0.38398233791E+02 -0.23360648452E+03  0.27114746611E+03  0.12000000000E+03 0.  0.
         25    1    3    3    0    0 -0.55448484255E+02 -0.38398233791E+02 -0.22484148299E+03  0.26363355484E+03  0.12000000000E+03 0.  0.
<mgrwt>
<rscale>  0 0.27534742E+03</rscale>
<asrwt>0</asrwt>
<pdfrwt beam="1">  1        2 0.76402225E-01 0.27534742E+03</pdfrwt>
<pdfrwt beam="2">  1       -2 0.58717738E-02 0.27534742E+03</pdfrwt>
<totfact> 0.95442964E+03</totfact>
</mgrwt>
</event>
<event>
 5    1  0.1147887E+001  0.2751521E+03  0.7818608E-02  0.1098367E+00
          2   -1    0    0  501    0  0.00000000000E+00  0.00000000000E+00  0.23198464292E+03  0.23198464292E+03  0.00000000000E+00 0. -1.
         -2   -1    0    0    0  501 -0.00000000000E+00 -0.00000000000E+00 -0.81588001595E+02  0.81588001595E+02  0.00000000000E+00 0. -1.
         35    2    1    2    0    0  0.00000000000E+00  0.00000000000E+00  0.15039664132E+03  0.31357264451E+03  0.27515205553E+03 0.  0.
         25    1    3    3    0    0 -0.45470208913E+02  0.47108201035E+02  0.92869665067E+02  0.16526190484E+03  0.12000000000E+03 0.  0.
         25    1    3    3    0    0  0.45470208913E+02 -0.47108201035E+02  0.57526976255E+02  0.14831073967E+03  0.12000000000E+03 0.  0.
<mgrwt>
<rscale>  0 0.27515206E+03</rscale>
<asrwt>0</asrwt>
<pdfrwt beam="1">  1        2 0.35689945E-01 0.27515206E+03</pdfrwt>
<pdfrwt beam="2">  1       -2 0.12552000E-01 0.27515206E+03</pdfrwt>
<totfact> 0.66002351E+03</totfact>
</mgrwt>
</event>
<event>
 5    1  0.1147887E+001  0.2759599E+03  0.7818608E-02  0.1097916E+00
         -2   -1    0    0    0  501 -0.00000000000E+00  0.00000000000E+00  0.26163355328E+02  0.26163355328E+02  0.00000000000E+00 0.  1.
          2   -1    0    0  501    0  0.00000000000E+00 -0.00000000000E+00 -0.72767671110E+03  0.72767671110E+03  0.00000000000E+00 0.  1.
         35    2    1    2    0    0  0.00000000000E+00  0.00000000000E+00 -0.70151335577E+03  0.75384006643E+03  0.27595988373E+03 0.  0.
         25    1    3    3    0    0 -0.26217848919E+02 -0.55682601558E+02 -0.27108943704E+03  0.30278277790E+03  0.12000000000E+03 0.  0.
         25    1    3    3    0    0  0.26217848919E+02  0.55682601558E+02 -0.43042391873E+03  0.45105728853E+03  0.12000000000E+03 0.  0.
<mgrwt>
<rscale>  0 0.27595988E+03</rscale>
<asrwt>0</asrwt>
<pdfrwt beam="1">  1        2 0.11195026E+00 0.27595988E+03</pdfrwt>
<pdfrwt beam="2">  1       -2 0.40251316E-02 0.27595988E+03</pdfrwt>
<totfact> 0.10845598E+04</totfact>
</mgrwt>
</event>
<event>
 5    1  0.1147887E+001  0.2752254E+03  0.7818608E-02  0.1098326E+00
         -4   -1    0    0    0  501 -0.00000000000E+00  0.00000000000E+00  0.51742083294E+03  0.51742083294E+03  0.00000000000E+00 0. -1.
          4   -1    0    0  501    0  0.00000000000E+00 -0.00000000000E+00 -0.36599339477E+02  0.36599339477E+02  0.00000000000E+00 0. -1.
         35    2    1    2    0    0  0.00000000000E+00  0.00000000000E+00  0.48082149346E+03  0.55402017242E+03  0.27522544008E+03 0.  0.
         25    1    3    3    0    0 -0.40340109007E+02 -0.43180222589E+02  0.30549549469E+03  0.33349565708E+03  0.12000000000E+03 0.  0.
         25    1    3    3    0    0  0.40340109007E+02  0.43180222589E+02  0.17532599877E+03  0.22052451533E+03  0.12000000000E+03 0.  0.
<mgrwt>
<rscale>  0 0.27522544E+03</rscale>
<asrwt>0</asrwt>
<pdfrwt beam="1">  1        4 0.56306680E-02 0.27522544E+03</pdfrwt>
<pdfrwt beam="2">  1       -4 0.79603200E-01 0.27522544E+03</pdfrwt>
<totfact> 0.52988016E+02</totfact>
</mgrwt>
</event>
<event>
 5    1  0.1147887E+001  0.2744680E+03  0.7818608E-02  0.1098749E+00
          4   -1    0    0  501    0  0.00000000000E+00  0.00000000000E+00  0.28212527356E+03  0.28212527356E+03  0.00000000000E+00 0.  1.
         -4   -1    0    0    0  501 -0.00000000000E+00 -0.00000000000E+00 -0.66754616710E+02  0.66754616710E+02  0.00000000000E+00 0.  1.
         35    2    1    2    0    0  0.00000000000E+00  0.00000000000E+00  0.21537065685E+03  0.34887989027E+03  0.27446795442E+03 0.  0.
         25    1    3    3    0    0  0.27509975543E+02 -0.53476864851E+02  0.14400872889E+03  0.19686311951E+03  0.12000000000E+03 0.  0.
         25    1    3    3    0    0 -0.27509975543E+02  0.53476864851E+02  0.71361927960E+02  0.15201677076E+03  0.12000000000E+03 0.  0.
<mgrwt>
<rscale>  0 0.27446795E+03</rscale>
<asrwt>0</asrwt>
<pdfrwt beam="1">  1        4 0.43403887E-01 0.27446795E+03</pdfrwt>
<pdfrwt beam="2">  1       -4 0.10269941E-01 0.27446795E+03</pdfrwt>
<totfact> 0.70254832E+02</totfact>
</mgrwt>
</event>
<event>
 5    1  0.1147887E+001  0.2799338E+03  0.7818608E-02  0.1095725E+00
         -4   -1    0    0    0  501 -0.00000000000E+00  0.00000000000E+00  0.80490407740E+03  0.80490407740E+03  0.00000000000E+00 0. -1.
          4   -1    0    0  501    0  0.00000000000E+00 -0.00000000000E+00 -0.24339217954E+02  0.24339217954E+02  0.00000000000E+00 0. -1.
         35    2    1    2    0    0  0.00000000000E+00  0.00000000000E+00  0.78056485945E+03  0.82924329536E+03  0.27993381912E+03 0.  0.
         25    1    3    3    0    0 -0.41615339282E+02  0.55570422335E+02  0.44732676827E+03  0.46831735598E+03  0.12000000000E+03 0.  0.
         25    1    3    3    0    0  0.41615339282E+02 -0.55570422335E+02  0.33323809117E+03  0.36092593937E+03  0.12000000000E+03 0.  0.
<mgrwt>
<rscale>  0 0.27993382E+03</rscale>
<asrwt>0</asrwt>
<pdfrwt beam="1">  1        4 0.37444957E-02 0.27993382E+03</pdfrwt>
<pdfrwt beam="2">  1       -4 0.12383138E+00 0.27993382E+03</pdfrwt>
<totfact> 0.36491435E+02</totfact>
</mgrwt>
</event>
<event>
 5    1  0.1147887E+001  0.2746133E+03  0.7818608E-02  0.1098668E+00
         -2   -1    0    0    0  501 -0.00000000000E+00  0.00000000000E+00  0.10879025839E+04  0.10879025839E+04  0.00000000000E+00 0. -1.
          2   -1    0    0  501    0  0.00000000000E+00 -0.00000000000E+00 -0.17329783078E+02  0.17329783078E+02  0.00000000000E+00 0. -1.
         35    2    1    2    0    0  0.00000000000E+00  0.00000000000E+00  0.10705728008E+04  0.11052323669E+04  0.27461329748E+03 0.  0.
         25    1    3    3    0    0  0.21025532277E+02 -0.43260369029E+02  0.34912200395E+03  0.37228981476E+03  0.12000000000E+03 0.  0.
         25    1    3    3    0    0 -0.21025532277E+02  0.43260369029E+02  0.72145079683E+03  0.73294255217E+03  0.12000000000E+03 0.  0.
<mgrwt>
<rscale>  0 0.27461330E+03</rscale>
<asrwt>0</asrwt>
<pdfrwt beam="1">  1        2 0.26661213E-02 0.27461330E+03</pdfrwt>
<pdfrwt beam="2">  1       -2 0.16736957E+00 0.27461330E+03</pdfrwt>
<totfact> 0.87445494E+02</totfact>
</mgrwt>
</event>
<event>
 4    1  0.1147887E+001  0.2576078E+03  0.7818608E-02  0.1108589E+00
         -1   -1    0    0    0  501 -0.00000000000E+00  0.00000000000E+00  0.43227509393E+02  0.43227509393E+02  0.00000000000E+00 0.  1.
          1   -1    0    0  501    0  0.00000000000E+00 -0.00000000000E+00 -0.38379365418E+03  0.38379365418E+03  0.00000000000E+00 0.  1.
         25    1    1    2    0    0 -0.34898763219E+02  0.22014776780E+01 -0.11871809265E+03  0.17238548576E+03  0.12000000000E+03 0.  0.
         25    1    1    2    0    0  0.34898763219E+02 -0.22014776780E+01 -0.22184805213E+03  0.25463567781E+03  0.12000000000E+03 0.  0.
<mgrwt>
<rscale>  0 0.25760779E+03</rscale>
<asrwt>0</asrwt>
<pdfrwt beam="1">  1        1 0.59045178E-01 0.25760779E+03</pdfrwt>
<pdfrwt beam="2">  1       -1 0.66503860E-02 0.25760779E+03</pdfrwt>
<totfact> 0.72330668E+03</totfact>
</mgrwt>
</event>
<event>
 5    1  0.1147887E+001  0.2749331E+03  0.7818608E-02  0.1098489E+00
         -2   -1    0    0    0  501 -0.00000000000E+00  0.00000000000E+00  0.20719238378E+02  0.20719238378E+02  0.00000000000E+00 0. -1.
          2   -1    0    0  501    0  0.00000000000E+00 -0.00000000000E+00 -0.91205337525E+03  0.91205337525E+03  0.00000000000E+00 0. -1.
         35    2    1    2    0    0  0.00000000000E+00  0.00000000000E+00 -0.89133413688E+03  0.93277261363E+03  0.27493309219E+03 0.  0.
         25    1    3    3    0    0  0.57074864659E+02  0.24460912702E+02 -0.53157574248E+03  0.54847848309E+03  0.12000000000E+03 0.  0.
         25    1    3    3    0    0 -0.57074864659E+02 -0.24460912702E+02 -0.35975839440E+03  0.38429413054E+03  0.12000000000E+03 0.  0.
<mgrwt>
<rscale>  0 0.27493309E+03</rscale>
<asrwt>0</asrwt>
<pdfrwt beam="1">  1        2 0.14031589E+00 0.27493309E+03</pdfrwt>
<pdfrwt beam="2">  1       -2 0.31875755E-02 0.27493309E+03</pdfrwt>
<totfact> 0.11507945E+04</totfact>
</mgrwt>
</event>
<event>
 5    1  0.1147887E+001  0.2752292E+03  0.7818608E-02  0.1098324E+00
         -2   -1    0    0    0  501 -0.00000000000E+00  0.00000000000E+00  0.93990510150E+01  0.93990510150E+01  0.00000000000E+00 0. -1.
          2   -1    0    0  501    0  0.00000000000E+00 -0.00000000000E+00 -0.20148613231E+04  0.20148613231E+04  0.00000000000E+00 0. -1.
         35    2    1    2    0    0  0.00000000000E+00  0.00000000000E+00 -0.20054622721E+04  0.20242603741E+04  0.27522924528E+03 0.  0.
         25    1    3    3    0    0 -0.18595075208E+02 -0.58638538680E+02 -0.12046244204E+04  0.12121486086E+04  0.12000000000E+03 0.  0.
         25    1    3    3    0    0  0.18595075208E+02  0.58638538680E+02 -0.80083785167E+03  0.81211176553E+03  0.12000000000E+03 0.  0.
<mgrwt>
<rscale>  0 0.27522925E+03</rscale>
<asrwt>0</asrwt>
<pdfrwt beam="1">  1        2 0.30997864E+00 0.27522925E+03</pdfrwt>
<pdfrwt beam="2">  1       -2 0.14460079E-02 0.27522925E+03</pdfrwt>
<totfact> 0.90834262E+03</totfact>
</mgrwt>
</event>
<event>
 5    1  0.1147887E+001  0.2738058E+03  0.7818608E-02  0.1099121E+00
         -4   -1    0    0    0  501 -0.00000000000E+00  0.00000000000E+00  0.25568695794E+03  0.25568695794E+03  0.00000000000E+00 0. -1.
          4   -1    0    0  501    0  0.00000000000E+00 -0.00000000000E+00 -0.73302166228E+02  0.73302166228E+02  0.00000000000E+00 0. -1.
         35    2    1    2    0    0  0.00000000000E+00  0.00000000000E+00  0.18238479171E+03  0.32898912417E+03  0.27380582823E+03 0.  0.
         25    1    3    3    0    0  0.39965563916E+02  0.39962449793E+02  0.13190612224E+03  0.18706541310E+03  0.12000000000E+03 0.  0.
         25    1    3    3    0    0 -0.39965563916E+02 -0.39962449793E+02  0.50478669471E+02  0.14192371107E+03  0.12000000000E+03 0.  0.
<mgrwt>
<rscale>  0 0.27380583E+03</rscale>
<asrwt>0</asrwt>
<pdfrwt beam="1">  1        4 0.11277256E-01 0.27380583E+03</pdfrwt>
<pdfrwt beam="2">  1       -4 0.39336455E-01 0.27380583E+03</pdfrwt>
<totfact> 0.72838938E+02</totfact>
</mgrwt>
</event>
<event>
 5    1  0.1147887E+001  0.2739856E+03  0.7818608E-02  0.1099020E+00
          1   -1    0    0  501    0  0.00000000000E+00  0.00000000000E+00  0.20151351036E+04  0.20151351036E+04  0.00000000000E+00 0.  1.
         -1   -1    0    0    0  501 -0.00000000000E+00 -0.00000000000E+00 -0.93130398665E+01  0.93130398665E+01  0.00000000000E+00 0.  1.
         35    2    1    2    0    0  0.00000000000E+00  0.00000000000E+00  0.20058220638E+04  0.20244481435E+04  0.27398564602E+03 0.  0.
         25    1    3    3    0    0  0.45855246398E+01 -0.63536829758E+02  0.11328121057E+04  0.11409299815E+04  0.12000000000E+03 0.  0.
         25    1    3    3    0    0 -0.45855246398E+01  0.63536829758E+02  0.87300995806E+03  0.88351816203E+03  0.12000000000E+03 0.  0.
<mgrwt>
<rscale>  0 0.27398565E+03</rscale>
<asrwt>0</asrwt>
<pdfrwt beam="1">  1        1 0.31002044E+00 0.27398565E+03</pdfrwt>
<pdfrwt beam="2">  1       -1 0.14327770E-02 0.27398565E+03</pdfrwt>
<totfact> 0.36802058E+03</totfact>
</mgrwt>
</event>
<event>
 5    1  0.1147887E+001  0.2783160E+03  0.7818608E-02  0.1096612E+00
         -2   -1    0    0    0  501 -0.00000000000E+00  0.00000000000E+00  0.34424970179E+02  0.34424970179E+02  0.00000000000E+00 0.  1.
          2   -1    0    0  501    0  0.00000000000E+00 -0.00000000000E+00 -0.56252629767E+03  0.56252629767E+03  0.00000000000E+00 0.  1.
         35    2    1    2    0    0  0.00000000000E+00  0.00000000000E+00 -0.52810132750E+03  0.59695126785E+03  0.27831601479E+03 0.  0.
         25    1    3    3    0    0 -0.29512982918E+02 -0.32929937354E+02 -0.14638445563E+03  0.19438056946E+03  0.12000000000E+03 0.  0.
         25    1    3    3    0    0  0.29512982918E+02  0.32929937354E+02 -0.38171687187E+03  0.40257069839E+03  0.12000000000E+03 0.  0.
<mgrwt>
<rscale>  0 0.27831601E+03</rscale>
<asrwt>0</asrwt>
<pdfrwt beam="1">  1        2 0.86542504E-01 0.27831601E+03</pdfrwt>
<pdfrwt beam="2">  1       -2 0.52961495E-02 0.27831601E+03</pdfrwt>
<totfact> 0.97099315E+03</totfact>
</mgrwt>
</event>
<event>
 5    1  0.1147887E+001  0.2745217E+03  0.7818608E-02  0.1098719E+00
         -3   -1    0    0    0  501 -0.00000000000E+00  0.00000000000E+00  0.15717597791E+02  0.15717597791E+02  0.00000000000E+00 0. -1.
          3   -1    0    0  501    0  0.00000000000E+00 -0.00000000000E+00 -0.11986908436E+04  0.11986908436E+04  0.00000000000E+00 0. -1.
         35    2    1    2    0    0  0.00000000000E+00  0.00000000000E+00 -0.11829732458E+04  0.12144084414E+04  0.27452169718E+03 0.  0.
         25    1    3    3    0    0  0.52722451646E+02  0.40606876139E+02 -0.60678865587E+03  0.62211015760E+03  0.12000000000E+03 0.  0.
         25    1    3    3    0    0 -0.52722451646E+02 -0.40606876139E+02 -0.57618458995E+03  0.59229828380E+03  0.12000000000E+03 0.  0.
<mgrwt>
<rscale>  0 0.27452170E+03</rscale>
<asrwt>0</asrwt>
<pdfrwt beam="1">  1        3 0.18441398E+00 0.27452170E+03</pdfrwt>
<pdfrwt beam="2">  1       -3 0.24180919E-02 0.27452170E+03</pdfrwt>
<totfact> 0.36138971E+02</totfact>
</mgrwt>
</event>
<event>
 5    1  0.1147887E+001  0.2757569E+03  0.7818608E-02  0.1098029E+00
         -1   -1    0    0    0  501 -0.00000000000E+00  0.00000000000E+00  0.10467042643E+02  0.10467042643E+02  0.00000000000E+00 0.  1.
          1   -1    0    0  501    0  0.00000000000E+00 -0.00000000000E+00 -0.18162211372E+04  0.18162211372E+04  0.00000000000E+00 0.  1.
         35    2    1    2    0    0  0.00000000000E+00  0.00000000000E+00 -0.18057540945E+04  0.18266881798E+04  0.27575687910E+03 0.  0.
         25    1    3    3    0    0  0.19350835456E+00  0.21469836413E+02 -0.13295887197E+04  0.13351655908E+04  0.12000000000E+03 0.  0.
         25    1    3    3    0    0 -0.19350835456E+00 -0.21469836413E+02 -0.47616537488E+03  0.49152258906E+03  0.12000000000E+03 0.  0.
<mgrwt>
<rscale>  0 0.27575688E+03</rscale>
<asrwt>0</asrwt>
<pdfrwt beam="1">  1        1 0.27941896E+00 0.27575688E+03</pdfrwt>
<pdfrwt beam="2">  1       -1 0.16103124E-02 0.27575688E+03</pdfrwt>
<totfact> 0.41797714E+03</totfact>
</mgrwt>
</event>
<event>
 5    1  0.1147887E+001  0.2747950E+03  0.7818608E-02  0.1098566E+00
         -2   -1    0    0    0  501 -0.00000000000E+00  0.00000000000E+00  0.33097617036E+03  0.33097617036E+03  0.00000000000E+00 0. -1.
          2   -1    0    0  501    0  0.00000000000E+00 -0.00000000000E+00 -0.57037560843E+02  0.57037560843E+02  0.00000000000E+00 0. -1.
         35    2    1    2    0    0  0.00000000000E+00  0.00000000000E+00  0.27393860952E+03  0.38801373121E+03  0.27479500327E+03 0.  0.
         25    1    3    3    0    0 -0.52018347062E+02  0.37086415034E+02  0.10884357753E+03  0.17415003583E+03  0.12000000000E+03 0.  0.
         25    1    3    3    0    0  0.52018347062E+02 -0.37086415034E+02  0.16509503199E+03  0.21386369538E+03  0.12000000000E+03 0.  0.
<mgrwt>
<rscale>  0 0.27479500E+03</rscale>
<asrwt>0</asrwt>
<pdfrwt beam="1">  1        2 0.87750096E-02 0.27479500E+03</pdfrwt>
<pdfrwt beam="2">  1       -2 0.50919410E-01 0.27479500E+03</pdfrwt>
<totfact> 0.27882615E+03</totfact>
</mgrwt>
</event>
<event>
 5    1  0.1147887E+001  0.2839761E+03  0.7818608E-02  0.1093537E+00
          2   -1    0    0  501    0  0.00000000000E+00  0.00000000000E+00  0.16238779036E+03  0.16238779036E+03  0.00000000000E+00 0.  1.
         -2   -1    0    0    0  501 -0.00000000000E+00 -0.00000000000E+00 -0.12415098483E+03  0.12415098483E+03  0.00000000000E+00 0.  1.
         35    2    1    2    0    0  0.00000000000E+00  0.00000000000E+00  0.38236805522E+02  0.28653877519E+03  0.28397608419E+03 0.  0.
         25    1    3    3    0    0  0.55815423608E+02 -0.38233016430E+02  0.53830585159E+02  0.14790151100E+03  0.12000000000E+03 0.  0.
         25    1    3    3    0    0 -0.55815423608E+02  0.38233016430E+02 -0.15593779637E+02  0.13863726419E+03  0.12000000000E+03 0.  0.
<mgrwt>
<rscale>  0 0.28397608E+03</rscale>
<asrwt>0</asrwt>
<pdfrwt beam="1">  1        2 0.24982737E-01 0.28397608E+03</pdfrwt>
<pdfrwt beam="2">  1       -2 0.19100151E-01 0.28397608E+03</pdfrwt>
<totfact> 0.48731493E+03</totfact>
</mgrwt>
</event>
<event>
 5    1  0.1147887E+001  0.2748359E+03  0.7818608E-02  0.1098543E+00
         -2   -1    0    0    0  501 -0.00000000000E+00  0.00000000000E+00  0.14630898961E+02  0.14630898961E+02  0.00000000000E+00 0.  1.
          2   -1    0    0  501    0  0.00000000000E+00 -0.00000000000E+00 -0.12906722495E+04  0.12906722495E+04  0.00000000000E+00 0.  1.
         35    2    1    2    0    0  0.00000000000E+00  0.00000000000E+00 -0.12760413506E+04  0.13053031485E+04  0.27483591668E+03 0.  0.
         25    1    3    3    0    0  0.44723424595E+02 -0.38849201382E+02 -0.48977803830E+03  0.50773218527E+03  0.12000000000E+03 0.  0.
         25    1    3    3    0    0 -0.44723424595E+02  0.38849201382E+02 -0.78626331226E+03  0.79757096322E+03  0.12000000000E+03 0.  0.
<mgrwt>
<rscale>  0 0.27483592E+03</rscale>
<asrwt>0</asrwt>
<pdfrwt beam="1">  1        2 0.19856495E+00 0.27483592E+03</pdfrwt>
<pdfrwt beam="2">  1       -2 0.22509077E-02 0.27483592E+03</pdfrwt>
<totfact> 0.11519432E+04</totfact>
</mgrwt>
</event>
<event>
 5    1  0.1147887E+001  0.2744875E+03  0.7818608E-02  0.1098738E+00
          2   -1    0    0  501    0  0.00000000000E+00  0.00000000000E+00  0.21896078370E+03  0.21896078370E+03  0.00000000000E+00 0.  1.
         -2   -1    0    0    0  501 -0.00000000000E+00 -0.00000000000E+00 -0.86023808998E+02  0.86023808998E+02  0.00000000000E+00 0.  1.
         35    2    1    2    0    0  0.00000000000E+00  0.00000000000E+00  0.13293697470E+03  0.30498459269E+03  0.27448745425E+03 0.  0.
         25    1    3    3    0    0 -0.19641859404E+02 -0.54367970374E+02  0.29715201426E+02  0.13647223908E+03  0.12000000000E+03 0.  0.
         25    1    3    3    0    0  0.19641859404E+02  0.54367970374E+02  0.10322177327E+03  0.16851235362E+03  0.12000000000E+03 0.  0.
<mgrwt>
<rscale>  0 0.27448745E+03</rscale>
<asrwt>0</asrwt>
<pdfrwt beam="1">  1        2 0.33686274E-01 0.27448745E+03</pdfrwt>
<pdfrwt beam="2">  1       -2 0.13234432E-01 0.27448745E+03</pdfrwt>
<totfact> 0.64475584E+03</totfact>
</mgrwt>
</event>
<event>
 5    1  0.1147887E+001  0.2753923E+03  0.7818608E-02  0.1098233E+00
         -2   -1    0    0    0  501 -0.00000000000E+00  0.00000000000E+00  0.28012118731E+02  0.28012118731E+02  0.00000000000E+00 0.  1.
          2   -1    0    0  501    0  0.00000000000E+00 -0.00000000000E+00 -0.67685815282E+03  0.67685815282E+03  0.00000000000E+00 0.  1.
         35    2    1    2    0    0  0.00000000000E+00  0.00000000000E+00 -0.64884603408E+03  0.70487027155E+03  0.27539230883E+03 0.  0.
         25    1    3    3    0    0 -0.64859356038E+01  0.68830243657E+01 -0.15328385396E+03  0.19489839217E+03  0.12000000000E+03 0.  0.
         25    1    3    3    0    0  0.64859356038E+01 -0.68830243657E+01 -0.49556218013E+03  0.50997187938E+03  0.12000000000E+03 0.  0.
<mgrwt>
<rscale>  0 0.27539231E+03</rscale>
<asrwt>0</asrwt>
<pdfrwt beam="1">  1        2 0.10413202E+00 0.27539231E+03</pdfrwt>
<pdfrwt beam="2">  1       -2 0.43095570E-02 0.27539231E+03</pdfrwt>
<totfact> 0.10683957E+04</totfact>
</mgrwt>
</event>
<event>
 5    1  0.1147887E+001  0.2744419E+03  0.7818608E-02  0.1098764E+00
          2   -1    0    0  501    0  0.00000000000E+00  0.00000000000E+00  0.20084236019E+04  0.20084236019E+04  0.00000000000E+00 0.  1.
         -2   -1    0    0    0  501 -0.00000000000E+00 -0.00000000000E+00 -0.93753097737E+01  0.93753097737E+01  0.00000000000E+00 0.  1.
         35    2    1    2    0    0  0.00000000000E+00  0.00000000000E+00  0.19990482922E+04  0.20177989117E+04  0.27444193138E+03 0.  0.
         25    1    3    3    0    0 -0.21981115241E+02 -0.57577302763E+02  0.11842543093E+04  0.11919129936E+04  0.12000000000E+03 0.  0.
         25    1    3    3    0    0  0.21981115241E+02  0.57577302763E+02  0.81479398284E+03  0.82588591809E+03  0.12000000000E+03 0.  0.
<mgrwt>
<rscale>  0 0.27444193E+03</rscale>
<asrwt>0</asrwt>
<pdfrwt beam="1">  1        2 0.30898790E+00 0.27444193E+03</pdfrwt>
<pdfrwt beam="2">  1       -2 0.14423569E-02 0.27444193E+03</pdfrwt>
<totfact> 0.91882541E+03</totfact>
</mgrwt>
</event>
<event>
 5    1  0.1147887E+001  0.2751020E+03  0.7818608E-02  0.1098395E+00
          2   -1    0    0  501    0  0.00000000000E+00  0.00000000000E+00  0.19937246357E+04  0.19937246357E+04  0.00000000000E+00 0. -1.
         -2   -1    0    0    0  501 -0.00000000000E+00 -0.00000000000E+00 -0.94899122665E+01  0.94899122665E+01  0.00000000000E+00 0. -1.
         35    2    1    2    0    0  0.00000000000E+00  0.00000000000E+00  0.19842347234E+04  0.20032145479E+04  0.27510195838E+03 0.  0.
         25    1    3    3    0    0 -0.50466596872E+02  0.26650494116E+02  0.73331961120E+03  0.74526155033E+03  0.12000000000E+03 0.  0.
         25    1    3    3    0    0  0.50466596872E+02 -0.26650494116E+02  0.12509151122E+04  0.12579529976E+04  0.12000000000E+03 0.  0.
<mgrwt>
<rscale>  0 0.27510196E+03</rscale>
<asrwt>0</asrwt>
<pdfrwt beam="1">  1        2 0.30672653E+00 0.27510196E+03</pdfrwt>
<pdfrwt beam="2">  1       -2 0.14599881E-02 0.27510196E+03</pdfrwt>
<totfact> 0.91888712E+03</totfact>
</mgrwt>
</event>
<event>
 5    1  0.1147887E+001  0.2743748E+03  0.7818608E-02  0.1098802E+00
          2   -1    0    0  501    0  0.00000000000E+00  0.00000000000E+00  0.14379955420E+04  0.14379955420E+04  0.00000000000E+00 0. -1.
         -2   -1    0    0    0  501 -0.00000000000E+00 -0.00000000000E+00 -0.13087928781E+02  0.13087928781E+02  0.00000000000E+00 0. -1.
         35    2    1    2    0    0  0.00000000000E+00  0.00000000000E+00  0.14249076132E+04  0.14510834708E+04  0.27437480381E+03 0.  0.
         25    1    3    3    0    0  0.31927198377E+01  0.66407568935E+02  0.71496004986E+03  0.72800276893E+03  0.12000000000E+03 0.  0.
         25    1    3    3    0    0 -0.31927198377E+01 -0.66407568935E+02  0.70994756337E+03  0.72308070186E+03  0.12000000000E+03 0.  0.
<mgrwt>
<rscale>  0 0.27437480E+03</rscale>
<asrwt>0</asrwt>
<pdfrwt beam="1">  1        2 0.22122996E+00 0.27437480E+03</pdfrwt>
<pdfrwt beam="2">  1       -2 0.20135286E-02 0.27437480E+03</pdfrwt>
<totfact> 0.11276679E+04</totfact>
</mgrwt>
</event>
<event>
 5    1  0.1147887E+001  0.2762998E+03  0.7818608E-02  0.1097727E+00
         -1   -1    0    0    0  501 -0.00000000000E+00  0.00000000000E+00  0.14404039868E+03  0.14404039868E+03  0.00000000000E+00 0. -1.
          1   -1    0    0  501    0  0.00000000000E+00 -0.00000000000E+00 -0.13250032553E+03  0.13250032553E+03  0.00000000000E+00 0. -1.
         35    2    1    2    0    0  0.00000000000E+00  0.00000000000E+00  0.11540073151E+02  0.27654072421E+03  0.27629983507E+03 0.  0.
         25    1    3    3    0    0  0.39213035467E+02  0.34383793972E+02  0.50142561390E+02  0.14012203218E+03  0.12000000000E+03 0.  0.
         25    1    3    3    0    0 -0.39213035467E+02 -0.34383793972E+02 -0.38602488239E+02  0.13641869204E+03  0.12000000000E+03 0.  0.
<mgrwt>
<rscale>  0 0.27629984E+03</rscale>
<asrwt>0</asrwt>
<pdfrwt beam="1">  1        1 0.20384665E-01 0.27629984E+03</pdfrwt>
<pdfrwt beam="2">  1       -1 0.22160061E-01 0.27629984E+03</pdfrwt>
<totfact> 0.42163152E+03</totfact>
</mgrwt>
</event>
<event>
 5    1  0.1147887E+001  0.2757921E+03  0.7818608E-02  0.1098010E+00
         -2   -1    0    0    0  501 -0.00000000000E+00  0.00000000000E+00  0.11408131574E+02  0.11408131574E+02  0.00000000000E+00 0.  1.
          2   -1    0    0  501    0  0.00000000000E+00 -0.00000000000E+00 -0.16668218016E+04  0.16668218016E+04  0.00000000000E+00 0.  1.
         35    2    1    2    0    0  0.00000000000E+00  0.00000000000E+00 -0.16554136701E+04  0.16782299332E+04  0.27579211318E+03 0.  0.
         25    1    3    3    0    0  0.66311528543E+02  0.70207298993E+01 -0.74864397695E+03  0.76112700234E+03  0.12000000000E+03 0.  0.
         25    1    3    3    0    0 -0.66311528543E+02 -0.70207298993E+01 -0.90676969313E+03  0.91710293088E+03  0.12000000000E+03 0.  0.
<mgrwt>
<rscale>  0 0.27579211E+03</rscale>
<asrwt>0</asrwt>
<pdfrwt beam="1">  1        2 0.25643389E+00 0.27579211E+03</pdfrwt>
<pdfrwt beam="2">  1       -2 0.17550987E-02 0.27579211E+03</pdfrwt>
<totfact> 0.10422582E+04</totfact>
</mgrwt>
</event>
<event>
 5    1  0.1147887E+001  0.2750923E+03  0.7818608E-02  0.1098400E+00
         -2   -1    0    0    0  501 -0.00000000000E+00  0.00000000000E+00  0.17300360973E+02  0.17300360973E+02  0.00000000000E+00 0. -1.
          2   -1    0    0  501    0  0.00000000000E+00 -0.00000000000E+00 -0.10935579753E+04  0.10935579753E+04  0.00000000000E+00 0. -1.
         35    2    1    2    0    0  0.00000000000E+00  0.00000000000E+00 -0.10762576143E+04  0.11108583362E+04  0.27509233153E+03 0.  0.
         25    1    3    3    0    0  0.24214656401E+02 -0.10229440585E+01 -0.79132792645E+03  0.80074170816E+03  0.12000000000E+03 0.  0.
         25    1    3    3    0    0 -0.24214656401E+02  0.10229440585E+01 -0.28492968783E+03  0.31011662807E+03  0.12000000000E+03 0.  0.
<mgrwt>
<rscale>  0 0.27509233E+03</rscale>
<asrwt>0</asrwt>
<pdfrwt beam="1">  1        2 0.16823965E+00 0.27509233E+03</pdfrwt>
<pdfrwt beam="2">  1       -2 0.26615946E-02 0.27509233E+03</pdfrwt>
<totfact> 0.11647010E+04</totfact>
</mgrwt>
</event>
<event>
 5    1  0.1147887E+001  0.2750946E+03  0.7818608E-02  0.1098399E+00
          2   -1    0    0  501    0  0.00000000000E+00  0.00000000000E+00  0.55256319332E+02  0.55256319332E+02  0.00000000000E+00 0.  1.
         -2   -1    0    0    0  501 -0.00000000000E+00 -0.00000000000E+00 -0.34239077185E+03  0.34239077185E+03  0.00000000000E+00 0.  1.
         35    2    1    2    0    0  0.00000000000E+00  0.00000000000E+00 -0.28713445252E+03  0.39764709118E+03  0.27509455702E+03 0.  0.
         25    1    3    3    0    0 -0.61030419094E+02 -0.20533794374E+02 -0.17148076838E+03  0.21897945723E+03  0.12000000000E+03 0.  0.
         25    1    3    3    0    0  0.61030419094E+02  0.20533794374E+02 -0.11565368414E+03  0.17866763395E+03  0.12000000000E+03 0.  0.
<mgrwt>
<rscale>  0 0.27509456E+03</rscale>
<asrwt>0</asrwt>
<pdfrwt beam="1">  1        2 0.85009721E-02 0.27509456E+03</pdfrwt>
<pdfrwt beam="2">  1       -2 0.52675504E-01 0.27509456E+03</pdfrwt>
<totfact> 0.27110802E+03</totfact>
</mgrwt>
</event>
<event>
 5    1  0.1147887E+001  0.2747495E+03  0.7818608E-02  0.1098592E+00
          4   -1    0    0  501    0  0.00000000000E+00  0.00000000000E+00  0.52895392721E+02  0.52895392721E+02  0.00000000000E+00 0.  1.
         -4   -1    0    0    0  501 -0.00000000000E+00 -0.00000000000E+00 -0.35677623685E+03  0.35677623685E+03  0.00000000000E+00 0.  1.
         35    2    1    2    0    0  0.00000000000E+00  0.00000000000E+00 -0.30388084413E+03  0.40967162957E+03  0.27474947979E+03 0.  0.
         25    1    3    3    0    0 -0.35143342032E+02 -0.40074855107E+02 -0.91726702537E+02  0.16017127227E+03  0.12000000000E+03 0.  0.
         25    1    3    3    0    0  0.35143342032E+02  0.40074855107E+02 -0.21215414159E+03  0.24950035731E+03  0.12000000000E+03 0.  0.
<mgrwt>
<rscale>  0 0.27474948E+03</rscale>
<asrwt>0</asrwt>
<pdfrwt beam="1">  1        4 0.81377525E-02 0.27474948E+03</pdfrwt>
<pdfrwt beam="2">  1       -4 0.54888653E-01 0.27474948E+03</pdfrwt>
<totfact> 0.64325000E+02</totfact>
</mgrwt>
</event>
<event>
 5    1  0.1147887E+001  0.2749014E+03  0.7818608E-02  0.1098507E+00
         -4   -1    0    0    0  501 -0.00000000000E+00  0.00000000000E+00  0.19513027302E+02  0.19513027302E+02  0.00000000000E+00 0.  1.
          4   -1    0    0  501    0  0.00000000000E+00 -0.00000000000E+00 -0.96820952410E+03  0.96820952410E+03  0.00000000000E+00 0.  1.
         35    2    1    2    0    0  0.00000000000E+00  0.00000000000E+00 -0.94869649679E+03  0.98772255140E+03  0.27490142872E+03 0.  0.
         25    1    3    3    0    0 -0.18674120359E+02  0.25692036074E+02 -0.26227273571E+03  0.29016511056E+03  0.12000000000E+03 0.  0.
         25    1    3    3    0    0  0.18674120359E+02 -0.25692036074E+02 -0.68642376108E+03  0.69755744084E+03  0.12000000000E+03 0.  0.
<mgrwt>
<rscale>  0 0.27490143E+03</rscale>
<asrwt>0</asrwt>
<pdfrwt beam="1">  1        4 0.14895523E+00 0.27490143E+03</pdfrwt>
<pdfrwt beam="2">  1       -4 0.30020058E-02 0.27490143E+03</pdfrwt>
<totfact> 0.32476872E+02</totfact>
</mgrwt>
</event>
<event>
 5    1  0.1147887E+001  0.2771185E+03  0.7818608E-02  0.1097273E+00
         -2   -1    0    0    0  501 -0.00000000000E+00  0.00000000000E+00  0.16163187160E+03  0.16163187160E+03  0.00000000000E+00 0.  1.
          2   -1    0    0  501    0  0.00000000000E+00 -0.00000000000E+00 -0.11878018454E+03  0.11878018454E+03  0.00000000000E+00 0.  1.
         35    2    1    2    0    0  0.00000000000E+00  0.00000000000E+00  0.42851687055E+02  0.28041205614E+03  0.27711848394E+03 0.  0.
         25    1    3    3    0    0 -0.53397987859E+02 -0.29770304212E+02  0.54386707236E+02  0.14524300343E+03  0.12000000000E+03 0.  0.
         25    1    3    3    0    0  0.53397987859E+02  0.29770304212E+02 -0.11535020181E+02  0.13516905271E+03  0.12000000000E+03 0.  0.
<mgrwt>
<rscale>  0 0.27711848E+03</rscale>
<asrwt>0</asrwt>
<pdfrwt beam="1">  1        2 0.18273875E-01 0.27711848E+03</pdfrwt>
<pdfrwt beam="2">  1       -2 0.24866442E-01 0.27711848E+03</pdfrwt>
<totfact> 0.44009903E+03</totfact>
</mgrwt>
</event>
<event>
 5    1  0.1147887E+001  0.2739516E+03  0.7818608E-02  0.1099039E+00
          1   -1    0    0  501    0  0.00000000000E+00  0.00000000000E+00  0.26339374514E+03  0.26339374514E+03  0.00000000000E+00 0. -1.
         -1   -1    0    0    0  501 -0.00000000000E+00 -0.00000000000E+00 -0.71233189443E+02  0.71233189443E+02  0.00000000000E+00 0. -1.
         35    2    1    2    0    0  0.00000000000E+00  0.00000000000E+00  0.19216055570E+03  0.33462693458E+03  0.27395164935E+03 0.  0.
         25    1    3    3    0    0 -0.44746776031E+02 -0.44210728732E+02  0.71482836930E+02  0.15318831051E+03  0.12000000000E+03 0.  0.
         25    1    3    3    0    0  0.44746776031E+02  0.44210728732E+02  0.12067771877E+03  0.18143862408E+03  0.12000000000E+03 0.  0.
<mgrwt>
<rscale>  0 0.27395165E+03</rscale>
<asrwt>0</asrwt>
<pdfrwt beam="1">  1        1 0.40522114E-01 0.27395165E+03</pdfrwt>
<pdfrwt beam="2">  1       -1 0.10958952E-01 0.27395165E+03</pdfrwt>
<totfact> 0.54221724E+03</totfact>
</mgrwt>
</event>
<event>
 5    1  0.1147887E+001  0.2781374E+03  0.7818608E-02  0.1096711E+00
          2   -1    0    0  501    0  0.00000000000E+00  0.00000000000E+00  0.29214224027E+03  0.29214224027E+03  0.00000000000E+00 0.  1.
         -2   -1    0    0    0  501 -0.00000000000E+00 -0.00000000000E+00 -0.66200971939E+02  0.66200971939E+02  0.00000000000E+00 0.  1.
         35    2    1    2    0    0  0.00000000000E+00  0.00000000000E+00  0.22594126833E+03  0.35834321221E+03  0.27813737793E+03 0.  0.
         25    1    3    3    0    0 -0.24561067984E+02 -0.65734866264E+02  0.11808880305E+03  0.18239869547E+03  0.12000000000E+03 0.  0.
         25    1    3    3    0    0  0.24561067984E+02  0.65734866264E+02  0.10785246528E+03  0.17594451674E+03  0.12000000000E+03 0.  0.
<mgrwt>
<rscale>  0 0.27813738E+03</rscale>
<asrwt>0</asrwt>
<pdfrwt beam="1">  1        2 0.44944959E-01 0.27813738E+03</pdfrwt>
<pdfrwt beam="2">  1       -2 0.10184765E-01 0.27813738E+03</pdfrwt>
<totfact> 0.72026499E+03</totfact>
</mgrwt>
</event>
<event>
 5    1  0.1147887E+001  0.2745472E+03  0.7818608E-02  0.1098705E+00
          2   -1    0    0  501    0  0.00000000000E+00  0.00000000000E+00  0.49178638497E+03  0.49178638497E+03  0.00000000000E+00 0.  1.
         -2   -1    0    0    0  501 -0.00000000000E+00 -0.00000000000E+00 -0.38317538424E+02  0.38317538424E+02  0.00000000000E+00 0.  1.
         35    2    1    2    0    0  0.00000000000E+00  0.00000000000E+00  0.45346884654E+03  0.53010392339E+03  0.27454721781E+03 0.  0.
         25    1    3    3    0    0 -0.21023469030E+02  0.33609420962E+02  0.12325088024E+03  0.17652863481E+03  0.12000000000E+03 0.  0.
         25    1    3    3    0    0  0.21023469030E+02 -0.33609420962E+02  0.33021796630E+03  0.35357528858E+03  0.12000000000E+03 0.  0.
<mgrwt>
<rscale>  0 0.27454722E+03</rscale>
<asrwt>0</asrwt>
<pdfrwt beam="1">  1        2 0.75659439E-01 0.27454722E+03</pdfrwt>
<pdfrwt beam="2">  1       -2 0.58950063E-02 0.27454722E+03</pdfrwt>
<totfact> 0.95896929E+03</totfact>
</mgrwt>
</event>
<event>
 5    1  0.1147887E+001  0.2750427E+03  0.7818608E-02  0.1098428E+00
         -1   -1    0    0    0  501 -0.00000000000E+00  0.00000000000E+00  0.14475029979E+04  0.14475029979E+04  0.00000000000E+00 0. -1.
          1   -1    0    0  501    0  0.00000000000E+00 -0.00000000000E+00 -0.13065338633E+02  0.13065338633E+02  0.00000000000E+00 0. -1.
         35    2    1    2    0    0  0.00000000000E+00  0.00000000000E+00  0.14344376593E+04  0.14605683366E+04  0.27504266462E+03 0.  0.
         25    1    3    3    0    0  0.24311771038E+02  0.38902727818E+02  0.97778432437E+03  0.98618794833E+03  0.12000000000E+03 0.  0.
         25    1    3    3    0    0 -0.24311771038E+02 -0.38902727818E+02  0.45665333492E+03  0.47438038823E+03  0.12000000000E+03 0.  0.
<mgrwt>
<rscale>  0 0.27504266E+03</rscale>
<asrwt>0</asrwt>
<pdfrwt beam="1">  1        1 0.20100532E-02 0.27504266E+03</pdfrwt>
<pdfrwt beam="2">  1       -1 0.22269264E+00 0.27504266E+03</pdfrwt>
<totfact> 0.71153660E+02</totfact>
</mgrwt>
</event>
<event>
 5    1  0.1147887E+001  0.2759993E+03  0.7818608E-02  0.1097894E+00
         -1   -1    0    0    0  501 -0.00000000000E+00  0.00000000000E+00  0.47446934081E+02  0.47446934081E+02  0.00000000000E+00 0. -1.
          1   -1    0    0  501    0  0.00000000000E+00 -0.00000000000E+00 -0.40137262323E+03  0.40137262323E+03  0.00000000000E+00 0. -1.
         35    2    1    2    0    0  0.00000000000E+00  0.00000000000E+00 -0.35392568915E+03  0.44881955731E+03  0.27599927823E+03 0.  0.
         25    1    3    3    0    0 -0.38080469187E+02  0.99156734342E+00 -0.26884884495E+03  0.29686833238E+03  0.12000000000E+03 0.  0.
         25    1    3    3    0    0  0.38080469187E+02 -0.99156734342E+00 -0.85076844199E+02  0.15195122493E+03  0.12000000000E+03 0.  0.
<mgrwt>
<rscale>  0 0.27599928E+03</rscale>
<asrwt>0</asrwt>
<pdfrwt beam="1">  1        1 0.61749633E-01 0.27599928E+03</pdfrwt>
<pdfrwt beam="2">  1       -1 0.72995285E-02 0.27599928E+03</pdfrwt>
<totfact> 0.59445557E+03</totfact>
</mgrwt>
</event>
<event>
 5    1  0.1147887E+001  0.2746237E+03  0.7818608E-02  0.1098662E+00
         -1   -1    0    0    0  501 -0.00000000000E+00  0.00000000000E+00  0.24811933094E+02  0.24811933094E+02  0.00000000000E+00 0.  1.
          1   -1    0    0  501    0  0.00000000000E+00 -0.00000000000E+00 -0.75989800961E+03  0.75989800961E+03  0.00000000000E+00 0.  1.
         35    2    1    2    0    0  0.00000000000E+00  0.00000000000E+00 -0.73508607652E+03  0.78470994271E+03  0.27462365938E+03 0.  0.
         25    1    3    3    0    0 -0.11521252223E+02 -0.17755273475E+02 -0.54840884357E+03  0.56178309756E+03  0.12000000000E+03 0.  0.
         25    1    3    3    0    0  0.11521252223E+02  0.17755273475E+02 -0.18667723295E+03  0.22292684515E+03  0.12000000000E+03 0.  0.
<mgrwt>
<rscale>  0 0.27462366E+03</rscale>
<asrwt>0</asrwt>
<pdfrwt beam="1">  1        1 0.11690738E+00 0.27462366E+03</pdfrwt>
<pdfrwt beam="2">  1       -1 0.38172205E-02 0.27462366E+03</pdfrwt>
<totfact> 0.65603127E+03</totfact>
</mgrwt>
</event>
<event>
 5    1  0.1147887E+001  0.2748497E+03  0.7818608E-02  0.1098536E+00
         -1   -1    0    0    0  501 -0.00000000000E+00  0.00000000000E+00  0.28992750969E+03  0.28992750969E+03  0.00000000000E+00 0. -1.
          1   -1    0    0  501    0  0.00000000000E+00 -0.00000000000E+00 -0.65139001477E+02  0.65139001477E+02  0.00000000000E+00 0. -1.
         35    2    1    2    0    0  0.00000000000E+00  0.00000000000E+00  0.22478850821E+03  0.35506651116E+03  0.27484969334E+03 0.  0.
         25    1    3    3    0    0  0.14894218773E+02 -0.27297747551E+02  0.18902417898E+03  0.22604677617E+03  0.12000000000E+03 0.  0.
         25    1    3    3    0    0 -0.14894218773E+02  0.27297747551E+02  0.35764329226E+02  0.12901973500E+03  0.12000000000E+03 0.  0.
<mgrwt>
<rscale>  0 0.27484969E+03</rscale>
<asrwt>0</asrwt>
<pdfrwt beam="1">  1        1 0.10021385E-01 0.27484969E+03</pdfrwt>
<pdfrwt beam="2">  1       -1 0.44604231E-01 0.27484969E+03</pdfrwt>
<totfact> 0.32303250E+03</totfact>
</mgrwt>
</event>
<event>
 5    1  0.1147887E+001  0.2732375E+03  0.7818608E-02  0.1099441E+00
          2   -1    0    0  501    0  0.00000000000E+00  0.00000000000E+00  0.19211423310E+03  0.19211423310E+03  0.00000000000E+00 0. -1.
         -2   -1    0    0    0  501 -0.00000000000E+00 -0.00000000000E+00 -0.97154095431E+02  0.97154095431E+02  0.00000000000E+00 0. -1.
         35    2    1    2    0    0  0.00000000000E+00  0.00000000000E+00  0.94960137672E+02  0.28926832853E+03  0.27323751233E+03 0.  0.
         25    1    3    3    0    0  0.31709227072E+01  0.44592275850E+02 -0.29170519398E+01  0.12808994890E+03  0.12000000000E+03 0.  0.
         25    1    3    3    0    0 -0.31709227072E+01 -0.44592275850E+02  0.97877189612E+02  0.16117837964E+03  0.12000000000E+03 0.  0.
<mgrwt>
<rscale>  0 0.27323751E+03</rscale>
<asrwt>0</asrwt>
<pdfrwt beam="1">  1        2 0.29556036E-01 0.27323751E+03</pdfrwt>
<pdfrwt beam="2">  1       -2 0.14946784E-01 0.27323751E+03</pdfrwt>
<totfact> 0.60914533E+03</totfact>
</mgrwt>
</event>
<event>
 5    1  0.1147887E+001  0.2829672E+03  0.7818608E-02  0.1094079E+00
          2   -1    0    0  501    0  0.00000000000E+00  0.00000000000E+00  0.28704333418E+02  0.28704333418E+02  0.00000000000E+00 0. -1.
         -2   -1    0    0    0  501 -0.00000000000E+00 -0.00000000000E+00 -0.69737226701E+03  0.69737226701E+03  0.00000000000E+00 0. -1.
         35    2    1    2    0    0  0.00000000000E+00  0.00000000000E+00 -0.66866793359E+03  0.72607660043E+03  0.28296717879E+03 0.  0.
         25    1    3    3    0    0 -0.13059787263E+02 -0.38869048539E+02 -0.49531971928E+03  0.51129539924E+03  0.12000000000E+03 0.  0.
         25    1    3    3    0    0  0.13059787263E+02  0.38869048539E+02 -0.17334821431E+03  0.21478120118E+03  0.12000000000E+03 0.  0.
<mgrwt>
<rscale>  0 0.28296718E+03</rscale>
<asrwt>0</asrwt>
<pdfrwt beam="1">  1        2 0.44160515E-02 0.28296718E+03</pdfrwt>
<pdfrwt beam="2">  1       -2 0.10728804E+00 0.28296718E+03</pdfrwt>
<totfact> 0.13489533E+03</totfact>
</mgrwt>
</event>
<event>
 5    1  0.1147887E+001  0.2745066E+03  0.7818608E-02  0.1098728E+00
          1   -1    0    0  501    0  0.00000000000E+00  0.00000000000E+00  0.53964957792E+03  0.53964957792E+03  0.00000000000E+00 0.  1.
         -1   -1    0    0    0  501 -0.00000000000E+00 -0.00000000000E+00 -0.34908699766E+02  0.34908699766E+02  0.00000000000E+00 0.  1.
         35    2    1    2    0    0  0.00000000000E+00  0.00000000000E+00  0.50474087815E+03  0.57455827768E+03  0.27450657620E+03 0.  0.
         25    1    3    3    0    0  0.49175634806E+02  0.19160478802E+02  0.33747065160E+03  0.36203840638E+03  0.12000000000E+03 0.  0.
         25    1    3    3    0    0 -0.49175634806E+02 -0.19160478802E+02  0.16727022655E+03  0.21251987130E+03  0.12000000000E+03 0.  0.
<mgrwt>
<rscale>  0 0.27450658E+03</rscale>
<asrwt>0</asrwt>
<pdfrwt beam="1">  1        1 0.83023006E-01 0.27450658E+03</pdfrwt>
<pdfrwt beam="2">  1       -1 0.53705696E-02 0.27450658E+03</pdfrwt>
<totfact> 0.64067164E+03</totfact>
</mgrwt>
</event>
<event>
 5    1  0.1147887E+001  0.2756812E+03  0.7818608E-02  0.1098071E+00
          2   -1    0    0  501    0  0.00000000000E+00  0.00000000000E+00  0.81178830401E+03  0.81178830401E+03  0.00000000000E+00 0.  1.
         -2   -1    0    0    0  501 -0.00000000000E+00 -0.00000000000E+00 -0.23405150474E+02  0.23405150474E+02  0.00000000000E+00 0.  1.
         35    2    1    2    0    0  0.00000000000E+00  0.00000000000E+00  0.78838315353E+03  0.83519345448E+03  0.27568117388E+03 0.  0.
         25    1    3    3    0    0 -0.32980944858E+02 -0.51106207477E+02  0.48510068982E+03  0.50341063400E+03  0.12000000000E+03 0.  0.
         25    1    3    3    0    0  0.32980944858E+02  0.51106207477E+02  0.30328246372E+03  0.33178282048E+03  0.12000000000E+03 0.  0.
<mgrwt>
<rscale>  0 0.27568117E+03</rscale>
<asrwt>0</asrwt>
<pdfrwt beam="1">  1        2 0.12489049E+00 0.27568117E+03</pdfrwt>
<pdfrwt beam="2">  1       -2 0.36007930E-02 0.27568117E+03</pdfrwt>
<totfact> 0.11176418E+04</totfact>
</mgrwt>
</event>
<event>
 5    1  0.1147887E+001  0.2748468E+03  0.7818608E-02  0.1098537E+00
          1   -1    0    0  501    0  0.00000000000E+00  0.00000000000E+00  0.13903659287E+04  0.13903659287E+04  0.00000000000E+00 0.  1.
         -1   -1    0    0    0  501 -0.00000000000E+00 -0.00000000000E+00 -0.13582892236E+02  0.13582892236E+02  0.00000000000E+00 0.  1.
         35    2    1    2    0    0  0.00000000000E+00  0.00000000000E+00  0.13767830364E+04  0.14039488209E+04  0.27484679789E+03 0.  0.
         25    1    3    3    0    0  0.32078905031E+02  0.48462269096E+02  0.85838836826E+03  0.86868189716E+03  0.12000000000E+03 0.  0.
         25    1    3    3    0    0 -0.32078905031E+02 -0.48462269096E+02  0.51839466816E+03  0.53526692375E+03  0.12000000000E+03 0.  0.
<mgrwt>
<rscale>  0 0.27484680E+03</rscale>
<asrwt>0</asrwt>
<pdfrwt beam="1">  1        1 0.21390234E+00 0.27484680E+03</pdfrwt>
<pdfrwt beam="2">  1       -1 0.20896768E-02 0.27484680E+03</pdfrwt>
<totfact> 0.54471576E+03</totfact>
</mgrwt>
</event>
<event>
 5    1  0.1147887E+001  0.2751597E+03  0.7818608E-02  0.1098362E+00
         -1   -1    0    0    0  501 -0.00000000000E+00  0.00000000000E+00  0.97314277986E+02  0.97314277986E+02  0.00000000000E+00 0. -1.
          1   -1    0    0  501    0  0.00000000000E+00 -0.00000000000E+00 -0.19450605828E+03  0.19450605828E+03  0.00000000000E+00 0. -1.
         35    2    1    2    0    0  0.00000000000E+00  0.00000000000E+00 -0.97191780292E+02  0.29182033626E+03  0.27515971090E+03 0.  0.
         25    1    3    3    0    0  0.56121704974E+02  0.30925717290E+02 -0.70386773647E+02  0.15316769785E+03  0.12000000000E+03 0.  0.
         25    1    3    3    0    0 -0.56121704974E+02 -0.30925717290E+02 -0.26805006646E+02  0.13865263842E+03  0.12000000000E+03 0.  0.
<mgrwt>
<rscale>  0 0.27515971E+03</rscale>
<asrwt>0</asrwt>
<pdfrwt beam="1">  1        1 0.29924009E-01 0.27515971E+03</pdfrwt>
<pdfrwt beam="2">  1       -1 0.14971427E-01 0.27515971E+03</pdfrwt>
<totfact> 0.48659294E+03</totfact>
</mgrwt>
</event>
<event>
 5    1  0.1147887E+001  0.2758726E+03  0.7818608E-02  0.1097965E+00
         -2   -1    0    0    0  501 -0.00000000000E+00  0.00000000000E+00  0.39623476033E+02  0.39623476033E+02  0.00000000000E+00 0. -1.
          2   -1    0    0  501    0  0.00000000000E+00 -0.00000000000E+00 -0.48018054253E+03  0.48018054253E+03  0.00000000000E+00 0. -1.
         35    2    1    2    0    0  0.00000000000E+00  0.00000000000E+00 -0.44055706650E+03  0.51980401857E+03  0.27587259537E+03 0.  0.
         25    1    3    3    0    0 -0.52849460383E+00 -0.92919728360E+01 -0.93323613513E+02  0.15230205811E+03  0.12000000000E+03 0.  0.
         25    1    3    3    0    0  0.52849460383E+00  0.92919728360E+01 -0.34723345299E+03  0.36750196046E+03  0.12000000000E+03 0.  0.
<mgrwt>
<rscale>  0 0.27587260E+03</rscale>
<asrwt>0</asrwt>
<pdfrwt beam="1">  1        2 0.73873925E-01 0.27587260E+03</pdfrwt>
<pdfrwt beam="2">  1       -2 0.60959198E-02 0.27587260E+03</pdfrwt>
<totfact> 0.93563632E+03</totfact>
</mgrwt>
</event>
<event>
 5    1  0.1147887E+001  0.2753055E+03  0.7818608E-02  0.1098281E+00
          2   -1    0    0  501    0  0.00000000000E+00  0.00000000000E+00  0.34508316412E+04  0.34508316412E+04  0.00000000000E+00 0. -1.
         -2   -1    0    0    0  501 -0.00000000000E+00 -0.00000000000E+00 -0.54909324506E+01  0.54909324506E+01  0.00000000000E+00 0. -1.
         35    2    1    2    0    0  0.00000000000E+00  0.00000000000E+00  0.34453407088E+04  0.34563225737E+04  0.27530552803E+03 0.  0.
         25    1    3    3    0    0  0.61547227349E+02 -0.22265008441E+02  0.15184940613E+04  0.15246337285E+04  0.12000000000E+03 0.  0.
         25    1    3    3    0    0 -0.61547227349E+02  0.22265008441E+02  0.19268466475E+04  0.19316888452E+04  0.12000000000E+03 0.  0.
<mgrwt>
<rscale>  0 0.27530553E+03</rscale>
<asrwt>0</asrwt>
<pdfrwt beam="1">  1        2 0.53089544E+00 0.27530553E+03</pdfrwt>
<pdfrwt beam="2">  1       -2 0.84476159E-03 0.27530553E+03</pdfrwt>
<totfact> 0.29759863E+03</totfact>
</mgrwt>
</event>
<event>
 5    1  0.1147887E+001  0.2758728E+03  0.7818608E-02  0.1097965E+00
          2   -1    0    0  501    0  0.00000000000E+00  0.00000000000E+00  0.14302819830E+04  0.14302819830E+04  0.00000000000E+00 0.  1.
         -2   -1    0    0    0  501 -0.00000000000E+00 -0.00000000000E+00 -0.13302583915E+02  0.13302583915E+02  0.00000000000E+00 0.  1.
         35    2    1    2    0    0  0.00000000000E+00  0.00000000000E+00  0.14169793991E+04  0.14435845669E+04  0.27587276850E+03 0.  0.
         25    1    3    3    0    0 -0.27372364252E+02  0.15846934529E+02  0.39338726757E+03  0.41249716841E+03  0.12000000000E+03 0.  0.
         25    1    3    3    0    0  0.27372364252E+02 -0.15846934529E+02  0.10235921315E+04  0.10310873985E+04  0.12000000000E+03 0.  0.
<mgrwt>
<rscale>  0 0.27587277E+03</rscale>
<asrwt>0</asrwt>
<pdfrwt beam="1">  1        2 0.22004326E+00 0.27587277E+03</pdfrwt>
<pdfrwt beam="2">  1       -2 0.20465525E-02 0.27587277E+03</pdfrwt>
<totfact> 0.11117341E+04</totfact>
</mgrwt>
</event>
<event>
 5    1  0.1147887E+001  0.2754781E+03  0.7818608E-02  0.1098185E+00
          1   -1    0    0  501    0  0.00000000000E+00  0.00000000000E+00  0.16383909441E+03  0.16383909441E+03  0.00000000000E+00 0.  1.
         -1   -1    0    0    0  501 -0.00000000000E+00 -0.00000000000E+00 -0.11579683791E+03  0.11579683791E+03  0.00000000000E+00 0.  1.
         35    2    1    2    0    0  0.00000000000E+00  0.00000000000E+00  0.48042256499E+02  0.27963593232E+03  0.27547812297E+03 0.  0.
         25    1    3    3    0    0  0.75696244757E+01  0.62193013207E+02  0.49836821979E+02  0.14425317650E+03  0.12000000000E+03 0.  0.
         25    1    3    3    0    0 -0.75696244757E+01 -0.62193013207E+02 -0.17945654792E+01  0.13538275581E+03  0.12000000000E+03 0.  0.
<mgrwt>
<rscale>  0 0.27547812E+03</rscale>
<asrwt>0</asrwt>
<pdfrwt beam="1">  1        1 0.25206015E-01 0.27547812E+03</pdfrwt>
<pdfrwt beam="2">  1       -1 0.17814898E-01 0.27547812E+03</pdfrwt>
<totfact> 0.45809084E+03</totfact>
</mgrwt>
</event>
<event>
 5    1  0.1147887E+001  0.2751709E+03  0.7818608E-02  0.1098356E+00
          1   -1    0    0  501    0  0.00000000000E+00  0.00000000000E+00  0.66271325384E+03  0.66271325384E+03  0.00000000000E+00 0.  1.
         -1   -1    0    0    0  501 -0.00000000000E+00 -0.00000000000E+00 -0.28564017037E+02  0.28564017037E+02  0.00000000000E+00 0.  1.
         35    2    1    2    0    0  0.00000000000E+00  0.00000000000E+00  0.63414923680E+03  0.69127727088E+03  0.27517087545E+03 0.  0.
         25    1    3    3    0    0  0.45646640126E+02  0.49394927518E+02  0.32336913432E+03  0.35141296454E+03  0.12000000000E+03 0.  0.
         25    1    3    3    0    0 -0.45646640126E+02 -0.49394927518E+02  0.31078010249E+03  0.33986430634E+03  0.12000000000E+03 0.  0.
<mgrwt>
<rscale>  0 0.27517088E+03</rscale>
<asrwt>0</asrwt>
<pdfrwt beam="1">  1        1 0.10195587E+00 0.27517088E+03</pdfrwt>
<pdfrwt beam="2">  1       -1 0.43944646E-02 0.27517088E+03</pdfrwt>
<totfact> 0.65033925E+03</totfact>
</mgrwt>
</event>
<event>
 5    1  0.1147887E+001  0.2731115E+03  0.7818608E-02  0.1099512E+00
          3   -1    0    0  501    0  0.00000000000E+00  0.00000000000E+00  0.11722144795E+03  0.11722144795E+03  0.00000000000E+00 0.  1.
         -3   -1    0    0    0  501 -0.00000000000E+00 -0.00000000000E+00 -0.15907907382E+03  0.15907907382E+03  0.00000000000E+00 0.  1.
         35    2    1    2    0    0  0.00000000000E+00  0.00000000000E+00 -0.41857625867E+02  0.27630052177E+03  0.27311154770E+03 0.  0.
         25    1    3    3    0    0  0.55294838077E+02 -0.33031270553E+02 -0.30989548387E+02  0.13967439301E+03  0.12000000000E+03 0.  0.
         25    1    3    3    0    0 -0.55294838077E+02  0.33031270553E+02 -0.10868077480E+02  0.13662612876E+03  0.12000000000E+03 0.  0.
<mgrwt>
<rscale>  0 0.27311155E+03</rscale>
<asrwt>0</asrwt>
<pdfrwt beam="1">  1        3 0.18034069E-01 0.27311155E+03</pdfrwt>
<pdfrwt beam="2">  1       -3 0.24473704E-01 0.27311155E+03</pdfrwt>
<totfact> 0.10692574E+03</totfact>
</mgrwt>
</event>
<event>
 5    1  0.1147887E+001  0.2748061E+03  0.7818608E-02  0.1098560E+00
          1   -1    0    0  501    0  0.00000000000E+00  0.00000000000E+00  0.59612090757E+03  0.59612090757E+03  0.00000000000E+00 0. -1.
         -1   -1    0    0    0  501 -0.00000000000E+00 -0.00000000000E+00 -0.31670764674E+02  0.31670764674E+02  0.00000000000E+00 0. -1.
         35    2    1    2    0    0  0.00000000000E+00  0.00000000000E+00  0.56445014289E+03  0.62779167224E+03  0.27480614972E+03 0.  0.
         25    1    3    3    0    0  0.60465375045E+02 -0.28461384534E+02  0.27383350127E+03  0.30635093995E+03  0.12000000000E+03 0.  0.
         25    1    3    3    0    0 -0.60465375045E+02  0.28461384534E+02  0.29061664162E+03  0.32144073229E+03  0.12000000000E+03 0.  0.
<mgrwt>
<rscale>  0 0.27480615E+03</rscale>
<asrwt>0</asrwt>
<pdfrwt beam="1">  1        1 0.91710901E-01 0.27480615E+03</pdfrwt>
<pdfrwt beam="2">  1       -1 0.48724258E-02 0.27480615E+03</pdfrwt>
<totfact> 0.64698791E+03</totfact>
</mgrwt>
</event>
<event>
 5    1  0.1147887E+001  0.2747119E+03  0.7818608E-02  0.1098613E+00
          2   -1    0    0  501    0  0.00000000000E+00  0.00000000000E+00  0.41735212196E+02  0.41735212196E+02  0.00000000000E+00 0. -1.
         -2   -1    0    0    0  501 -0.00000000000E+00 -0.00000000000E+00 -0.45205594125E+03  0.45205594125E+03  0.00000000000E+00 0. -1.
         35    2    1    2    0    0  0.00000000000E+00  0.00000000000E+00 -0.41032072906E+03  0.49379115345E+03  0.27471185364E+03 0.  0.
         25    1    3    3    0    0 -0.28331285345E+02  0.54234008018E+02 -0.15683965553E+03  0.20674299722E+03  0.12000000000E+03 0.  0.
         25    1    3    3    0    0  0.28331285345E+02 -0.54234008018E+02 -0.25348107353E+03  0.28704815623E+03  0.12000000000E+03 0.  0.
<mgrwt>
<rscale>  0 0.27471185E+03</rscale>
<asrwt>0</asrwt>
<pdfrwt beam="1">  1        2 0.64208019E-02 0.27471185E+03</pdfrwt>
<pdfrwt beam="2">  1       -2 0.69547067E-01 0.27471185E+03</pdfrwt>
<totfact> 0.21812815E+03</totfact>
</mgrwt>
</event>
<event>
 5    1  0.1147887E+001  0.2737042E+03  0.7818608E-02  0.1099178E+00
         -3   -1    0    0    0  501 -0.00000000000E+00  0.00000000000E+00  0.27441261150E+02  0.27441261150E+02  0.00000000000E+00 0.  1.
          3   -1    0    0  501    0  0.00000000000E+00 -0.00000000000E+00 -0.68249384219E+03  0.68249384219E+03  0.00000000000E+00 0.  1.
         35    2    1    2    0    0  0.00000000000E+00  0.00000000000E+00 -0.65505258104E+03  0.70993510334E+03  0.27370415968E+03 0.  0.
         25    1    3    3    0    0  0.12103213987E+02 -0.11777758174E+02 -0.49245817147E+03  0.50714914377E+03  0.12000000000E+03 0.  0.
         25    1    3    3    0    0 -0.12103213987E+02  0.11777758174E+02 -0.16259440957E+03  0.20278595957E+03  0.12000000000E+03 0.  0.
<mgrwt>
<rscale>  0 0.27370416E+03</rscale>
<asrwt>0</asrwt>
<pdfrwt beam="1">  1        3 0.10499906E+00 0.27370416E+03</pdfrwt>
<pdfrwt beam="2">  1       -3 0.42217321E-02 0.27370416E+03</pdfrwt>
<totfact> 0.61291578E+02</totfact>
</mgrwt>
</event>
<event>
 5    1  0.1147887E+001  0.2736527E+03  0.7818608E-02  0.1099207E+00
          1   -1    0    0  501    0  0.00000000000E+00  0.00000000000E+00  0.40001406724E+04  0.40001406724E+04  0.00000000000E+00 0.  1.
         -1   -1    0    0    0  501 -0.00000000000E+00 -0.00000000000E+00 -0.46801983345E+01  0.46801983345E+01  0.00000000000E+00 0.  1.
         35    2    1    2    0    0  0.00000000000E+00  0.00000000000E+00  0.39954604741E+04  0.40048208707E+04  0.27365271212E+03 0.  0.
         25    1    3    3    0    0 -0.44340571539E+02  0.47669552490E+02  0.18644186360E+04  0.18694104212E+04  0.12000000000E+03 0.  0.
         25    1    3    3    0    0  0.44340571539E+02 -0.47669552490E+02  0.21310418381E+04  0.21354104496E+04  0.12000000000E+03 0.  0.
<mgrwt>
<rscale>  0 0.27365271E+03</rscale>
<asrwt>0</asrwt>
<pdfrwt beam="1">  1        1 0.61540352E+00 0.27365271E+03</pdfrwt>
<pdfrwt beam="2">  1       -1 0.72003371E-03 0.27365271E+03</pdfrwt>
<totfact> 0.37925273E+02</totfact>
</mgrwt>
</event>
<event>
 5    1  0.1147887E+001  0.2737797E+03  0.7818608E-02  0.1099136E+00
         -3   -1    0    0    0  501 -0.00000000000E+00  0.00000000000E+00  0.50401085431E+03  0.50401085431E+03  0.00000000000E+00 0.  1.
          3   -1    0    0  501    0  0.00000000000E+00 -0.00000000000E+00 -0.37179410922E+02  0.37179410922E+02  0.00000000000E+00 0.  1.
         35    2    1    2    0    0  0.00000000000E+00  0.00000000000E+00  0.46683144339E+03  0.54119026523E+03  0.27377966807E+03 0.  0.
         25    1    3    3    0    0  0.52029226400E+02 -0.22709152649E+02  0.29945412623E+03  0.32755994830E+03  0.12000000000E+03 0.  0.
         25    1    3    3    0    0 -0.52029226400E+02  0.22709152649E+02  0.16737731715E+03  0.21363031693E+03  0.12000000000E+03 0.  0.
<mgrwt>
<rscale>  0 0.27377967E+03</rscale>
<asrwt>0</asrwt>
<pdfrwt beam="1">  1        3 0.57199098E-02 0.27377967E+03</pdfrwt>
<pdfrwt beam="2">  1       -3 0.77540126E-01 0.27377967E+03</pdfrwt>
<totfact> 0.74490250E+02</totfact>
</mgrwt>
</event>
<event>
 5    1  0.1147887E+001  0.2769741E+03  0.7818608E-02  0.1097353E+00
          2   -1    0    0  501    0  0.00000000000E+00  0.00000000000E+00  0.41750704053E+02  0.41750704053E+02  0.00000000000E+00 0.  1.
         -2   -1    0    0    0  501 -0.00000000000E+00 -0.00000000000E+00 -0.45936146915E+03  0.45936146915E+03  0.00000000000E+00 0.  1.
         35    2    1    2    0    0  0.00000000000E+00  0.00000000000E+00 -0.41761076510E+03  0.50111217321E+03  0.27697411252E+03 0.  0.
         25    1    3    3    0    0 -0.56238496043E+02 -0.16924690841E+02 -0.27477317731E+03  0.30553152467E+03  0.12000000000E+03 0.  0.
         25    1    3    3    0    0  0.56238496043E+02  0.16924690841E+02 -0.14283758779E+03  0.19558064854E+03  0.12000000000E+03 0.  0.
<mgrwt>
<rscale>  0 0.27697411E+03</rscale>
<asrwt>0</asrwt>
<pdfrwt beam="1">  1        2 0.64231851E-02 0.27697411E+03</pdfrwt>
<pdfrwt beam="2">  1       -2 0.70670997E-01 0.27697411E+03</pdfrwt>
<totfact> 0.21071102E+03</totfact>
</mgrwt>
</event>
<event>
 5    1  0.1147887E+001  0.2746013E+03  0.7818608E-02  0.1098675E+00
         -2   -1    0    0    0  501 -0.00000000000E+00  0.00000000000E+00  0.38266192113E+02  0.38266192113E+02  0.00000000000E+00 0.  1.
          2   -1    0    0  501    0  0.00000000000E+00 -0.00000000000E+00 -0.49264028480E+03  0.49264028480E+03  0.00000000000E+00 0.  1.
         35    2    1    2    0    0  0.00000000000E+00  0.00000000000E+00 -0.45437409269E+03  0.53090647692E+03  0.27460129483E+03 0.  0.
         25    1    3    3    0    0  0.51952548305E+02 -0.21237545287E+02 -0.15744167883E+03  0.20576195673E+03  0.12000000000E+03 0.  0.
         25    1    3    3    0    0 -0.51952548305E+02  0.21237545287E+02 -0.29693241386E+03  0.32514452019E+03  0.12000000000E+03 0.  0.
<mgrwt>
<rscale>  0 0.27460129E+03</rscale>
<asrwt>0</asrwt>
<pdfrwt beam="1">  1        2 0.75790814E-01 0.27460129E+03</pdfrwt>
<pdfrwt beam="2">  1       -2 0.58871064E-02 0.27460129E+03</pdfrwt>
<totfact> 0.95909098E+03</totfact>
</mgrwt>
</event>
<event>
 5    1  0.1147887E+001  0.2756162E+03  0.7818608E-02  0.1098108E+00
         -1   -1    0    0    0  501 -0.00000000000E+00  0.00000000000E+00  0.24436406682E+03  0.24436406682E+03  0.00000000000E+00 0. -1.
          1   -1    0    0  501    0  0.00000000000E+00 -0.00000000000E+00 -0.77716327329E+02  0.77716327329E+02  0.00000000000E+00 0. -1.
         35    2    1    2    0    0  0.00000000000E+00  0.00000000000E+00  0.16664773949E+03  0.32208039415E+03  0.27561623903E+03 0.  0.
         25    1    3    3    0    0  0.61586084052E+02 -0.71917185904E+01  0.11525230699E+03  0.17756030196E+03  0.12000000000E+03 0.  0.
         25    1    3    3    0    0 -0.61586084052E+02  0.71917185904E+01  0.51395432504E+02  0.14452009219E+03  0.12000000000E+03 0.  0.
<mgrwt>
<rscale>  0 0.27561624E+03</rscale>
<asrwt>0</asrwt>
<pdfrwt beam="1">  1        1 0.11956358E-01 0.27561624E+03</pdfrwt>
<pdfrwt beam="2">  1       -1 0.37594471E-01 0.27561624E+03</pdfrwt>
<totfact> 0.34603242E+03</totfact>
</mgrwt>
</event>
<event>
 5    1  0.1147887E+001  0.2746836E+03  0.7818608E-02  0.1098629E+00
         -2   -1    0    0    0  501 -0.00000000000E+00  0.00000000000E+00  0.16501435700E+02  0.16501435700E+02  0.00000000000E+00 0. -1.
          2   -1    0    0  501    0  0.00000000000E+00 -0.00000000000E+00 -0.11430990564E+04  0.11430990564E+04  0.00000000000E+00 0. -1.
         35    2    1    2    0    0  0.00000000000E+00  0.00000000000E+00 -0.11265976207E+04  0.11596004921E+04  0.27468364042E+03 0.  0.
         25    1    3    3    0    0  0.44360363716E+02  0.17895214395E+02 -0.36643097072E+03  0.38853537403E+03  0.12000000000E+03 0.  0.
         25    1    3    3    0    0 -0.44360363716E+02 -0.17895214395E+02 -0.76016665001E+03  0.77106511810E+03  0.12000000000E+03 0.  0.
<mgrwt>
<rscale>  0 0.27468364E+03</rscale>
<asrwt>0</asrwt>
<pdfrwt beam="1">  1        2 0.17586145E+00 0.27468364E+03</pdfrwt>
<pdfrwt beam="2">  1       -2 0.25386815E-02 0.27468364E+03</pdfrwt>
<totfact> 0.11687141E+04</totfact>
</mgrwt>
</event>
<event>
 5    1  0.1147887E+001  0.2737970E+03  0.7818608E-02  0.1099126E+00
         -1   -1    0    0    0  501 -0.00000000000E+00  0.00000000000E+00  0.17305241769E+04  0.17305241769E+04  0.00000000000E+00 0.  1.
          1   -1    0    0  501    0  0.00000000000E+00 -0.00000000000E+00 -0.10829782959E+02  0.10829782959E+02  0.00000000000E+00 0.  1.
         35    2    1    2    0    0  0.00000000000E+00  0.00000000000E+00  0.17196943939E+04  0.17413539598E+04  0.27379701416E+03 0.  0.
         25    1    3    3    0    0  0.39934123627E+02 -0.29776158798E+01  0.52707777617E+03  0.54204666086E+03  0.12000000000E+03 0.  0.
         25    1    3    3    0    0 -0.39934123627E+02  0.29776158798E+01  0.11926166178E+04  0.11993072990E+04  0.12000000000E+03 0.  0.
<mgrwt>
<rscale>  0 0.27379701E+03</rscale>
<asrwt>0</asrwt>
<pdfrwt beam="1">  1        1 0.16661218E-02 0.27379701E+03</pdfrwt>
<pdfrwt beam="2">  1       -1 0.26623427E+00 0.27379701E+03</pdfrwt>
<totfact> 0.49188739E+02</totfact>
</mgrwt>
</event>
<event>
 5    1  0.1147887E+001  0.2685034E+03  0.7818608E-02  0.1102139E+00
          2   -1    0    0  501    0  0.00000000000E+00  0.00000000000E+00  0.21528356617E+04  0.21528356617E+04  0.00000000000E+00 0. -1.
         -2   -1    0    0    0  501 -0.00000000000E+00 -0.00000000000E+00 -0.83719879593E+01  0.83719879593E+01  0.00000000000E+00 0. -1.
         35    2    1    2    0    0  0.00000000000E+00  0.00000000000E+00  0.21444636737E+04  0.21612076496E+04  0.26850336488E+03 0.  0.
         25    1    3    3    0    0  0.59621460164E+02 -0.40014337020E+01  0.11307107050E+04  0.11386296274E+04  0.12000000000E+03 0.  0.
         25    1    3    3    0    0 -0.59621460164E+02  0.40014337020E+01  0.10137529687E+04  0.10225780222E+04  0.12000000000E+03 0.  0.
<mgrwt>
<rscale>  0 0.26850336E+03</rscale>
<asrwt>0</asrwt>
<pdfrwt beam="1">  1        2 0.33120504E+00 0.26850336E+03</pdfrwt>
<pdfrwt beam="2">  1       -2 0.12879999E-02 0.26850336E+03</pdfrwt>
<totfact> 0.90926419E+03</totfact>
</mgrwt>
</event>
<event>
 5    1  0.1147887E+001  0.2755060E+03  0.7818608E-02  0.1098169E+00
          4   -1    0    0  501    0  0.00000000000E+00  0.00000000000E+00  0.52249285097E+03  0.52249285097E+03  0.00000000000E+00 0.  1.
         -4   -1    0    0    0  501 -0.00000000000E+00 -0.00000000000E+00 -0.36317987567E+02  0.36317987567E+02  0.00000000000E+00 0.  1.
         35    2    1    2    0    0  0.00000000000E+00  0.00000000000E+00  0.48617486340E+03  0.55881083854E+03  0.27550599896E+03 0.  0.
         25    1    3    3    0    0  0.24347563633E+02  0.63100675542E+02  0.24547856157E+03  0.28148574262E+03  0.12000000000E+03 0.  0.
         25    1    3    3    0    0 -0.24347563633E+02 -0.63100675542E+02  0.24069630183E+03  0.27732509592E+03  0.12000000000E+03 0.  0.
<mgrwt>
<rscale>  0 0.27550600E+03</rscale>
<asrwt>0</asrwt>
<pdfrwt beam="1">  1        4 0.80383510E-01 0.27550600E+03</pdfrwt>
<pdfrwt beam="2">  1       -4 0.55873831E-02 0.27550600E+03</pdfrwt>
<totfact> 0.52509201E+02</totfact>
</mgrwt>
</event>
<event>
 5    1  0.1147887E+001  0.2745341E+03  0.7818608E-02  0.1098712E+00
          1   -1    0    0  501    0  0.00000000000E+00  0.00000000000E+00  0.73232960814E+03  0.73232960814E+03  0.00000000000E+00 0.  1.
         -1   -1    0    0    0  501 -0.00000000000E+00 -0.00000000000E+00 -0.25729185192E+02  0.25729185192E+02  0.00000000000E+00 0.  1.
         35    2    1    2    0    0  0.00000000000E+00  0.00000000000E+00  0.70660042295E+03  0.75805879333E+03  0.27453410797E+03 0.  0.
         25    1    3    3    0    0 -0.63001787751E+02 -0.14586243442E+02  0.39784640378E+03  0.42055171472E+03  0.12000000000E+03 0.  0.
         25    1    3    3    0    0  0.63001787751E+02  0.14586243442E+02  0.30875401917E+03  0.33750707861E+03  0.12000000000E+03 0.  0.
<mgrwt>
<rscale>  0 0.27453411E+03</rscale>
<asrwt>0</asrwt>
<pdfrwt beam="1">  1        1 0.11266608E+00 0.27453411E+03</pdfrwt>
<pdfrwt beam="2">  1       -1 0.39583367E-02 0.27453411E+03</pdfrwt>
<totfact> 0.65687471E+03</totfact>
</mgrwt>
</event>
<event>
 5    1  0.1147887E+001  0.2885682E+03  0.7818608E-02  0.1091099E+00
          2   -1    0    0  501    0  0.00000000000E+00  0.00000000000E+00  0.29885191311E+04  0.29885191311E+04  0.00000000000E+00 0.  1.
         -2   -1    0    0    0  501 -0.00000000000E+00 -0.00000000000E+00 -0.69659581966E+01  0.69659581966E+01  0.00000000000E+00 0.  1.
         35    2    1    2    0    0  0.00000000000E+00  0.00000000000E+00  0.29815531729E+04  0.29954850893E+04  0.28856818492E+03 0.  0.
         25    1    3    3    0    0 -0.70624606526E+02 -0.35478129877E+02  0.16266648010E+04  0.16329987469E+04  0.12000000000E+03 0.  0.
         25    1    3    3    0    0  0.70624606526E+02  0.35478129877E+02  0.13548883719E+04  0.13624863424E+04  0.12000000000E+03 0.  0.
<mgrwt>
<rscale>  0 0.28856818E+03</rscale>
<asrwt>0</asrwt>
<pdfrwt beam="1">  1        2 0.45977115E+00 0.28856818E+03</pdfrwt>
<pdfrwt beam="2">  1       -2 0.10716883E-02 0.28856818E+03</pdfrwt>
<totfact> 0.40761476E+03</totfact>
</mgrwt>
</event>
<event>
 5    1  0.1147887E+001  0.2755875E+03  0.7818608E-02  0.1098124E+00
          3   -1    0    0  501    0  0.00000000000E+00  0.00000000000E+00  0.38819045242E+03  0.38819045242E+03  0.00000000000E+00 0.  1.
         -3   -1    0    0    0  501 -0.00000000000E+00 -0.00000000000E+00 -0.48911856605E+02  0.48911856605E+02  0.00000000000E+00 0.  1.
         35    2    1    2    0    0  0.00000000000E+00  0.00000000000E+00  0.33927859582E+03  0.43710230903E+03  0.27558748698E+03 0.  0.
         25    1    3    3    0    0  0.17102379585E+02 -0.39858765871E+02  0.87134400343E+02  0.15451089388E+03  0.12000000000E+03 0.  0.
         25    1    3    3    0    0 -0.17102379585E+02  0.39858765871E+02  0.25214419548E+03  0.28259141515E+03  0.12000000000E+03 0.  0.
<mgrwt>
<rscale>  0 0.27558749E+03</rscale>
<asrwt>0</asrwt>
<pdfrwt beam="1">  1        3 0.59721606E-01 0.27558749E+03</pdfrwt>
<pdfrwt beam="2">  1       -3 0.75249013E-02 0.27558749E+03</pdfrwt>
<totfact> 0.83368855E+02</totfact>
</mgrwt>
</event>
<event>
 5    1  0.1147887E+001  0.2741034E+03  0.7818608E-02  0.1098954E+00
          1   -1    0    0  501    0  0.00000000000E+00  0.00000000000E+00  0.16571248424E+03  0.16571248424E+03  0.00000000000E+00 0.  1.
         -1   -1    0    0    0  501 -0.00000000000E+00 -0.00000000000E+00 -0.11334795938E+03  0.11334795938E+03  0.00000000000E+00 0.  1.
         35    2    1    2    0    0  0.00000000000E+00  0.00000000000E+00  0.52364524857E+02  0.27906044363E+03  0.27410342525E+03 0.  0.
         25    1    3    3    0    0 -0.21792583738E+02  0.62185432624E+02  0.19645304052E+02  0.13830358892E+03  0.12000000000E+03 0.  0.
         25    1    3    3    0    0  0.21792583738E+02 -0.62185432624E+02  0.32719220805E+02  0.14075685471E+03  0.12000000000E+03 0.  0.
<mgrwt>
<rscale>  0 0.27410343E+03</rscale>
<asrwt>0</asrwt>
<pdfrwt beam="1">  1        1 0.25494228E-01 0.27410343E+03</pdfrwt>
<pdfrwt beam="2">  1       -1 0.17438148E-01 0.27410343E+03</pdfrwt>
<totfact> 0.46722008E+03</totfact>
</mgrwt>
</event>
<event>
 5    1  0.1147887E+001  0.2752323E+03  0.7818608E-02  0.1098322E+00
          2   -1    0    0  501    0  0.00000000000E+00  0.00000000000E+00  0.63707406487E+02  0.63707406487E+02  0.00000000000E+00 0.  1.
         -2   -1    0    0    0  501 -0.00000000000E+00 -0.00000000000E+00 -0.29726852996E+03  0.29726852996E+03  0.00000000000E+00 0.  1.
         35    2    1    2    0    0  0.00000000000E+00  0.00000000000E+00 -0.23356112348E+03  0.36097593645E+03  0.27523231696E+03 0.  0.
         25    1    3    3    0    0 -0.32761359299E+02 -0.57086586086E+02 -0.97955529409E+02  0.16830766684E+03  0.12000000000E+03 0.  0.
         25    1    3    3    0    0  0.32761359299E+02  0.57086586086E+02 -0.13560559407E+03  0.19266826962E+03  0.12000000000E+03 0.  0.
<mgrwt>
<rscale>  0 0.27523232E+03</rscale>
<asrwt>0</asrwt>
<pdfrwt beam="1">  1        2 0.98011393E-02 0.27523232E+03</pdfrwt>
<pdfrwt beam="2">  1       -2 0.45733621E-01 0.27523232E+03</pdfrwt>
<totfact> 0.30033887E+03</totfact>
</mgrwt>
</event>
<event>
 5    1  0.1147887E+001  0.2751451E+03  0.7818608E-02  0.1098370E+00
          2   -1    0    0  501    0  0.00000000000E+00  0.00000000000E+00  0.33960723747E+03  0.33960723747E+03  0.00000000000E+00 0. -1.
         -2   -1    0    0    0  501 -0.00000000000E+00 -0.00000000000E+00 -0.55729708202E+02  0.55729708202E+02  0.00000000000E+00 0. -1.
         35    2    1    2    0    0  0.00000000000E+00  0.00000000000E+00  0.28387752927E+03  0.39533694568E+03  0.27514514168E+03 0.  0.
         25    1    3    3    0    0  0.20644751305E+02  0.14614715610E+02  0.52365123404E+02  0.13334879759E+03  0.12000000000E+03 0.  0.
         25    1    3    3    0    0 -0.20644751305E+02 -0.14614715610E+02  0.23151240587E+03  0.26198814809E+03  0.12000000000E+03 0.  0.
<mgrwt>
<rscale>  0 0.27514514E+03</rscale>
<asrwt>0</asrwt>
<pdfrwt beam="1">  1        2 0.52247266E-01 0.27514514E+03</pdfrwt>
<pdfrwt beam="2">  1       -2 0.85738015E-02 0.27514514E+03</pdfrwt>
<totfact> 0.80382903E+03</totfact>
</mgrwt>
</event>
<event>
 5    1  0.1147887E+001  0.2754232E+03  0.7818608E-02  0.1098215E+00
          4   -1    0    0  501    0  0.00000000000E+00  0.00000000000E+00  0.38552076064E+03  0.38552076064E+03  0.00000000000E+00 0. -1.
         -4   -1    0    0    0  501 -0.00000000000E+00 -0.00000000000E+00 -0.49191875540E+02  0.49191875540E+02  0.00000000000E+00 0. -1.
         35    2    1    2    0    0  0.00000000000E+00  0.00000000000E+00  0.33632888510E+03  0.43471263618E+03  0.27542323268E+03 0.  0.
         25    1    3    3    0    0 -0.39987140875E+02 -0.43586723313E+02  0.21968995407E+03  0.25722062477E+03  0.12000000000E+03 0.  0.
         25    1    3    3    0    0  0.39987140875E+02  0.43586723313E+02  0.11663893103E+03  0.17749201141E+03  0.12000000000E+03 0.  0.
<mgrwt>
<rscale>  0 0.27542323E+03</rscale>
<asrwt>0</asrwt>
<pdfrwt beam="1">  1        4 0.59310884E-01 0.27542323E+03</pdfrwt>
<pdfrwt beam="2">  1       -4 0.75679811E-02 0.27542323E+03</pdfrwt>
<totfact> 0.61711136E+02</totfact>
</mgrwt>
</event>
<event>
 5    1  0.1147887E+001  0.2646881E+03  0.7818608E-02  0.1104359E+00
          1   -1    0    0  501    0  0.00000000000E+00  0.00000000000E+00  0.55505132958E+03  0.55505132958E+03  0.00000000000E+00 0.  1.
         -1   -1    0    0    0  501 -0.00000000000E+00 -0.00000000000E+00 -0.31555540610E+02  0.31555540610E+02  0.00000000000E+00 0.  1.
         35    2    1    2    0    0  0.00000000000E+00  0.00000000000E+00  0.52349578897E+03  0.58660687019E+03  0.26468807885E+03 0.  0.
         25    1    3    3    0    0  0.16920452134E+02 -0.40023922095E+02  0.18412550072E+03  0.22403217638E+03  0.12000000000E+03 0.  0.
         25    1    3    3    0    0 -0.16920452134E+02  0.40023922095E+02  0.33937028825E+03  0.36257469380E+03  0.12000000000E+03 0.  0.
<mgrwt>
<rscale>  0 0.26468808E+03</rscale>
<asrwt>0</asrwt>
<pdfrwt beam="1">  1        1 0.85392505E-01 0.26468808E+03</pdfrwt>
<pdfrwt beam="2">  1       -1 0.48546990E-02 0.26468808E+03</pdfrwt>
<totfact> 0.71664121E+03</totfact>
</mgrwt>
</event>
<event>
 5    1  0.1147887E+001  0.2748213E+03  0.7818608E-02  0.1098552E+00
          2   -1    0    0  501    0  0.00000000000E+00  0.00000000000E+00  0.18164678955E+04  0.18164678955E+04  0.00000000000E+00 0.  1.
         -2   -1    0    0    0  501 -0.00000000000E+00 -0.00000000000E+00 -0.10394726163E+02  0.10394726163E+02  0.00000000000E+00 0.  1.
         35    2    1    2    0    0  0.00000000000E+00  0.00000000000E+00  0.18060731693E+04  0.18268626216E+04  0.27482129726E+03 0.  0.
         25    1    3    3    0    0  0.11846077818E+01  0.72469526381E+01  0.13453679882E+04  0.13507290421E+04  0.12000000000E+03 0.  0.
         25    1    3    3    0    0 -0.11846077818E+01 -0.72469526381E+01  0.46070518112E+03  0.47613357950E+03  0.12000000000E+03 0.  0.
<mgrwt>
<rscale>  0 0.27482130E+03</rscale>
<asrwt>0</asrwt>
<pdfrwt beam="1">  1        2 0.27945635E+00 0.27482130E+03</pdfrwt>
<pdfrwt beam="2">  1       -2 0.15991901E-02 0.27482130E+03</pdfrwt>
<totfact> 0.99647315E+03</totfact>
</mgrwt>
</event>
<event>
 5    1  0.1147887E+001  0.2748557E+03  0.7818608E-02  0.1098532E+00
         -2   -1    0    0    0  501 -0.00000000000E+00  0.00000000000E+00  0.70204705118E+02  0.70204705118E+02  0.00000000000E+00 0. -1.
          2   -1    0    0  501    0  0.00000000000E+00 -0.00000000000E+00 -0.26901911185E+03  0.26901911185E+03  0.00000000000E+00 0. -1.
         35    2    1    2    0    0  0.00000000000E+00  0.00000000000E+00 -0.19881440673E+03  0.33922381697E+03  0.27485565243E+03 0.  0.
         25    1    3    3    0    0  0.13328392878E+02  0.96198294751E+01 -0.19268316017E+02  0.12264361042E+03  0.12000000000E+03 0.  0.
         25    1    3    3    0    0 -0.13328392878E+02 -0.96198294751E+01 -0.17954609071E+03  0.21658020654E+03  0.12000000000E+03 0.  0.
<mgrwt>
<rscale>  0 0.27485565E+03</rscale>
<asrwt>0</asrwt>
<pdfrwt beam="1">  1        2 0.41387556E-01 0.27485565E+03</pdfrwt>
<pdfrwt beam="2">  1       -2 0.10800724E-01 0.27485565E+03</pdfrwt>
<totfact> 0.71636072E+03</totfact>
</mgrwt>
</event>
<event>
 5    1  0.1147887E+001  0.2752028E+03  0.7818608E-02  0.1098338E+00
          1   -1    0    0  501    0  0.00000000000E+00  0.00000000000E+00  0.15957390285E+04  0.15957390285E+04  0.00000000000E+00 0.  1.
         -1   -1    0    0    0  501 -0.00000000000E+00 -0.00000000000E+00 -0.11865440529E+02  0.11865440529E+02  0.00000000000E+00 0.  1.
         35    2    1    2    0    0  0.00000000000E+00  0.00000000000E+00  0.15838735880E+04  0.16076044691E+04  0.27520280917E+03 0.  0.
         25    1    3    3    0    0  0.55902016770E+02 -0.33423276718E+02  0.89175609487E+03  0.90214803865E+03  0.12000000000E+03 0.  0.
         25    1    3    3    0    0 -0.55902016770E+02  0.33423276718E+02  0.69211749313E+03  0.70545643041E+03  0.12000000000E+03 0.  0.
<mgrwt>
<rscale>  0 0.27520281E+03</rscale>
<asrwt>0</asrwt>
<pdfrwt beam="1">  1        1 0.24549814E+00 0.27520281E+03</pdfrwt>
<pdfrwt beam="2">  1       -1 0.18254537E-02 0.27520281E+03</pdfrwt>
<totfact> 0.48487874E+03</totfact>
</mgrwt>
</event>
<event>
 5    1  0.1147887E+001  0.2748644E+03  0.7818608E-02  0.1098527E+00
         -2   -1    0    0    0  501 -0.00000000000E+00  0.00000000000E+00  0.57803409164E+03  0.57803409164E+03  0.00000000000E+00 0. -1.
          2   -1    0    0  501    0  0.00000000000E+00 -0.00000000000E+00 -0.32675593393E+02  0.32675593393E+02  0.00000000000E+00 0. -1.
         35    2    1    2    0    0  0.00000000000E+00  0.00000000000E+00  0.54535849825E+03  0.61070968503E+03  0.27486438071E+03 0.  0.
         25    1    3    3    0    0 -0.12324251036E+01 -0.62468562721E+02  0.32636215538E+03  0.35329321628E+03  0.12000000000E+03 0.  0.
         25    1    3    3    0    0  0.12324251036E+01  0.62468562721E+02  0.21899634287E+03  0.25741646876E+03  0.12000000000E+03 0.  0.
<mgrwt>
<rscale>  0 0.27486438E+03</rscale>
<asrwt>0</asrwt>
<pdfrwt beam="1">  1        2 0.50270148E-02 0.27486438E+03</pdfrwt>
<pdfrwt beam="2">  1       -2 0.88928314E-01 0.27486438E+03</pdfrwt>
<totfact> 0.17510342E+03</totfact>
</mgrwt>
</event>
<event>
 5    1  0.1147887E+001  0.2758858E+03  0.7818608E-02  0.1097957E+00
         -1   -1    0    0    0  501 -0.00000000000E+00  0.00000000000E+00  0.27324866809E+03  0.27324866809E+03  0.00000000000E+00 0. -1.
          1   -1    0    0  501    0  0.00000000000E+00 -0.00000000000E+00 -0.69637109067E+02  0.69637109067E+02  0.00000000000E+00 0. -1.
         35    2    1    2    0    0  0.00000000000E+00  0.00000000000E+00  0.20361155903E+03  0.34288577716E+03  0.27588582640E+03 0.  0.
         25    1    3    3    0    0 -0.22445208726E+02 -0.91879786593E+01  0.22808348978E+02  0.12453283555E+03  0.12000000000E+03 0.  0.
         25    1    3    3    0    0  0.22445208726E+02  0.91879786593E+01  0.18080321005E+03  0.21835294161E+03  0.12000000000E+03 0.  0.
<mgrwt>
<rscale>  0 0.27588583E+03</rscale>
<asrwt>0</asrwt>
<pdfrwt beam="1">  1        1 0.10713402E-01 0.27588583E+03</pdfrwt>
<pdfrwt beam="2">  1       -1 0.42038256E-01 0.27588583E+03</pdfrwt>
<totfact> 0.32862861E+03</totfact>
</mgrwt>
</event>
<event>
 5    1  0.1147887E+001  0.2755924E+03  0.7818608E-02  0.1098121E+00
         -1   -1    0    0    0  501 -0.00000000000E+00  0.00000000000E+00  0.31263873084E+02  0.31263873084E+02  0.00000000000E+00 0.  1.
          1   -1    0    0  501    0  0.00000000000E+00 -0.00000000000E+00 -0.60733967748E+03  0.60733967748E+03  0.00000000000E+00 0.  1.
         35    2    1    2    0    0  0.00000000000E+00  0.00000000000E+00 -0.57607580440E+03  0.63860355056E+03  0.27559238448E+03 0.  0.
         25    1    3    3    0    0  0.93534148224E+00  0.11032507602E+01 -0.44495377197E+03  0.46085350299E+03  0.12000000000E+03 0.  0.
         25    1    3    3    0    0 -0.93534148224E+00 -0.11032507602E+01 -0.13112203242E+03  0.17775004758E+03  0.12000000000E+03 0.  0.
<mgrwt>
<rscale>  0 0.27559238E+03</rscale>
<asrwt>0</asrwt>
<pdfrwt beam="1">  1        1 0.93436865E-01 0.27559238E+03</pdfrwt>
<pdfrwt beam="2">  1       -1 0.48098271E-02 0.27559238E+03</pdfrwt>
<totfact> 0.64280800E+03</totfact>
</mgrwt>
</event>
<event>
 5    1  0.1147887E+001  0.2748118E+03  0.7818608E-02  0.1098557E+00
         -2   -1    0    0    0  501 -0.00000000000E+00  0.00000000000E+00  0.18726524937E+02  0.18726524937E+02  0.00000000000E+00 0. -1.
          2   -1    0    0  501    0  0.00000000000E+00 -0.00000000000E+00 -0.10082160014E+04  0.10082160014E+04  0.00000000000E+00 0. -1.
         35    2    1    2    0    0  0.00000000000E+00  0.00000000000E+00 -0.98948947651E+03  0.10269425264E+04  0.27481180537E+03 0.  0.
         25    1    3    3    0    0 -0.67714255599E+01 -0.63328055993E+02 -0.57170000400E+03  0.58761993623E+03  0.12000000000E+03 0.  0.
         25    1    3    3    0    0  0.67714255599E+01  0.63328055993E+02 -0.41778947251E+03  0.43932259015E+03  0.12000000000E+03 0.  0.
<mgrwt>
<rscale>  0 0.27481181E+03</rscale>
<asrwt>0</asrwt>
<pdfrwt beam="1">  1        2 0.15511019E+00 0.27481181E+03</pdfrwt>
<pdfrwt beam="2">  1       -2 0.28810033E-02 0.27481181E+03</pdfrwt>
<totfact> 0.11648327E+04</totfact>
</mgrwt>
</event>
<event>
 5    1  0.1147887E+001  0.2731369E+03  0.7818608E-02  0.1099498E+00
          4   -1    0    0  501    0  0.00000000000E+00  0.00000000000E+00  0.44263841199E+03  0.44263841199E+03  0.00000000000E+00 0. -1.
         -4   -1    0    0    0  501 -0.00000000000E+00 -0.00000000000E+00 -0.42135831227E+02  0.42135831227E+02  0.00000000000E+00 0. -1.
         35    2    1    2    0    0  0.00000000000E+00  0.00000000000E+00  0.40050258076E+03  0.48477424321E+03  0.27313686988E+03 0.  0.
         25    1    3    3    0    0 -0.64034425643E+02  0.34410081325E+01  0.17934964101E+03  0.22511895064E+03  0.12000000000E+03 0.  0.
         25    1    3    3    0    0  0.64034425643E+02 -0.34410081325E+01  0.22115293975E+03  0.25965529258E+03  0.12000000000E+03 0.  0.
<mgrwt>
<rscale>  0 0.27313687E+03</rscale>
<asrwt>0</asrwt>
<pdfrwt beam="1">  1        4 0.68098214E-01 0.27313687E+03</pdfrwt>
<pdfrwt beam="2">  1       -4 0.64824359E-02 0.27313687E+03</pdfrwt>
<totfact> 0.59242603E+02</totfact>
</mgrwt>
</event>
<event>
 5    1  0.1147887E+001  0.2742995E+03  0.7818608E-02  0.1098844E+00
          1   -1    0    0  501    0  0.00000000000E+00  0.00000000000E+00  0.62636583649E+03  0.62636583649E+03  0.00000000000E+00 0.  1.
         -1   -1    0    0    0  501 -0.00000000000E+00 -0.00000000000E+00 -0.30030469968E+02  0.30030469968E+02  0.00000000000E+00 0.  1.
         35    2    1    2    0    0  0.00000000000E+00  0.00000000000E+00  0.59633536652E+03  0.65639630645E+03  0.27429954752E+03 0.  0.
         25    1    3    3    0    0  0.46502170720E+02  0.28833508038E+02  0.38822293882E+03  0.41001325990E+03  0.12000000000E+03 0.  0.
         25    1    3    3    0    0 -0.46502170720E+02 -0.28833508038E+02  0.20811242770E+03  0.24638304656E+03  0.12000000000E+03 0.  0.
<mgrwt>
<rscale>  0 0.27429955E+03</rscale>
<asrwt>0</asrwt>
<pdfrwt beam="1">  1        1 0.96363965E-01 0.27429955E+03</pdfrwt>
<pdfrwt beam="2">  1       -1 0.46200728E-02 0.27429955E+03</pdfrwt>
<totfact> 0.65373975E+03</totfact>
</mgrwt>
</event>
<event>
 5    1  0.1147887E+001  0.2748604E+03  0.7818608E-02  0.1098530E+00
          1   -1    0    0  501    0  0.00000000000E+00  0.00000000000E+00  0.75180649507E+03  0.75180649507E+03  0.00000000000E+00 0. -1.
         -1   -1    0    0    0  501 -0.00000000000E+00 -0.00000000000E+00 -0.25122230964E+02  0.25122230964E+02  0.00000000000E+00 0. -1.
         35    2    1    2    0    0  0.00000000000E+00  0.00000000000E+00  0.72668426410E+03  0.77692872603E+03  0.27486037480E+03 0.  0.
         25    1    3    3    0    0 -0.21407499050E+02  0.17590837927E+02  0.19095618556E+03  0.22722672246E+03  0.12000000000E+03 0.  0.
         25    1    3    3    0    0  0.21407499050E+02 -0.17590837927E+02  0.53572807854E+03  0.54970200357E+03  0.12000000000E+03 0.  0.
<mgrwt>
<rscale>  0 0.27486037E+03</rscale>
<asrwt>0</asrwt>
<pdfrwt beam="1">  1        1 0.11566252E+00 0.27486037E+03</pdfrwt>
<pdfrwt beam="2">  1       -1 0.38649592E-02 0.27486037E+03</pdfrwt>
<totfact> 0.65448845E+03</totfact>
</mgrwt>
</event>
<event>
 5    1  0.1147887E+001  0.2730065E+03  0.7818608E-02  0.1099571E+00
         -2   -1    0    0    0  501 -0.00000000000E+00  0.00000000000E+00  0.16865470372E+02  0.16865470372E+02  0.00000000000E+00 0. -1.
          2   -1    0    0  501    0  0.00000000000E+00 -0.00000000000E+00 -0.11048098011E+04  0.11048098011E+04  0.00000000000E+00 0. -1.
         35    2    1    2    0    0  0.00000000000E+00  0.00000000000E+00 -0.10879443307E+04  0.11216752715E+04  0.27300649786E+03 0.  0.
         25    1    3    3    0    0 -0.58543338683E+02  0.27731585512E+02 -0.56888725225E+03  0.58500347786E+03  0.12000000000E+03 0.  0.
         25    1    3    3    0    0  0.58543338683E+02 -0.27731585512E+02 -0.51905707850E+03  0.53667179363E+03  0.12000000000E+03 0.  0.
<mgrwt>
<rscale>  0 0.27300650E+03</rscale>
<asrwt>0</asrwt>
<pdfrwt beam="1">  1        2 0.16997073E+00 0.27300650E+03</pdfrwt>
<pdfrwt beam="2">  1       -2 0.25946879E-02 0.27300650E+03</pdfrwt>
<totfact> 0.11909400E+04</totfact>
</mgrwt>
</event>
<event>
 5    1  0.1147887E+001  0.2734485E+03  0.7818608E-02  0.1099322E+00
         -1   -1    0    0    0  501 -0.00000000000E+00  0.00000000000E+00  0.29333795971E+02  0.29333795971E+02  0.00000000000E+00 0.  1.
          1   -1    0    0  501    0  0.00000000000E+00 -0.00000000000E+00 -0.63726922679E+03  0.63726922679E+03  0.00000000000E+00 0.  1.
         35    2    1    2    0    0  0.00000000000E+00  0.00000000000E+00 -0.60793543082E+03  0.66660302276E+03  0.27344853612E+03 0.  0.
         25    1    3    3    0    0  0.26405043671E+02  0.59968515551E+02 -0.30329439701E+03  0.33268745159E+03  0.12000000000E+03 0.  0.
         25    1    3    3    0    0 -0.26405043671E+02 -0.59968515551E+02 -0.30464103381E+03  0.33391557117E+03  0.12000000000E+03 0.  0.
<mgrwt>
<rscale>  0 0.27344854E+03</rscale>
<asrwt>0</asrwt>
<pdfrwt beam="1">  1        1 0.98041411E-01 0.27344854E+03</pdfrwt>
<pdfrwt beam="2">  1       -1 0.45128921E-02 0.27344854E+03</pdfrwt>
<totfact> 0.66072832E+03</totfact>
</mgrwt>
</event>
<event>
 5    1  0.1147887E+001  0.2752571E+03  0.7818608E-02  0.1098308E+00
          1   -1    0    0  501    0  0.00000000000E+00  0.00000000000E+00  0.15676371949E+03  0.15676371949E+03  0.00000000000E+00 0. -1.
         -1   -1    0    0    0  501 -0.00000000000E+00 -0.00000000000E+00 -0.12082910183E+03  0.12082910183E+03  0.00000000000E+00 0. -1.
         35    2    1    2    0    0  0.00000000000E+00  0.00000000000E+00  0.35934617658E+02  0.27759282133E+03  0.27525711200E+03 0.  0.
         25    1    3    3    0    0 -0.36522322464E+02 -0.52757580692E+02  0.38742529040E+02  0.14148577990E+03  0.12000000000E+03 0.  0.
         25    1    3    3    0    0  0.36522322464E+02  0.52757580692E+02 -0.28079113820E+01  0.13610704142E+03  0.12000000000E+03 0.  0.
<mgrwt>
<rscale>  0 0.27525711E+03</rscale>
<asrwt>0</asrwt>
<pdfrwt beam="1">  1        1 0.24117495E-01 0.27525711E+03</pdfrwt>
<pdfrwt beam="2">  1       -1 0.18589093E-01 0.27525711E+03</pdfrwt>
<totfact> 0.45246724E+03</totfact>
</mgrwt>
</event>
<event>
 5    1  0.1147887E+001  0.2745456E+03  0.7818608E-02  0.1098706E+00
          2   -1    0    0  501    0  0.00000000000E+00  0.00000000000E+00  0.15146237564E+03  0.15146237564E+03  0.00000000000E+00 0.  1.
         -2   -1    0    0    0  501 -0.00000000000E+00 -0.00000000000E+00 -0.12441254747E+03  0.12441254747E+03  0.00000000000E+00 0.  1.
         35    2    1    2    0    0  0.00000000000E+00  0.00000000000E+00  0.27049828171E+02  0.27587492311E+03  0.27454558819E+03 0.  0.
         25    1    3    3    0    0 -0.38142418472E+02 -0.28261049005E+02  0.60552043422E+02  0.14254852135E+03  0.12000000000E+03 0.  0.
         25    1    3    3    0    0  0.38142418472E+02  0.28261049005E+02 -0.33502215251E+02  0.13332640175E+03  0.12000000000E+03 0.  0.
<mgrwt>
<rscale>  0 0.27454559E+03</rscale>
<asrwt>0</asrwt>
<pdfrwt beam="1">  1        2 0.23301904E-01 0.27454559E+03</pdfrwt>
<pdfrwt beam="2">  1       -2 0.19140392E-01 0.27454559E+03</pdfrwt>
<totfact> 0.52445217E+03</totfact>
</mgrwt>
</event>
<event>
 5    1  0.1147887E+001  0.2748719E+03  0.7818608E-02  0.1098523E+00
         -1   -1    0    0    0  501 -0.00000000000E+00  0.00000000000E+00  0.41511609654E+02  0.41511609654E+02  0.00000000000E+00 0.  1.
          1   -1    0    0  501    0  0.00000000000E+00 -0.00000000000E+00 -0.45502063290E+03  0.45502063290E+03  0.00000000000E+00 0.  1.
         35    2    1    2    0    0  0.00000000000E+00  0.00000000000E+00 -0.41350902325E+03  0.49653224255E+03  0.27487188941E+03 0.  0.
         25    1    3    3    0    0 -0.30734241738E+02  0.32876069693E+01 -0.31412959331E+03  0.33768743443E+03  0.12000000000E+03 0.  0.
         25    1    3    3    0    0  0.30734241738E+02 -0.32876069693E+01 -0.99379429931E+02  0.15884480812E+03  0.12000000000E+03 0.  0.
<mgrwt>
<rscale>  0 0.27487189E+03</rscale>
<asrwt>0</asrwt>
<pdfrwt beam="1">  1        1 0.70003173E-01 0.27487189E+03</pdfrwt>
<pdfrwt beam="2">  1       -1 0.63864016E-02 0.27487189E+03</pdfrwt>
<totfact> 0.61884427E+03</totfact>
</mgrwt>
</event>
<event>
 5    1  0.1147887E+001  0.2749132E+03  0.7818608E-02  0.1098500E+00
          2   -1    0    0  501    0  0.00000000000E+00  0.00000000000E+00  0.31940124182E+02  0.31940124182E+02  0.00000000000E+00 0. -1.
         -2   -1    0    0    0  501 -0.00000000000E+00 -0.00000000000E+00 -0.59155427130E+03  0.59155427130E+03  0.00000000000E+00 0. -1.
         35    2    1    2    0    0  0.00000000000E+00  0.00000000000E+00 -0.55961414712E+03  0.62349439548E+03  0.27491320001E+03 0.  0.
         25    1    3    3    0    0 -0.18325820526E+02  0.60084265856E+02 -0.22669775737E+03  0.26407920762E+03  0.12000000000E+03 0.  0.
         25    1    3    3    0    0  0.18325820526E+02 -0.60084265856E+02 -0.33291638975E+03  0.35941518786E+03  0.12000000000E+03 0.  0.
<mgrwt>
<rscale>  0 0.27491320E+03</rscale>
<asrwt>0</asrwt>
<pdfrwt beam="1">  1        2 0.49138651E-02 0.27491320E+03</pdfrwt>
<pdfrwt beam="2">  1       -2 0.91008352E-01 0.27491320E+03</pdfrwt>
<totfact> 0.17125713E+03</totfact>
</mgrwt>
</event>
<event>
 5    1  0.1147887E+001  0.2753715E+03  0.7818608E-02  0.1098244E+00
          2   -1    0    0  501    0  0.00000000000E+00  0.00000000000E+00  0.22867151780E+03  0.22867151780E+03  0.00000000000E+00 0. -1.
         -2   -1    0    0    0  501 -0.00000000000E+00 -0.00000000000E+00 -0.82902188549E+02  0.82902188549E+02  0.00000000000E+00 0. -1.
         35    2    1    2    0    0  0.00000000000E+00  0.00000000000E+00  0.14576932925E+03  0.31157370635E+03  0.27537152565E+03 0.  0.
         25    1    3    3    0    0 -0.13747332283E+02 -0.49582040712E+02  0.23435539748E+02  0.13265214823E+03  0.12000000000E+03 0.  0.
         25    1    3    3    0    0  0.13747332283E+02  0.49582040712E+02  0.12233378950E+03  0.17892155812E+03  0.12000000000E+03 0.  0.
<mgrwt>
<rscale>  0 0.27537153E+03</rscale>
<asrwt>0</asrwt>
<pdfrwt beam="1">  1        2 0.35180233E-01 0.27537153E+03</pdfrwt>
<pdfrwt beam="2">  1       -2 0.12754183E-01 0.27537153E+03</pdfrwt>
<totfact> 0.65326448E+03</totfact>
</mgrwt>
</event>
<event>
 5    1  0.1147887E+001  0.2749493E+03  0.7818608E-02  0.1098480E+00
          2   -1    0    0  501    0  0.00000000000E+00  0.00000000000E+00  0.83719485373E+02  0.83719485373E+02  0.00000000000E+00 0.  1.
         -2   -1    0    0    0  501 -0.00000000000E+00 -0.00000000000E+00 -0.22574529254E+03  0.22574529254E+03  0.00000000000E+00 0.  1.
         35    2    1    2    0    0  0.00000000000E+00  0.00000000000E+00 -0.14202580717E+03  0.30946477791E+03  0.27494930236E+03 0.  0.
         25    1    3    3    0    0 -0.33447497477E+02 -0.48201952804E+02 -0.34418050789E+02  0.13793754225E+03  0.12000000000E+03 0.  0.
         25    1    3    3    0    0  0.33447497477E+02  0.48201952804E+02 -0.10760775638E+03  0.17152723566E+03  0.12000000000E+03 0.  0.
<mgrwt>
<rscale>  0 0.27494930E+03</rscale>
<asrwt>0</asrwt>
<pdfrwt beam="1">  1        2 0.12879921E-01 0.27494930E+03</pdfrwt>
<pdfrwt beam="2">  1       -2 0.34730045E-01 0.27494930E+03</pdfrwt>
<totfact> 0.36335534E+03</totfact>
</mgrwt>
</event>
<event>
 5    1  0.1147887E+001  0.2749164E+03  0.7818608E-02  0.1098498E+00
         -2   -1    0    0    0  501 -0.00000000000E+00  0.00000000000E+00  0.53053284938E+01  0.53053284938E+01  0.00000000000E+00 0. -1.
          2   -1    0    0  501    0  0.00000000000E+00 -0.00000000000E+00 -0.35614679268E+04  0.35614679268E+04  0.00000000000E+00 0. -1.
         35    2    1    2    0    0  0.00000000000E+00  0.00000000000E+00 -0.35561625983E+04  0.35667732552E+04  0.27491640381E+03 0.  0.
         25    1    3    3    0    0  0.41703729032E+02  0.46841726613E+02 -0.20854888250E+04  0.20898796586E+04  0.12000000000E+03 0.  0.
         25    1    3    3    0    0 -0.41703729032E+02 -0.46841726613E+02 -0.14706737733E+04  0.14768935966E+04  0.12000000000E+03 0.  0.
<mgrwt>
<rscale>  0 0.27491640E+03</rscale>
<asrwt>0</asrwt>
<pdfrwt beam="1">  1        2 0.54791861E+00 0.27491640E+03</pdfrwt>
<pdfrwt beam="2">  1       -2 0.81620369E-03 0.27491640E+03</pdfrwt>
<totfact> 0.26415847E+03</totfact>
</mgrwt>
</event>
<event>
 5    1  0.1147887E+001  0.2751533E+03  0.7818608E-02  0.1098366E+00
          2   -1    0    0  501    0  0.00000000000E+00  0.00000000000E+00  0.16051571270E+04  0.16051571270E+04  0.00000000000E+00 0.  1.
         -2   -1    0    0    0  501 -0.00000000000E+00 -0.00000000000E+00 -0.11791575141E+02  0.11791575141E+02  0.00000000000E+00 0.  1.
         35    2    1    2    0    0  0.00000000000E+00  0.00000000000E+00  0.15933655519E+04  0.16169487022E+04  0.27515327275E+03 0.  0.
         25    1    3    3    0    0 -0.50977249635E+02  0.28804782509E+02  0.60187439306E+03  0.61650724286E+03  0.12000000000E+03 0.  0.
         25    1    3    3    0    0  0.50977249635E+02 -0.28804782509E+02  0.99149115883E+03  0.10004414593E+04  0.12000000000E+03 0.  0.
<mgrwt>
<rscale>  0 0.27515327E+03</rscale>
<asrwt>0</asrwt>
<pdfrwt beam="1">  1        2 0.24694708E+00 0.27515327E+03</pdfrwt>
<pdfrwt beam="2">  1       -2 0.18140898E-02 0.27515327E+03</pdfrwt>
<totfact> 0.10702420E+04</totfact>
</mgrwt>
</event>
<event>
 5    1  0.1147887E+001  0.2737245E+03  0.7818608E-02  0.1099167E+00
         -3   -1    0    0    0  501 -0.00000000000E+00  0.00000000000E+00  0.28794633559E+03  0.28794633559E+03  0.00000000000E+00 0. -1.
          3   -1    0    0  501    0  0.00000000000E+00 -0.00000000000E+00 -0.65051273675E+02  0.65051273675E+02  0.00000000000E+00 0. -1.
         35    2    1    2    0    0  0.00000000000E+00  0.00000000000E+00  0.22289506191E+03  0.35299760926E+03  0.27372450296E+03 0.  0.
         25    1    3    3    0    0 -0.38902456692E+02  0.52594126929E+02  0.12072308918E+03  0.18235571717E+03  0.12000000000E+03 0.  0.
         25    1    3    3    0    0  0.38902456692E+02 -0.52594126929E+02  0.10217197273E+03  0.17064189209E+03  0.12000000000E+03 0.  0.
<mgrwt>
<rscale>  0 0.27372450E+03</rscale>
<asrwt>0</asrwt>
<pdfrwt beam="1">  1        3 0.10007888E-01 0.27372450E+03</pdfrwt>
<pdfrwt beam="2">  1       -3 0.44299436E-01 0.27372450E+03</pdfrwt>
<totfact> 0.95215797E+02</totfact>
</mgrwt>
</event>
<event>
 5    1  0.1147887E+001  0.2750234E+03  0.7818608E-02  0.1098439E+00
         -3   -1    0    0    0  501 -0.00000000000E+00  0.00000000000E+00  0.10650714890E+03  0.10650714890E+03  0.00000000000E+00 0.  1.
          3   -1    0    0  501    0  0.00000000000E+00 -0.00000000000E+00 -0.17754180417E+03  0.17754180417E+03  0.00000000000E+00 0.  1.
         35    2    1    2    0    0  0.00000000000E+00  0.00000000000E+00 -0.71034655264E+02  0.28404895307E+03  0.27502342717E+03 0.  0.
         25    1    3    3    0    0  0.23068852243E+02 -0.32868369646E+02  0.20072519544E+02  0.12812262762E+03  0.12000000000E+03 0.  0.
         25    1    3    3    0    0 -0.23068852243E+02  0.32868369646E+02 -0.91107174809E+02  0.15592632545E+03  0.12000000000E+03 0.  0.
<mgrwt>
<rscale>  0 0.27502343E+03</rscale>
<asrwt>0</asrwt>
<pdfrwt beam="1">  1        3 0.27314123E-01 0.27502343E+03</pdfrwt>
<pdfrwt beam="2">  1       -3 0.16385715E-01 0.27502343E+03</pdfrwt>
<totfact> 0.10349663E+03</totfact>
</mgrwt>
</event>
