<event>
 9    1  0.4370149E-036  0.1003567E+04  0.7818608E-02  0.8677648E-01
          1   -1    0    0  501    0  0.00000000000E+00  0.00000000000E+00  0.57563305795E+03  0.57563305795E+03  0.00000000000E+00 0.  1.
         -1   -1    0    0    0  501 -0.00000000000E+00 -0.00000000000E+00 -0.43740868913E+03  0.43740868913E+03  0.00000000000E+00 0.  1.
         36    2    1    2    0    0  0.00000000000E+00  0.71054273576E-14  0.13822436882E+03  0.10130417471E+04  0.10035674393E+04 0.  0.
         25    2    3    3    0    0 -0.81541971267E+02  0.24114951289E+02 -0.90502584662E+02  0.17653430509E+03  0.12547118828E+03 0.  0.
         35    2    3    3    0    0  0.81541971267E+02 -0.24114951289E+02  0.22872695348E+03  0.83650744198E+03  0.80012377623E+03 0.  0.
         22    1    5    5    0    0  0.50680411334E+02 -0.41111880993E+03  0.87394276916E+02  0.42334966589E+03  0.00000000000E+00 0. -1.
         22    1    5    5    0    0  0.30861559933E+02  0.38700385864E+03  0.14133267657E+03  0.41315777610E+03  0.00000000000E+00 0. -1.
          5    1    4    4  502    0 -0.55781913283E+02 -0.45952058211E+02 -0.65545160860E+02  0.97680456671E+02  0.47000000000E+01 0.  1.
         -5    1    4    4    0  502 -0.25760057985E+02  0.70067009501E+02 -0.24957423803E+02  0.78853848420E+02  0.47000000000E+01 0.  1.
<mgrwt>
<rscale>  0 0.10035674E+04</rscale>
<asrwt>0</asrwt>
<pdfrwt beam="1">  1        1 0.88558932E-01 0.10035674E+04</pdfrwt>
<pdfrwt beam="2">  1       -1 0.67293644E-01 0.10035674E+04</pdfrwt>
<totfact> 0.94978044E+01</totfact>
</mgrwt>
</event>
<event>
 9    1  0.4370149E-036  0.9997924E+03  0.7818608E-02  0.8681236E-01
          2   -1    0    0  501    0  0.00000000000E+00  0.00000000000E+00  0.35186397462E+03  0.35186397462E+03  0.00000000000E+00 0. -1.
         -2   -1    0    0    0  501 -0.00000000000E+00 -0.00000000000E+00 -0.71020681976E+03  0.71020681976E+03  0.00000000000E+00 0. -1.
         36    2    1    2    0    0 -0.28421709430E-13  0.00000000000E+00 -0.35834284514E+03  0.10620707944E+04  0.99979236726E+03 0.  0.
         25    2    3    3    0    0 -0.78144189602E+02 -0.11317691239E+03 -0.96372692984E+02  0.20928268081E+03  0.12488401285E+03 0.  0.
         35    2    3    3    0    0  0.78144189602E+02  0.11317691239E+03 -0.26197015216E+03  0.85278811358E+03  0.79981477741E+03 0.  0.
         22    1    5    5    0    0  0.36230017626E+03  0.20287246733E+03 -0.34893746005E+03  0.54237994685E+03  0.00000000000E+00 0. -1.
         22    1    5    5    0    0 -0.28415598666E+03 -0.89695554941E+02  0.86967307889E+02  0.31040816673E+03  0.00000000000E+00 0. -1.
          5    1    4    4  502    0 -0.68318109858E+02 -0.12979953285E+03 -0.43913719137E+02  0.15318546795E+03  0.47000000000E+01 0. -1.
         -5    1    4    4    0  502 -0.98260797436E+01  0.16622620453E+02 -0.52458973847E+02  0.56097212862E+02  0.47000000000E+01 0. -1.
<mgrwt>
<rscale>  0 0.99979237E+03</rscale>
<asrwt>0</asrwt>
<pdfrwt beam="1">  1        2 0.54132920E-01 0.99979237E+03</pdfrwt>
<pdfrwt beam="2">  1       -2 0.10926259E+00 0.99979237E+03</pdfrwt>
<totfact> 0.72345315E+01</totfact>
</mgrwt>
</event>
<event>
 9    1  0.4370149E-036  0.1000254E+04  0.7818608E-02  0.8680796E-01
         -2   -1    0    0    0  501 -0.00000000000E+00  0.00000000000E+00  0.13492432472E+03  0.13492432472E+03  0.00000000000E+00 0.  1.
          2   -1    0    0  501    0  0.00000000000E+00 -0.00000000000E+00 -0.18538326430E+04  0.18538326430E+04  0.00000000000E+00 0.  1.
         36    2    1    2    0    0 -0.14210854715E-13  0.00000000000E+00 -0.17189083183E+04  0.19887569677E+04  0.10002542027E+04 0.  0.
         25    2    3    3    0    0  0.11501351242E+03 -0.81488398065E+02 -0.31317766092E+03  0.36557492123E+03  0.12528491002E+03 0.  0.
         35    2    3    3    0    0 -0.11501351242E+03  0.81488398065E+02 -0.14057306573E+04  0.16231820465E+04  0.79923263694E+03 0.  0.
         22    1    5    5    0    0 -0.98129062017E+02 -0.19660063438E+03 -0.13104418756E+04  0.13287358773E+04  0.00000000000E+00 0.  1.
         22    1    5    5    0    0 -0.16884450401E+02  0.27808903244E+03 -0.95288781756E+02  0.29444616920E+03  0.00000000000E+00 0.  1.
          5    1    4    4  502    0  0.41055320203E+02 -0.10090981446E+03 -0.21473392764E+03  0.24083413307E+03  0.47000000000E+01 0.  1.
         -5    1    4    4    0  502  0.73958192214E+02  0.19421416393E+02 -0.98443733275E+02  0.12474078816E+03  0.47000000000E+01 0.  1.
<mgrwt>
<rscale>  0 0.10002542E+04</rscale>
<asrwt>0</asrwt>
<pdfrwt beam="1">  1        2 0.28520503E+00 0.10002542E+04</pdfrwt>
<pdfrwt beam="2">  1       -2 0.20757588E-01 0.10002542E+04</pdfrwt>
<totfact> 0.19023306E+02</totfact>
</mgrwt>
</event>
<event>
 9    1  0.4370149E-036  0.9986900E+03  0.7818608E-02  0.8682286E-01
          2   -1    0    0  501    0  0.00000000000E+00  0.00000000000E+00  0.21495411643E+04  0.21495411643E+04  0.00000000000E+00 0.  1.
         -2   -1    0    0    0  501 -0.00000000000E+00 -0.00000000000E+00 -0.11599937169E+03  0.11599937169E+03  0.00000000000E+00 0.  1.
         36    2    1    2    0    0 -0.14210854715E-13  0.71054273576E-14  0.20335417926E+04  0.22655405360E+04  0.99868999091E+03 0.  0.
         25    2    3    3    0    0 -0.66869185483E+02  0.59292419049E+02  0.62324370682E+03  0.64190568612E+03  0.12499245117E+03 0.  0.
         35    2    3    3    0    0  0.66869185483E+02 -0.59292419049E+02  0.14102980858E+04  0.16236348499E+04  0.79953883961E+03 0.  0.
         22    1    5    5    0    0  0.42579054723E+03  0.46149358898E+02  0.81163163966E+03  0.91769999016E+03  0.00000000000E+00 0. -1.
         22    1    5    5    0    0 -0.35892136174E+03 -0.10544177795E+03  0.59866644616E+03  0.70593485975E+03  0.00000000000E+00 0. -1.
          5    1    4    4  502    0 -0.89614449887E+02  0.70655999716E+02  0.36703049862E+03  0.38439107279E+03  0.47000000000E+01 0. -1.
         -5    1    4    4    0  502  0.22745264404E+02 -0.11363580667E+02  0.25621320820E+03  0.25751461332E+03  0.47000000000E+01 0. -1.
<mgrwt>
<rscale>  0 0.99868999E+03</rscale>
<asrwt>0</asrwt>
<pdfrwt beam="1">  1        2 0.33069861E+00 0.99868999E+03</pdfrwt>
<pdfrwt beam="2">  1       -2 0.17846059E-01 0.99868999E+03</pdfrwt>
<totfact> 0.16736889E+02</totfact>
</mgrwt>
</event>
<event>
 9    1  0.4370149E-036  0.1000181E+04  0.7818608E-02  0.8680865E-01
          1   -1    0    0  501    0  0.00000000000E+00  0.00000000000E+00  0.26661147677E+04  0.26661147677E+04  0.00000000000E+00 0. -1.
         -1   -1    0    0    0  501 -0.00000000000E+00 -0.00000000000E+00 -0.93803434502E+02  0.93803434502E+02  0.00000000000E+00 0. -1.
         36    2    1    2    0    0  0.00000000000E+00  0.14210854715E-13  0.25723113332E+04  0.27599182022E+04  0.10001814275E+04 0.  0.
         25    2    3    3    0    0 -0.60188849540E+02 -0.38213725018E+02  0.14688233722E+03  0.20495581840E+03  0.12389301885E+03 0.  0.
         35    2    3    3    0    0  0.60188849540E+02  0.38213725018E+02  0.24254289960E+04  0.25549623838E+04  0.80002748809E+03 0.  0.
         22    1    5    5    0    0  0.23291049906E+03 -0.22178518951E+03  0.43924617374E+03  0.54440166422E+03  0.00000000000E+00 0.  1.
         22    1    5    5    0    0 -0.17272164952E+03  0.25999891452E+03  0.19861828222E+04  0.20105607196E+04  0.00000000000E+00 0.  1.
          5    1    4    4  502    0 -0.75343191544E+02 -0.18621292263E+02  0.15899311273E+03  0.17698657840E+03  0.47000000000E+01 0.  1.
         -5    1    4    4    0  502  0.15154342004E+02 -0.19592432755E+02 -0.12110775512E+02  0.27969240003E+02  0.47000000000E+01 0.  1.
<mgrwt>
<rscale>  0 0.10001814E+04</rscale>
<asrwt>0</asrwt>
<pdfrwt beam="1">  1        1 0.41017144E+00 0.10001814E+04</pdfrwt>
<pdfrwt beam="2">  1       -1 0.14431300E-01 0.10001814E+04</pdfrwt>
<totfact> 0.36935377E+01</totfact>
</mgrwt>
</event>
<event>
 9    1  0.4370149E-036  0.9999625E+03  0.7818608E-02  0.8681074E-01
         -2   -1    0    0    0  501 -0.00000000000E+00  0.00000000000E+00  0.16044277807E+03  0.16044277807E+03  0.00000000000E+00 0.  1.
          2   -1    0    0  501    0  0.00000000000E+00 -0.00000000000E+00 -0.15580711533E+04  0.15580711533E+04  0.00000000000E+00 0.  1.
         36    2    1    2    0    0  0.71054273576E-14  0.71054273576E-14 -0.13976283752E+04  0.17185139314E+04  0.99996252784E+03 0.  0.
         25    2    3    3    0    0 -0.34937331827E+02  0.26122636002E+02 -0.48968378405E+03  0.50754577574E+03  0.12613285395E+03 0.  0.
         35    2    3    3    0    0  0.34937331827E+02 -0.26122636002E+02 -0.90794459116E+03  0.12109681556E+04  0.80011091983E+03 0.  0.
         22    1    5    5    0    0  0.23900830458E+03 -0.25823360566E+03 -0.13212668927E+03  0.37585506085E+03  0.00000000000E+00 0. -1.
         22    1    5    5    0    0 -0.20407097276E+03  0.23211096966E+03 -0.77581790189E+03  0.83511309477E+03  0.00000000000E+00 0. -1.
          5    1    4    4  502    0 -0.48429843258E+02  0.71038893162E+02 -0.30213965546E+03  0.31416943750E+03  0.47000000000E+01 0.  1.
         -5    1    4    4    0  502  0.13492511432E+02 -0.44916257160E+02 -0.18754412859E+03  0.19337633824E+03  0.47000000000E+01 0.  1.
<mgrwt>
<rscale>  0 0.99996253E+03</rscale>
<asrwt>0</asrwt>
<pdfrwt beam="1">  1        2 0.23970325E+00 0.99996253E+03</pdfrwt>
<pdfrwt beam="2">  1       -2 0.24683505E-01 0.99996253E+03</pdfrwt>
<totfact> 0.20611362E+02</totfact>
</mgrwt>
</event>
<event>
 9    1  0.4370149E-036  0.9995876E+03  0.7818608E-02  0.8681431E-01
         -2   -1    0    0    0  501 -0.00000000000E+00  0.00000000000E+00  0.40282347104E+03  0.40282347104E+03  0.00000000000E+00 0.  1.
          2   -1    0    0  501    0  0.00000000000E+00 -0.00000000000E+00 -0.62010749432E+03  0.62010749432E+03  0.00000000000E+00 0.  1.
         36    2    1    2    0    0  0.21316282073E-13  0.00000000000E+00 -0.21728402328E+03  0.10229309654E+04  0.99958762154E+03 0.  0.
         25    2    3    3    0    0 -0.13256172271E+02  0.13486835296E+03 -0.95247183217E+01  0.18428791617E+03  0.12452356023E+03 0.  0.
         35    2    3    3    0    0  0.13256172271E+02 -0.13486835296E+03 -0.20775930496E+03  0.83864304920E+03  0.80111986396E+03 0.  0.
         22    1    5    5    0    0  0.30683356422E+03  0.16411551187E+03 -0.23314639690E+03  0.41885317208E+03  0.00000000000E+00 0.  1.
         22    1    5    5    0    0 -0.29357739195E+03 -0.29898386483E+03  0.25387091946E+02  0.41978987712E+03  0.00000000000E+00 0.  1.
          5    1    4    4  502    0  0.27583575623E+02  0.56544431960E+02 -0.56006606945E+02  0.84362055756E+02  0.47000000000E+01 0.  1.
         -5    1    4    4    0  502 -0.40839747894E+02  0.78323921004E+02  0.46481888624E+02  0.99925860414E+02  0.47000000000E+01 0.  1.
<mgrwt>
<rscale>  0 0.99958762E+03</rscale>
<asrwt>0</asrwt>
<pdfrwt beam="1">  1        2 0.95401152E-01 0.99958762E+03</pdfrwt>
<pdfrwt beam="2">  1       -2 0.61972842E-01 0.99958762E+03</pdfrwt>
<totfact> 0.13938788E+02</totfact>
</mgrwt>
</event>
<event>
 9    1  0.4370149E-036  0.1001022E+04  0.7818608E-02  0.8680065E-01
          2   -1    0    0  501    0  0.00000000000E+00  0.00000000000E+00  0.85890074349E+03  0.85890074349E+03  0.00000000000E+00 0. -1.
         -2   -1    0    0    0  501 -0.00000000000E+00 -0.00000000000E+00 -0.29166504019E+03  0.29166504019E+03  0.00000000000E+00 0. -1.
         36    2    1    2    0    0  0.00000000000E+00  0.14210854715E-13  0.56723570330E+03  0.11505657837E+04  0.10010221174E+04 0.  0.
         25    2    3    3    0    0  0.78596886758E+02  0.81054990450E+02  0.20354353611E+03  0.26436479972E+03  0.12534510023E+03 0.  0.
         35    2    3    3    0    0 -0.78596886758E+02 -0.81054990450E+02  0.36369216719E+03  0.88620098396E+03  0.80020797885E+03 0.  0.
         22    1    5    5    0    0 -0.23970932507E+03  0.20089932026E+03  0.45200922161E+03  0.54966665702E+03  0.00000000000E+00 0.  1.
         22    1    5    5    0    0  0.16111243832E+03 -0.28195431071E+03 -0.88317054430E+02  0.33653432695E+03  0.00000000000E+00 0.  1.
          5    1    4    4  502    0 -0.24821265464E+02  0.55604592785E+02  0.60521900625E+02  0.85982302907E+02  0.47000000000E+01 0.  1.
         -5    1    4    4    0  502  0.10341815222E+03  0.25450397665E+02  0.14302163549E+03  0.17838249681E+03  0.47000000000E+01 0.  1.
<mgrwt>
<rscale>  0 0.10010221E+04</rscale>
<asrwt>0</asrwt>
<pdfrwt beam="1">  1        2 0.13213857E+00 0.10010221E+04</pdfrwt>
<pdfrwt beam="2">  1       -2 0.44871545E-01 0.10010221E+04</pdfrwt>
<totfact> 0.17834179E+02</totfact>
</mgrwt>
</event>
<event>
 9    1  0.4370149E-036  0.9993145E+03  0.7818608E-02  0.8681691E-01
         -2   -1    0    0    0  501 -0.00000000000E+00  0.00000000000E+00  0.18622453487E+03  0.18622453487E+03  0.00000000000E+00 0. -1.
          2   -1    0    0  501    0  0.00000000000E+00 -0.00000000000E+00 -0.13406256510E+04  0.13406256510E+04  0.00000000000E+00 0. -1.
         36    2    1    2    0    0 -0.17763568394E-14  0.14210854715E-13 -0.11544011161E+04  0.15268501859E+04  0.99931454166E+03 0.  0.
         25    2    3    3    0    0 -0.41737002806E+01 -0.76764076808E+02 -0.39211621932E+03  0.41865926954E+03  0.12494123120E+03 0.  0.
         35    2    3    3    0    0  0.41737002806E+01  0.76764076808E+02 -0.76228489679E+03  0.11081909163E+04  0.80068639296E+03 0.  0.
         22    1    5    5    0    0  0.42752244760E+02 -0.35569330024E+03 -0.25100785304E+03  0.43743619026E+03  0.00000000000E+00 0.  1.
         22    1    5    5    0    0 -0.38578544479E+02  0.43245737704E+03 -0.51127704375E+03  0.67075472605E+03  0.00000000000E+00 0.  1.
          5    1    4    4  502    0  0.15879700867E+02 -0.31414640841E+02 -0.15472814397E+02  0.38736837043E+02  0.47000000000E+01 0. -1.
         -5    1    4    4    0  502 -0.20053401147E+02 -0.45349435968E+02 -0.37664340493E+03  0.37992243250E+03  0.47000000000E+01 0. -1.
<mgrwt>
<rscale>  0 0.99931454E+03</rscale>
<asrwt>0</asrwt>
<pdfrwt beam="1">  1        2 0.20625011E+00 0.99931454E+03</pdfrwt>
<pdfrwt beam="2">  1       -2 0.28649928E-01 0.99931454E+03</pdfrwt>
<totfact> 0.20990041E+02</totfact>
</mgrwt>
</event>
<event>
 9    1  0.4370149E-036  0.9994353E+03  0.7818608E-02  0.8681576E-01
          2   -1    0    0  501    0  0.00000000000E+00  0.00000000000E+00  0.25093097243E+04  0.25093097243E+04  0.00000000000E+00 0.  1.
         -2   -1    0    0    0  501 -0.00000000000E+00 -0.00000000000E+00 -0.99516506452E+02  0.99516506452E+02  0.00000000000E+00 0.  1.
         36    2    1    2    0    0  0.14210854715E-13  0.00000000000E+00  0.24097932178E+04  0.26088262307E+04  0.99943531530E+03 0.  0.
         25    2    3    3    0    0  0.59008023527E+02 -0.12292494138E+03  0.42390327087E+03  0.46382196507E+03  0.12978576258E+03 0.  0.
         35    2    3    3    0    0 -0.59008023527E+02  0.12292494138E+03  0.19858899470E+04  0.21450042657E+04  0.79918203824E+03 0.  0.
         22    1    5    5    0    0  0.67789417596E+02 -0.10991531258E+03 -0.11911891549E+02  0.12968683140E+03  0.00000000000E+00 0. -1.
         22    1    5    5    0    0 -0.12679744112E+03  0.23284025396E+03  0.19978018385E+04  0.20153174343E+04  0.00000000000E+00 0. -1.
          5    1    4    4  502    0 -0.20377442057E+02 -0.93306622400E+02  0.15775783163E+03  0.18447490173E+03  0.47000000000E+01 0. -1.
         -5    1    4    4    0  502  0.79385465584E+02 -0.29618318980E+02  0.26614543924E+03  0.27934706333E+03  0.47000000000E+01 0. -1.
<mgrwt>
<rscale>  0 0.99943532E+03</rscale>
<asrwt>0</asrwt>
<pdfrwt beam="1">  1        2 0.38604760E+00 0.99943532E+03</pdfrwt>
<pdfrwt beam="2">  1       -2 0.15310234E-01 0.99943532E+03</pdfrwt>
<totfact> 0.13280857E+02</totfact>
</mgrwt>
</event>
<event>
 9    1  0.4370149E-036  0.1000504E+04  0.7818608E-02  0.8680558E-01
         -2   -1    0    0    0  501 -0.00000000000E+00  0.00000000000E+00  0.30846700494E+03  0.30846700494E+03  0.00000000000E+00 0.  1.
          2   -1    0    0  501    0  0.00000000000E+00 -0.00000000000E+00 -0.81127692341E+03  0.81127692341E+03  0.00000000000E+00 0.  1.
         36    2    1    2    0    0 -0.35527136788E-14  0.10658141036E-13 -0.50280991847E+03  0.11197439284E+04  0.10005041984E+04 0.  0.
         25    2    3    3    0    0  0.28015801418E+02 -0.28597435799E+02  0.55121572758E+02  0.14242063901E+03  0.12507018898E+03 0.  0.
         35    2    3    3    0    0 -0.28015801418E+02  0.28597435799E+02 -0.55793149123E+03  0.97732328934E+03  0.80141784639E+03 0.  0.
         22    1    5    5    0    0  0.47649549972E+02  0.17638765829E+03  0.15851559426E+03  0.24188898121E+03  0.00000000000E+00 0.  1.
         22    1    5    5    0    0 -0.75665351390E+02 -0.14779022249E+03 -0.71644708549E+03  0.73543430812E+03  0.00000000000E+00 0.  1.
          5    1    4    4  502    0  0.23129940671E+02 -0.52205616279E+02  0.85769203146E+02  0.10314488225E+03  0.47000000000E+01 0.  1.
         -5    1    4    4    0  502  0.48858607463E+01  0.23608180479E+02 -0.30647630388E+02  0.39275756762E+02  0.47000000000E+01 0.  1.
<mgrwt>
<rscale>  0 0.10005042E+04</rscale>
<asrwt>0</asrwt>
<pdfrwt beam="1">  1        2 0.12481183E+00 0.10005042E+04</pdfrwt>
<pdfrwt beam="2">  1       -2 0.47456462E-01 0.10005042E+04</pdfrwt>
<totfact> 0.17218290E+02</totfact>
</mgrwt>
</event>
<event>
 9    1  0.4370149E-036  0.9997358E+03  0.7818608E-02  0.8681290E-01
         -2   -1    0    0    0  501 -0.00000000000E+00  0.00000000000E+00  0.56079691381E+03  0.56079691381E+03  0.00000000000E+00 0. -1.
          2   -1    0    0  501    0  0.00000000000E+00 -0.00000000000E+00 -0.44555866091E+03  0.44555866091E+03  0.00000000000E+00 0. -1.
         36    2    1    2    0    0 -0.35527136788E-13  0.28421709430E-13  0.11523825290E+03  0.10063555747E+04  0.99973580903E+03 0.  0.
         25    2    3    3    0    0  0.15850064649E+02 -0.66700298789E+02  0.14340818578E+03  0.20259596138E+03  0.12561473405E+03 0.  0.
         35    2    3    3    0    0 -0.15850064649E+02  0.66700298789E+02 -0.28169932882E+02  0.80375961335E+03  0.80033481526E+03 0.  0.
         22    1    5    5    0    0  0.26616314559E+03 -0.24920155566E+03 -0.90629236515E+02  0.37570985338E+03  0.00000000000E+00 0. -1.
         22    1    5    5    0    0 -0.28201321024E+03  0.31590185445E+03  0.62459303633E+02  0.42804975997E+03  0.00000000000E+00 0. -1.
          5    1    4    4  502    0 -0.12641452359E+02 -0.72445197988E+02  0.15446789020E+03  0.17114476951E+03  0.47000000000E+01 0.  1.
         -5    1    4    4    0  502  0.28491517008E+02  0.57448991984E+01 -0.11059704416E+02  0.31451191869E+02  0.47000000000E+01 0.  1.
<mgrwt>
<rscale>  0 0.99973581E+03</rscale>
<asrwt>0</asrwt>
<pdfrwt beam="1">  1        2 0.68547486E-01 0.99973581E+03</pdfrwt>
<pdfrwt beam="2">  1       -2 0.86276449E-01 0.99973581E+03</pdfrwt>
<totfact> 0.98149465E+01</totfact>
</mgrwt>
</event>
<event>
 9    1  0.4370149E-036  0.1000161E+04  0.7818608E-02  0.8680885E-01
          2   -1    0    0  501    0  0.00000000000E+00  0.00000000000E+00  0.26413135936E+04  0.26413135936E+04  0.00000000000E+00 0. -1.
         -2   -1    0    0    0  501 -0.00000000000E+00 -0.00000000000E+00 -0.94680327229E+02  0.94680327229E+02  0.00000000000E+00 0. -1.
         36    2    1    2    0    0  0.00000000000E+00 -0.17763568394E-13  0.25466332663E+04  0.27359939208E+04  0.10001608578E+04 0.  0.
         25    2    3    3    0    0  0.12794150368E+03 -0.31825479942E+02  0.46017045928E+03  0.49703840688E+03  0.13382240760E+03 0.  0.
         35    2    3    3    0    0 -0.12794150368E+03  0.31825479942E+02  0.20864628071E+04  0.22389555139E+04  0.80138184316E+03 0.  0.
         22    1    5    5    0    0  0.21476541695E+03  0.30278727671E+03  0.10705919791E+04  0.11331246643E+04  0.00000000000E+00 0.  1.
         22    1    5    5    0    0 -0.34270692063E+03 -0.27096179677E+03  0.10158708280E+04  0.11058308496E+04  0.00000000000E+00 0.  1.
          5    1    4    4  502    0  0.82178775460E+02  0.19878946218E+02  0.38766280354E+03  0.39680355705E+03  0.47000000000E+01 0. -1.
         -5    1    4    4    0  502  0.45762728222E+02 -0.51704426160E+02  0.72507655747E+02  0.10023484983E+03  0.47000000000E+01 0. -1.
<mgrwt>
<rscale>  0 0.10001609E+04</rscale>
<asrwt>0</asrwt>
<pdfrwt beam="1">  1        2 0.40635588E+00 0.10001609E+04</pdfrwt>
<pdfrwt beam="2">  1       -2 0.14566206E-01 0.10001609E+04</pdfrwt>
<totfact> 0.11970248E+02</totfact>
</mgrwt>
</event>
<event>
 9    1  0.4370149E-036  0.9997057E+03  0.7818608E-02  0.8681318E-01
          1   -1    0    0  501    0  0.00000000000E+00  0.00000000000E+00  0.16413778393E+04  0.16413778393E+04  0.00000000000E+00 0.  1.
         -1   -1    0    0    0  501 -0.00000000000E+00 -0.00000000000E+00 -0.15222143863E+03  0.15222143863E+03  0.00000000000E+00 0.  1.
         36    2    1    2    0    0  0.71054273576E-14  0.28421709430E-13  0.14891564006E+04  0.17935992779E+04  0.99970574877E+03 0.  0.
         25    2    3    3    0    0 -0.98428878695E+01 -0.70572792171E+02  0.63939890343E+02  0.15753276773E+03  0.12510340481E+03 0.  0.
         35    2    3    3    0    0  0.98428878695E+01  0.70572792171E+02  0.14252165103E+04  0.16360665102E+04  0.80024628900E+03 0.  0.
         22    1    5    5    0    0 -0.50132860212E+02 -0.13819657397E+03  0.14107314640E+04  0.14183704947E+04  0.00000000000E+00 0. -1.
         22    1    5    5    0    0  0.59975748081E+02  0.20876936614E+03  0.14485046323E+02  0.21769601550E+03  0.00000000000E+00 0. -1.
          5    1    4    4  502    0 -0.66263414667E+02 -0.41081642547E+02  0.21978128749E+02  0.81139815263E+02  0.47000000000E+01 0.  1.
         -5    1    4    4    0  502  0.56420526797E+02 -0.29491149624E+02  0.41961761594E+02  0.76392952464E+02  0.47000000000E+01 0.  1.
<mgrwt>
<rscale>  0 0.99970575E+03</rscale>
<asrwt>0</asrwt>
<pdfrwt beam="1">  1        1 0.25251966E+00 0.99970575E+03</pdfrwt>
<pdfrwt beam="2">  1       -1 0.23418684E-01 0.99970575E+03</pdfrwt>
<totfact> 0.87538486E+01</totfact>
</mgrwt>
</event>
<event>
 9    1  0.4370149E-036  0.1000512E+04  0.7818608E-02  0.8680550E-01
         -2   -1    0    0    0  501 -0.00000000000E+00  0.00000000000E+00  0.71102823006E+03  0.71102823006E+03  0.00000000000E+00 0.  1.
          2   -1    0    0  501    0  0.00000000000E+00 -0.00000000000E+00 -0.35196384757E+03  0.35196384757E+03  0.00000000000E+00 0.  1.
         36    2    1    2    0    0 -0.14210854715E-13  0.00000000000E+00  0.35906438249E+03  0.10629920776E+04  0.10005123319E+04 0.  0.
         25    2    3    3    0    0  0.71919764658E+02 -0.12048865052E+03  0.72633624607E+02  0.20124972609E+03  0.12464285530E+03 0.  0.
         35    2    3    3    0    0 -0.71919764658E+02  0.12048865052E+03  0.28643075789E+03  0.86174235154E+03  0.80054190017E+03 0.  0.
         22    1    5    5    0    0 -0.30585773126E+03  0.13570534433E+03 -0.14971972626E+03  0.36657998947E+03  0.00000000000E+00 0.  1.
         22    1    5    5    0    0  0.23393796660E+03 -0.15216693813E+02  0.43615048415E+03  0.49516236207E+03  0.00000000000E+00 0.  1.
          5    1    4    4  502    0  0.58335628030E+02  0.72366198422E+01  0.18738660953E+02  0.61876017799E+02  0.47000000000E+01 0. -1.
         -5    1    4    4    0  502  0.13584136628E+02 -0.12772527036E+03  0.53894963654E+02  0.13937370829E+03  0.47000000000E+01 0. -1.
<mgrwt>
<rscale>  0 0.10005123E+04</rscale>
<asrwt>0</asrwt>
<pdfrwt beam="1">  1        2 0.54148285E-01 0.10005123E+04</pdfrwt>
<pdfrwt beam="2">  1       -2 0.10938896E+00 0.10005123E+04</pdfrwt>
<totfact> 0.72108533E+01</totfact>
</mgrwt>
</event>
<event>
 9    1  0.4370149E-036  0.1000820E+04  0.7818608E-02  0.8680258E-01
         -2   -1    0    0    0  501 -0.00000000000E+00  0.00000000000E+00  0.26781816036E+03  0.26781816036E+03  0.00000000000E+00 0. -1.
          2   -1    0    0  501    0  0.00000000000E+00 -0.00000000000E+00 -0.93499987254E+03  0.93499987254E+03  0.00000000000E+00 0. -1.
         36    2    1    2    0    0  0.12434497876E-13  0.28421709430E-13 -0.66718171217E+03  0.12028180329E+04  0.10008195558E+04 0.  0.
         25    2    3    3    0    0  0.38717469937E+01  0.13660488961E+03 -0.14276339498E+03  0.23379574702E+03  0.12491268186E+03 0.  0.
         35    2    3    3    0    0 -0.38717469937E+01 -0.13660488961E+03 -0.52441831719E+03  0.96902228588E+03  0.80331421799E+03 0.  0.
         22    1    5    5    0    0  0.14660481917E+03 -0.35916461546E+03 -0.92879752626E+01  0.38804440531E+03  0.00000000000E+00 0.  1.
         22    1    5    5    0    0 -0.15047656617E+03  0.22255972586E+03 -0.51513034193E+03  0.58097788057E+03  0.00000000000E+00 0.  1.
          5    1    4    4  502    0  0.10308255835E+02 -0.14477019939E+01  0.18264248968E+02  0.21541327020E+02  0.47000000000E+01 0. -1.
         -5    1    4    4    0  502 -0.64365088411E+01  0.13805259160E+03 -0.16102764395E+03  0.21225442000E+03  0.47000000000E+01 0. -1.
<mgrwt>
<rscale>  0 0.10008196E+04</rscale>
<asrwt>0</asrwt>
<pdfrwt beam="1">  1        2 0.14384614E+00 0.10008196E+04</pdfrwt>
<pdfrwt beam="2">  1       -2 0.41202793E-01 0.10008196E+04</pdfrwt>
<totfact> 0.18746514E+02</totfact>
</mgrwt>
</event>
<event>
 9    1  0.4370149E-036  0.1000246E+04  0.7818608E-02  0.8680804E-01
         -1   -1    0    0    0  501 -0.00000000000E+00  0.00000000000E+00  0.12496605414E+04  0.12496605414E+04  0.00000000000E+00 0.  1.
          1   -1    0    0  501    0  0.00000000000E+00 -0.00000000000E+00 -0.20015264824E+03  0.20015264824E+03  0.00000000000E+00 0.  1.
         36    2    1    2    0    0  0.00000000000E+00  0.14210854715E-13  0.10495078932E+04  0.14498131897E+04  0.10002457033E+04 0.  0.
         25    2    3    3    0    0  0.11493669002E+03 -0.78805258749E+02  0.22233553005E+03  0.29059487759E+03  0.12486626221E+03 0.  0.
         35    2    3    3    0    0 -0.11493669002E+03  0.78805258749E+02  0.82717236314E+03  0.11592183121E+04  0.80009516008E+03 0.  0.
         22    1    5    5    0    0 -0.25286622231E+02  0.27575665993E+03  0.89145746411E+03  0.93347606240E+03  0.00000000000E+00 0.  1.
         22    1    5    5    0    0 -0.89650067790E+02 -0.19695140118E+03 -0.64285100969E+02  0.22574224967E+03  0.00000000000E+00 0.  1.
          5    1    4    4  502    0  0.10011423839E+03 -0.25358808084E+00  0.16133252967E+03  0.18992946102E+03  0.47000000000E+01 0. -1.
         -5    1    4    4    0  502  0.14822451634E+02 -0.78551670669E+02  0.61003000378E+02  0.10066541657E+03  0.47000000000E+01 0. -1.
<mgrwt>
<rscale>  0 0.10002457E+04</rscale>
<asrwt>0</asrwt>
<pdfrwt beam="1">  1        1 0.30792716E-01 0.10002457E+04</pdfrwt>
<pdfrwt beam="2">  1       -1 0.19225546E+00 0.10002457E+04</pdfrwt>
<totfact> 0.26912212E+01</totfact>
</mgrwt>
</event>
<event>
 9    1  0.4370149E-036  0.9995911E+03  0.7818608E-02  0.8681427E-01
         -2   -1    0    0    0  501 -0.00000000000E+00  0.00000000000E+00  0.36197078835E+03  0.36197078835E+03  0.00000000000E+00 0.  1.
          2   -1    0    0  501    0  0.00000000000E+00 -0.00000000000E+00 -0.69009877651E+03  0.69009877651E+03  0.00000000000E+00 0.  1.
         36    2    1    2    0    0  0.28421709430E-13 -0.71054273576E-14 -0.32812798816E+03  0.10520695649E+04  0.99959111275E+03 0.  0.
         25    2    3    3    0    0  0.11461467843E+03  0.62011914730E+02 -0.51644484844E+02  0.19504685904E+03  0.13562493254E+03 0.  0.
         35    2    3    3    0    0 -0.11461467843E+03 -0.62011914730E+02 -0.27648350331E+03  0.85702270582E+03  0.80066396734E+03 0.  0.
         22    1    5    5    0    0 -0.25048293501E+03  0.26939909540E+03 -0.33083497630E+03  0.49474170522E+03  0.00000000000E+00 0.  1.
         22    1    5    5    0    0  0.13586825659E+03 -0.33141101013E+03  0.54351472990E+02  0.36228100060E+03  0.00000000000E+00 0.  1.
          5    1    4    4  502    0  0.13712957260E+03  0.52601569885E+02 -0.10937536318E+02  0.14735387520E+03  0.47000000000E+01 0. -1.
         -5    1    4    4    0  502 -0.22514894168E+02  0.94103448448E+01 -0.40706948526E+02  0.47692983843E+02  0.47000000000E+01 0. -1.
<mgrwt>
<rscale>  0 0.99959111E+03</rscale>
<asrwt>0</asrwt>
<pdfrwt beam="1">  1        2 0.10616904E+00 0.99959111E+03</pdfrwt>
<pdfrwt beam="2">  1       -2 0.55687814E-01 0.99959111E+03</pdfrwt>
<totfact> 0.15294551E+02</totfact>
</mgrwt>
</event>
<event>
 9    1  0.4370149E-036  0.9994339E+03  0.7818608E-02  0.8681577E-01
         -2   -1    0    0    0  501 -0.00000000000E+00  0.00000000000E+00  0.15390324065E+04  0.15390324065E+04  0.00000000000E+00 0.  1.
          2   -1    0    0  501    0  0.00000000000E+00 -0.00000000000E+00 -0.16225586389E+03  0.16225586389E+03  0.00000000000E+00 0.  1.
         36    2    1    2    0    0 -0.14210854715E-13  0.00000000000E+00  0.13767765426E+04  0.17012882704E+04  0.99943390512E+03 0.  0.
         25    2    3    3    0    0  0.11069195293E+02 -0.59789117517E+02  0.44740913831E+02  0.14641358135E+03  0.12545087395E+03 0.  0.
         35    2    3    3    0    0 -0.11069195293E+02  0.59789117517E+02  0.13320356288E+04  0.15548746890E+04  0.79976191246E+03 0.  0.
         22    1    5    5    0    0 -0.31839485411E+03  0.15287081607E+03  0.26777304584E+03  0.44322361581E+03  0.00000000000E+00 0. -1.
         22    1    5    5    0    0  0.30732565882E+03 -0.93081698553E+02  0.10642625829E+04  0.11116510732E+04  0.00000000000E+00 0. -1.
          5    1    4    4  502    0 -0.48900040665E+02 -0.56900239607E+02  0.42042286241E+02  0.86130686034E+02  0.47000000000E+01 0. -1.
         -5    1    4    4    0  502  0.59969235958E+02 -0.28888779105E+01  0.26986275909E+01  0.60282895318E+02  0.47000000000E+01 0. -1.
<mgrwt>
<rscale>  0 0.99943391E+03</rscale>
<asrwt>0</asrwt>
<pdfrwt beam="1">  1        2 0.24962442E-01 0.99943391E+03</pdfrwt>
<pdfrwt beam="2">  1       -2 0.23677421E+00 0.99943391E+03</pdfrwt>
<totfact> 0.18291156E+01</totfact>
</mgrwt>
</event>
<event>
 9    1  0.4370149E-036  0.9995125E+03  0.7818608E-02  0.8681502E-01
          1   -1    0    0  501    0  0.00000000000E+00  0.00000000000E+00  0.22737308520E+03  0.22737308520E+03  0.00000000000E+00 0. -1.
         -1   -1    0    0    0  501 -0.00000000000E+00 -0.00000000000E+00 -0.10984427182E+04  0.10984427182E+04  0.00000000000E+00 0. -1.
         36    2    1    2    0    0 -0.14210854715E-13  0.56843418861E-13 -0.87106963305E+03  0.13258158034E+04  0.99951250070E+03 0.  0.
         25    2    3    3    0    0  0.59352029554E+02 -0.12657615005E+03 -0.13902464360E+03  0.23301601477E+03  0.12419511438E+03 0.  0.
         35    2    3    3    0    0 -0.59352029554E+02  0.12657615005E+03 -0.73204498945E+03  0.10927997887E+04  0.79923546367E+03 0.  0.
         22    1    5    5    0    0  0.13761797613E+03  0.39883378545E+03 -0.59610487962E+03  0.73030686926E+03  0.00000000000E+00 0. -1.
         22    1    5    5    0    0 -0.19697000568E+03 -0.27225763540E+03 -0.13594010983E+03  0.36249291942E+03  0.00000000000E+00 0. -1.
          5    1    4    4  502    0  0.82809573836E+02 -0.13448118510E+03 -0.10142349238E+03  0.18775364037E+03  0.47000000000E+01 0.  1.
         -5    1    4    4    0  502 -0.23457544282E+02  0.79050350545E+01 -0.37601151221E+02  0.45262374397E+02  0.47000000000E+01 0.  1.
<mgrwt>
<rscale>  0 0.99951250E+03</rscale>
<asrwt>0</asrwt>
<pdfrwt beam="1">  1        1 0.34980475E-01 0.99951250E+03</pdfrwt>
<pdfrwt beam="2">  1       -1 0.16899118E+00 0.99951250E+03</pdfrwt>
<totfact> 0.35750817E+01</totfact>
</mgrwt>
</event>
<event>
 9    1  0.4370149E-036  0.9991326E+03  0.7818608E-02  0.8681864E-01
          1   -1    0    0  501    0  0.00000000000E+00  0.00000000000E+00  0.15905387731E+04  0.15905387731E+04  0.00000000000E+00 0.  1.
         -1   -1    0    0    0  501 -0.00000000000E+00 -0.00000000000E+00 -0.15690689033E+03  0.15690689033E+03  0.00000000000E+00 0.  1.
         36    2    1    2    0    0  0.71054273576E-14 -0.71054273576E-14  0.14336318828E+04  0.17474456635E+04  0.99913260950E+03 0.  0.
         25    2    3    3    0    0  0.23040534167E+02 -0.98701158396E+01  0.38522698939E+02  0.13512367786E+03  0.12706740173E+03 0.  0.
         35    2    3    3    0    0 -0.23040534167E+02  0.98701158396E+01  0.13951091839E+04  0.16123219856E+04  0.80785163548E+03 0.  0.
         22    1    5    5    0    0 -0.11585419100E+03  0.19234023638E+03  0.13895013673E+04  0.14075265575E+04  0.00000000000E+00 0.  1.
         22    1    5    5    0    0  0.92813656838E+02 -0.18247012054E+03  0.56078165310E+01  0.20479542815E+03  0.00000000000E+00 0.  1.
          5    1    4    4  502    0  0.13656931210E+02  0.34730785394E+02 -0.33096494210E+02  0.50101967558E+02  0.47000000000E+01 0. -1.
         -5    1    4    4    0  502  0.93836029567E+01 -0.44600901234E+02  0.71619193150E+02  0.85021710302E+02  0.47000000000E+01 0. -1.
<mgrwt>
<rscale>  0 0.99913261E+03</rscale>
<asrwt>0</asrwt>
<pdfrwt beam="1">  1        1 0.24469826E+00 0.99913261E+03</pdfrwt>
<pdfrwt beam="2">  1       -1 0.24139523E-01 0.99913261E+03</pdfrwt>
<totfact> 0.90392519E+01</totfact>
</mgrwt>
</event>
<event>
 9    1  0.4370149E-036  0.9987114E+03  0.7818608E-02  0.8682266E-01
         -2   -1    0    0    0  501 -0.00000000000E+00  0.00000000000E+00  0.12164413050E+03  0.12164413050E+03  0.00000000000E+00 0. -1.
          2   -1    0    0  501    0  0.00000000000E+00 -0.00000000000E+00 -0.20498822098E+04  0.20498822098E+04  0.00000000000E+00 0. -1.
         36    2    1    2    0    0  0.00000000000E+00  0.00000000000E+00 -0.19282380793E+04  0.21715263403E+04  0.99871144788E+03 0.  0.
         25    2    3    3    0    0 -0.92473782130E+02  0.82526842664E+02 -0.49629369691E+03  0.52653794716E+03  0.12479060887E+03 0.  0.
         35    2    3    3    0    0  0.92473782130E+02 -0.82526842664E+02 -0.14319443824E+04  0.16449883932E+04  0.80010000573E+03 0.  0.
         22    1    5    5    0    0  0.14072957395E+03 -0.69220402298E+02  0.48142877410E+02  0.16405491069E+03  0.00000000000E+00 0.  1.
         22    1    5    5    0    0 -0.48255791815E+02 -0.13306440366E+02 -0.14800872598E+04  0.14809334825E+04  0.00000000000E+00 0.  1.
          5    1    4    4  502    0 -0.11224048551E+02 -0.32790305217E+01 -0.27784649629E+03  0.27813215709E+03  0.47000000000E+01 0. -1.
         -5    1    4    4    0  502 -0.81249733579E+02  0.85805873186E+02 -0.21844720062E+03  0.24840579007E+03  0.47000000000E+01 0. -1.
<mgrwt>
<rscale>  0 0.99871145E+03</rscale>
<asrwt>0</asrwt>
<pdfrwt beam="1">  1        2 0.31536649E+00 0.99871145E+03</pdfrwt>
<pdfrwt beam="2">  1       -2 0.18714482E-01 0.99871145E+03</pdfrwt>
<totfact> 0.17604173E+02</totfact>
</mgrwt>
</event>
<event>
 9    1  0.4370149E-036  0.1000386E+04  0.7818608E-02  0.8680671E-01
          1   -1    0    0  501    0  0.00000000000E+00  0.00000000000E+00  0.21887529201E+03  0.21887529201E+03  0.00000000000E+00 0.  1.
         -1   -1    0    0    0  501 -0.00000000000E+00 -0.00000000000E+00 -0.11430841503E+04  0.11430841503E+04  0.00000000000E+00 0.  1.
         36    2    1    2    0    0 -0.14210854715E-13 -0.28421709430E-13 -0.92420885826E+03  0.13619594423E+04  0.10003856800E+04 0.  0.
         25    2    3    3    0    0  0.36563929548E+02  0.88621505642E+02 -0.31903365739E+03  0.35555574248E+03  0.12428483117E+03 0.  0.
         35    2    3    3    0    0 -0.36563929548E+02 -0.88621505642E+02 -0.60517520087E+03  0.10064036998E+04  0.79838630438E+03 0.  0.
         22    1    5    5    0    0 -0.88098286631E+02 -0.30824227886E+03 -0.69360149177E+03  0.76410577800E+03  0.00000000000E+00 0.  1.
         22    1    5    5    0    0  0.51534357083E+02  0.21962077321E+03  0.88426290903E+02  0.24229792180E+03  0.00000000000E+00 0.  1.
          5    1    4    4  502    0  0.18104190318E+02 -0.39776804280E+01  0.35106973678E+01  0.19442187240E+02  0.47000000000E+01 0. -1.
         -5    1    4    4    0  502  0.18459739230E+02  0.92599186070E+02 -0.32254435476E+03  0.33611355524E+03  0.47000000000E+01 0. -1.
<mgrwt>
<rscale>  0 0.10003857E+04</rscale>
<asrwt>0</asrwt>
<pdfrwt beam="1">  1        1 0.33673122E-01 0.10003857E+04</pdfrwt>
<pdfrwt beam="2">  1       -1 0.17585910E+00 0.10003857E+04</pdfrwt>
<totfact> 0.32906661E+01</totfact>
</mgrwt>
</event>
<event>
 9    1  0.4370149E-036  0.1000216E+04  0.7818608E-02  0.8680832E-01
         -1   -1    0    0    0  501 -0.00000000000E+00  0.00000000000E+00  0.23924921383E+03  0.23924921383E+03  0.00000000000E+00 0. -1.
          1   -1    0    0  501    0  0.00000000000E+00 -0.00000000000E+00 -0.10453873201E+04  0.10453873201E+04  0.00000000000E+00 0. -1.
         36    2    1    2    0    0  0.00000000000E+00 -0.28421709430E-13 -0.80613810629E+03  0.12846365339E+04  0.10002161656E+04 0.  0.
         25    2    3    3    0    0 -0.41934723166E+02  0.12283053567E+03 -0.84606051376E+02  0.19916457511E+03  0.12514984040E+03 0.  0.
         35    2    3    3    0    0  0.41934723166E+02 -0.12283053567E+03 -0.72153205492E+03  0.10854719588E+04  0.80049672431E+03 0.  0.
         22    1    5    5    0    0  0.27516129797E+03 -0.32819527311E+03 -0.18733309875E+03  0.46746076528E+03  0.00000000000E+00 0.  1.
         22    1    5    5    0    0 -0.23322657481E+03  0.20536473744E+03 -0.53419895617E+03  0.61801119355E+03  0.00000000000E+00 0.  1.
          5    1    4    4  502    0 -0.28250850291E+01 -0.11849356367E+02  0.20179422730E+02  0.24035129570E+02  0.47000000000E+01 0.  1.
         -5    1    4    4    0  502 -0.39109638137E+02  0.13467989203E+03 -0.10478547411E+03  0.17512944555E+03  0.47000000000E+01 0.  1.
<mgrwt>
<rscale>  0 0.10002162E+04</rscale>
<asrwt>0</asrwt>
<pdfrwt beam="1">  1        1 0.16082882E+00 0.10002162E+04</pdfrwt>
<pdfrwt beam="2">  1       -1 0.36807570E-01 0.10002162E+04</pdfrwt>
<totfact> 0.11028902E+02</totfact>
</mgrwt>
</event>
<event>
 9    1 -0.4370149E-036  0.9997344E+03  0.7818608E-02  0.8681291E-01
         -1   -1    0    0    0  501 -0.00000000000E+00  0.00000000000E+00  0.31023356589E+04  0.31023356589E+04  0.00000000000E+00 0. -1.
          1   -1    0    0  501    0  0.00000000000E+00 -0.00000000000E+00 -0.80541649825E+02  0.80541649825E+02  0.00000000000E+00 0. -1.
         36    2    1    2    0    0  0.14210854715E-13  0.14210854715E-13  0.30217940091E+04  0.31828773087E+04  0.99973442929E+03 0.  0.
         25    2    3    3    0    0 -0.25337468946E+02 -0.33472651675E+02  0.99106521066E+03  0.99977643536E+03  0.12482092441E+03 0.  0.
         35    2    3    3    0    0  0.25337468946E+02  0.33472651675E+02  0.20307287984E+04  0.21831008734E+04  0.80019220494E+03 0.  0.
         22    1    5    5    0    0 -0.71500978712E+02  0.15195607238E+03  0.22949186828E+02  0.16949838662E+03  0.00000000000E+00 0. -1.
         22    1    5    5    0    0  0.96838447658E+02 -0.11848342071E+03  0.20077796116E+04  0.20136024868E+04  0.00000000000E+00 0. -1.
          5    1    4    4  502    0  0.41475460530E+02 -0.33288391591E+01  0.62582339446E+03  0.62722269255E+03  0.47000000000E+01 0. -1.
         -5    1    4    4    0  502 -0.66812929476E+02 -0.30143812516E+02  0.36524181620E+03  0.37255374281E+03  0.47000000000E+01 0. -1.
<mgrwt>
<rscale>  0 0.99973443E+03</rscale>
<asrwt>0</asrwt>
<pdfrwt beam="1">  1        1 0.12391025E-01 0.99973443E+03</pdfrwt>
<pdfrwt beam="2">  1       -1 0.47728232E+00 0.99973443E+03</pdfrwt>
<totfact>-0.29388053E+00</totfact>
</mgrwt>
</event>
<event>
 9    1  0.4370149E-036  0.9992895E+03  0.7818608E-02  0.8681715E-01
         -1   -1    0    0    0  501 -0.00000000000E+00  0.00000000000E+00  0.31341949542E+03  0.31341949542E+03  0.00000000000E+00 0.  1.
          1   -1    0    0  501    0  0.00000000000E+00 -0.00000000000E+00 -0.79651994937E+03  0.79651994937E+03  0.00000000000E+00 0.  1.
         36    2    1    2    0    0  0.28421709430E-13 -0.28421709430E-13 -0.48310045394E+03  0.11099394448E+04  0.99928950885E+03 0.  0.
         25    2    3    3    0    0  0.45331515142E+02 -0.13117448550E+03 -0.68501655174E+02  0.19883953231E+03  0.12483185064E+03 0.  0.
         35    2    3    3    0    0 -0.45331515142E+02  0.13117448550E+03 -0.41459879877E+03  0.91109991249E+03  0.79934297687E+03 0.  0.
         22    1    5    5    0    0 -0.27379277860E+03 -0.22072871659E+03 -0.33168910466E+03  0.48342663776E+03  0.00000000000E+00 0. -1.
         22    1    5    5    0    0  0.22846126346E+03  0.35190320209E+03 -0.82909694104E+02  0.42767327473E+03  0.00000000000E+00 0. -1.
          5    1    4    4  502    0  0.31655319049E+02 -0.72573700531E+02 -0.10246852777E+03  0.12957966822E+03  0.47000000000E+01 0.  1.
         -5    1    4    4    0  502  0.13676196092E+02 -0.58600784973E+02  0.33966872597E+02  0.69259864084E+02  0.47000000000E+01 0.  1.
<mgrwt>
<rscale>  0 0.99928951E+03</rscale>
<asrwt>0</asrwt>
<pdfrwt beam="1">  1        1 0.12254153E+00 0.99928951E+03</pdfrwt>
<pdfrwt beam="2">  1       -1 0.48218383E-01 0.99928951E+03</pdfrwt>
<totfact> 0.10907583E+02</totfact>
</mgrwt>
</event>
<event>
 9    1  0.4370149E-036  0.9977821E+03  0.7818608E-02  0.8683153E-01
          2   -1    0    0  501    0  0.00000000000E+00  0.00000000000E+00  0.16505745529E+04  0.16505745529E+04  0.00000000000E+00 0.  1.
         -2   -1    0    0    0  501 -0.00000000000E+00 -0.00000000000E+00 -0.15079130193E+03  0.15079130193E+03  0.00000000000E+00 0.  1.
         36    2    1    2    0    0  0.00000000000E+00  0.12434497876E-13  0.14997832509E+04  0.18013658548E+04  0.99778211199E+03 0.  0.
         25    2    3    3    0    0 -0.11434568524E+03 -0.39678800885E+01  0.44333410353E+03  0.47479820206E+03  0.12568820758E+03 0.  0.
         35    2    3    3    0    0  0.11434568524E+03  0.39678800885E+01  0.10564491474E+04  0.13265676527E+04  0.79410720712E+03 0.  0.
         22    1    5    5    0    0  0.23292744664E+03  0.70051095548E+02  0.11410002929E+04  0.11666379128E+04  0.00000000000E+00 0. -1.
         22    1    5    5    0    0 -0.11858176140E+03 -0.66083215459E+02 -0.84551145451E+02  0.15992973988E+03  0.00000000000E+00 0. -1.
          5    1    4    4  502    0 -0.13001190416E+03  0.53821499352E+01  0.43522873634E+03  0.45428868101E+03  0.47000000000E+01 0.  1.
         -5    1    4    4    0  502  0.15666218913E+02 -0.93500300237E+01  0.81053671912E+01  0.20509521052E+02  0.47000000000E+01 0.  1.
<mgrwt>
<rscale>  0 0.99778211E+03</rscale>
<asrwt>0</asrwt>
<pdfrwt beam="1">  1        2 0.25393453E+00 0.99778211E+03</pdfrwt>
<pdfrwt beam="2">  1       -2 0.23198663E-01 0.99778211E+03</pdfrwt>
<totfact> 0.20393986E+02</totfact>
</mgrwt>
</event>
<event>
 9    1  0.4370149E-036  0.9967079E+03  0.7818608E-02  0.8684179E-01
          2   -1    0    0  501    0  0.00000000000E+00  0.00000000000E+00  0.66757344784E+03  0.66757344784E+03  0.00000000000E+00 0.  1.
         -2   -1    0    0    0  501 -0.00000000000E+00 -0.00000000000E+00 -0.37202895620E+03  0.37202895620E+03  0.00000000000E+00 0.  1.
         36    2    1    2    0    0 -0.14210854715E-13  0.00000000000E+00  0.29554449164E+03  0.10396024040E+04  0.99670788697E+03 0.  0.
         25    2    3    3    0    0 -0.33531162857E+02 -0.12825718428E+03  0.24750586798E+02  0.18507767643E+03  0.12675531769E+03 0.  0.
         35    2    3    3    0    0  0.33531162857E+02  0.12825718428E+03  0.27079390484E+03  0.85452472762E+03  0.79956796272E+03 0.  0.
         22    1    5    5    0    0  0.26517198441E+03  0.12278873681E+03 -0.18314499626E+03  0.34487004054E+03  0.00000000000E+00 0.  1.
         22    1    5    5    0    0 -0.23164082156E+03  0.54684474762E+01  0.45393890110E+03  0.50965468708E+03  0.00000000000E+00 0.  1.
          5    1    4    4  502    0  0.37923599835E+02 -0.17808014367E+02  0.32478972151E+02  0.53219342650E+02  0.47000000000E+01 0. -1.
         -5    1    4    4    0  502 -0.71454762692E+02 -0.11044916992E+03 -0.77283853530E+01  0.13185833378E+03  0.47000000000E+01 0. -1.
<mgrwt>
<rscale>  0 0.99670789E+03</rscale>
<asrwt>0</asrwt>
<pdfrwt beam="1">  1        2 0.10270361E+00 0.99670789E+03</pdfrwt>
<pdfrwt beam="2">  1       -2 0.57235224E-01 0.99670789E+03</pdfrwt>
<totfact> 0.15053332E+02</totfact>
</mgrwt>
</event>
<event>
 9    1  0.4370149E-036  0.1000248E+04  0.7818608E-02  0.8680802E-01
         -2   -1    0    0    0  501 -0.00000000000E+00  0.00000000000E+00  0.12074032058E+04  0.12074032058E+04  0.00000000000E+00 0.  1.
          2   -1    0    0  501    0  0.00000000000E+00 -0.00000000000E+00 -0.20715851428E+03  0.20715851428E+03  0.00000000000E+00 0.  1.
         36    2    1    2    0    0  0.00000000000E+00  0.42632564146E-13  0.10002446915E+04  0.14145617200E+04  0.10002476778E+04 0.  0.
         25    2    3    3    0    0  0.57806036157E+02  0.84244836053E+02  0.32613241839E+03  0.36423823857E+03  0.12596987693E+03 0.  0.
         35    2    3    3    0    0 -0.57806036157E+02 -0.84244836053E+02  0.67411227309E+03  0.10503234815E+04  0.79894513504E+03 0.  0.
         22    1    5    5    0    0  0.18462944998E+03  0.22198659044E+03  0.21207173494E+02  0.28950962738E+03  0.00000000000E+00 0. -1.
         22    1    5    5    0    0 -0.24243548614E+03 -0.30623142650E+03  0.65290509960E+03  0.76081385410E+03  0.00000000000E+00 0. -1.
          5    1    4    4  502    0  0.35816262448E+02 -0.18659692987E+02  0.17730695058E+03  0.18190886048E+03  0.47000000000E+01 0.  1.
         -5    1    4    4    0  502  0.21989773709E+02  0.10290452904E+03  0.14882546781E+03  0.18232937809E+03  0.47000000000E+01 0.  1.
<mgrwt>
<rscale>  0 0.10002477E+04</rscale>
<asrwt>0</asrwt>
<pdfrwt beam="1">  1        2 0.31870541E-01 0.10002477E+04</pdfrwt>
<pdfrwt beam="2">  1       -2 0.18575434E+00 0.10002477E+04</pdfrwt>
<totfact> 0.30266687E+01</totfact>
</mgrwt>
</event>
<event>
 9    1  0.4370149E-036  0.1000169E+04  0.7818608E-02  0.8680877E-01
         -2   -1    0    0    0  501 -0.00000000000E+00  0.00000000000E+00  0.87893832843E+02  0.87893832843E+02  0.00000000000E+00 0. -1.
          2   -1    0    0  501    0  0.00000000000E+00 -0.00000000000E+00 -0.28453023757E+04  0.28453023757E+04  0.00000000000E+00 0. -1.
         36    2    1    2    0    0 -0.31974423109E-13 -0.28421709430E-13 -0.27574085429E+04  0.29331962086E+04  0.10001690485E+04 0.  0.
         25    2    3    3    0    0 -0.23208542922E+02 -0.10984061723E+03 -0.26390918287E+03  0.31193921216E+03  0.12269644503E+03 0.  0.
         35    2    3    3    0    0  0.23208542922E+02  0.10984061723E+03 -0.24934993600E+04  0.26212569964E+04  0.80052831629E+03 0.  0.
         22    1    5    5    0    0 -0.34014528586E+03  0.91520750292E+02 -0.18390625790E+04  0.18724919313E+04  0.00000000000E+00 0.  1.
         22    1    5    5    0    0  0.36335382878E+03  0.18319866941E+02 -0.65443678099E+03  0.74876506511E+03  0.00000000000E+00 0.  1.
          5    1    4    4  502    0 -0.13945980992E+01 -0.11914386011E+03 -0.13221880154E+03  0.17804804348E+03  0.47000000000E+01 0.  1.
         -5    1    4    4    0  502 -0.21813944823E+02  0.93032428758E+01 -0.13169038133E+03  0.13389116869E+03  0.47000000000E+01 0.  1.
<mgrwt>
<rscale>  0 0.10001690E+04</rscale>
<asrwt>0</asrwt>
<pdfrwt beam="1">  1        2 0.43773888E+00 0.10001690E+04</pdfrwt>
<pdfrwt beam="2">  1       -2 0.13522126E-01 0.10001690E+04</pdfrwt>
<totfact> 0.10055380E+02</totfact>
</mgrwt>
</event>
<event>
 9    1  0.4370149E-036  0.1000681E+04  0.7818608E-02  0.8680390E-01
         -1   -1    0    0    0  501 -0.00000000000E+00  0.00000000000E+00  0.49239735770E+03  0.49239735770E+03  0.00000000000E+00 0.  1.
          1   -1    0    0  501    0  0.00000000000E+00 -0.00000000000E+00 -0.50841178225E+03  0.50841178225E+03  0.00000000000E+00 0.  1.
         36    2    1    2    0    0 -0.71054273576E-14  0.00000000000E+00 -0.16014424551E+02  0.10008091399E+04  0.10006810045E+04 0.  0.
         25    2    3    3    0    0  0.23370395543E+02 -0.13062556181E+03 -0.51026731126E+02  0.19033723785E+03  0.12655166547E+03 0.  0.
         35    2    3    3    0    0 -0.23370395543E+02  0.13062556181E+03  0.35012306576E+02  0.81047190210E+03  0.79876756925E+03 0.  0.
         22    1    5    5    0    0  0.26781867108E+03  0.34081401978E+03 -0.63504831762E+02  0.43807978761E+03  0.00000000000E+00 0. -1.
         22    1    5    5    0    0 -0.29118906662E+03 -0.21018845797E+03  0.98517138337E+02  0.37239211448E+03  0.00000000000E+00 0. -1.
          5    1    4    4  502    0 -0.27062587684E+02 -0.28494434081E+02 -0.64363397143E+02  0.75558277624E+02  0.47000000000E+01 0.  1.
         -5    1    4    4    0  502  0.50432983226E+02 -0.10213112773E+03  0.13336666016E+02  0.11477896022E+03  0.47000000000E+01 0.  1.
<mgrwt>
<rscale>  0 0.10006810E+04</rscale>
<asrwt>0</asrwt>
<pdfrwt beam="1">  1        1 0.78217197E-01 0.10006810E+04</pdfrwt>
<pdfrwt beam="2">  1       -1 0.75753440E-01 0.10006810E+04</pdfrwt>
<totfact> 0.89399761E+01</totfact>
</mgrwt>
</event>
<event>
 9    1  0.4370149E-036  0.9912620E+03  0.7818608E-02  0.8689404E-01
         -2   -1    0    0    0  501 -0.00000000000E+00  0.00000000000E+00  0.27184142976E+03  0.27184142976E+03  0.00000000000E+00 0.  1.
          2   -1    0    0  501    0  0.00000000000E+00 -0.00000000000E+00 -0.90365214883E+03  0.90365214883E+03  0.00000000000E+00 0.  1.
         36    2    1    2    0    0 -0.71054273576E-14 -0.28421709430E-13 -0.63181071907E+03  0.11754935786E+04  0.99126200804E+03 0.  0.
         25    2    3    3    0    0  0.57658489478E+02 -0.11730341422E+03 -0.10561289442E+03  0.20921246924E+03  0.12462416067E+03 0.  0.
         35    2    3    3    0    0 -0.57658489478E+02  0.11730341422E+03 -0.52619782465E+03  0.96628110935E+03  0.79983150678E+03 0.  0.
         22    1    5    5    0    0 -0.27783599171E+03 -0.30324133072E+02 -0.62399598653E+03  0.68372756456E+03  0.00000000000E+00 0. -1.
         22    1    5    5    0    0  0.22017750223E+03  0.14762754729E+03  0.97798161882E+02  0.28255354479E+03  0.00000000000E+00 0. -1.
          5    1    4    4  502    0 -0.79452575582E+00 -0.12128287008E+03 -0.77951838187E+02  0.14425236540E+03  0.47000000000E+01 0. -1.
         -5    1    4    4    0  502  0.58453015234E+02  0.39794558676E+01 -0.27661056234E+02  0.64960103840E+02  0.47000000000E+01 0. -1.
<mgrwt>
<rscale>  0 0.99126201E+03</rscale>
<asrwt>0</asrwt>
<pdfrwt beam="1">  1        2 0.13902341E+00 0.99126201E+03</pdfrwt>
<pdfrwt beam="2">  1       -2 0.41821759E-01 0.99126201E+03</pdfrwt>
<totfact> 0.19095465E+02</totfact>
</mgrwt>
</event>
<event>
 9    1  0.4370149E-036  0.1000254E+04  0.7818608E-02  0.8680796E-01
         -2   -1    0    0    0  501 -0.00000000000E+00  0.00000000000E+00  0.31400636287E+03  0.31400636287E+03  0.00000000000E+00 0.  1.
          2   -1    0    0  501    0  0.00000000000E+00 -0.00000000000E+00 -0.79656607367E+03  0.79656607367E+03  0.00000000000E+00 0.  1.
         36    2    1    2    0    0  0.00000000000E+00 -0.14210854715E-13 -0.48255971080E+03  0.11105724365E+04  0.10002535990E+04 0.  0.
         25    2    3    3    0    0  0.65633080975E+02  0.84330736527E+02 -0.18598150511E+03  0.24839709848E+03  0.12527020336E+03 0.  0.
         35    2    3    3    0    0 -0.65633080975E+02 -0.84330736527E+02 -0.29657820570E+03  0.86217533805E+03  0.80247635916E+03 0.  0.
         22    1    5    5    0    0 -0.13737934420E+03  0.34506245622E+03 -0.17239159286E+03  0.40946311702E+03  0.00000000000E+00 0.  1.
         22    1    5    5    0    0  0.71746263228E+02 -0.42939319275E+03 -0.12418661283E+03  0.45271222103E+03  0.00000000000E+00 0.  1.
          5    1    4    4  502    0  0.38372051187E+02  0.36703073184E+02  0.11591941777E+01  0.53319448840E+02  0.47000000000E+01 0. -1.
         -5    1    4    4    0  502  0.27261029789E+02  0.47627663343E+02 -0.18714069929E+03  0.19507764964E+03  0.47000000000E+01 0. -1.
<mgrwt>
<rscale>  0 0.10002536E+04</rscale>
<asrwt>0</asrwt>
<pdfrwt beam="1">  1        2 0.12254863E+00 0.10002536E+04</pdfrwt>
<pdfrwt beam="2">  1       -2 0.48308671E-01 0.10002536E+04</pdfrwt>
<totfact> 0.17019706E+02</totfact>
</mgrwt>
</event>
<event>
 9    1  0.4370149E-036  0.1000149E+04  0.7818608E-02  0.8680896E-01
         -2   -1    0    0    0  501 -0.00000000000E+00  0.00000000000E+00  0.16412344312E+03  0.16412344312E+03  0.00000000000E+00 0. -1.
          2   -1    0    0  501    0  0.00000000000E+00 -0.00000000000E+00 -0.15236965615E+04  0.15236965615E+04  0.00000000000E+00 0. -1.
         36    2    1    2    0    0 -0.71054273576E-14  0.28421709430E-13 -0.13595731183E+04  0.16878200046E+04  0.10001486408E+04 0.  0.
         25    2    3    3    0    0 -0.11279551436E+02  0.10521944936E+03 -0.42620334535E+03  0.45432835247E+03  0.11647574626E+03 0.  0.
         35    2    3    3    0    0  0.11279551436E+02 -0.10521944936E+03 -0.93336977300E+03  0.12334916521E+04  0.79945241377E+03 0.  0.
         22    1    5    5    0    0  0.54437571155E+02  0.31275011099E+03 -0.65950513691E+03  0.73193108056E+03  0.00000000000E+00 0.  1.
         22    1    5    5    0    0 -0.43158019719E+02 -0.41796956035E+03 -0.27386463609E+03  0.50156057156E+03  0.00000000000E+00 0.  1.
          5    1    4    4  502    0  0.36157690964E+02  0.10193886767E+02 -0.46186099916E+02  0.59720513802E+02  0.47000000000E+01 0.  1.
         -5    1    4    4    0  502 -0.47437242400E+02  0.95025562592E+02 -0.38001724543E+03  0.39460783867E+03  0.47000000000E+01 0.  1.
<mgrwt>
<rscale>  0 0.10001486E+04</rscale>
<asrwt>0</asrwt>
<pdfrwt beam="1">  1        2 0.23441487E+00 0.10001486E+04</pdfrwt>
<pdfrwt beam="2">  1       -2 0.25249759E-01 0.10001486E+04</pdfrwt>
<totfact> 0.20704616E+02</totfact>
</mgrwt>
</event>
<event>
 9    1  0.4370149E-036  0.9972635E+03  0.7818608E-02  0.8683648E-01
         -2   -1    0    0    0  501 -0.00000000000E+00  0.00000000000E+00  0.10845632581E+03  0.10845632581E+03  0.00000000000E+00 0. -1.
          2   -1    0    0  501    0  0.00000000000E+00 -0.00000000000E+00 -0.22924770079E+04  0.22924770079E+04  0.00000000000E+00 0. -1.
         36    2    1    2    0    0  0.71054273576E-14  0.14210854715E-13 -0.21840206821E+04  0.24009333337E+04  0.99726352242E+03 0.  0.
         25    2    3    3    0    0  0.47857198952E+02 -0.88395048567E+02 -0.64837620362E+03  0.66791439267E+03  0.12495574585E+03 0.  0.
         35    2    3    3    0    0 -0.47857198952E+02  0.88395048567E+02 -0.15356444785E+04  0.17330189410E+04  0.79689816768E+03 0.  0.
         22    1    5    5    0    0 -0.51724699769E+02 -0.35552792353E+03 -0.68883155815E+03  0.77689411407E+03  0.00000000000E+00 0.  1.
         22    1    5    5    0    0  0.38675008174E+01  0.44392297210E+03 -0.84681292031E+03  0.95612482696E+03  0.00000000000E+00 0.  1.
          5    1    4    4  502    0  0.88969524837E+01  0.24612541423E+02 -0.26442789905E+03  0.26576142827E+03  0.47000000000E+01 0.  1.
         -5    1    4    4    0  502  0.38960246468E+02 -0.11300758999E+03 -0.38394830456E+03  0.40215296440E+03  0.47000000000E+01 0.  1.
<mgrwt>
<rscale>  0 0.99726352E+03</rscale>
<asrwt>0</asrwt>
<pdfrwt beam="1">  1        2 0.35268872E+00 0.99726352E+03</pdfrwt>
<pdfrwt beam="2">  1       -2 0.16685591E-01 0.99726352E+03</pdfrwt>
<totfact> 0.15488413E+02</totfact>
</mgrwt>
</event>
<event>
 9    1  0.4370149E-036  0.9994357E+03  0.7818608E-02  0.8681576E-01
          1   -1    0    0  501    0  0.00000000000E+00  0.00000000000E+00  0.90764328712E+03  0.90764328712E+03  0.00000000000E+00 0.  1.
         -1   -1    0    0    0  501 -0.00000000000E+00 -0.00000000000E+00 -0.27512781205E+03  0.27512781205E+03  0.00000000000E+00 0.  1.
         36    2    1    2    0    0  0.56843418861E-13  0.71054273576E-14  0.63251547507E+03  0.11827710992E+04  0.99943566417E+03 0.  0.
         25    2    3    3    0    0  0.13410042183E+03 -0.16606198474E+02  0.15600736143E+03  0.24096694472E+03  0.12437074682E+03 0.  0.
         35    2    3    3    0    0 -0.13410042183E+03  0.16606198474E+02  0.47650811364E+03  0.94180415445E+03  0.80104706104E+03 0.  0.
         22    1    5    5    0    0  0.18319283727E+03 -0.10509603251E+03 -0.12897988324E+03  0.24746838577E+03  0.00000000000E+00 0. -1.
         22    1    5    5    0    0 -0.31729325910E+03  0.12170223099E+03  0.60548799688E+03  0.69433576867E+03  0.00000000000E+00 0. -1.
          5    1    4    4  502    0 -0.73082683892E+01 -0.61244837698E+01  0.78665662594E+02  0.79380706470E+02  0.47000000000E+01 0.  1.
         -5    1    4    4    0  502  0.14140869022E+03 -0.10481714704E+02  0.77341698834E+02  0.16158623825E+03  0.47000000000E+01 0.  1.
<mgrwt>
<rscale>  0 0.99943566E+03</rscale>
<asrwt>0</asrwt>
<pdfrwt beam="1">  1        1 0.13963743E+00 0.99943566E+03</pdfrwt>
<pdfrwt beam="2">  1       -1 0.42327356E-01 0.99943566E+03</pdfrwt>
<totfact> 0.11102118E+02</totfact>
</mgrwt>
</event>
<event>
 9    1  0.4370149E-036  0.9953636E+03  0.7818608E-02  0.8685466E-01
          1   -1    0    0  501    0  0.00000000000E+00  0.00000000000E+00  0.63413302739E+03  0.63413302739E+03  0.00000000000E+00 0.  1.
         -1   -1    0    0    0  501 -0.00000000000E+00 -0.00000000000E+00 -0.39059182958E+03  0.39059182958E+03  0.00000000000E+00 0.  1.
         36    2    1    2    0    0  0.00000000000E+00  0.00000000000E+00  0.24354119782E+03  0.10247248570E+04  0.99536361068E+03 0.  0.
         25    2    3    3    0    0 -0.29953638144E+02  0.70187866193E+02 -0.69173699803E+02  0.16171532306E+03  0.12467272344E+03 0.  0.
         35    2    3    3    0    0  0.29953638144E+02 -0.70187866193E+02  0.31271489762E+03  0.86300953391E+03  0.80073172250E+03 0.  0.
         22    1    5    5    0    0  0.11945498926E+03  0.26474313740E+03 -0.11504740500E+03  0.31240091014E+03  0.00000000000E+00 0.  1.
         22    1    5    5    0    0 -0.89501351117E+02 -0.33493100359E+03  0.42776230263E+03  0.55060862377E+03  0.00000000000E+00 0.  1.
          5    1    4    4  502    0 -0.36665385213E+02  0.61702209593E+02 -0.10314873270E+03  0.12575080198E+03  0.47000000000E+01 0. -1.
         -5    1    4    4    0  502  0.67117470688E+01  0.84856566004E+01  0.33975032893E+02  0.35964521083E+02  0.47000000000E+01 0. -1.
<mgrwt>
<rscale>  0 0.99536361E+03</rscale>
<asrwt>0</asrwt>
<pdfrwt beam="1">  1        1 0.97558927E-01 0.99536361E+03</pdfrwt>
<pdfrwt beam="2">  1       -1 0.60091051E-01 0.99536361E+03</pdfrwt>
<totfact> 0.10275960E+02</totfact>
</mgrwt>
</event>
<event>
 9    1  0.4370149E-036  0.9995207E+03  0.7818608E-02  0.8681495E-01
         -2   -1    0    0    0  501 -0.00000000000E+00  0.00000000000E+00  0.32502388271E+03  0.32502388271E+03  0.00000000000E+00 0.  1.
          2   -1    0    0  501    0  0.00000000000E+00 -0.00000000000E+00 -0.76843712209E+03  0.76843712209E+03  0.00000000000E+00 0.  1.
         36    2    1    2    0    0  0.28421709430E-13  0.88817841970E-14 -0.44341323938E+03  0.10934610048E+04  0.99952071922E+03 0.  0.
         25    2    3    3    0    0 -0.13959558261E+03  0.88245208223E+01 -0.83931685933E+02  0.20555485985E+03  0.12507387278E+03 0.  0.
         35    2    3    3    0    0  0.13959558261E+03 -0.88245208223E+01 -0.35948155345E+03  0.88790614495E+03  0.79974091812E+03 0.  0.
         22    1    5    5    0    0 -0.14610300085E+03 -0.28831987849E+03 -0.36584725589E+03  0.48817891580E+03  0.00000000000E+00 0. -1.
         22    1    5    5    0    0  0.28569858346E+03  0.27949535767E+03  0.63657024437E+01  0.39972722914E+03  0.00000000000E+00 0. -1.
          5    1    4    4  502    0  0.20858658085E+02  0.46386549432E+01  0.43534546803E+01  0.22307920218E+02  0.47000000000E+01 0.  1.
         -5    1    4    4    0  502 -0.16045424070E+03  0.41858658791E+01 -0.88285140614E+02  0.18324693963E+03  0.47000000000E+01 0.  1.
<mgrwt>
<rscale>  0 0.99952072E+03</rscale>
<asrwt>0</asrwt>
<pdfrwt beam="1">  1        2 0.11822110E+00 0.99952072E+03</pdfrwt>
<pdfrwt beam="2">  1       -2 0.50003674E-01 0.99952072E+03</pdfrwt>
<totfact> 0.16637484E+02</totfact>
</mgrwt>
</event>
<event>
 9    1  0.4370149E-036  0.1000242E+04  0.7818608E-02  0.8680808E-01
         -2   -1    0    0    0  501 -0.00000000000E+00  0.00000000000E+00  0.33765224458E+03  0.33765224458E+03  0.00000000000E+00 0.  1.
          2   -1    0    0  501    0  0.00000000000E+00 -0.00000000000E+00 -0.74076449455E+03  0.74076449455E+03  0.00000000000E+00 0.  1.
         36    2    1    2    0    0 -0.14210854715E-13  0.21316282073E-13 -0.40311224996E+03  0.10784167391E+04  0.10002415594E+04 0.  0.
         25    2    3    3    0    0  0.10326788641E+03  0.19203718645E+02  0.20067158609E+02  0.16478718030E+03  0.12537577423E+03 0.  0.
         35    2    3    3    0    0 -0.10326788641E+03 -0.19203718645E+02 -0.42317940857E+03  0.91362955883E+03  0.80287304087E+03 0.  0.
         22    1    5    5    0    0  0.18188213669E+03  0.31694902886E+03 -0.23410930199E+03  0.43398728532E+03  0.00000000000E+00 0. -1.
         22    1    5    5    0    0 -0.28515002310E+03 -0.33615274750E+03 -0.18907010658E+03  0.47964227350E+03  0.00000000000E+00 0. -1.
          5    1    4    4  502    0  0.34089580783E+02 -0.52982785431E+02  0.29914905070E+01  0.63248036218E+02  0.47000000000E+01 0.  1.
         -5    1    4    4    0  502  0.69178305628E+02  0.72186504076E+02  0.17075668102E+02  0.10153914408E+03  0.47000000000E+01 0.  1.
<mgrwt>
<rscale>  0 0.10002416E+04</rscale>
<asrwt>0</asrwt>
<pdfrwt beam="1">  1        2 0.11396377E+00 0.10002416E+04</pdfrwt>
<pdfrwt beam="2">  1       -2 0.51946500E-01 0.10002416E+04</pdfrwt>
<totfact> 0.16140188E+02</totfact>
</mgrwt>
</event>
<event>
 9    1  0.4370149E-036  0.1009858E+04  0.7818608E-02  0.8671707E-01
          1   -1    0    0  501    0  0.00000000000E+00  0.00000000000E+00  0.13894968063E+04  0.13894968063E+04  0.00000000000E+00 0.  1.
         -1   -1    0    0    0  501 -0.00000000000E+00 -0.00000000000E+00 -0.18348604027E+03  0.18348604027E+03  0.00000000000E+00 0.  1.
         36    2    1    2    0    0  0.35527136788E-13  0.00000000000E+00  0.12060107660E+04  0.15729828466E+04  0.10098579444E+04 0.  0.
         25    2    3    3    0    0 -0.10126767387E+02 -0.10590627173E+03  0.38977045180E+03  0.42675460276E+03  0.13740377021E+03 0.  0.
         35    2    3    3    0    0  0.10126767387E+02  0.10590627173E+03  0.81624031424E+03  0.11462282438E+04  0.79766675154E+03 0.  0.
         22    1    5    5    0    0 -0.32287723348E+03 -0.44412583414E+02  0.68398906966E+03  0.75766960667E+03  0.00000000000E+00 0.  1.
         22    1    5    5    0    0  0.33300400086E+03  0.15031885515E+03  0.13225124458E+03  0.38855863714E+03  0.00000000000E+00 0.  1.
          5    1    4    4  502    0 -0.73116183431E+02 -0.68723944834E+02  0.22161848603E+03  0.24332242030E+03  0.47000000000E+01 0.  1.
         -5    1    4    4    0  502  0.62989416044E+02 -0.37182326900E+02  0.16815196577E+03  0.18343218246E+03  0.47000000000E+01 0.  1.
<mgrwt>
<rscale>  0 0.10098579E+04</rscale>
<asrwt>0</asrwt>
<pdfrwt beam="1">  1        1 0.21376873E+00 0.10098579E+04</pdfrwt>
<pdfrwt beam="2">  1       -1 0.28228623E-01 0.10098579E+04</pdfrwt>
<totfact> 0.96496492E+01</totfact>
</mgrwt>
</event>
<event>
 9    1  0.4370149E-036  0.9993863E+03  0.7818608E-02  0.8681623E-01
         -1   -1    0    0    0  501 -0.00000000000E+00  0.00000000000E+00  0.43256020619E+03  0.43256020619E+03  0.00000000000E+00 0.  1.
          1   -1    0    0  501    0  0.00000000000E+00 -0.00000000000E+00 -0.57724502538E+03  0.57724502538E+03  0.00000000000E+00 0.  1.
         36    2    1    2    0    0 -0.14210854715E-13 -0.88817841970E-14 -0.14468481919E+03  0.10098052316E+04  0.99938626606E+03 0.  0.
         25    2    3    3    0    0  0.70782744077E+02 -0.15999712417E+02  0.93812698766E+02  0.17205089979E+03  0.12463748237E+03 0.  0.
         35    2    3    3    0    0 -0.70782744077E+02  0.15999712417E+02 -0.23849751795E+03  0.83775433177E+03  0.79980314246E+03 0.  0.
         22    1    5    5    0    0  0.15363781127E+02  0.13315643966E+03  0.27399781239E+03  0.30502702239E+03  0.00000000000E+00 0.  1.
         22    1    5    5    0    0 -0.86146525204E+02 -0.11715672724E+03 -0.51249533034E+03  0.53272730939E+03  0.00000000000E+00 0.  1.
          5    1    4    4  502    0  0.39344228717E+02 -0.26595582141E+02 -0.21227556739E+02  0.52230187516E+02  0.47000000000E+01 0. -1.
         -5    1    4    4    0  502  0.31438515359E+02  0.10595869724E+02  0.11504025551E+03  0.11982071227E+03  0.47000000000E+01 0. -1.
<mgrwt>
<rscale>  0 0.99938627E+03</rscale>
<asrwt>0</asrwt>
<pdfrwt beam="1">  1        1 0.88806928E-01 0.99938627E+03</pdfrwt>
<pdfrwt beam="2">  1       -1 0.66547724E-01 0.99938627E+03</pdfrwt>
<totfact> 0.96724234E+01</totfact>
</mgrwt>
</event>
<event>
 9    1  0.4370149E-036  0.1000231E+04  0.7818608E-02  0.8680818E-01
         -1   -1    0    0    0  501 -0.00000000000E+00  0.00000000000E+00  0.24222856418E+03  0.24222856418E+03  0.00000000000E+00 0.  1.
          1   -1    0    0  501    0  0.00000000000E+00 -0.00000000000E+00 -0.10325598445E+04  0.10325598445E+04  0.00000000000E+00 0.  1.
         36    2    1    2    0    0  0.28421709430E-13  0.00000000000E+00 -0.79033128034E+03  0.12747884087E+04  0.10002309505E+04 0.  0.
         25    2    3    3    0    0  0.11433190094E+03 -0.65606994886E+02 -0.83239550345E+02  0.19964892554E+03  0.12471892148E+03 0.  0.
         35    2    3    3    0    0 -0.11433190094E+03  0.65606994886E+02 -0.70709172999E+03  0.10751394832E+04  0.79910583297E+03 0.  0.
         22    1    5    5    0    0 -0.18736497980E+03  0.41307708082E+03 -0.42622418143E+03  0.62241896114E+03  0.00000000000E+00 0. -1.
         22    1    5    5    0    0  0.73033078859E+02 -0.34747008593E+03 -0.28086754856E+03  0.45272052202E+03  0.00000000000E+00 0. -1.
          5    1    4    4  502    0  0.18226908241E+01  0.30711956534E+02 -0.26838140956E+02  0.41096499680E+02  0.47000000000E+01 0. -1.
         -5    1    4    4    0  502  0.11250921012E+03 -0.96318951420E+02 -0.56401409389E+02  0.15855242586E+03  0.47000000000E+01 0. -1.
<mgrwt>
<rscale>  0 0.10002310E+04</rscale>
<asrwt>0</asrwt>
<pdfrwt beam="1">  1        1 0.15885536E+00 0.10002310E+04</pdfrwt>
<pdfrwt beam="2">  1       -1 0.37265934E-01 0.10002310E+04</pdfrwt>
<totfact> 0.11043939E+02</totfact>
</mgrwt>
</event>
<event>
 9    1  0.4370149E-036  0.9992190E+03  0.7818608E-02  0.8681782E-01
          1   -1    0    0  501    0  0.00000000000E+00  0.00000000000E+00  0.56155275154E+03  0.56155275154E+03  0.00000000000E+00 0.  1.
         -1   -1    0    0    0  501 -0.00000000000E+00 -0.00000000000E+00 -0.44449904961E+03  0.44449904961E+03  0.00000000000E+00 0.  1.
         36    2    1    2    0    0  0.28421709430E-13  0.00000000000E+00  0.11705370193E+03  0.10060518011E+04  0.99921902377E+03 0.  0.
         25    2    3    3    0    0  0.11862110320E+03 -0.66845708048E+02 -0.53936674880E+01  0.18549421192E+03  0.12585585485E+03 0.  0.
         35    2    3    3    0    0 -0.11862110320E+03  0.66845708048E+02  0.12244736942E+03  0.82055758922E+03  0.79986379100E+03 0.  0.
         22    1    5    5    0    0  0.17012694744E+03 -0.19191366312E+03  0.29951408850E+03  0.39431297410E+03  0.00000000000E+00 0.  1.
         22    1    5    5    0    0 -0.28874805064E+03  0.25875937116E+03 -0.17706671908E+03  0.42624461512E+03  0.00000000000E+00 0.  1.
          5    1    4    4  502    0  0.14093434674E+03 -0.41076913182E+02 -0.19777802340E+02  0.14819937366E+03  0.47000000000E+01 0. -1.
         -5    1    4    4    0  502 -0.22313243537E+02 -0.25768794866E+02  0.14384134852E+02  0.37294838268E+02  0.47000000000E+01 0. -1.
<mgrwt>
<rscale>  0 0.99921902E+03</rscale>
<asrwt>0</asrwt>
<pdfrwt beam="1">  1        1 0.86392731E-01 0.99921902E+03</pdfrwt>
<pdfrwt beam="2">  1       -1 0.68384469E-01 0.99921902E+03</pdfrwt>
<totfact> 0.95388103E+01</totfact>
</mgrwt>
</event>
<event>
 9    1  0.4370149E-036  0.1003342E+04  0.7818608E-02  0.8677862E-01
          2   -1    0    0  501    0  0.00000000000E+00  0.00000000000E+00  0.36807756563E+03  0.36807756563E+03  0.00000000000E+00 0. -1.
         -2   -1    0    0    0  501 -0.00000000000E+00 -0.00000000000E+00 -0.68375187949E+03  0.68375187949E+03  0.00000000000E+00 0. -1.
         36    2    1    2    0    0  0.14210854715E-13  0.28421709430E-13 -0.31567431386E+03  0.10518294451E+04  0.10033418705E+04 0.  0.
         25    2    3    3    0    0  0.98581471323E+02  0.97552267185E+02 -0.74447697236E+02  0.20125676842E+03  0.12540763889E+03 0.  0.
         35    2    3    3    0    0 -0.98581471323E+02 -0.97552267185E+02 -0.24122661663E+03  0.85057267669E+03  0.80377163825E+03 0.  0.
         22    1    5    5    0    0  0.95295552465E+02  0.32330511058E+03 -0.21483321396E+02  0.33774098055E+03  0.00000000000E+00 0.  1.
         22    1    5    5    0    0 -0.19387702379E+03 -0.42085737776E+03 -0.21974329523E+03  0.51283169614E+03  0.00000000000E+00 0.  1.
          5    1    4    4  502    0  0.77012042991E+02  0.27798582740E+01 -0.69406398497E+02  0.10381676421E+03  0.47000000000E+01 0. -1.
         -5    1    4    4    0  502  0.21569428332E+02  0.94772408911E+02 -0.50412987390E+01  0.97440004219E+02  0.47000000000E+01 0. -1.
<mgrwt>
<rscale>  0 0.10033419E+04</rscale>
<asrwt>0</asrwt>
<pdfrwt beam="1">  1        2 0.56627318E-01 0.10033419E+04</pdfrwt>
<pdfrwt beam="2">  1       -2 0.10519260E+00 0.10033419E+04</pdfrwt>
<totfact> 0.75615526E+01</totfact>
</mgrwt>
</event>
<event>
 9    1  0.4370149E-036  0.9999430E+03  0.7818608E-02  0.8681092E-01
         -2   -1    0    0    0  501 -0.00000000000E+00  0.00000000000E+00  0.61752990073E+03  0.61752990073E+03  0.00000000000E+00 0.  1.
          2   -1    0    0  501    0  0.00000000000E+00 -0.00000000000E+00 -0.40479252814E+03  0.40479252814E+03  0.00000000000E+00 0.  1.
         36    2    1    2    0    0  0.00000000000E+00 -0.14210854715E-13  0.21273737258E+03  0.10223224289E+04  0.99994297781E+03 0.  0.
         25    2    3    3    0    0  0.12624621407E+03  0.34256630033E+02  0.16037476159E+02  0.18201739027E+03  0.12554483840E+03 0.  0.
         35    2    3    3    0    0 -0.12624621407E+03 -0.34256630033E+02  0.19669989643E+03  0.84030503860E+03  0.80641805869E+03 0.  0.
         22    1    5    5    0    0  0.85966859214E+02  0.72886477438E+02 -0.28317150439E+03  0.30477670576E+03  0.00000000000E+00 0.  1.
         22    1    5    5    0    0 -0.21221307328E+03 -0.10714310747E+03  0.47987140082E+03  0.53552833284E+03  0.00000000000E+00 0.  1.
          5    1    4    4  502    0  0.68339149069E+02 -0.33478492786E+02 -0.29598532842E+02  0.81787602490E+02  0.47000000000E+01 0. -1.
         -5    1    4    4    0  502  0.57907065000E+02  0.67735122819E+02  0.45636009000E+02  0.10022978778E+03  0.47000000000E+01 0. -1.
<mgrwt>
<rscale>  0 0.99994298E+03</rscale>
<asrwt>0</asrwt>
<pdfrwt beam="1">  1        2 0.62275773E-01 0.99994298E+03</pdfrwt>
<pdfrwt beam="2">  1       -2 0.95004600E-01 0.99994298E+03</pdfrwt>
<totfact> 0.87141778E+01</totfact>
</mgrwt>
</event>
<event>
 9    1  0.4370149E-036  0.9985337E+03  0.7818608E-02  0.8682436E-01
          2   -1    0    0  501    0  0.00000000000E+00  0.00000000000E+00  0.14536353854E+04  0.14536353854E+04  0.00000000000E+00 0. -1.
         -2   -1    0    0    0  501 -0.00000000000E+00 -0.00000000000E+00 -0.17147863306E+03  0.17147863306E+03  0.00000000000E+00 0. -1.
         36    2    1    2    0    0  0.28421709430E-13  0.00000000000E+00  0.12821567523E+04  0.16251140184E+04  0.99853374274E+03 0.  0.
         25    2    3    3    0    0  0.89470716661E+02 -0.10435707885E+03  0.28881619451E+03  0.34327938629E+03  0.12462156231E+03 0.  0.
         35    2    3    3    0    0 -0.89470716661E+02  0.10435707885E+03  0.99334055781E+03  0.12818346321E+04  0.79842291509E+03 0.  0.
         22    1    5    5    0    0 -0.42512965729E+03  0.10945111528E+03  0.37116392290E+03  0.57487166377E+03  0.00000000000E+00 0.  1.
         22    1    5    5    0    0  0.33565894063E+03 -0.50940364294E+01  0.62217663491E+03  0.70696296838E+03  0.00000000000E+00 0.  1.
          5    1    4    4  502    0  0.73877774597E+02 -0.42102113228E+02  0.56462083293E+02  0.10217910925E+03  0.47000000000E+01 0.  1.
         -5    1    4    4    0  502  0.15592942064E+02 -0.62254965620E+02  0.23235411122E+03  0.24110027704E+03  0.47000000000E+01 0.  1.
<mgrwt>
<rscale>  0 0.99853374E+03</rscale>
<asrwt>0</asrwt>
<pdfrwt beam="1">  1        2 0.22363621E+00 0.99853374E+03</pdfrwt>
<pdfrwt beam="2">  1       -2 0.26381329E-01 0.99853374E+03</pdfrwt>
<totfact> 0.20981849E+02</totfact>
</mgrwt>
</event>
<event>
 9    1  0.4370149E-036  0.1000322E+04  0.7818608E-02  0.8680731E-01
         -1   -1    0    0    0  501 -0.00000000000E+00  0.00000000000E+00  0.39767991571E+03  0.39767991571E+03  0.00000000000E+00 0. -1.
          1   -1    0    0  501    0  0.00000000000E+00 -0.00000000000E+00 -0.62905156292E+03  0.62905156292E+03  0.00000000000E+00 0. -1.
         36    2    1    2    0    0  0.00000000000E+00  0.71054273576E-14 -0.23137164721E+03  0.10267314786E+04  0.10003222931E+04 0.  0.
         25    2    3    3    0    0 -0.39235196385E+02  0.22648867177E+02  0.92374976489E+02  0.16225169450E+03  0.12545957225E+03 0.  0.
         35    2    3    3    0    0  0.39235196385E+02 -0.22648867177E+02 -0.32374662370E+03  0.86447978413E+03  0.80028810374E+03 0.  0.
         22    1    5    5    0    0  0.15127822414E+02 -0.27193651166E+03 -0.49228330838E+03  0.56260214459E+03  0.00000000000E+00 0.  1.
         22    1    5    5    0    0  0.24107373971E+02  0.24928764448E+03  0.16853668468E+03  0.30187763954E+03  0.00000000000E+00 0.  1.
          5    1    4    4  502    0 -0.41480385862E+02 -0.19862732350E+02  0.10734862996E+03  0.11688014760E+03  0.47000000000E+01 0.  1.
         -5    1    4    4    0  502  0.22451894773E+01  0.42511599526E+02 -0.14973653475E+02  0.45371546904E+02  0.47000000000E+01 0.  1.
<mgrwt>
<rscale>  0 0.10003223E+04</rscale>
<asrwt>0</asrwt>
<pdfrwt beam="1">  1        1 0.96777162E-01 0.10003223E+04</pdfrwt>
<pdfrwt beam="2">  1       -1 0.61181526E-01 0.10003223E+04</pdfrwt>
<totfact> 0.10041717E+02</totfact>
</mgrwt>
</event>
<event>
 9    1  0.4370149E-036  0.1000276E+04  0.7818608E-02  0.8680776E-01
          1   -1    0    0  501    0  0.00000000000E+00  0.00000000000E+00  0.81239190174E+03  0.81239190174E+03  0.00000000000E+00 0.  1.
         -1   -1    0    0    0  501 -0.00000000000E+00 -0.00000000000E+00 -0.30790284742E+03  0.30790284742E+03  0.00000000000E+00 0.  1.
         36    2    1    2    0    0 -0.35527136788E-13 -0.14210854715E-13  0.50448905432E+03  0.11202947492E+04  0.10002755216E+04 0.  0.
         25    2    3    3    0    0 -0.32328692518E+02 -0.58285123612E+02 -0.39068624221E+02  0.14955921337E+03  0.12805975523E+03 0.  0.
         35    2    3    3    0    0  0.32328692518E+02  0.58285123612E+02  0.54355767854E+03  0.97073553579E+03  0.80151745492E+03 0.  0.
         22    1    5    5    0    0 -0.34782801046E+03 -0.11746589855E+03  0.15186458280E+03  0.39729763867E+03  0.00000000000E+00 0. -1.
         22    1    5    5    0    0  0.38015670297E+03  0.17575102216E+03  0.39169309574E+03  0.57343789712E+03  0.00000000000E+00 0. -1.
          5    1    4    4  502    0  0.32918550410E+02 -0.18390259282E+02  0.28421684685E+02  0.47452236595E+02  0.47000000000E+01 0. -1.
         -5    1    4    4    0  502 -0.65247242927E+02 -0.39894864330E+02 -0.67490308906E+02  0.10210697677E+03  0.47000000000E+01 0. -1.
<mgrwt>
<rscale>  0 0.10002755E+04</rscale>
<asrwt>0</asrwt>
<pdfrwt beam="1">  1        1 0.12498337E+00 0.10002755E+04</pdfrwt>
<pdfrwt beam="2">  1       -1 0.47369669E-01 0.10002755E+04</pdfrwt>
<totfact> 0.10910581E+02</totfact>
</mgrwt>
</event>
<event>
 9    1  0.4370149E-036  0.9994812E+03  0.7818608E-02  0.8681532E-01
          2   -1    0    0  501    0  0.00000000000E+00  0.00000000000E+00  0.28119408151E+04  0.28119408151E+04  0.00000000000E+00 0.  1.
         -2   -1    0    0    0  501 -0.00000000000E+00 -0.00000000000E+00 -0.88814334145E+02  0.88814334145E+02  0.00000000000E+00 0.  1.
         36    2    1    2    0    0  0.28421709430E-13  0.71054273576E-14  0.27231264810E+04  0.29007551493E+04  0.99948116771E+03 0.  0.
         25    2    3    3    0    0  0.10218755177E+03 -0.63918472701E+02  0.29911309237E+03  0.34510117795E+03  0.12287519728E+03 0.  0.
         35    2    3    3    0    0 -0.10218755177E+03  0.63918472701E+02  0.24240133886E+04  0.25556539713E+04  0.80062378561E+03 0.  0.
         22    1    5    5    0    0 -0.36958244127E+03 -0.10351044526E+03  0.65860056720E+03  0.76227311397E+03  0.00000000000E+00 0. -1.
         22    1    5    5    0    0  0.26739488950E+03  0.16742891796E+03  0.17654128214E+04  0.17933808574E+04  0.00000000000E+00 0. -1.
          5    1    4    4  502    0  0.59567888946E+02  0.65024801158E+01  0.37596192576E+02  0.70895552311E+02  0.47000000000E+01 0. -1.
         -5    1    4    4    0  502  0.42619662821E+02 -0.70420952817E+02  0.26151689979E+03  0.27420562564E+03  0.47000000000E+01 0. -1.
<mgrwt>
<rscale>  0 0.99948117E+03</rscale>
<asrwt>0</asrwt>
<pdfrwt beam="1">  1        2 0.43260621E+00 0.99948117E+03</pdfrwt>
<pdfrwt beam="2">  1       -2 0.13663746E-01 0.99948117E+03</pdfrwt>
<totfact> 0.10385058E+02</totfact>
</mgrwt>
</event>
<event>
 9    1  0.4370149E-036  0.1000334E+04  0.7818608E-02  0.8680720E-01
         -2   -1    0    0    0  501 -0.00000000000E+00  0.00000000000E+00  0.11141216006E+03  0.11141216006E+03  0.00000000000E+00 0. -1.
          2   -1    0    0  501    0  0.00000000000E+00 -0.00000000000E+00 -0.22454202556E+04  0.22454202556E+04  0.00000000000E+00 0. -1.
         36    2    1    2    0    0  0.00000000000E+00 -0.14210854715E-13 -0.21340080955E+04  0.23568324156E+04  0.10003341860E+04 0.  0.
         25    2    3    3    0    0  0.84658691178E+02 -0.87007635011E+02 -0.23382528656E+03  0.29163834167E+03  0.12506492376E+03 0.  0.
         35    2    3    3    0    0 -0.84658691178E+02  0.87007635011E+02 -0.19001828090E+04  0.20651940740E+04  0.79974648057E+03 0.  0.
         22    1    5    5    0    0  0.61576945573E+02  0.39387270566E+03 -0.59307663249E+03  0.71460990792E+03  0.00000000000E+00 0. -1.
         22    1    5    5    0    0 -0.14623563675E+03 -0.30686507065E+03 -0.13071061765E+04  0.13505841661E+04  0.00000000000E+00 0. -1.
          5    1    4    4  502    0  0.19449808063E+02 -0.10311103806E+03 -0.12080563276E+03  0.16008207929E+03  0.47000000000E+01 0.  1.
         -5    1    4    4    0  502  0.65208883116E+02  0.16103403046E+02 -0.11301965380E+03  0.13155626238E+03  0.47000000000E+01 0.  1.
<mgrwt>
<rscale>  0 0.10003342E+04</rscale>
<asrwt>0</asrwt>
<pdfrwt beam="1">  1        2 0.34544926E+00 0.10003342E+04</pdfrwt>
<pdfrwt beam="2">  1       -2 0.17140333E-01 0.10003342E+04</pdfrwt>
<totfact> 0.15768570E+02</totfact>
</mgrwt>
</event>
<event>
 9    1  0.4370149E-036  0.1001006E+04  0.7818608E-02  0.8680080E-01
          2   -1    0    0  501    0  0.00000000000E+00  0.00000000000E+00  0.10633385946E+04  0.10633385946E+04  0.00000000000E+00 0. -1.
         -2   -1    0    0    0  501 -0.00000000000E+00 -0.00000000000E+00 -0.23558203375E+03  0.23558203375E+03  0.00000000000E+00 0. -1.
         36    2    1    2    0    0  0.14210854715E-13  0.71054273576E-14  0.82775656080E+03  0.12989206283E+04  0.10010064309E+04 0.  0.
         25    2    3    3    0    0 -0.12762083523E+03 -0.27606273708E+02  0.75733783447E+02  0.19602422568E+03  0.12506281289E+03 0.  0.
         35    2    3    3    0    0  0.12762083523E+03  0.27606273708E+02  0.75202277736E+03  0.11028964026E+04  0.79611119406E+03 0.  0.
         22    1    5    5    0    0 -0.70989169585E+02  0.28835857899E+03  0.16246357325E+02  0.29741230035E+03  0.00000000000E+00 0. -1.
         22    1    5    5    0    0  0.19861000481E+03 -0.26075230528E+03  0.73577642003E+03  0.80548410226E+03  0.00000000000E+00 0. -1.
          5    1    4    4  502    0 -0.13672567202E+03 -0.57641583287E+02  0.68395789114E+02  0.16345193631E+03  0.47000000000E+01 0. -1.
         -5    1    4    4    0  502  0.91048367940E+01  0.30035309579E+02  0.73379943338E+01  0.32572289379E+02  0.47000000000E+01 0. -1.
<mgrwt>
<rscale>  0 0.10010064E+04</rscale>
<asrwt>0</asrwt>
<pdfrwt beam="1">  1        2 0.16359055E+00 0.10010064E+04</pdfrwt>
<pdfrwt beam="2">  1       -2 0.36243390E-01 0.10010064E+04</pdfrwt>
<totfact> 0.19864653E+02</totfact>
</mgrwt>
</event>
<event>
 9    1  0.4370149E-036  0.9997831E+03  0.7818608E-02  0.8681245E-01
         -1   -1    0    0    0  501 -0.00000000000E+00  0.00000000000E+00  0.79557574783E+03  0.79557574783E+03  0.00000000000E+00 0.  1.
          1   -1    0    0  501    0  0.00000000000E+00 -0.00000000000E+00 -0.31410153011E+03  0.31410153011E+03  0.00000000000E+00 0.  1.
         36    2    1    2    0    0 -0.71054273576E-14  0.00000000000E+00  0.48147421771E+03  0.11096772779E+04  0.99978309590E+03 0.  0.
         25    2    3    3    0    0 -0.38420309291E+02 -0.25429345081E+02  0.23757060065E+03  0.27228497075E+03  0.12480602247E+03 0.  0.
         35    2    3    3    0    0  0.38420309291E+02  0.25429345081E+02  0.24390361706E+03  0.83739230719E+03  0.79975879487E+03 0.  0.
         22    1    5    5    0    0  0.22588023640E+03  0.28682716176E+03  0.34286360595E+03  0.50084643775E+03  0.00000000000E+00 0.  1.
         22    1    5    5    0    0 -0.18745992711E+03 -0.26139781668E+03 -0.98959988891E+02  0.33654586944E+03  0.00000000000E+00 0.  1.
          5    1    4    4  502    0  0.96715509955E+00 -0.69932211698E+02  0.97747837904E+02  0.12028374552E+03  0.47000000000E+01 0. -1.
         -5    1    4    4    0  502 -0.39387464390E+02  0.44502866617E+02  0.13982276275E+03  0.15200122523E+03  0.47000000000E+01 0. -1.
<mgrwt>
<rscale>  0 0.99978310E+03</rscale>
<asrwt>0</asrwt>
<pdfrwt beam="1">  1        1 0.48323313E-01 0.99978310E+03</pdfrwt>
<pdfrwt beam="2">  1       -1 0.12239627E+00 0.99978310E+03</pdfrwt>
<totfact> 0.58484634E+01</totfact>
</mgrwt>
</event>
<event>
 9    1  0.4370149E-036  0.1000012E+04  0.7818608E-02  0.8681027E-01
         -4   -1    0    0    0  501 -0.00000000000E+00  0.00000000000E+00  0.78943564329E+03  0.78943564329E+03  0.00000000000E+00 0.  1.
          4   -1    0    0  501    0  0.00000000000E+00 -0.00000000000E+00 -0.31668946376E+03  0.31668946376E+03  0.00000000000E+00 0.  1.
         36    2    1    2    0    0 -0.14210854715E-13 -0.71054273576E-14  0.47274617953E+03  0.11061251071E+04  0.10000119010E+04 0.  0.
         25    2    3    3    0    0 -0.23364281338E+02  0.85844297945E+01  0.24293665931E+03  0.27442625994E+03  0.12518773756E+03 0.  0.
         35    2    3    3    0    0  0.23364281338E+02 -0.85844297945E+01  0.22980952022E+03  0.83169884711E+03  0.79893114511E+03 0.  0.
         22    1    5    5    0    0  0.11206074534E+03  0.32714951567E+03  0.32189779852E+03  0.47244323357E+03  0.00000000000E+00 0.  1.
         22    1    5    5    0    0 -0.88696464001E+02 -0.33573394547E+03 -0.92088278298E+02  0.35925561355E+03  0.00000000000E+00 0.  1.
          5    1    4    4  502    0 -0.59386090764E+02  0.51261901856E+01  0.22675918933E+03  0.23450971312E+03  0.47000000000E+01 0.  1.
         -5    1    4    4    0  502  0.36021809426E+02  0.34582396089E+01  0.16177469976E+02  0.39916546824E+02  0.47000000000E+01 0.  1.
<mgrwt>
<rscale>  0 0.10000119E+04</rscale>
<asrwt>0</asrwt>
<pdfrwt beam="1">  1        4 0.48721456E-01 0.10000119E+04</pdfrwt>
<pdfrwt beam="2">  1       -4 0.12145164E+00 0.10000119E+04</pdfrwt>
<totfact> 0.44998692E+00</totfact>
</mgrwt>
</event>
<event>
 9    1  0.4370149E-036  0.9994367E+03  0.7818608E-02  0.8681575E-01
          1   -1    0    0  501    0  0.00000000000E+00  0.00000000000E+00  0.63638408158E+03  0.63638408158E+03  0.00000000000E+00 0. -1.
         -1   -1    0    0    0  501 -0.00000000000E+00 -0.00000000000E+00 -0.39240208233E+03  0.39240208233E+03  0.00000000000E+00 0. -1.
         36    2    1    2    0    0  0.00000000000E+00  0.00000000000E+00  0.24398199925E+03  0.10287861639E+04  0.99943671890E+03 0.  0.
         25    2    3    3    0    0 -0.33089867308E+02  0.10481031093E+03  0.13225057470E+03  0.21328003356E+03  0.12616662638E+03 0.  0.
         35    2    3    3    0    0  0.33089867308E+02 -0.10481031093E+03  0.11173142455E+03  0.81550613035E+03  0.80030381531E+03 0.  0.
         22    1    5    5    0    0  0.15456320925E+02  0.21871340154E+03  0.35022041231E+03  0.41319340153E+03  0.00000000000E+00 0.  1.
         22    1    5    5    0    0  0.17633546383E+02 -0.32352371247E+03 -0.23848898776E+03  0.40231272882E+03  0.00000000000E+00 0.  1.
          5    1    4    4  502    0 -0.25486789848E+02  0.65452920874E+01  0.10856368901E+03  0.11180600108E+03  0.47000000000E+01 0. -1.
         -5    1    4    4    0  502 -0.76030774601E+01  0.98265018844E+02  0.23686885686E+02  0.10147403249E+03  0.47000000000E+01 0. -1.
<mgrwt>
<rscale>  0 0.99943672E+03</rscale>
<asrwt>0</asrwt>
<pdfrwt beam="1">  1        1 0.97905243E-01 0.99943672E+03</pdfrwt>
<pdfrwt beam="2">  1       -1 0.60369551E-01 0.99943672E+03</pdfrwt>
<totfact> 0.10127989E+02</totfact>
</mgrwt>
</event>
<event>
 9    1  0.4370149E-036  0.9998305E+03  0.7818608E-02  0.8681199E-01
         -3   -1    0    0    0  501 -0.00000000000E+00  0.00000000000E+00  0.23517243959E+03  0.23517243959E+03  0.00000000000E+00 0. -1.
          3   -1    0    0  501    0  0.00000000000E+00 -0.00000000000E+00 -0.10626894189E+04  0.10626894189E+04  0.00000000000E+00 0. -1.
         36    2    1    2    0    0  0.10658141036E-13  0.56843418861E-13 -0.82751697936E+03  0.12978618585E+04  0.99983051199E+03 0.  0.
         25    2    3    3    0    0 -0.29675414695E+02 -0.12922181004E+03 -0.21658648691E+03  0.28283532937E+03  0.12452795190E+03 0.  0.
         35    2    3    3    0    0  0.29675414695E+02  0.12922181004E+03 -0.61093049246E+03  0.10150265292E+04  0.79966485596E+03 0.  0.
         22    1    5    5    0    0  0.23921390887E+03 -0.25142951196E+03 -0.40748873460E+03  0.53524495561E+03  0.00000000000E+00 0. -1.
         22    1    5    5    0    0 -0.20953849417E+03  0.38065132200E+03 -0.20344175786E+03  0.47978157355E+03  0.00000000000E+00 0. -1.
          5    1    4    4  502    0  0.23097313928E+02 -0.63634994778E+02 -0.22944198906E+02  0.71633963554E+02  0.47000000000E+01 0. -1.
         -5    1    4    4    0  502 -0.52772728623E+02 -0.65586815258E+02 -0.19364228800E+03  0.21120136582E+03  0.47000000000E+01 0. -1.
<mgrwt>
<rscale>  0 0.99983051E+03</rscale>
<asrwt>0</asrwt>
<pdfrwt beam="1">  1        3 0.16349068E+00 0.99983051E+03</pdfrwt>
<pdfrwt beam="2">  1       -3 0.36180376E-01 0.99983051E+03</pdfrwt>
<totfact> 0.80508966E+00</totfact>
</mgrwt>
</event>
<event>
 9    1  0.4370149E-036  0.9999639E+03  0.7818608E-02  0.8681072E-01
          2   -1    0    0  501    0  0.00000000000E+00  0.00000000000E+00  0.61774668979E+03  0.61774668979E+03  0.00000000000E+00 0. -1.
         -2   -1    0    0    0  501 -0.00000000000E+00 -0.00000000000E+00 -0.40466742180E+03  0.40466742180E+03  0.00000000000E+00 0. -1.
         36    2    1    2    0    0  0.00000000000E+00  0.00000000000E+00  0.21307926799E+03  0.10224141116E+04  0.99996391991E+03 0.  0.
         25    2    3    3    0    0 -0.89581730189E+01  0.83758033074E+02 -0.75066863179E+02  0.16841112543E+03  0.12502646221E+03 0.  0.
         35    2    3    3    0    0  0.89581730189E+01 -0.83758033074E+02  0.28814613117E+03  0.85400298616E+03  0.79949812414E+03 0.  0.
         22    1    5    5    0    0 -0.21282584646E+03 -0.22567929060E+02  0.49835187765E+03  0.54236403485E+03  0.00000000000E+00 0.  1.
         22    1    5    5    0    0  0.22178401948E+03 -0.61190104013E+02 -0.21020574648E+03  0.31163895131E+03  0.00000000000E+00 0.  1.
          5    1    4    4  502    0  0.39687788714E+01 -0.14674520083E+02  0.23535154256E+02  0.28409263124E+02  0.47000000000E+01 0.  1.
         -5    1    4    4    0  502 -0.12926951890E+02  0.98432553157E+02 -0.98602017434E+02  0.14000186230E+03  0.47000000000E+01 0.  1.
<mgrwt>
<rscale>  0 0.99996392E+03</rscale>
<asrwt>0</asrwt>
<pdfrwt beam="1">  1        2 0.95037952E-01 0.99996392E+03</pdfrwt>
<pdfrwt beam="2">  1       -2 0.62256526E-01 0.99996392E+03</pdfrwt>
<totfact> 0.13868379E+02</totfact>
</mgrwt>
</event>
<event>
 9    1  0.4370149E-036  0.1002451E+04  0.7818608E-02  0.8678707E-01
         -2   -1    0    0    0  501 -0.00000000000E+00  0.00000000000E+00  0.18731544223E+04  0.18731544223E+04  0.00000000000E+00 0. -1.
          2   -1    0    0  501    0  0.00000000000E+00 -0.00000000000E+00 -0.13411974273E+03  0.13411974273E+03  0.00000000000E+00 0. -1.
         36    2    1    2    0    0  0.00000000000E+00  0.28421709430E-13  0.17390346796E+04  0.20072741651E+04  0.10024509748E+04 0.  0.
         25    2    3    3    0    0  0.47860685649E+02  0.13444505276E+03  0.35874185462E+03  0.40574964806E+03  0.12478357744E+03 0.  0.
         35    2    3    3    0    0 -0.47860685649E+02 -0.13444505276E+03  0.13802928250E+04  0.16015245170E+04  0.79956636899E+03 0.  0.
         22    1    5    5    0    0  0.29390411992E+02 -0.37854152633E+03  0.27979908469E+03  0.47164076506E+03  0.00000000000E+00 0.  1.
         22    1    5    5    0    0 -0.77251097641E+02  0.24409647356E+03  0.11004937403E+04  0.11298837519E+04  0.00000000000E+00 0.  1.
          5    1    4    4  502    0 -0.21301532164E+02  0.27370845257E+02  0.19536772345E+03  0.19847809907E+03  0.47000000000E+01 0. -1.
         -5    1    4    4    0  502  0.69162217813E+02  0.10707420751E+03  0.16337413117E+03  0.20727154899E+03  0.47000000000E+01 0. -1.
<mgrwt>
<rscale>  0 0.10024510E+04</rscale>
<asrwt>0</asrwt>
<pdfrwt beam="1">  1        2 0.20633808E-01 0.10024510E+04</pdfrwt>
<pdfrwt beam="2">  1       -2 0.28817758E+00 0.10024510E+04</pdfrwt>
<totfact> 0.11142386E+01</totfact>
</mgrwt>
</event>
<event>
 9    1  0.4370149E-036  0.1000891E+04  0.7818608E-02  0.8680190E-01
         -2   -1    0    0    0  501 -0.00000000000E+00  0.00000000000E+00  0.14664219564E+03  0.14664219564E+03  0.00000000000E+00 0. -1.
          2   -1    0    0  501    0  0.00000000000E+00 -0.00000000000E+00 -0.17078703147E+04  0.17078703147E+04  0.00000000000E+00 0. -1.
         36    2    1    2    0    0  0.00000000000E+00 -0.71054273576E-14 -0.15612281191E+04  0.18545125103E+04  0.10008913084E+04 0.  0.
         25    2    3    3    0    0 -0.13240603631E+03 -0.49651342675E+02 -0.28743636691E+03  0.34351412169E+03  0.12403899588E+03 0.  0.
         35    2    3    3    0    0  0.13240603631E+03  0.49651342675E+02 -0.12737917521E+04  0.15109983886E+04  0.80035872481E+03 0.  0.
         22    1    5    5    0    0 -0.30035875369E+02 -0.28749490891E+03 -0.10166156014E+04  0.10569118967E+04  0.00000000000E+00 0.  1.
         22    1    5    5    0    0  0.16244191168E+03  0.33714625158E+03 -0.25717615076E+03  0.45408649192E+03  0.00000000000E+00 0.  1.
          5    1    4    4  502    0 -0.30349495059E+02 -0.36040454120E+02 -0.11173349751E+02  0.48651206852E+02  0.47000000000E+01 0. -1.
         -5    1    4    4    0  502 -0.10205654125E+03 -0.13610888555E+02 -0.27626301716E+03  0.29486291484E+03  0.47000000000E+01 0. -1.
<mgrwt>
<rscale>  0 0.10008913E+04</rscale>
<asrwt>0</asrwt>
<pdfrwt beam="1">  1        2 0.26274926E+00 0.10008913E+04</pdfrwt>
<pdfrwt beam="2">  1       -2 0.22560339E-01 0.10008913E+04</pdfrwt>
<totfact> 0.19883297E+02</totfact>
</mgrwt>
</event>
<event>
 9    1  0.4370149E-036  0.1001481E+04  0.7818608E-02  0.8679629E-01
          2   -1    0    0  501    0  0.00000000000E+00  0.00000000000E+00  0.17357904059E+04  0.17357904059E+04  0.00000000000E+00 0.  1.
         -2   -1    0    0    0  501 -0.00000000000E+00 -0.00000000000E+00 -0.14445343457E+03  0.14445343457E+03  0.00000000000E+00 0.  1.
         36    2    1    2    0    0  0.00000000000E+00  0.00000000000E+00  0.15913369713E+04  0.18802438405E+04  0.10014806754E+04 0.  0.
         25    2    3    3    0    0 -0.43847155151E+02 -0.11340429393E+03  0.16267145098E+03  0.23843377099E+03  0.12492219695E+03 0.  0.
         35    2    3    3    0    0  0.43847155151E+02  0.11340429393E+03  0.14286655203E+04  0.16418100695E+04  0.79979499140E+03 0.  0.
         22    1    5    5    0    0  0.12922666541E+03 -0.11864377599E+02 -0.61744196209E+02  0.14371026503E+03  0.00000000000E+00 0. -1.
         22    1    5    5    0    0 -0.85379510261E+02  0.12526867153E+03  0.14904097166E+04  0.14980998044E+04  0.00000000000E+00 0. -1.
          5    1    4    4  502    0 -0.80519431696E+02 -0.10233331562E+03  0.97678843574E+02  0.16284573328E+03  0.47000000000E+01 0. -1.
         -5    1    4    4    0  502  0.36672276545E+02 -0.11070978311E+02  0.64992607404E+02  0.75588037711E+02  0.47000000000E+01 0. -1.
<mgrwt>
<rscale>  0 0.10014807E+04</rscale>
<asrwt>0</asrwt>
<pdfrwt beam="1">  1        2 0.26704466E+00 0.10014807E+04</pdfrwt>
<pdfrwt beam="2">  1       -2 0.22223607E-01 0.10014807E+04</pdfrwt>
<totfact> 0.19688380E+02</totfact>
</mgrwt>
</event>
<event>
 9    1  0.4370149E-036  0.1002853E+04  0.7818608E-02  0.8678326E-01
          1   -1    0    0  501    0  0.00000000000E+00  0.00000000000E+00  0.10270728362E+04  0.10270728362E+04  0.00000000000E+00 0. -1.
         -1   -1    0    0    0  501 -0.00000000000E+00 -0.00000000000E+00 -0.24480089067E+03  0.24480089067E+03  0.00000000000E+00 0. -1.
         36    2    1    2    0    0  0.00000000000E+00 -0.49737991503E-13  0.78227194555E+03  0.12718737269E+04  0.10028526214E+04 0.  0.
         25    2    3    3    0    0 -0.65003000608E+02  0.26973292771E+02  0.30692113443E+03  0.33872131488E+03  0.12481425314E+03 0.  0.
         35    2    3    3    0    0  0.65003000608E+02 -0.26973292771E+02  0.47535081112E+03  0.93315241200E+03  0.79991379647E+03 0.  0.
         22    1    5    5    0    0  0.26314508768E+02  0.38099591571E+03  0.30748816081E+03  0.49030532345E+03  0.00000000000E+00 0. -1.
         22    1    5    5    0    0  0.38688491840E+02 -0.40796920848E+03  0.16786265031E+03  0.44284708856E+03  0.00000000000E+00 0. -1.
          5    1    4    4  502    0 -0.32860571367E+02  0.42562107324E+02  0.29627315148E+03  0.30114983051E+03  0.47000000000E+01 0.  1.
         -5    1    4    4    0  502 -0.32142429241E+02 -0.15588814553E+02  0.10647982947E+02  0.37571484367E+02  0.47000000000E+01 0.  1.
<mgrwt>
<rscale>  0 0.10028526E+04</rscale>
<asrwt>0</asrwt>
<pdfrwt beam="1">  1        1 0.15801120E+00 0.10028526E+04</pdfrwt>
<pdfrwt beam="2">  1       -1 0.37661676E-01 0.10028526E+04</pdfrwt>
<totfact> 0.10945792E+02</totfact>
</mgrwt>
</event>
<event>
 9    1  0.4370149E-036  0.9999417E+03  0.7818608E-02  0.8681093E-01
         -1   -1    0    0    0  501 -0.00000000000E+00  0.00000000000E+00  0.12143862652E+04  0.12143862652E+04  0.00000000000E+00 0.  1.
          1   -1    0    0  501    0  0.00000000000E+00 -0.00000000000E+00 -0.20584132010E+03  0.20584132010E+03  0.00000000000E+00 0.  1.
         36    2    1    2    0    0  0.00000000000E+00  0.14210854715E-13  0.10085449451E+04  0.14202275853E+04  0.99994174218E+03 0.  0.
         25    2    3    3    0    0  0.72260521953E+02 -0.11878052250E+03  0.19033568982E+03  0.26690290663E+03  0.12521617783E+03 0.  0.
         35    2    3    3    0    0 -0.72260521953E+02  0.11878052250E+03  0.81820925527E+03  0.11533246787E+04  0.80085019413E+03 0.  0.
         22    1    5    5    0    0 -0.10306627085E+03 -0.31004583076E+03  0.15180941541E+03  0.36027374588E+03  0.00000000000E+00 0. -1.
         22    1    5    5    0    0  0.30805748900E+02  0.42882635327E+03  0.66639983986E+03  0.79305093278E+03  0.00000000000E+00 0. -1.
          5    1    4    4  502    0  0.45390623599E+02 -0.31075562261E+02  0.16143454033E+03  0.17061418491E+03  0.47000000000E+01 0.  1.
         -5    1    4    4    0  502  0.26869898354E+02 -0.87704960241E+02  0.28901149484E+02  0.96288721717E+02  0.47000000000E+01 0.  1.
<mgrwt>
<rscale>  0 0.99994174E+03</rscale>
<asrwt>0</asrwt>
<pdfrwt beam="1">  1        1 0.31667896E-01 0.99994174E+03</pdfrwt>
<pdfrwt beam="2">  1       -1 0.18682865E+00 0.99994174E+03</pdfrwt>
<totfact> 0.28832221E+01</totfact>
</mgrwt>
</event>
<event>
 9    1  0.4370149E-036  0.9988062E+03  0.7818608E-02  0.8682176E-01
         -2   -1    0    0    0  501 -0.00000000000E+00  0.00000000000E+00  0.40030514181E+03  0.40030514181E+03  0.00000000000E+00 0. -1.
          2   -1    0    0  501    0  0.00000000000E+00 -0.00000000000E+00 -0.62303337221E+03  0.62303337221E+03  0.00000000000E+00 0. -1.
         36    2    1    2    0    0  0.00000000000E+00 -0.14210854715E-13 -0.22272823039E+03  0.10233385140E+04  0.99880621227E+03 0.  0.
         25    2    3    3    0    0 -0.74334842205E+02  0.11439030965E+03 -0.17039121843E+02  0.18621727150E+03  0.12560146824E+03 0.  0.
         35    2    3    3    0    0  0.74334842205E+02 -0.11439030965E+03 -0.20568910855E+03  0.83712124253E+03  0.79990821574E+03 0.  0.
         22    1    5    5    0    0  0.96654678530E+01  0.29286712325E+03 -0.29434838860E+03  0.41533787092E+03  0.00000000000E+00 0. -1.
         22    1    5    5    0    0  0.64669374352E+02 -0.40725743289E+03  0.88659280048E+02  0.42178337161E+03  0.00000000000E+00 0. -1.
          5    1    4    4  502    0 -0.75109703458E+01  0.63577250822E+02 -0.63383060485E+02  0.90210774600E+02  0.47000000000E+01 0.  1.
         -5    1    4    4    0  502 -0.66823871859E+02  0.50813058823E+02  0.46343938642E+02  0.96006496895E+02  0.47000000000E+01 0.  1.
<mgrwt>
<rscale>  0 0.99880621E+03</rscale>
<asrwt>0</asrwt>
<pdfrwt beam="1">  1        2 0.95851287E-01 0.99880621E+03</pdfrwt>
<pdfrwt beam="2">  1       -2 0.61585407E-01 0.99880621E+03</pdfrwt>
<totfact> 0.14044715E+02</totfact>
</mgrwt>
</event>
<event>
 9    1  0.4370149E-036  0.1000460E+04  0.7818608E-02  0.8680600E-01
         -2   -1    0    0    0  501 -0.00000000000E+00  0.00000000000E+00  0.23275167859E+03  0.23275167859E+03  0.00000000000E+00 0.  1.
          2   -1    0    0  501    0  0.00000000000E+00 -0.00000000000E+00 -0.10750953148E+04  0.10750953148E+04  0.00000000000E+00 0.  1.
         36    2    1    2    0    0  0.00000000000E+00  0.00000000000E+00 -0.84234363616E+03  0.13078469934E+04  0.10004603723E+04 0.  0.
         25    2    3    3    0    0  0.13168067584E+03 -0.41210810119E+02 -0.19276313356E+03  0.26825070054E+03  0.12554951780E+03 0.  0.
         35    2    3    3    0    0 -0.13168067584E+03  0.41210810119E+02 -0.64958050260E+03  0.10395962928E+04  0.79985466893E+03 0.  0.
         22    1    5    5    0    0  0.13957035845E+03 -0.10518763571E+03  0.11904992787E+03  0.21146443907E+03  0.00000000000E+00 0.  1.
         22    1    5    5    0    0 -0.27125103429E+03  0.14639844583E+03 -0.76863043047E+03  0.82813185374E+03  0.00000000000E+00 0.  1.
          5    1    4    4  502    0  0.32342243721E+02 -0.86657758159E+01 -0.15238511189E+03  0.15609109111E+03  0.47000000000E+01 0.  1.
         -5    1    4    4    0  502  0.99338432116E+02 -0.32545034303E+02 -0.40378021677E+02  0.11215960943E+03  0.47000000000E+01 0.  1.
<mgrwt>
<rscale>  0 0.10004604E+04</rscale>
<asrwt>0</asrwt>
<pdfrwt beam="1">  1        2 0.16539928E+00 0.10004604E+04</pdfrwt>
<pdfrwt beam="2">  1       -2 0.35807950E-01 0.10004604E+04</pdfrwt>
<totfact> 0.19986022E+02</totfact>
</mgrwt>
</event>
<event>
 9    1  0.4370149E-036  0.9986015E+03  0.7818608E-02  0.8682371E-01
         -2   -1    0    0    0  501 -0.00000000000E+00  0.00000000000E+00  0.13557806981E+03  0.13557806981E+03  0.00000000000E+00 0. -1.
          2   -1    0    0  501    0  0.00000000000E+00 -0.00000000000E+00 -0.18388019860E+04  0.18388019860E+04  0.00000000000E+00 0. -1.
         36    2    1    2    0    0 -0.21316282073E-13  0.71054273576E-14 -0.17032239162E+04  0.19743800558E+04  0.99860147011E+03 0.  0.
         25    2    3    3    0    0  0.27500132456E+02 -0.30044921673E+01 -0.49048189718E+02  0.13669215477E+03  0.12455414888E+03 0.  0.
         35    2    3    3    0    0 -0.27500132456E+02  0.30044921673E+01 -0.16541757265E+04  0.18376879010E+04  0.80002137679E+03 0.  0.
         22    1    5    5    0    0 -0.31672376898E+03 -0.17891982094E+03 -0.41308863955E+03  0.55042571914E+03  0.00000000000E+00 0.  1.
         22    1    5    5    0    0  0.28922363653E+03  0.18192431311E+03 -0.12410870869E+04  0.12872621819E+04  0.00000000000E+00 0.  1.
          5    1    4    4  502    0  0.40574064173E+01 -0.26634120882E+02  0.36018397136E+02  0.45224483128E+02  0.47000000000E+01 0. -1.
         -5    1    4    4    0  502  0.23442726038E+02  0.23629628714E+02 -0.85066586854E+02  0.91467671645E+02  0.47000000000E+01 0. -1.
<mgrwt>
<rscale>  0 0.99860147E+03</rscale>
<asrwt>0</asrwt>
<pdfrwt beam="1">  1        2 0.28289260E+00 0.99860147E+03</pdfrwt>
<pdfrwt beam="2">  1       -2 0.20858166E-01 0.99860147E+03</pdfrwt>
<totfact> 0.19236437E+02</totfact>
</mgrwt>
</event>
<event>
 9    1  0.4370149E-036  0.1003086E+04  0.7818608E-02  0.8678105E-01
          2   -1    0    0  501    0  0.00000000000E+00  0.00000000000E+00  0.38003683789E+03  0.38003683789E+03  0.00000000000E+00 0. -1.
         -2   -1    0    0    0  501 -0.00000000000E+00 -0.00000000000E+00 -0.66189729372E+03  0.66189729372E+03  0.00000000000E+00 0. -1.
         36    2    1    2    0    0 -0.71054273576E-14  0.14210854715E-13 -0.28186045583E+03  0.10419341316E+04  0.10030859475E+04 0.  0.
         25    2    3    3    0    0 -0.42162216841E+02 -0.11572151383E+03 -0.13481037952E+03  0.22081758631E+03  0.12416701133E+03 0.  0.
         35    2    3    3    0    0  0.42162216841E+02  0.11572151383E+03 -0.14705007631E+03  0.82111654531E+03  0.79839810542E+03 0.  0.
         22    1    5    5    0    0  0.34664676534E+03  0.22420859212E+03  0.87175994109E+02  0.42193971921E+03  0.00000000000E+00 0. -1.
         22    1    5    5    0    0 -0.30448454850E+03 -0.10848707829E+03 -0.23422607041E+03  0.39917682609E+03  0.00000000000E+00 0. -1.
          5    1    4    4  502    0 -0.84525917189E+02 -0.95742338808E+02 -0.97254343196E+02  0.16059801801E+03  0.47000000000E+01 0. -1.
         -5    1    4    4    0  502  0.42363700348E+02 -0.19979175021E+02 -0.37556036326E+02  0.60219568300E+02  0.47000000000E+01 0. -1.
<mgrwt>
<rscale>  0 0.10030859E+04</rscale>
<asrwt>0</asrwt>
<pdfrwt beam="1">  1        2 0.58467206E-01 0.10030859E+04</pdfrwt>
<pdfrwt beam="2">  1       -2 0.10183035E+00 0.10030859E+04</pdfrwt>
<totfact> 0.79048049E+01</totfact>
</mgrwt>
</event>
<event>
 9    1  0.4370149E-036  0.9993807E+03  0.7818608E-02  0.8681628E-01
         -1   -1    0    0    0  501 -0.00000000000E+00  0.00000000000E+00  0.40095452982E+03  0.40095452982E+03  0.00000000000E+00 0.  1.
          1   -1    0    0  501    0  0.00000000000E+00 -0.00000000000E+00 -0.62274009660E+03  0.62274009660E+03  0.00000000000E+00 0.  1.
         36    2    1    2    0    0  0.46185277824E-13  0.00000000000E+00 -0.22178556677E+03  0.10236946264E+04  0.99938073352E+03 0.  0.
         25    2    3    3    0    0 -0.67145078910E+01  0.12535426207E+03 -0.10289573251E+03  0.20505769958E+03  0.12530902901E+03 0.  0.
         35    2    3    3    0    0  0.67145078910E+01 -0.12535426207E+03 -0.11888983426E+03  0.81863692685E+03  0.80017051287E+03 0.  0.
         22    1    5    5    0    0  0.36822797452E+03  0.85194203922E+02 -0.13125487774E+03  0.40009715886E+03  0.00000000000E+00 0.  1.
         22    1    5    5    0    0 -0.36151346663E+03 -0.21054846599E+03  0.12365043481E+02  0.41853976798E+03  0.00000000000E+00 0.  1.
          5    1    4    4  502    0 -0.36339132668E+02  0.54296241483E+02  0.12079781857E+02  0.66607999009E+02  0.47000000000E+01 0.  1.
         -5    1    4    4    0  502  0.29624624777E+02  0.71058020582E+02 -0.11497551437E+03  0.13844970057E+03  0.47000000000E+01 0.  1.
<mgrwt>
<rscale>  0 0.99938073E+03</rscale>
<asrwt>0</asrwt>
<pdfrwt beam="1">  1        1 0.95806169E-01 0.99938073E+03</pdfrwt>
<pdfrwt beam="2">  1       -1 0.61685312E-01 0.99938073E+03</pdfrwt>
<totfact> 0.10033765E+02</totfact>
</mgrwt>
</event>
<event>
 9    1  0.4370149E-036  0.9996260E+03  0.7818608E-02  0.8681394E-01
          2   -1    0    0  501    0  0.00000000000E+00  0.00000000000E+00  0.31070246128E+03  0.31070246128E+03  0.00000000000E+00 0.  1.
         -2   -1    0    0    0  501 -0.00000000000E+00 -0.00000000000E+00 -0.80402651812E+03  0.80402651812E+03  0.00000000000E+00 0.  1.
         36    2    1    2    0    0  0.00000000000E+00  0.14210854715E-13 -0.49332405684E+03  0.11147289794E+04  0.99962596627E+03 0.  0.
         25    2    3    3    0    0  0.76734451083E+02 -0.92081532236E+02 -0.16852088016E+03  0.24366285360E+03  0.12886083428E+03 0.  0.
         35    2    3    3    0    0 -0.76734451083E+02  0.92081532236E+02 -0.32480317668E+03  0.87106612579E+03  0.79930714207E+03 0.  0.
         22    1    5    5    0    0 -0.10854145623E+03 -0.11977958376E+02  0.25696707952E+03  0.27920744827E+03  0.00000000000E+00 0. -1.
         22    1    5    5    0    0  0.31807005149E+02  0.10405949061E+03 -0.58177025620E+03  0.59185867753E+03  0.00000000000E+00 0. -1.
          5    1    4    4  502    0  0.75640376293E+02  0.60756476498E+01 -0.57030787566E+02  0.95041994669E+02  0.47000000000E+01 0. -1.
         -5    1    4    4    0  502  0.10940747891E+01 -0.98157179886E+02 -0.11149009260E+03  0.14862085893E+03  0.47000000000E+01 0. -1.
<mgrwt>
<rscale>  0 0.99962597E+03</rscale>
<asrwt>0</asrwt>
<pdfrwt beam="1">  1        2 0.47800379E-01 0.99962597E+03</pdfrwt>
<pdfrwt beam="2">  1       -2 0.12369639E+00 0.99962597E+03</pdfrwt>
<totfact> 0.60383178E+01</totfact>
</mgrwt>
</event>
<event>
 9    1  0.4370149E-036  0.9996548E+03  0.7818608E-02  0.8681367E-01
          2   -1    0    0  501    0  0.00000000000E+00  0.00000000000E+00  0.26598134867E+04  0.26598134867E+04  0.00000000000E+00 0. -1.
         -2   -1    0    0    0  501 -0.00000000000E+00 -0.00000000000E+00 -0.93926674707E+02  0.93926674707E+02  0.00000000000E+00 0. -1.
         36    2    1    2    0    0  0.00000000000E+00  0.00000000000E+00  0.25658868120E+04  0.27537401614E+04  0.99965481272E+03 0.  0.
         25    2    3    3    0    0  0.81849694322E+02 -0.70925830550E-01  0.79564810864E+03  0.80959395216E+03  0.12524806229E+03 0.  0.
         35    2    3    3    0    0 -0.81849694322E+02  0.70925830550E-01  0.17702387034E+04  0.19441462092E+04  0.79953739036E+03 0.  0.
         22    1    5    5    0    0 -0.17763123892E+03  0.36904830841E+03  0.10894579263E+04  0.11639020939E+04  0.00000000000E+00 0. -1.
         22    1    5    5    0    0  0.95781544603E+02 -0.36897738258E+03  0.68078077701E+03  0.78024411532E+03  0.00000000000E+00 0. -1.
          5    1    4    4  502    0  0.55052570856E+02 -0.42590830587E+02  0.20013893568E+03  0.21194916368E+03  0.47000000000E+01 0.  1.
         -5    1    4    4    0  502  0.26797123466E+02  0.42519904757E+02  0.59550917296E+03  0.59764478849E+03  0.47000000000E+01 0.  1.
<mgrwt>
<rscale>  0 0.99965481E+03</rscale>
<asrwt>0</asrwt>
<pdfrwt beam="1">  1        2 0.40920202E+00 0.99965481E+03</pdfrwt>
<pdfrwt beam="2">  1       -2 0.14450260E-01 0.99965481E+03</pdfrwt>
<totfact> 0.11812797E+02</totfact>
</mgrwt>
</event>
<event>
 9    1  0.4370149E-036  0.1000265E+04  0.7818608E-02  0.8680786E-01
          2   -1    0    0  501    0  0.00000000000E+00  0.00000000000E+00  0.44234010705E+03  0.44234010705E+03  0.00000000000E+00 0. -1.
         -2   -1    0    0    0  501 -0.00000000000E+00 -0.00000000000E+00 -0.56547526666E+03  0.56547526666E+03  0.00000000000E+00 0. -1.
         36    2    1    2    0    0 -0.71054273576E-14  0.00000000000E+00 -0.12313515961E+03  0.10078153737E+04  0.10002647449E+04 0.  0.
         25    2    3    3    0    0  0.31264923222E+02  0.12871142263E+03 -0.58415487710E+02  0.19388689258E+03  0.12897919278E+03 0.  0.
         35    2    3    3    0    0 -0.31264923222E+02 -0.12871142263E+03 -0.64719671904E+02  0.81392848113E+03  0.80046662062E+03 0.  0.
         22    1    5    5    0    0 -0.21033592739E+03 -0.23353160770E+03  0.27383371113E+03  0.41684903203E+03  0.00000000000E+00 0. -1.
         22    1    5    5    0    0  0.17907100417E+03  0.10482018508E+03 -0.33855338304E+03  0.39707944910E+03  0.00000000000E+00 0. -1.
          5    1    4    4  502    0 -0.39475584742E+02  0.94904696103E+02 -0.14534652878E+02  0.10391616461E+03  0.47000000000E+01 0. -1.
         -5    1    4    4    0  502  0.70740507964E+02  0.33806726526E+02 -0.43880834833E+02  0.89970727967E+02  0.47000000000E+01 0. -1.
<mgrwt>
<rscale>  0 0.10002647E+04</rscale>
<asrwt>0</asrwt>
<pdfrwt beam="1">  1        2 0.68052324E-01 0.10002647E+04</pdfrwt>
<pdfrwt beam="2">  1       -2 0.86996195E-01 0.10002647E+04</pdfrwt>
<totfact> 0.97049456E+01</totfact>
</mgrwt>
</event>
<event>
 9    1  0.4370149E-036  0.9998244E+03  0.7818608E-02  0.8681205E-01
         -2   -1    0    0    0  501 -0.00000000000E+00  0.00000000000E+00  0.32243366704E+03  0.32243366704E+03  0.00000000000E+00 0. -1.
          2   -1    0    0  501    0  0.00000000000E+00 -0.00000000000E+00 -0.77508097834E+03  0.77508097834E+03  0.00000000000E+00 0. -1.
         36    2    1    2    0    0  0.28421709430E-13  0.00000000000E+00 -0.45264731130E+03  0.10975146454E+04  0.99982438878E+03 0.  0.
         25    2    3    3    0    0  0.12491057614E+03 -0.44038267255E+02 -0.13159460997E+03  0.22465823570E+03  0.12494863137E+03 0.  0.
         35    2    3    3    0    0 -0.12491057614E+03  0.44038267255E+02 -0.32105270133E+03  0.87285640968E+03  0.80078802056E+03 0.  0.
         22    1    5    5    0    0  0.31577270660E+03  0.92596169503E+02 -0.62832372455E+01  0.32912905054E+03  0.00000000000E+00 0.  1.
         22    1    5    5    0    0 -0.44068328274E+03 -0.48557902248E+02 -0.31476946408E+03  0.54372735914E+03  0.00000000000E+00 0.  1.
          5    1    4    4  502    0  0.10824013132E+03 -0.44506407289E+02 -0.15578386462E+03  0.19490369107E+03  0.47000000000E+01 0.  1.
         -5    1    4    4    0  502  0.16670444822E+02  0.46814003394E+00  0.24189254649E+02  0.29754544630E+02  0.47000000000E+01 0.  1.
<mgrwt>
<rscale>  0 0.99982439E+03</rscale>
<asrwt>0</asrwt>
<pdfrwt beam="1">  1        2 0.11924323E+00 0.99982439E+03</pdfrwt>
<pdfrwt beam="2">  1       -2 0.49605180E-01 0.99982439E+03</pdfrwt>
<totfact> 0.16721350E+02</totfact>
</mgrwt>
</event>
<event>
 9    1  0.4370149E-036  0.1000008E+04  0.7818608E-02  0.8681030E-01
         -2   -1    0    0    0  501 -0.00000000000E+00  0.00000000000E+00  0.20880050195E+03  0.20880050195E+03  0.00000000000E+00 0.  1.
          2   -1    0    0  501    0  0.00000000000E+00 -0.00000000000E+00 -0.11973339738E+04  0.11973339738E+04  0.00000000000E+00 0.  1.
         36    2    1    2    0    0  0.14210854715E-13  0.00000000000E+00 -0.98853347188E+03  0.14061344758E+04  0.10000078695E+04 0.  0.
         25    2    3    3    0    0 -0.96061951144E+02 -0.10143889327E+03 -0.18383534967E+03  0.26291301045E+03  0.12573809188E+03 0.  0.
         35    2    3    3    0    0  0.96061951144E+02  0.10143889327E+03 -0.80469812221E+03  0.11432214653E+04  0.79993656211E+03 0.  0.
         22    1    5    5    0    0  0.29829223058E+03  0.36005636190E+03 -0.58182981400E+03  0.74642130933E+03  0.00000000000E+00 0.  1.
         22    1    5    5    0    0 -0.20223027944E+03 -0.25861746863E+03 -0.22286830821E+03  0.39680015601E+03  0.00000000000E+00 0.  1.
          5    1    4    4  502    0 -0.47295821210E+02 -0.12389621703E+03 -0.11582992377E+03  0.17614150147E+03  0.47000000000E+01 0.  1.
         -5    1    4    4    0  502 -0.48766129934E+02  0.22457323763E+02 -0.68005425893E+02  0.86771508977E+02  0.47000000000E+01 0.  1.
<mgrwt>
<rscale>  0 0.10000079E+04</rscale>
<asrwt>0</asrwt>
<pdfrwt beam="1">  1        2 0.18420523E+00 0.10000079E+04</pdfrwt>
<pdfrwt beam="2">  1       -2 0.32123154E-01 0.10000079E+04</pdfrwt>
<totfact> 0.20647722E+02</totfact>
</mgrwt>
</event>
<event>
 9    1  0.4370149E-036  0.1006737E+04  0.7818608E-02  0.8674649E-01
         -2   -1    0    0    0  501 -0.00000000000E+00  0.00000000000E+00  0.50032285184E+03  0.50032285184E+03  0.00000000000E+00 0.  1.
          2   -1    0    0  501    0  0.00000000000E+00 -0.00000000000E+00 -0.50643268557E+03  0.50643268557E+03  0.00000000000E+00 0.  1.
         36    2    1    2    0    0  0.71054273576E-14 -0.28421709430E-13 -0.61098337326E+01  0.10067555374E+04  0.10067369975E+04 0.  0.
         25    2    3    3    0    0 -0.45133804858E+02  0.11790187678E+03 -0.70939191051E+02  0.19414789348E+03  0.12931791379E+03 0.  0.
         35    2    3    3    0    0  0.45133804858E+02 -0.11790187678E+03  0.64829357318E+02  0.81260764393E+03  0.80011900647E+03 0.  0.
         22    1    5    5    0    0  0.30484540911E+02  0.34208009256E+03  0.78088417237E+02  0.35220150179E+03  0.00000000000E+00 0.  1.
         22    1    5    5    0    0  0.14649263947E+02 -0.45998196934E+03 -0.13259059919E+02  0.46040614214E+03  0.00000000000E+00 0.  1.
          5    1    4    4  502    0  0.41413179145E+02  0.50630730083E+02 -0.49963176220E+02  0.82443503162E+02  0.47000000000E+01 0.  1.
         -5    1    4    4    0  502 -0.86546984003E+02  0.67271146696E+02 -0.20976014830E+02  0.11170439032E+03  0.47000000000E+01 0.  1.
<mgrwt>
<rscale>  0 0.10067370E+04</rscale>
<asrwt>0</asrwt>
<pdfrwt beam="1">  1        2 0.77912721E-01 0.10067370E+04</pdfrwt>
<pdfrwt beam="2">  1       -2 0.76972747E-01 0.10067370E+04</pdfrwt>
<totfact> 0.11036331E+02</totfact>
</mgrwt>
</event>
<event>
 9    1  0.4370149E-036  0.1001649E+04  0.7818608E-02  0.8679469E-01
          2   -1    0    0  501    0  0.00000000000E+00  0.00000000000E+00  0.22687002262E+04  0.22687002262E+04  0.00000000000E+00 0. -1.
         -2   -1    0    0    0  501 -0.00000000000E+00 -0.00000000000E+00 -0.11055907516E+03  0.11055907516E+03  0.00000000000E+00 0. -1.
         36    2    1    2    0    0  0.00000000000E+00 -0.14210854715E-13  0.21581411510E+04  0.23792593013E+04  0.10016494373E+04 0.  0.
         25    2    3    3    0    0  0.37321609386E+02 -0.91600758970E+02  0.65633577777E+03  0.67538404836E+03  0.12483332095E+03 0.  0.
         35    2    3    3    0    0 -0.37321609386E+02  0.91600758970E+02  0.15018053732E+04  0.17038752530E+04  0.79874144569E+03 0.  0.
         22    1    5    5    0    0  0.80263643706E+02  0.35404861950E+03  0.30850993464E+03  0.47641479536E+03  0.00000000000E+00 0. -1.
         22    1    5    5    0    0 -0.11758525309E+03 -0.26244786053E+03  0.11932954386E+04  0.12274604576E+04  0.00000000000E+00 0. -1.
          5    1    4    4  502    0 -0.35473235012E+01 -0.10381533232E+03  0.56475192482E+03  0.57424475036E+03  0.47000000000E+01 0.  1.
         -5    1    4    4    0  502  0.40868932888E+02  0.12214573351E+02  0.91583852947E+02  0.10113929799E+03  0.47000000000E+01 0.  1.
<mgrwt>
<rscale>  0 0.10016494E+04</rscale>
<asrwt>0</asrwt>
<pdfrwt beam="1">  1        2 0.34903077E+00 0.10016494E+04</pdfrwt>
<pdfrwt beam="2">  1       -2 0.17009090E-01 0.10016494E+04</pdfrwt>
<totfact> 0.15481491E+02</totfact>
</mgrwt>
</event>
<event>
 9    1  0.4370149E-036  0.1000779E+04  0.7818608E-02  0.8680296E-01
         -2   -1    0    0    0  501 -0.00000000000E+00  0.00000000000E+00  0.21186390377E+03  0.21186390377E+03  0.00000000000E+00 0. -1.
          2   -1    0    0  501    0  0.00000000000E+00 -0.00000000000E+00 -0.11818425330E+04  0.11818425330E+04  0.00000000000E+00 0. -1.
         36    2    1    2    0    0  0.14210854715E-13  0.00000000000E+00 -0.96997862926E+03  0.13937064368E+04  0.10007792418E+04 0.  0.
         25    2    3    3    0    0  0.38544498896E+02 -0.13338807728E+03 -0.15566460456E+03  0.24350978711E+03  0.12564827794E+03 0.  0.
         35    2    3    3    0    0 -0.38544498896E+02  0.13338807728E+03 -0.81431402470E+03  0.11501966497E+04  0.80035426193E+03 0.  0.
         22    1    5    5    0    0  0.15154252485E+03  0.41324456915E+03 -0.61905798026E+03  0.75958475083E+03  0.00000000000E+00 0. -1.
         22    1    5    5    0    0 -0.19008702375E+03 -0.27985649188E+03 -0.19525604444E+03  0.39061189886E+03  0.00000000000E+00 0. -1.
          5    1    4    4  502    0  0.46392151981E+02 -0.61158208056E+02 -0.60789358793E+01  0.77146624291E+02  0.47000000000E+01 0. -1.
         -5    1    4    4    0  502 -0.78476530858E+01 -0.72229869220E+02 -0.14958566869E+03  0.16636316282E+03  0.47000000000E+01 0. -1.
<mgrwt>
<rscale>  0 0.10007792E+04</rscale>
<asrwt>0</asrwt>
<pdfrwt beam="1">  1        2 0.18182193E+00 0.10007792E+04</pdfrwt>
<pdfrwt beam="2">  1       -2 0.32594447E-01 0.10007792E+04</pdfrwt>
<totfact> 0.20530325E+02</totfact>
</mgrwt>
</event>
<event>
 9    1  0.4370149E-036  0.9972173E+03  0.7818608E-02  0.8683692E-01
         -2   -1    0    0    0  501 -0.00000000000E+00  0.00000000000E+00  0.26710514548E+03  0.26710514548E+03  0.00000000000E+00 0.  1.
          2   -1    0    0  501    0  0.00000000000E+00 -0.00000000000E+00 -0.93075934325E+03  0.93075934325E+03  0.00000000000E+00 0.  1.
         36    2    1    2    0    0 -0.71054273576E-14  0.00000000000E+00 -0.66365419777E+03  0.11978644887E+04  0.99721734800E+03 0.  0.
         25    2    3    3    0    0 -0.40013703038E+02  0.13155764076E+03 -0.11171193271E+03  0.21670725614E+03  0.12479571179E+03 0.  0.
         35    2    3    3    0    0  0.40013703038E+02 -0.13155764076E+03 -0.55194226506E+03  0.98115723260E+03  0.79945027478E+03 0.  0.
         22    1    5    5    0    0  0.50113009232E+02 -0.42291316245E+03 -0.90568866270E+02  0.43539588446E+03  0.00000000000E+00 0. -1.
         22    1    5    5    0    0 -0.10099306195E+02  0.29135552169E+03 -0.46137339879E+03  0.54576134814E+03  0.00000000000E+00 0. -1.
          5    1    4    4  502    0  0.37381279991E+02  0.15854993164E+02 -0.48656483501E+01  0.41164370952E+02  0.47000000000E+01 0.  1.
         -5    1    4    4    0  502 -0.77394983029E+02  0.11570264760E+03 -0.10684628436E+03  0.17554288519E+03  0.47000000000E+01 0.  1.
<mgrwt>
<rscale>  0 0.99721735E+03</rscale>
<asrwt>0</asrwt>
<pdfrwt beam="1">  1        2 0.14319375E+00 0.99721735E+03</pdfrwt>
<pdfrwt beam="2">  1       -2 0.41093098E-01 0.99721735E+03</pdfrwt>
<totfact> 0.18963254E+02</totfact>
</mgrwt>
</event>
<event>
 9    1  0.4370149E-036  0.9996138E+03  0.7818608E-02  0.8681406E-01
          4   -1    0    0  501    0  0.00000000000E+00  0.00000000000E+00  0.12990762573E+03  0.12990762573E+03  0.00000000000E+00 0.  1.
         -4   -1    0    0    0  501 -0.00000000000E+00 -0.00000000000E+00 -0.19229582206E+04  0.19229582206E+04  0.00000000000E+00 0.  1.
         36    2    1    2    0    0  0.00000000000E+00  0.00000000000E+00 -0.17930505949E+04  0.20528658464E+04  0.99961379907E+03 0.  0.
         25    2    3    3    0    0 -0.10219407243E+03 -0.86664897170E+02 -0.25312186476E+03  0.31257074412E+03  0.12520127322E+03 0.  0.
         35    2    3    3    0    0  0.10219407243E+03  0.86664897170E+02 -0.15399287302E+04  0.17402951023E+04  0.79955745019E+03 0.  0.
         22    1    5    5    0    0  0.29877608817E+03  0.34504043600E+03 -0.11205268789E+04  0.12099175756E+04  0.00000000000E+00 0.  1.
         22    1    5    5    0    0 -0.19658201574E+03 -0.25837553883E+03 -0.41940185124E+03  0.53037752668E+03  0.00000000000E+00 0.  1.
          5    1    4    4  502    0 -0.47453679053E+02 -0.11219474157E+03 -0.18319112673E+03  0.22004679185E+03  0.47000000000E+01 0.  1.
         -5    1    4    4    0  502 -0.54740393374E+02  0.25529844395E+02 -0.69930738028E+02  0.92523952265E+02  0.47000000000E+01 0.  1.
<mgrwt>
<rscale>  0 0.99961380E+03</rscale>
<asrwt>0</asrwt>
<pdfrwt beam="1">  1        4 0.19985789E-01 0.99961380E+03</pdfrwt>
<pdfrwt beam="2">  1       -4 0.29583971E+00 0.99961380E+03</pdfrwt>
<totfact> 0.11822186E+00</totfact>
</mgrwt>
</event>
<event>
 9    1  0.4370149E-036  0.1000162E+04  0.7818608E-02  0.8680884E-01
         -2   -1    0    0    0  501 -0.00000000000E+00  0.00000000000E+00  0.94462167698E+02  0.94462167698E+02  0.00000000000E+00 0. -1.
          2   -1    0    0  501    0  0.00000000000E+00 -0.00000000000E+00 -0.26474188710E+04  0.26474188710E+04  0.00000000000E+00 0. -1.
         36    2    1    2    0    0  0.35527136788E-14  0.39079850467E-13 -0.25529567033E+04  0.27418810387E+04  0.10001618376E+04 0.  0.
         25    2    3    3    0    0  0.18294910441E+02  0.19030518025E+02 -0.10429525670E+03  0.16670016928E+03  0.12733648929E+03 0.  0.
         35    2    3    3    0    0 -0.18294910441E+02 -0.19030518025E+02 -0.24486614466E+04  0.25751808694E+04  0.79681664501E+03 0.  0.
         22    1    5    5    0    0 -0.77340921391E+02  0.35639210912E+03 -0.74275508074E+03  0.82745517313E+03  0.00000000000E+00 0. -1.
         22    1    5    5    0    0  0.59046010950E+02 -0.37542262715E+03 -0.17059063658E+04  0.17477256963E+04  0.00000000000E+00 0. -1.
          5    1    4    4  502    0  0.48744678061E+02 -0.26338479538E+02 -0.84065348868E+01  0.56236278082E+02  0.47000000000E+01 0. -1.
         -5    1    4    4    0  502 -0.30449767621E+02  0.45368997563E+02 -0.95888721811E+02  0.11046389120E+03  0.47000000000E+01 0. -1.
<mgrwt>
<rscale>  0 0.10001618E+04</rscale>
<asrwt>0</asrwt>
<pdfrwt beam="1">  1        2 0.40729517E+00 0.10001618E+04</pdfrwt>
<pdfrwt beam="2">  1       -2 0.14532643E-01 0.10001618E+04</pdfrwt>
<totfact> 0.11911526E+02</totfact>
</mgrwt>
</event>
<event>
 9    1  0.4370149E-036  0.9997287E+03  0.7818608E-02  0.8681296E-01
          3   -1    0    0  501    0  0.00000000000E+00  0.00000000000E+00  0.19218667452E+04  0.19218667452E+04  0.00000000000E+00 0. -1.
         -3   -1    0    0    0  501 -0.00000000000E+00 -0.00000000000E+00 -0.13001129279E+03  0.13001129279E+03  0.00000000000E+00 0. -1.
         36    2    1    2    0    0  0.00000000000E+00 -0.35527136788E-14  0.17918554524E+04  0.20518780380E+04  0.99972872344E+03 0.  0.
         25    2    3    3    0    0  0.12282489087E+03  0.59594441013E+01  0.47210799243E+03  0.50375533965E+03  0.12554687142E+03 0.  0.
         35    2    3    3    0    0 -0.12282489087E+03 -0.59594441013E+01  0.13197474600E+04  0.15481226983E+04  0.79989315674E+03 0.  0.
         22    1    5    5    0    0  0.30137036174E+03  0.15771427487E+03  0.71240980918E+03  0.78944640328E+03  0.00000000000E+00 0.  1.
         22    1    5    5    0    0 -0.42419525260E+03 -0.16367371897E+03  0.60733765079E+03  0.75867629506E+03  0.00000000000E+00 0.  1.
          5    1    4    4  502    0 -0.17367626986E+02 -0.25092417926E+02  0.10805176443E+03  0.11237676673E+03  0.47000000000E+01 0.  1.
         -5    1    4    4    0  502  0.14019251785E+03  0.31051862027E+02  0.36405622800E+03  0.39137857292E+03  0.47000000000E+01 0.  1.
<mgrwt>
<rscale>  0 0.99972872E+03</rscale>
<asrwt>0</asrwt>
<pdfrwt beam="1">  1        3 0.29567179E+00 0.99972872E+03</pdfrwt>
<pdfrwt beam="2">  1       -3 0.20001739E-01 0.99972872E+03</pdfrwt>
<totfact> 0.41285420E+00</totfact>
</mgrwt>
</event>
<event>
 9    1  0.4370149E-036  0.9997693E+03  0.7818608E-02  0.8681258E-01
         -3   -1    0    0    0  501 -0.00000000000E+00  0.00000000000E+00  0.85428696402E+02  0.85428696402E+02  0.00000000000E+00 0.  1.
          3   -1    0    0  501    0  0.00000000000E+00 -0.00000000000E+00 -0.29250671999E+04  0.29250671999E+04  0.00000000000E+00 0.  1.
         36    2    1    2    0    0 -0.28421709430E-13  0.42632564146E-13 -0.28396385035E+04  0.30104958963E+04  0.99976932894E+03 0.  0.
         25    2    3    3    0    0 -0.12964751657E+03  0.55819120551E+02 -0.53695669717E+03  0.56917393221E+03  0.12534838530E+03 0.  0.
         35    2    3    3    0    0  0.12964751657E+03 -0.55819120551E+02 -0.23026818063E+04  0.24413219641E+04  0.79861453680E+03 0.  0.
         22    1    5    5    0    0 -0.14797242144E+03  0.21410336271E+03 -0.17334401840E+04  0.17528693502E+04  0.00000000000E+00 0.  1.
         22    1    5    5    0    0  0.27761993801E+03 -0.26992248327E+03 -0.56924162231E+03  0.68845261386E+03  0.00000000000E+00 0.  1.
          5    1    4    4  502    0  0.24562283770E+02  0.13193361302E+02 -0.67584496241E+02  0.73260662695E+02  0.47000000000E+01 0.  1.
         -5    1    4    4    0  502 -0.15420980034E+03  0.42625759250E+02 -0.46937220093E+03  0.49591326951E+03  0.47000000000E+01 0.  1.
<mgrwt>
<rscale>  0 0.99976933E+03</rscale>
<asrwt>0</asrwt>
<pdfrwt beam="1">  1        3 0.45001038E+00 0.99976933E+03</pdfrwt>
<pdfrwt beam="2">  1       -3 0.13142875E-01 0.99976933E+03</pdfrwt>
<totfact> 0.31406960E+00</totfact>
</mgrwt>
</event>
<event>
 9    1  0.4370149E-036  0.9991851E+03  0.7818608E-02  0.8681814E-01
         -2   -1    0    0    0  501 -0.00000000000E+00  0.00000000000E+00  0.92820896512E+02  0.92820896512E+02  0.00000000000E+00 0.  1.
          2   -1    0    0  501    0  0.00000000000E+00 -0.00000000000E+00 -0.26889711013E+04  0.26889711013E+04  0.00000000000E+00 0.  1.
         36    2    1    2    0    0  0.46185277824E-13 -0.14210854715E-13 -0.25961502048E+04  0.27817919978E+04  0.99918508458E+03 0.  0.
         25    2    3    3    0    0  0.28996330734E+02  0.39974959075E+02 -0.85037251245E+03  0.86091346810E+03  0.12489917961E+03 0.  0.
         35    2    3    3    0    0 -0.28996330734E+02 -0.39974959075E+02 -0.17457776923E+04  0.19208785297E+04  0.79974732904E+03 0.  0.
         22    1    5    5    0    0  0.33142311029E+03 -0.21611569917E+03 -0.96803567504E+03  0.10457726051E+04  0.00000000000E+00 0.  1.
         22    1    5    5    0    0 -0.36041944102E+03  0.17614074010E+03 -0.77774201726E+03  0.87510592456E+03  0.00000000000E+00 0.  1.
          5    1    4    4  502    0 -0.10063186458E+02  0.61388019029E+02 -0.72682130395E+03  0.72949369736E+03  0.47000000000E+01 0.  1.
         -5    1    4    4    0  502  0.39059517192E+02 -0.21413059953E+02 -0.12355120850E+03  0.13141977074E+03  0.47000000000E+01 0.  1.
<mgrwt>
<rscale>  0 0.99918508E+03</rscale>
<asrwt>0</asrwt>
<pdfrwt beam="1">  1        2 0.41368790E+00 0.99918508E+03</pdfrwt>
<pdfrwt beam="2">  1       -2 0.14280137E-01 0.99918508E+03</pdfrwt>
<totfact> 0.11552327E+02</totfact>
</mgrwt>
</event>
<event>
 9    1  0.4370149E-036  0.1001091E+04  0.7818608E-02  0.8680000E-01
          2   -1    0    0  501    0  0.00000000000E+00  0.00000000000E+00  0.64099344379E+03  0.64099344379E+03  0.00000000000E+00 0.  1.
         -2   -1    0    0    0  501 -0.00000000000E+00 -0.00000000000E+00 -0.39087085649E+03  0.39087085649E+03  0.00000000000E+00 0.  1.
         36    2    1    2    0    0 -0.28421709430E-13  0.14210854715E-13  0.25012258730E+03  0.10318643003E+04  0.10010907179E+04 0.  0.
         25    2    3    3    0    0  0.11593962551E+02 -0.64398458120E+02 -0.80503669822E+02  0.16161168991E+03  0.12391899001E+03 0.  0.
         35    2    3    3    0    0 -0.11593962551E+02  0.64398458120E+02  0.33062625712E+03  0.87025261038E+03  0.80233677630E+03 0.  0.
         22    1    5    5    0    0 -0.37759484152E+03  0.27006223021E+02  0.44644432160E+01  0.37858569925E+03  0.00000000000E+00 0.  1.
         22    1    5    5    0    0  0.36600087897E+03  0.37392235099E+02  0.32616181391E+03  0.49166691113E+03  0.00000000000E+00 0.  1.
          5    1    4    4  502    0 -0.54180094960E+02 -0.46516452147E+02 -0.45973859082E+02  0.85058501804E+02  0.47000000000E+01 0. -1.
         -5    1    4    4    0  502  0.65774057511E+02 -0.17882005974E+02 -0.34529810740E+02  0.76553188104E+02  0.47000000000E+01 0. -1.
<mgrwt>
<rscale>  0 0.10010907E+04</rscale>
<asrwt>0</asrwt>
<pdfrwt beam="1">  1        2 0.98614376E-01 0.10010907E+04</pdfrwt>
<pdfrwt beam="2">  1       -2 0.60133978E-01 0.10010907E+04</pdfrwt>
<totfact> 0.14268057E+02</totfact>
</mgrwt>
</event>
<event>
 9    1  0.4370149E-036  0.1005317E+04  0.7818608E-02  0.8675991E-01
         -4   -1    0    0    0  501 -0.00000000000E+00  0.00000000000E+00  0.34462511389E+03  0.34462511389E+03  0.00000000000E+00 0. -1.
          4   -1    0    0  501    0  0.00000000000E+00 -0.00000000000E+00 -0.73315996243E+03  0.73315996243E+03  0.00000000000E+00 0. -1.
         36    2    1    2    0    0 -0.28421709430E-13 -0.14210854715E-13 -0.38853484854E+03  0.10777850763E+04  0.10053165383E+04 0.  0.
         25    2    3    3    0    0  0.10548157400E+03  0.58293389702E+02 -0.14269421773E+03  0.23317112938E+03  0.13958027822E+03 0.  0.
         35    2    3    3    0    0 -0.10548157400E+03 -0.58293389702E+02 -0.24584063081E+03  0.84461394694E+03  0.79900602117E+03 0.  0.
         22    1    5    5    0    0  0.65509708986E+02 -0.36368457405E+03  0.66543529276E+02  0.37548106831E+03  0.00000000000E+00 0.  1.
         22    1    5    5    0    0 -0.17099128298E+03  0.30539118435E+03 -0.31238416009E+03  0.46913287862E+03  0.00000000000E+00 0.  1.
          5    1    4    4  502    0 -0.11853998480E+02  0.58845792902E+02 -0.20271951449E+02  0.63532563601E+02  0.47000000000E+01 0.  1.
         -5    1    4    4    0  502  0.11733557248E+03 -0.55240319996E+00 -0.12242226628E+03  0.16963856578E+03  0.47000000000E+01 0.  1.
<mgrwt>
<rscale>  0 0.10053165E+04</rscale>
<asrwt>0</asrwt>
<pdfrwt beam="1">  1        4 0.11279384E+00 0.10053165E+04</pdfrwt>
<pdfrwt beam="2">  1       -4 0.53019248E-01 0.10053165E+04</pdfrwt>
<totfact> 0.45946853E+00</totfact>
</mgrwt>
</event>
<event>
 9    1  0.4370149E-036  0.9993557E+03  0.7818608E-02  0.8681652E-01
         -2   -1    0    0    0  501 -0.00000000000E+00  0.00000000000E+00  0.18756860157E+03  0.18756860157E+03  0.00000000000E+00 0.  1.
          2   -1    0    0  501    0  0.00000000000E+00 -0.00000000000E+00 -0.13311287776E+04  0.13311287776E+04  0.00000000000E+00 0.  1.
         36    2    1    2    0    0 -0.71054273576E-14  0.00000000000E+00 -0.11435601761E+04  0.15186973792E+04  0.99935571911E+03 0.  0.
         25    2    3    3    0    0 -0.20058967995E+02  0.12642251467E+03 -0.30371481016E+03  0.35229577151E+03  0.12443717413E+03 0.  0.
         35    2    3    3    0    0  0.20058967995E+02 -0.12642251467E+03 -0.83984536589E+03  0.11664016077E+04  0.79922928962E+03 0.  0.
         22    1    5    5    0    0  0.32129629715E+02 -0.45499896410E+03 -0.34339792372E+03  0.57094527273E+03  0.00000000000E+00 0.  1.
         22    1    5    5    0    0 -0.12070661720E+02  0.32857644943E+03 -0.49644744217E+03  0.59545633495E+03  0.00000000000E+00 0.  1.
          5    1    4    4  502    0 -0.51429969128E+02  0.11418066505E+03 -0.15288997022E+03  0.19768585936E+03  0.47000000000E+01 0.  1.
         -5    1    4    4    0  502  0.31371001133E+02  0.12241849613E+02 -0.15082483993E+03  0.15460991215E+03  0.47000000000E+01 0.  1.
<mgrwt>
<rscale>  0 0.99935572E+03</rscale>
<asrwt>0</asrwt>
<pdfrwt beam="1">  1        2 0.20478905E+00 0.99935572E+03</pdfrwt>
<pdfrwt beam="2">  1       -2 0.28856708E-01 0.99935572E+03</pdfrwt>
<totfact> 0.20981292E+02</totfact>
</mgrwt>
</event>
<event>
 9    1  0.4370149E-036  0.9998306E+03  0.7818608E-02  0.8681199E-01
          1   -1    0    0  501    0  0.00000000000E+00  0.00000000000E+00  0.76347787617E+03  0.76347787617E+03  0.00000000000E+00 0.  1.
         -1   -1    0    0    0  501 -0.00000000000E+00 -0.00000000000E+00 -0.32733797457E+03  0.32733797457E+03  0.00000000000E+00 0.  1.
         36    2    1    2    0    0  0.14210854715E-13  0.00000000000E+00  0.43613990160E+03  0.10908158507E+04  0.99983058888E+03 0.  0.
         25    2    3    3    0    0  0.24326139301E+02  0.43440694881E+02  0.22480200060E+03  0.26183291785E+03  0.12466628401E+03 0.  0.
         35    2    3    3    0    0 -0.24326139301E+02 -0.43440694881E+02  0.21133790100E+03  0.82898293290E+03  0.80004383606E+03 0.  0.
         22    1    5    5    0    0  0.17223266367E+03 -0.37663761777E+03  0.93394939905E+02  0.42454987970E+03  0.00000000000E+00 0.  1.
         22    1    5    5    0    0 -0.19655880298E+03  0.33319692288E+03  0.11794296109E+03  0.40443305320E+03  0.00000000000E+00 0.  1.
          5    1    4    4  502    0 -0.73307460438E+01  0.80407314893E+02  0.17081735973E+03  0.18899665741E+03  0.47000000000E+01 0. -1.
         -5    1    4    4    0  502  0.31656885345E+02 -0.36966620012E+02  0.53984640870E+02  0.72836260439E+02  0.47000000000E+01 0. -1.
<mgrwt>
<rscale>  0 0.99983059E+03</rscale>
<asrwt>0</asrwt>
<pdfrwt beam="1">  1        1 0.11745813E+00 0.99983059E+03</pdfrwt>
<pdfrwt beam="2">  1       -1 0.50359689E-01 0.99983059E+03</pdfrwt>
<totfact> 0.10777107E+02</totfact>
</mgrwt>
</event>
<event>
 9    1  0.4370149E-036  0.1001432E+04  0.7818608E-02  0.8679675E-01
          1   -1    0    0  501    0  0.00000000000E+00  0.00000000000E+00  0.69477897697E+03  0.69477897697E+03  0.00000000000E+00 0. -1.
         -1   -1    0    0    0  501 -0.00000000000E+00 -0.00000000000E+00 -0.36085820430E+03  0.36085820430E+03  0.00000000000E+00 0. -1.
         36    2    1    2    0    0  0.42632564146E-13  0.00000000000E+00  0.33392077267E+03  0.10556371813E+04  0.10014323622E+04 0.  0.
         25    2    3    3    0    0  0.39403926602E+02 -0.73174156530E+02  0.18252105155E+03  0.23653767441E+03  0.12541535209E+03 0.  0.
         35    2    3    3    0    0 -0.39403926602E+02  0.73174156530E+02  0.15139972112E+03  0.81909950686E+03  0.80068408250E+03 0.  0.
         22    1    5    5    0    0 -0.35581101180E+03  0.24554793117E+03  0.11166083332E+02  0.43245802575E+03  0.00000000000E+00 0. -1.
         22    1    5    5    0    0  0.31640708520E+03 -0.17237377464E+03  0.14023363778E+03  0.38664148111E+03  0.00000000000E+00 0. -1.
          5    1    4    4  502    0  0.84410186433E+02 -0.44603494798E+02  0.10136360541E+03  0.13932416095E+03  0.47000000000E+01 0. -1.
         -5    1    4    4    0  502 -0.45006259831E+02 -0.28570661732E+02  0.81157446141E+02  0.97213513463E+02  0.47000000000E+01 0. -1.
<mgrwt>
<rscale>  0 0.10014324E+04</rscale>
<asrwt>0</asrwt>
<pdfrwt beam="1">  1        1 0.10688907E+00 0.10014324E+04</pdfrwt>
<pdfrwt beam="2">  1       -1 0.55516647E-01 0.10014324E+04</pdfrwt>
<totfact> 0.10404911E+02</totfact>
</mgrwt>
</event>
<event>
 9    1  0.4370149E-036  0.9948901E+03  0.7818608E-02  0.8685919E-01
         -2   -1    0    0    0  501 -0.00000000000E+00  0.00000000000E+00  0.20154982684E+03  0.20154982684E+03  0.00000000000E+00 0.  1.
          2   -1    0    0  501    0  0.00000000000E+00 -0.00000000000E+00 -0.12277439807E+04  0.12277439807E+04  0.00000000000E+00 0.  1.
         36    2    1    2    0    0  0.14210854715E-13  0.71054273576E-14 -0.10261941539E+04  0.14292938076E+04  0.99489011800E+03 0.  0.
         25    2    3    3    0    0  0.11898482802E+03 -0.62433275073E+02 -0.19639482861E+03  0.26888026589E+03  0.12518133066E+03 0.  0.
         35    2    3    3    0    0 -0.11898482802E+03  0.62433275073E+02 -0.82979932530E+03  0.11604135417E+04  0.79996085176E+03 0.  0.
         22    1    5    5    0    0  0.21582642908E+03 -0.26033270450E+03 -0.43066320482E+03  0.54756274573E+03  0.00000000000E+00 0.  1.
         22    1    5    5    0    0 -0.33481125710E+03  0.32276597957E+03 -0.39913612048E+03  0.61285079597E+03  0.00000000000E+00 0.  1.
          5    1    4    4  502    0  0.12465076032E+03 -0.52670036582E+01 -0.11989009640E+03  0.17309326559E+03  0.47000000000E+01 0.  1.
         -5    1    4    4    0  502 -0.56659323077E+01 -0.57166271414E+02 -0.76504732201E+02  0.95787000295E+02  0.47000000000E+01 0.  1.
<mgrwt>
<rscale>  0 0.99489012E+03</rscale>
<asrwt>0</asrwt>
<pdfrwt beam="1">  1        2 0.18888368E+00 0.99489012E+03</pdfrwt>
<pdfrwt beam="2">  1       -2 0.31007666E-01 0.99489012E+03</pdfrwt>
<totfact> 0.21141286E+02</totfact>
</mgrwt>
</event>
<event>
 9    1  0.4370149E-036  0.9992019E+03  0.7818608E-02  0.8681798E-01
         -3   -1    0    0    0  501 -0.00000000000E+00  0.00000000000E+00  0.63021229574E+03  0.63021229574E+03  0.00000000000E+00 0.  1.
          3   -1    0    0  501    0  0.00000000000E+00 -0.00000000000E+00 -0.39605877263E+03  0.39605877263E+03  0.00000000000E+00 0.  1.
         36    2    1    2    0    0  0.71054273576E-14 -0.35527136788E-14  0.23415352311E+03  0.10262710684E+04  0.99920189821E+03 0.  0.
         25    2    3    3    0    0  0.11530377225E+02 -0.12872456843E+02  0.17717907613E+03  0.22496309230E+03  0.13754024187E+03 0.  0.
         35    2    3    3    0    0 -0.11530377225E+02  0.12872456843E+02  0.56974446982E+02  0.80130797607E+03  0.79909307040E+03 0.  0.
         22    1    5    5    0    0 -0.35547734243E+03 -0.74604489094E+02 -0.14714860171E+03  0.39189626403E+03  0.00000000000E+00 0.  1.
         22    1    5    5    0    0  0.34394696520E+03  0.87476945938E+02  0.20412304870E+03  0.40941171204E+03  0.00000000000E+00 0.  1.
          5    1    4    4  502    0  0.56790497112E+02  0.78102516404E+01  0.16323365316E+03  0.17307072577E+03  0.47000000000E+01 0. -1.
         -5    1    4    4    0  502 -0.45260119887E+02 -0.20682708484E+02  0.13945422967E+02  0.51892366531E+02  0.47000000000E+01 0. -1.
<mgrwt>
<rscale>  0 0.99920190E+03</rscale>
<asrwt>0</asrwt>
<pdfrwt beam="1">  1        3 0.60932119E-01 0.99920190E+03</pdfrwt>
<pdfrwt beam="2">  1       -3 0.96955738E-01 0.99920190E+03</pdfrwt>
<totfact> 0.92221220E+00</totfact>
</mgrwt>
</event>
<event>
 9    1  0.4370149E-036  0.1001441E+04  0.7818608E-02  0.8679667E-01
          1   -1    0    0  501    0  0.00000000000E+00  0.00000000000E+00  0.15188314665E+04  0.15188314665E+04  0.00000000000E+00 0.  1.
         -1   -1    0    0    0  501 -0.00000000000E+00 -0.00000000000E+00 -0.16507504577E+03  0.16507504577E+03  0.00000000000E+00 0.  1.
         36    2    1    2    0    0 -0.14210854715E-13  0.00000000000E+00  0.13537564207E+04  0.16839065122E+04  0.10014413090E+04 0.  0.
         25    2    3    3    0    0  0.66965638506E+02  0.83897850747E+02  0.40975088236E+03  0.44194718659E+03  0.12608839772E+03 0.  0.
         35    2    3    3    0    0 -0.66965638506E+02 -0.83897850747E+02  0.94400553835E+03  0.12419593257E+04  0.79987077959E+03 0.  0.
         22    1    5    5    0    0 -0.10744271985E+03 -0.40569153081E+02 -0.12589941204E+03  0.17041260571E+03  0.00000000000E+00 0.  1.
         22    1    5    5    0    0  0.40477081348E+02 -0.43328697666E+02  0.10699049504E+04  0.10715467199E+04  0.00000000000E+00 0.  1.
          5    1    4    4  502    0 -0.13963535369E+02  0.56535834588E+01 -0.12051359720E+01  0.15826739356E+02  0.47000000000E+01 0.  1.
         -5    1    4    4    0  502  0.80929173875E+02  0.78244267288E+02  0.41095601833E+03  0.42612044723E+03  0.47000000000E+01 0.  1.
<mgrwt>
<rscale>  0 0.10014413E+04</rscale>
<asrwt>0</asrwt>
<pdfrwt beam="1">  1        1 0.23366637E+00 0.10014413E+04</pdfrwt>
<pdfrwt beam="2">  1       -1 0.25396162E-01 0.10014413E+04</pdfrwt>
<totfact> 0.93318370E+01</totfact>
</mgrwt>
</event>
<event>
 9    1  0.4370149E-036  0.9996514E+03  0.7818608E-02  0.8681370E-01
         -2   -1    0    0    0  501 -0.00000000000E+00  0.00000000000E+00  0.14596742196E+03  0.14596742196E+03  0.00000000000E+00 0.  1.
          2   -1    0    0  501    0  0.00000000000E+00 -0.00000000000E+00 -0.17115170779E+04  0.17115170779E+04  0.00000000000E+00 0.  1.
         36    2    1    2    0    0 -0.28421709430E-13  0.00000000000E+00 -0.15655496559E+04  0.18574844998E+04  0.99965141023E+03 0.  0.
         25    2    3    3    0    0 -0.11523793217E+03 -0.66303457772E+02 -0.20983404973E+03  0.27784679138E+03  0.12446919913E+03 0.  0.
         35    2    3    3    0    0  0.11523793217E+03  0.66303457772E+02 -0.13557156062E+04  0.15796377084E+04  0.79975906095E+03 0.  0.
         22    1    5    5    0    0  0.37380844112E+03 -0.21248274151E+03 -0.74760940838E+03  0.86243926951E+03  0.00000000000E+00 0.  1.
         22    1    5    5    0    0 -0.25857050895E+03  0.27878619928E+03 -0.60810619778E+03  0.71719843892E+03  0.00000000000E+00 0.  1.
          5    1    4    4  502    0 -0.33379952923E+02 -0.90287964950E+02 -0.10302078690E+03  0.14107271319E+03  0.47000000000E+01 0. -1.
         -5    1    4    4    0  502 -0.81857979246E+02  0.23984507178E+02 -0.10681326283E+03  0.13677407820E+03  0.47000000000E+01 0. -1.
<mgrwt>
<rscale>  0 0.99965141E+03</rscale>
<asrwt>0</asrwt>
<pdfrwt beam="1">  1        2 0.26331031E+00 0.99965141E+03</pdfrwt>
<pdfrwt beam="2">  1       -2 0.22456527E-01 0.99965141E+03</pdfrwt>
<totfact> 0.19950099E+02</totfact>
</mgrwt>
</event>
<event>
 9    1  0.4370149E-036  0.9999490E+03  0.7818608E-02  0.8681086E-01
          1   -1    0    0  501    0  0.00000000000E+00  0.00000000000E+00  0.87922730449E+03  0.87922730449E+03  0.00000000000E+00 0. -1.
         -1   -1    0    0    0  501 -0.00000000000E+00 -0.00000000000E+00 -0.28431159031E+03  0.28431159031E+03  0.00000000000E+00 0. -1.
         36    2    1    2    0    0  0.28421709430E-13  0.71054273576E-14  0.59491571418E+03  0.11635388948E+04  0.99994902507E+03 0.  0.
         25    2    3    3    0    0  0.32378651520E+02  0.56470425834E+02  0.26228807681E+03  0.29631185870E+03  0.12152529080E+03 0.  0.
         35    2    3    3    0    0 -0.32378651520E+02 -0.56470425834E+02  0.33262763737E+03  0.86722703610E+03  0.79825077571E+03 0.  0.
         22    1    5    5    0    0  0.33014574733E+03 -0.58342874100E+02  0.37408594353E+03  0.50233494661E+03  0.00000000000E+00 0.  1.
         22    1    5    5    0    0 -0.36252439885E+03  0.18724482658E+01 -0.41458306159E+02  0.36489208949E+03  0.00000000000E+00 0.  1.
          5    1    4    4  502    0  0.71889888205E+02  0.49290984108E+02  0.12000103588E+03  0.14839169705E+03  0.47000000000E+01 0. -1.
         -5    1    4    4    0  502 -0.39511236685E+02  0.71794417255E+01  0.14228704092E+03  0.14792016165E+03  0.47000000000E+01 0. -1.
<mgrwt>
<rscale>  0 0.99994903E+03</rscale>
<asrwt>0</asrwt>
<pdfrwt beam="1">  1        1 0.13526574E+00 0.99994903E+03</pdfrwt>
<pdfrwt beam="2">  1       -1 0.43740245E-01 0.99994903E+03</pdfrwt>
<totfact> 0.11051585E+02</totfact>
</mgrwt>
</event>
<event>
 9    1  0.4370149E-036  0.1005014E+04  0.7818608E-02  0.8676278E-01
         -2   -1    0    0    0  501 -0.00000000000E+00  0.00000000000E+00  0.55322581900E+03  0.55322581900E+03  0.00000000000E+00 0.  1.
          2   -1    0    0  501    0  0.00000000000E+00 -0.00000000000E+00 -0.45643768341E+03  0.45643768341E+03  0.00000000000E+00 0.  1.
         36    2    1    2    0    0  0.35527136788E-14  0.00000000000E+00  0.96788135587E+02  0.10096635024E+04  0.10050136541E+04 0.  0.
         25    2    3    3    0    0  0.80039375323E+01  0.14272639424E+03  0.52583475011E+02  0.19689092259E+03  0.12476428546E+03 0.  0.
         35    2    3    3    0    0 -0.80039375323E+01 -0.14272639424E+03  0.44204660577E+02  0.81277257981E+03  0.79888067185E+03 0.  0.
         22    1    5    5    0    0  0.11164045543E+02  0.16120477265E+03 -0.30760423957E+03  0.34746508147E+03  0.00000000000E+00 0.  1.
         22    1    5    5    0    0 -0.19167983075E+02 -0.30393116689E+03  0.35180890015E+03  0.46530749834E+03  0.00000000000E+00 0.  1.
          5    1    4    4  502    0 -0.22482153778E+01  0.15332581266E+03  0.12499475439E+02  0.15392266301E+03  0.47000000000E+01 0.  1.
         -5    1    4    4    0  502  0.10252152910E+02 -0.10599418425E+02  0.40083999571E+02  0.42968259586E+02  0.47000000000E+01 0.  1.
<mgrwt>
<rscale>  0 0.10050137E+04</rscale>
<asrwt>0</asrwt>
<pdfrwt beam="1">  1        2 0.70221182E-01 0.10050137E+04</pdfrwt>
<pdfrwt beam="2">  1       -2 0.85111664E-01 0.10050137E+04</pdfrwt>
<totfact> 0.98564261E+01</totfact>
</mgrwt>
</event>
<event>
 9    1  0.4370149E-036  0.1000092E+04  0.7818608E-02  0.8680951E-01
          1   -1    0    0  501    0  0.00000000000E+00  0.00000000000E+00  0.43445678325E+03  0.43445678325E+03  0.00000000000E+00 0. -1.
         -1   -1    0    0    0  501 -0.00000000000E+00 -0.00000000000E+00 -0.57553661839E+03  0.57553661839E+03  0.00000000000E+00 0. -1.
         36    2    1    2    0    0  0.00000000000E+00  0.00000000000E+00 -0.14107983514E+03  0.10099934016E+04  0.10000915715E+04 0.  0.
         25    2    3    3    0    0  0.12055441159E+03  0.71170444739E+02 -0.38035514208E+02  0.19167269074E+03  0.12527219035E+03 0.  0.
         35    2    3    3    0    0 -0.12055441159E+03 -0.71170444739E+02 -0.10304432094E+03  0.81832071091E+03  0.79964495588E+03 0.  0.
         22    1    5    5    0    0  0.31644262200E+03 -0.72495016528E+02  0.95410030317E+02  0.33837040995E+03  0.00000000000E+00 0. -1.
         22    1    5    5    0    0 -0.43699703359E+03  0.13245717889E+01 -0.19845435125E+03  0.47995030096E+03  0.00000000000E+00 0. -1.
          5    1    4    4  502    0  0.48666290028E+02 -0.73622257413E+01 -0.65072131297E+02  0.81725653405E+02  0.47000000000E+01 0. -1.
         -5    1    4    4    0  502  0.71888121560E+02  0.78532670480E+02  0.27036617089E+02  0.10994703733E+03  0.47000000000E+01 0. -1.
<mgrwt>
<rscale>  0 0.10000916E+04</rscale>
<asrwt>0</asrwt>
<pdfrwt beam="1">  1        1 0.66839505E-01 0.10000916E+04</pdfrwt>
<pdfrwt beam="2">  1       -1 0.88544096E-01 0.10000916E+04</pdfrwt>
<totfact> 0.79941646E+01</totfact>
</mgrwt>
</event>
<event>
 9    1  0.4370149E-036  0.1000094E+04  0.7818608E-02  0.8680948E-01
         -2   -1    0    0    0  501 -0.00000000000E+00  0.00000000000E+00  0.16368363632E+03  0.16368363632E+03  0.00000000000E+00 0.  1.
          2   -1    0    0  501    0  0.00000000000E+00 -0.00000000000E+00 -0.15276240899E+04  0.15276240899E+04  0.00000000000E+00 0.  1.
         36    2    1    2    0    0  0.14210854715E-13 -0.28421709430E-13 -0.13639404536E+04  0.16913077263E+04  0.10000941275E+04 0.  0.
         25    2    3    3    0    0 -0.37298573952E+02 -0.13431907074E+03 -0.23910227012E+03  0.30380755240E+03  0.12528502279E+03 0.  0.
         35    2    3    3    0    0  0.37298573952E+02  0.13431907074E+03 -0.11248381835E+04  0.13875001739E+04  0.80028932082E+03 0.  0.
         22    1    5    5    0    0  0.27557212152E+03 -0.68290028705E+02 -0.10182168140E+04  0.10570567640E+04  0.00000000000E+00 0.  1.
         22    1    5    5    0    0 -0.23827354757E+03  0.20260909944E+03 -0.10662136954E+03  0.33044340981E+03  0.00000000000E+00 0.  1.
          5    1    4    4  502    0  0.31137202393E+02 -0.98424870457E+02 -0.17526592493E+03  0.20346305547E+03  0.47000000000E+01 0.  1.
         -5    1    4    4    0  502 -0.68435776345E+02 -0.35894200279E+02 -0.63836345193E+02  0.10034449694E+03  0.47000000000E+01 0.  1.
<mgrwt>
<rscale>  0 0.10000941E+04</rscale>
<asrwt>0</asrwt>
<pdfrwt beam="1">  1        2 0.23501909E+00 0.10000941E+04</pdfrwt>
<pdfrwt beam="2">  1       -2 0.25182098E-01 0.10000941E+04</pdfrwt>
<totfact> 0.20697376E+02</totfact>
</mgrwt>
</event>
<event>
 9    1  0.4370149E-036  0.1000132E+04  0.7818608E-02  0.8680912E-01
          2   -1    0    0  501    0  0.00000000000E+00  0.00000000000E+00  0.10722036747E+04  0.10722036747E+04  0.00000000000E+00 0. -1.
         -2   -1    0    0    0  501 -0.00000000000E+00 -0.00000000000E+00 -0.23322613912E+03  0.23322613912E+03  0.00000000000E+00 0. -1.
         36    2    1    2    0    0 -0.71054273576E-14  0.14210854715E-13  0.83897753560E+03  0.13054298138E+04  0.10001318381E+04 0.  0.
         25    2    3    3    0    0  0.19877287740E+02 -0.59921616776E+02  0.32217051714E+03  0.35125927774E+03  0.12491409591E+03 0.  0.
         35    2    3    3    0    0 -0.19877287740E+02  0.59921616776E+02  0.51680701846E+03  0.95417053610E+03  0.79960378370E+03 0.  0.
         22    1    5    5    0    0  0.21599321372E+02 -0.34262040164E+03  0.68196741922E+02  0.35000866548E+03  0.00000000000E+00 0.  1.
         22    1    5    5    0    0 -0.41476609112E+02  0.40254201842E+03  0.44861027654E+03  0.60416187062E+03  0.00000000000E+00 0.  1.
          5    1    4    4  502    0  0.52098452300E+02  0.17071221050E+02  0.10477471409E+03  0.11834486061E+03  0.47000000000E+01 0. -1.
         -5    1    4    4    0  502 -0.32221164559E+02 -0.76992837826E+02  0.21739580306E+03  0.23291441714E+03  0.47000000000E+01 0. -1.
<mgrwt>
<rscale>  0 0.10001318E+04</rscale>
<asrwt>0</asrwt>
<pdfrwt beam="1">  1        2 0.16495441E+00 0.10001318E+04</pdfrwt>
<pdfrwt beam="2">  1       -2 0.35880945E-01 0.10001318E+04</pdfrwt>
<totfact> 0.19991212E+02</totfact>
</mgrwt>
</event>
<event>
 9    1  0.4370149E-036  0.9994593E+03  0.7818608E-02  0.8681553E-01
         -2   -1    0    0    0  501 -0.00000000000E+00  0.00000000000E+00  0.12999697840E+03  0.12999697840E+03  0.00000000000E+00 0. -1.
          2   -1    0    0  501    0  0.00000000000E+00 -0.00000000000E+00 -0.19210425764E+04  0.19210425764E+04  0.00000000000E+00 0. -1.
         36    2    1    2    0    0  0.00000000000E+00  0.00000000000E+00 -0.17910455980E+04  0.20510395548E+04  0.99945931444E+03 0.  0.
         25    2    3    3    0    0 -0.10416520773E+03 -0.88410773883E+02 -0.30817999144E+03  0.35945839338E+03  0.12477409188E+03 0.  0.
         35    2    3    3    0    0  0.10416520773E+03  0.88410773883E+02 -0.14828656066E+04  0.16915811614E+04  0.80242729459E+03 0.  0.
         22    1    5    5    0    0 -0.45286282096E+02  0.39819885470E+03 -0.44821339639E+03  0.60125570595E+03  0.00000000000E+00 0.  1.
         22    1    5    5    0    0  0.14945148983E+03 -0.30978808082E+03 -0.10346522102E+04  0.10903254555E+04  0.00000000000E+00 0.  1.
          5    1    4    4  502    0 -0.84163638475E+01 -0.60163059248E+02 -0.39046012055E+02  0.72367879172E+02  0.47000000000E+01 0. -1.
         -5    1    4    4    0  502 -0.95748843883E+02 -0.28247714635E+02 -0.26913397939E+03  0.28709051421E+03  0.47000000000E+01 0. -1.
<mgrwt>
<rscale>  0 0.99945931E+03</rscale>
<asrwt>0</asrwt>
<pdfrwt beam="1">  1        2 0.29554501E+00 0.99945931E+03</pdfrwt>
<pdfrwt beam="2">  1       -2 0.19999535E-01 0.99945931E+03</pdfrwt>
<totfact> 0.18588282E+02</totfact>
</mgrwt>
</event>
<event>
 9    1  0.4370149E-036  0.1005815E+04  0.7818608E-02  0.8675520E-01
          2   -1    0    0  501    0  0.00000000000E+00  0.00000000000E+00  0.15575699464E+04  0.15575699464E+04  0.00000000000E+00 0.  1.
         -2   -1    0    0    0  501 -0.00000000000E+00 -0.00000000000E+00 -0.16237850281E+03  0.16237850281E+03  0.00000000000E+00 0.  1.
         36    2    1    2    0    0  0.42632564146E-13 -0.14210854715E-13  0.13951914436E+04  0.17199484492E+04  0.10058148456E+04 0.  0.
         25    2    3    3    0    0  0.96854521233E+02  0.10639895160E+03  0.34199084030E+03  0.39125281708E+03  0.12417526664E+03 0.  0.
         35    2    3    3    0    0 -0.96854521233E+02 -0.10639895160E+03  0.10532006033E+04  0.13286956322E+04  0.79718193462E+03 0.  0.
         22    1    5    5    0    0 -0.33517149187E+03 -0.27088526298E+03  0.90730007863E+03  0.10044462093E+04  0.00000000000E+00 0.  1.
         22    1    5    5    0    0  0.23831697064E+03  0.16448631138E+03  0.14590052469E+03  0.32424942287E+03  0.00000000000E+00 0.  1.
          5    1    4    4  502    0  0.72957821472E+02  0.70738119805E+02  0.90739981492E+02  0.13631786218E+03  0.47000000000E+01 0.  1.
         -5    1    4    4    0  502  0.23896699761E+02  0.35660831798E+02  0.25125085880E+03  0.25493495491E+03  0.47000000000E+01 0.  1.
<mgrwt>
<rscale>  0 0.10058148E+04</rscale>
<asrwt>0</asrwt>
<pdfrwt beam="1">  1        2 0.23962614E+00 0.10058148E+04</pdfrwt>
<pdfrwt beam="2">  1       -2 0.24981309E-01 0.10058148E+04</pdfrwt>
<totfact> 0.20190550E+02</totfact>
</mgrwt>
</event>
<event>
 9    1  0.4370149E-036  0.9998472E+03  0.7818608E-02  0.8681184E-01
          1   -1    0    0  501    0  0.00000000000E+00  0.00000000000E+00  0.56975664736E+03  0.56975664736E+03  0.00000000000E+00 0.  1.
         -1   -1    0    0    0  501 -0.00000000000E+00 -0.00000000000E+00 -0.43864970723E+03  0.43864970723E+03  0.00000000000E+00 0.  1.
         36    2    1    2    0    0  0.26645352591E-13  0.00000000000E+00  0.13110694013E+03  0.10084063546E+04  0.99984716144E+03 0.  0.
         25    2    3    3    0    0 -0.27622844329E+01  0.12734840652E+03  0.85093209009E+02  0.19709204488E+03  0.12401279400E+03 0.  0.
         35    2    3    3    0    0  0.27622844329E+01 -0.12734840652E+03  0.46013731119E+02  0.81131430972E+03  0.79993024624E+03 0.  0.
         22    1    5    5    0    0  0.32720297675E+03 -0.28833061005E+03  0.93516415938E+02  0.44602875327E+03  0.00000000000E+00 0. -1.
         22    1    5    5    0    0 -0.32444069232E+03  0.16098220353E+03 -0.47502684818E+02  0.36528555645E+03  0.00000000000E+00 0. -1.
          5    1    4    4  502    0 -0.14677677718E+02 -0.17756803570E+02 -0.72675608533E+01  0.24609870722E+02  0.47000000000E+01 0. -1.
         -5    1    4    4    0  502  0.11915393285E+02  0.14510521009E+03  0.92360769862E+02  0.17248217416E+03  0.47000000000E+01 0. -1.
<mgrwt>
<rscale>  0 0.99984716E+03</rscale>
<asrwt>0</asrwt>
<pdfrwt beam="1">  1        1 0.87654869E-01 0.99984716E+03</pdfrwt>
<pdfrwt beam="2">  1       -1 0.67484571E-01 0.99984716E+03</pdfrwt>
<totfact> 0.95888480E+01</totfact>
</mgrwt>
</event>
<event>
 9    1  0.4370149E-036  0.1007191E+04  0.7818608E-02  0.8674220E-01
         -1   -1    0    0    0  501 -0.00000000000E+00  0.00000000000E+00  0.20525098923E+03  0.20525098923E+03  0.00000000000E+00 0.  1.
          1   -1    0    0  501    0  0.00000000000E+00 -0.00000000000E+00 -0.12356013731E+04  0.12356013731E+04  0.00000000000E+00 0.  1.
         36    2    1    2    0    0  0.00000000000E+00  0.71054273576E-14 -0.10303503838E+04  0.14408523623E+04  0.10071909533E+04 0.  0.
         25    2    3    3    0    0 -0.98143633698E+02  0.49956875275E+02 -0.57637996421E+02  0.17598609411E+03  0.12458372473E+03 0.  0.
         35    2    3    3    0    0  0.98143633698E+02 -0.49956875275E+02 -0.97271238741E+03  0.12648662682E+04  0.80099277496E+03 0.  0.
         22    1    5    5    0    0  0.74664958960E+02  0.16467059108E+03 -0.10265467765E+04  0.10423480915E+04  0.00000000000E+00 0. -1.
         22    1    5    5    0    0  0.23478674738E+02 -0.21462746636E+03  0.53834389069E+02  0.22251817663E+03  0.00000000000E+00 0. -1.
          5    1    4    4  502    0 -0.10954438242E+02  0.72482465246E+02 -0.10402411855E+02  0.74188999574E+02  0.47000000000E+01 0.  1.
         -5    1    4    4    0  502 -0.87189195455E+02 -0.22525589971E+02 -0.47235584566E+02  0.10179709454E+03  0.47000000000E+01 0.  1.
<mgrwt>
<rscale>  0 0.10071910E+04</rscale>
<asrwt>0</asrwt>
<pdfrwt beam="1">  1        1 0.19009252E+00 0.10071910E+04</pdfrwt>
<pdfrwt beam="2">  1       -1 0.31577076E-01 0.10071910E+04</pdfrwt>
<totfact> 0.10317748E+02</totfact>
</mgrwt>
</event>
<event>
 9    1  0.4370149E-036  0.9995430E+03  0.7818608E-02  0.8681473E-01
         -2   -1    0    0    0  501 -0.00000000000E+00  0.00000000000E+00  0.10194853619E+03  0.10194853619E+03  0.00000000000E+00 0.  1.
          2   -1    0    0  501    0  0.00000000000E+00 -0.00000000000E+00 -0.24499769819E+04  0.24499769819E+04  0.00000000000E+00 0.  1.
         36    2    1    2    0    0 -0.28421709430E-13 -0.19539925233E-13 -0.23480284457E+04  0.25519255181E+04  0.99954302959E+03 0.  0.
         25    2    3    3    0    0 -0.90997517155E+02  0.10886099059E+02 -0.17172908966E+03  0.23144776868E+03  0.12521235606E+03 0.  0.
         35    2    3    3    0    0  0.90997517155E+02 -0.10886099059E+02 -0.21762993560E+04  0.23204777494E+04  0.79996190101E+03 0.  0.
         22    1    5    5    0    0 -0.13099447590E+03 -0.30274599184E+03 -0.16264979291E+04  0.16596114611E+04  0.00000000000E+00 0. -1.
         22    1    5    5    0    0  0.22199199305E+03  0.29185989278E+03 -0.54980142688E+03  0.66086628829E+03  0.00000000000E+00 0. -1.
          5    1    4    4  502    0 -0.11800357570E+03  0.24960671073E+02 -0.15477137847E+03  0.19627569532E+03  0.47000000000E+01 0. -1.
         -5    1    4    4    0  502  0.27006058547E+02 -0.14074572014E+02 -0.16957711182E+02  0.35172073356E+02  0.47000000000E+01 0. -1.
<mgrwt>
<rscale>  0 0.99954303E+03</rscale>
<asrwt>0</asrwt>
<pdfrwt beam="1">  1        2 0.37691952E+00 0.99954303E+03</pdfrwt>
<pdfrwt beam="2">  1       -2 0.15684391E-01 0.99954303E+03</pdfrwt>
<totfact> 0.13853796E+02</totfact>
</mgrwt>
</event>
<event>
 9    1  0.4370149E-036  0.1000274E+04  0.7818608E-02  0.8680777E-01
          2   -1    0    0  501    0  0.00000000000E+00  0.00000000000E+00  0.51093343829E+03  0.51093343829E+03  0.00000000000E+00 0. -1.
         -2   -1    0    0    0  501 -0.00000000000E+00 -0.00000000000E+00 -0.48956886596E+03  0.48956886596E+03  0.00000000000E+00 0. -1.
         36    2    1    2    0    0  0.00000000000E+00 -0.32862601529E-13  0.21364572329E+02  0.10005023042E+04  0.10002741703E+04 0.  0.
         25    2    3    3    0    0 -0.94407161913E+02 -0.14086008524E+01  0.10780607889E+03  0.19031524172E+03  0.12523196161E+03 0.  0.
         35    2    3    3    0    0  0.94407161913E+02  0.14086008524E+01 -0.86441506564E+02  0.81018706252E+03  0.80001015358E+03 0.  0.
         22    1    5    5    0    0 -0.60703395330E+02  0.32039726478E+03 -0.25833955700E+03  0.41602720608E+03  0.00000000000E+00 0. -1.
         22    1    5    5    0    0  0.15511055724E+03 -0.31898866393E+03  0.17189805044E+03  0.39415985644E+03  0.00000000000E+00 0. -1.
          5    1    4    4  502    0  0.73915493377E+01  0.77692399388E+01  0.84587927982E+02  0.85394400584E+02  0.47000000000E+01 0.  1.
         -5    1    4    4    0  502 -0.10179871125E+03 -0.91778407912E+01  0.23218150911E+02  0.10492084114E+03  0.47000000000E+01 0.  1.
<mgrwt>
<rscale>  0 0.10002742E+04</rscale>
<asrwt>0</asrwt>
<pdfrwt beam="1">  1        2 0.78605144E-01 0.10002742E+04</pdfrwt>
<pdfrwt beam="2">  1       -2 0.75318288E-01 0.10002742E+04</pdfrwt>
<totfact> 0.11473028E+02</totfact>
</mgrwt>
</event>
<event>
 9    1  0.4370149E-036  0.1000091E+04  0.7818608E-02  0.8680952E-01
          1   -1    0    0  501    0  0.00000000000E+00  0.00000000000E+00  0.42436502291E+03  0.42436502291E+03  0.00000000000E+00 0.  1.
         -1   -1    0    0    0  501 -0.00000000000E+00 -0.00000000000E+00 -0.58922217919E+03  0.58922217919E+03  0.00000000000E+00 0.  1.
         36    2    1    2    0    0 -0.14210854715E-13  0.00000000000E+00 -0.16485715628E+03  0.10135872021E+04  0.10000905630E+04 0.  0.
         25    2    3    3    0    0  0.84720215105E+02  0.71046208855E+02  0.57574633442E+02  0.17622008019E+03  0.12455360133E+03 0.  0.
         35    2    3    3    0    0 -0.84720215105E+02 -0.71046208855E+02 -0.22243178972E+03  0.83736712192E+03  0.79967663286E+03 0.  0.
         22    1    5    5    0    0 -0.41478018317E+03  0.17001679014E+02  0.24515946519E+02  0.41585176334E+03  0.00000000000E+00 0.  1.
         22    1    5    5    0    0  0.33005996807E+03 -0.88047887870E+02 -0.24694773624E+03  0.42151535857E+03  0.00000000000E+00 0.  1.
          5    1    4    4  502    0 -0.53700846595E+01  0.19037450790E+02 -0.32633983420E+02  0.38449047006E+02  0.47000000000E+01 0.  1.
         -5    1    4    4    0  502  0.90090299764E+02  0.52008758065E+02  0.90208616862E+02  0.13777103318E+03  0.47000000000E+01 0.  1.
<mgrwt>
<rscale>  0 0.10000906E+04</rscale>
<asrwt>0</asrwt>
<pdfrwt beam="1">  1        1 0.65286927E-01 0.10000906E+04</pdfrwt>
<pdfrwt beam="2">  1       -1 0.90649566E-01 0.10000906E+04</pdfrwt>
<totfact> 0.78463467E+01</totfact>
</mgrwt>
</event>
<event>
 9    1  0.4370149E-036  0.1011785E+04  0.7818608E-02  0.8669895E-01
          2   -1    0    0  501    0  0.00000000000E+00  0.00000000000E+00  0.82515565583E+03  0.82515565583E+03  0.00000000000E+00 0.  1.
         -2   -1    0    0    0  501 -0.00000000000E+00 -0.00000000000E+00 -0.31015629053E+03  0.31015629053E+03  0.00000000000E+00 0.  1.
         36    2    1    2    0    0  0.00000000000E+00  0.00000000000E+00  0.51499936530E+03  0.11353119464E+04  0.10117849916E+04 0.  0.
         25    2    3    3    0    0 -0.55254291137E+02  0.12446907577E+03  0.17898262014E+03  0.25678614563E+03  0.12393045939E+03 0.  0.
         35    2    3    3    0    0  0.55254291137E+02 -0.12446907577E+03  0.33601674516E+03  0.87852580074E+03  0.80022168305E+03 0.  0.
         22    1    5    5    0    0 -0.14250235493E+03  0.64092629285E+02  0.52404028996E+03  0.54683910961E+03  0.00000000000E+00 0.  1.
         22    1    5    5    0    0  0.19775664606E+03 -0.18856170505E+03 -0.18802354480E+03  0.33168669113E+03  0.00000000000E+00 0.  1.
          5    1    4    4  502    0 -0.61237259246E+02  0.47585604913E+02  0.15902670831E+03  0.17699145649E+03  0.47000000000E+01 0. -1.
         -5    1    4    4    0  502  0.59829681091E+01  0.76883470854E+02  0.19955911828E+02  0.79794689140E+02  0.47000000000E+01 0. -1.
<mgrwt>
<rscale>  0 0.10117850E+04</rscale>
<asrwt>0</asrwt>
<pdfrwt beam="1">  1        2 0.12694702E+00 0.10117850E+04</pdfrwt>
<pdfrwt beam="2">  1       -2 0.47716353E-01 0.10117850E+04</pdfrwt>
<totfact> 0.16656513E+02</totfact>
</mgrwt>
</event>
<event>
 9    1  0.4370149E-036  0.1000305E+04  0.7818608E-02  0.8680748E-01
          1   -1    0    0  501    0  0.00000000000E+00  0.00000000000E+00  0.15844827871E+04  0.15844827871E+04  0.00000000000E+00 0. -1.
         -1   -1    0    0    0  501 -0.00000000000E+00 -0.00000000000E+00 -0.15787632670E+03  0.15787632670E+03  0.00000000000E+00 0. -1.
         36    2    1    2    0    0 -0.71054273576E-14  0.00000000000E+00  0.14266064604E+04  0.17423591138E+04  0.10003045979E+04 0.  0.
         25    2    3    3    0    0  0.44670043924E+02  0.56461185181E+02  0.59039748773E+02  0.15658257163E+03  0.12589333400E+03 0.  0.
         35    2    3    3    0    0 -0.44670043924E+02 -0.56461185181E+02  0.13675667117E+04  0.15857765422E+04  0.79954065108E+03 0.  0.
         22    1    5    5    0    0  0.11467349301E+02  0.24261583475E+03  0.12265900320E+04  0.12504067538E+04  0.00000000000E+00 0.  1.
         22    1    5    5    0    0 -0.56137393225E+02 -0.29907701993E+03  0.14097667967E+03  0.33536978841E+03  0.00000000000E+00 0.  1.
          5    1    4    4  502    0 -0.10695578557E+01  0.32380107797E+02 -0.35773433405E+02  0.48491688695E+02  0.47000000000E+01 0. -1.
         -5    1    4    4    0  502  0.45739601779E+02  0.24081077384E+02  0.94813182178E+02  0.10809088293E+03  0.47000000000E+01 0. -1.
<mgrwt>
<rscale>  0 0.10003046E+04</rscale>
<asrwt>0</asrwt>
<pdfrwt beam="1">  1        1 0.24376657E+00 0.10003046E+04</pdfrwt>
<pdfrwt beam="2">  1       -1 0.24288667E-01 0.10003046E+04</pdfrwt>
<totfact> 0.90344336E+01</totfact>
</mgrwt>
</event>
<event>
 9    1  0.4370149E-036  0.9996326E+03  0.7818608E-02  0.8681388E-01
         -1   -1    0    0    0  501 -0.00000000000E+00  0.00000000000E+00  0.28159776784E+03  0.28159776784E+03  0.00000000000E+00 0.  1.
          1   -1    0    0  501    0  0.00000000000E+00 -0.00000000000E+00 -0.88713888650E+03  0.88713888650E+03  0.00000000000E+00 0.  1.
         36    2    1    2    0    0  0.00000000000E+00 -0.14210854715E-13 -0.60554111866E+03  0.11687366543E+04  0.99963259292E+03 0.  0.
         25    2    3    3    0    0 -0.37916225562E+02 -0.12018549099E+03 -0.18806209506E+03  0.25882229319E+03  0.12545690674E+03 0.  0.
         35    2    3    3    0    0  0.37916225562E+02  0.12018549099E+03 -0.41747902360E+03  0.90991436115E+03  0.79860704798E+03 0.  0.
         22    1    5    5    0    0  0.37521461144E+03 -0.11812894601E+03 -0.23664119362E+03  0.45906372874E+03  0.00000000000E+00 0.  1.
         22    1    5    5    0    0 -0.33729838588E+03  0.23831443700E+03 -0.18083782998E+03  0.45085063241E+03  0.00000000000E+00 0.  1.
          5    1    4    4  502    0 -0.21138006467E+02  0.73913539936E+01  0.80172643029E+01  0.24244874885E+02  0.47000000000E+01 0. -1.
         -5    1    4    4    0  502 -0.16778219095E+02 -0.12757684498E+03 -0.19607935936E+03  0.23457741830E+03  0.47000000000E+01 0. -1.
<mgrwt>
<rscale>  0 0.99963259E+03</rscale>
<asrwt>0</asrwt>
<pdfrwt beam="1">  1        1 0.13648291E+00 0.99963259E+03</pdfrwt>
<pdfrwt beam="2">  1       -1 0.43322733E-01 0.99963259E+03</pdfrwt>
<totfact> 0.11074222E+02</totfact>
</mgrwt>
</event>
<event>
 9    1  0.4370149E-036  0.1000164E+04  0.7818608E-02  0.8680882E-01
          1   -1    0    0  501    0  0.00000000000E+00  0.00000000000E+00  0.24704844239E+04  0.24704844239E+04  0.00000000000E+00 0. -1.
         -1   -1    0    0    0  501 -0.00000000000E+00 -0.00000000000E+00 -0.10122782545E+03  0.10122782545E+03  0.00000000000E+00 0. -1.
         36    2    1    2    0    0  0.28421709430E-13  0.00000000000E+00  0.23692565985E+04  0.25717122494E+04  0.10001635187E+04 0.  0.
         25    2    3    3    0    0 -0.75302267705E+02  0.11926116696E+03  0.48539548719E+03  0.52068540881E+03  0.12494342119E+03 0.  0.
         35    2    3    3    0    0  0.75302267705E+02 -0.11926116696E+03  0.18838611113E+04  0.20510268406E+04  0.79867687877E+03 0.  0.
         22    1    5    5    0    0  0.30517505640E+03  0.20079269645E+03  0.12706587820E+04  0.13221283077E+04  0.00000000000E+00 0.  1.
         22    1    5    5    0    0 -0.22987278869E+03 -0.32005386341E+03  0.61320232935E+03  0.72889853285E+03  0.00000000000E+00 0.  1.
          5    1    4    4  502    0  0.72090315061E+00  0.10298075334E+03  0.20205756635E+03  0.22683673728E+03  0.47000000000E+01 0. -1.
         -5    1    4    4    0  502 -0.76023170855E+02  0.16280413614E+02  0.28333792083E+03  0.29384867152E+03  0.47000000000E+01 0. -1.
<mgrwt>
<rscale>  0 0.10001635E+04</rscale>
<asrwt>0</asrwt>
<pdfrwt beam="1">  1        1 0.38007448E+00 0.10001635E+04</pdfrwt>
<pdfrwt beam="2">  1       -1 0.15573513E-01 0.10001635E+04</pdfrwt>
<totfact> 0.44818387E+01</totfact>
</mgrwt>
</event>
<event>
 9    1  0.4370149E-036  0.1000965E+04  0.7818608E-02  0.8680119E-01
         -2   -1    0    0    0  501 -0.00000000000E+00  0.00000000000E+00  0.55910539068E+03  0.55910539068E+03  0.00000000000E+00 0. -1.
          2   -1    0    0  501    0  0.00000000000E+00 -0.00000000000E+00 -0.44800644184E+03  0.44800644184E+03  0.00000000000E+00 0. -1.
         36    2    1    2    0    0  0.17763568394E-14  0.00000000000E+00  0.11109894884E+03  0.10071118325E+04  0.10009651676E+04 0.  0.
         25    2    3    3    0    0  0.19307958497E+01  0.85417289191E+02  0.13018055065E+03  0.20108936141E+03  0.12724037975E+03 0.  0.
         35    2    3    3    0    0 -0.19307958497E+01 -0.85417289191E+02 -0.19081601804E+02  0.80602247111E+03  0.80125418884E+03 0.  0.
         22    1    5    5    0    0  0.23507956726E+03 -0.34167572363E+03  0.11771249789E+03  0.43111591855E+03  0.00000000000E+00 0.  1.
         22    1    5    5    0    0 -0.23701036311E+03  0.25625843444E+03 -0.13679409969E+03  0.37490655256E+03  0.00000000000E+00 0.  1.
          5    1    4    4  502    0 -0.13659216848E+02 -0.10000630698E+02 -0.17315026350E+02  0.24667528388E+02  0.47000000000E+01 0.  1.
         -5    1    4    4    0  502  0.15590012698E+02  0.95417919889E+02  0.14749557700E+03  0.17642183302E+03  0.47000000000E+01 0.  1.
<mgrwt>
<rscale>  0 0.10009652E+04</rscale>
<asrwt>0</asrwt>
<pdfrwt beam="1">  1        2 0.68924068E-01 0.10009652E+04</pdfrwt>
<pdfrwt beam="2">  1       -2 0.86016214E-01 0.10009652E+04</pdfrwt>
<totfact> 0.98228693E+01</totfact>
</mgrwt>
</event>
<event>
 9    1  0.4370149E-036  0.9999225E+03  0.7818608E-02  0.8681112E-01
         -2   -1    0    0    0  501 -0.00000000000E+00  0.00000000000E+00  0.34308204558E+03  0.34308204558E+03  0.00000000000E+00 0. -1.
          2   -1    0    0  501    0  0.00000000000E+00 -0.00000000000E+00 -0.72857577603E+03  0.72857577603E+03  0.00000000000E+00 0. -1.
         36    2    1    2    0    0  0.00000000000E+00  0.28421709430E-13 -0.38549373045E+03  0.10716578216E+04  0.99992253220E+03 0.  0.
         25    2    3    3    0    0  0.12273330620E+03  0.66115662617E+02 -0.60178229156E+02  0.19647863448E+03  0.12469037352E+03 0.  0.
         35    2    3    3    0    0 -0.12273330620E+03 -0.66115662617E+02 -0.32531550130E+03  0.87517918713E+03  0.80042094482E+03 0.  0.
         22    1    5    5    0    0 -0.51143730165E+02 -0.30070031440E+03 -0.49182714472E+03  0.57873163081E+03  0.00000000000E+00 0.  1.
         22    1    5    5    0    0 -0.71589576037E+02  0.23458465178E+03  0.16651164343E+03  0.29644755631E+03  0.00000000000E+00 0.  1.
          5    1    4    4  502    0  0.10258449564E+02 -0.13425511271E+02 -0.55886058102E+02  0.58573215983E+02  0.47000000000E+01 0.  1.
         -5    1    4    4    0  502  0.11247485664E+03  0.79541173888E+02 -0.42921710536E+01  0.13790541850E+03  0.47000000000E+01 0.  1.
<mgrwt>
<rscale>  0 0.99992253E+03</rscale>
<asrwt>0</asrwt>
<pdfrwt beam="1">  1        2 0.11208858E+00 0.99992253E+03</pdfrwt>
<pdfrwt beam="2">  1       -2 0.52781854E-01 0.99992253E+03</pdfrwt>
<totfact> 0.15955176E+02</totfact>
</mgrwt>
</event>
<event>
 9    1  0.4370149E-036  0.1001370E+04  0.7818608E-02  0.8679735E-01
          2   -1    0    0  501    0  0.00000000000E+00  0.00000000000E+00  0.96504294955E+03  0.96504294955E+03  0.00000000000E+00 0. -1.
         -2   -1    0    0    0  501 -0.00000000000E+00 -0.00000000000E+00 -0.25976593077E+03  0.25976593077E+03  0.00000000000E+00 0. -1.
         36    2    1    2    0    0  0.00000000000E+00  0.00000000000E+00  0.70527701878E+03  0.12248088803E+04  0.10013696221E+04 0.  0.
         25    2    3    3    0    0  0.34362114629E+02  0.12413378826E+03  0.20060162420E+03  0.26902732903E+03  0.12467854596E+03 0.  0.
         35    2    3    3    0    0 -0.34362114629E+02 -0.12413378826E+03  0.50467539458E+03  0.95578155129E+03  0.80139326649E+03 0.  0.
         22    1    5    5    0    0  0.79981827142E+02  0.30258035326E+03  0.38870879574E+03  0.49904557982E+03  0.00000000000E+00 0. -1.
         22    1    5    5    0    0 -0.11434394177E+03 -0.42671414151E+03  0.11596659884E+03  0.45673597147E+03  0.00000000000E+00 0. -1.
          5    1    4    4  502    0  0.24087951971E+02 -0.20134430397E+02  0.56494730346E+02  0.64802540648E+02  0.47000000000E+01 0.  1.
         -5    1    4    4    0  502  0.10274162658E+02  0.14426821865E+03  0.14410689385E+03  0.20422478838E+03  0.47000000000E+01 0.  1.
<mgrwt>
<rscale>  0 0.10013696E+04</rscale>
<asrwt>0</asrwt>
<pdfrwt beam="1">  1        2 0.14846814E+00 0.10013696E+04</pdfrwt>
<pdfrwt beam="2">  1       -2 0.39963990E-01 0.10013696E+04</pdfrwt>
<totfact> 0.19013799E+02</totfact>
</mgrwt>
</event>
<event>
 9    1  0.4370149E-036  0.9996362E+03  0.7818608E-02  0.8681384E-01
          2   -1    0    0  501    0  0.00000000000E+00  0.00000000000E+00  0.26448861934E+04  0.26448861934E+04  0.00000000000E+00 0.  1.
         -2   -1    0    0    0  501 -0.00000000000E+00 -0.00000000000E+00 -0.94453258247E+02  0.94453258247E+02  0.00000000000E+00 0.  1.
         36    2    1    2    0    0 -0.14210854715E-13 -0.14210854715E-13  0.25504329351E+04  0.27393394516E+04  0.99963617113E+03 0.  0.
         25    2    3    3    0    0  0.91423689879E+01 -0.79230083455E+02  0.78850834833E+03  0.80236139221E+03  0.12520942172E+03 0.  0.
         35    2    3    3    0    0 -0.91423689879E+01  0.79230083455E+02  0.17619245868E+04  0.19369780594E+04  0.80071515788E+03 0.  0.
         22    1    5    5    0    0  0.13374978667E+03  0.38777141786E+03  0.60366509815E+03  0.72984055017E+03  0.00000000000E+00 0.  1.
         22    1    5    5    0    0 -0.14289215566E+03 -0.30854133441E+03  0.11582594887E+04  0.12071375093E+04  0.00000000000E+00 0.  1.
          5    1    4    4  502    0 -0.26040119682E+02 -0.51380080752E+02  0.70567888979E+03  0.70804151434E+03  0.47000000000E+01 0.  1.
         -5    1    4    4    0  502  0.35182488670E+02 -0.27850002703E+02  0.82829458536E+02  0.94319877867E+02  0.47000000000E+01 0.  1.
<mgrwt>
<rscale>  0 0.99963617E+03</rscale>
<asrwt>0</asrwt>
<pdfrwt beam="1">  1        2 0.40690551E+00 0.99963617E+03</pdfrwt>
<pdfrwt beam="2">  1       -2 0.14531273E-01 0.99963617E+03</pdfrwt>
<totfact> 0.11957027E+02</totfact>
</mgrwt>
</event>
<event>
 9    1  0.4370149E-036  0.1001935E+04  0.7818608E-02  0.8679197E-01
          2   -1    0    0  501    0  0.00000000000E+00  0.00000000000E+00  0.14912406337E+04  0.14912406337E+04  0.00000000000E+00 0. -1.
         -2   -1    0    0    0  501 -0.00000000000E+00 -0.00000000000E+00 -0.16829517045E+03  0.16829517045E+03  0.00000000000E+00 0. -1.
         36    2    1    2    0    0 -0.14210854715E-13 -0.14210854715E-13  0.13229454632E+04  0.16595358041E+04  0.10019353205E+04 0.  0.
         25    2    3    3    0    0  0.39203336711E+02 -0.38335861174E+02  0.46201480773E+03  0.48267716213E+03  0.12850299770E+03 0.  0.
         35    2    3    3    0    0 -0.39203336711E+02  0.38335861174E+02  0.86093065547E+03  0.11768586420E+04  0.80049242956E+03 0.  0.
         22    1    5    5    0    0  0.20374022521E+03 -0.21663097678E+03  0.75129130693E+03  0.80800846984E+03  0.00000000000E+00 0. -1.
         22    1    5    5    0    0 -0.24294356192E+03  0.25496683795E+03  0.10963934855E+03  0.36885017213E+03  0.00000000000E+00 0. -1.
          5    1    4    4  502    0  0.70242110778E+02  0.14047420844E+02  0.32231036848E+03  0.33020803714E+03  0.47000000000E+01 0. -1.
         -5    1    4    4    0  502 -0.31038774067E+02 -0.52383282017E+02  0.13970443925E+03  0.15246912499E+03  0.47000000000E+01 0. -1.
<mgrwt>
<rscale>  0 0.10019353E+04</rscale>
<asrwt>0</asrwt>
<pdfrwt beam="1">  1        2 0.22942163E+00 0.10019353E+04</pdfrwt>
<pdfrwt beam="2">  1       -2 0.25891566E-01 0.10019353E+04</pdfrwt>
<totfact> 0.20655454E+02</totfact>
</mgrwt>
</event>
<event>
 9    1  0.4370149E-036  0.9992736E+03  0.7818608E-02  0.8681730E-01
          1   -1    0    0  501    0  0.00000000000E+00  0.00000000000E+00  0.33897771131E+03  0.33897771131E+03  0.00000000000E+00 0.  1.
         -1   -1    0    0    0  501 -0.00000000000E+00 -0.00000000000E+00 -0.73644060296E+03  0.73644060296E+03  0.00000000000E+00 0.  1.
         36    2    1    2    0    0  0.00000000000E+00  0.28421709430E-13 -0.39746289165E+03  0.10754183143E+04  0.99927363642E+03 0.  0.
         25    2    3    3    0    0 -0.84107823284E+02 -0.88383946057E+02 -0.50418391997E+01  0.17530028440E+03  0.12577329490E+03 0.  0.
         35    2    3    3    0    0  0.84107823284E+02  0.88383946057E+02 -0.39242105245E+03  0.90011802988E+03  0.80083227797E+03 0.  0.
         22    1    5    5    0    0  0.33288192087E+03  0.28489230543E+03 -0.62526838152E+02  0.44258739750E+03  0.00000000000E+00 0. -1.
         22    1    5    5    0    0 -0.24877409759E+03 -0.19650835938E+03 -0.32989421430E+03  0.45753063237E+03  0.00000000000E+00 0. -1.
          5    1    4    4  502    0 -0.14649934841E+02  0.40335279740E+01 -0.49007901023E+02  0.51524307870E+02  0.47000000000E+01 0. -1.
         -5    1    4    4    0  502 -0.69457888443E+02 -0.92417474031E+02  0.43966061824E+02  0.12377597653E+03  0.47000000000E+01 0. -1.
<mgrwt>
<rscale>  0 0.99927364E+03</rscale>
<asrwt>0</asrwt>
<pdfrwt beam="1">  1        1 0.52150417E-01 0.99927364E+03</pdfrwt>
<pdfrwt beam="2">  1       -1 0.11329855E+00 0.99927364E+03</pdfrwt>
<totfact> 0.63935487E+01</totfact>
</mgrwt>
</event>
<event>
 9    1  0.4370149E-036  0.9996071E+03  0.7818608E-02  0.8681412E-01
          2   -1    0    0  501    0  0.00000000000E+00  0.00000000000E+00  0.12253966264E+04  0.12253966264E+04  0.00000000000E+00 0.  1.
         -2   -1    0    0    0  501 -0.00000000000E+00 -0.00000000000E+00 -0.20385527353E+03  0.20385527353E+03  0.00000000000E+00 0.  1.
         36    2    1    2    0    0  0.56843418861E-13 -0.71054273576E-14  0.10215413529E+04  0.14292518999E+04  0.99960705171E+03 0.  0.
         25    2    3    3    0    0  0.13590129442E+03 -0.31530389087E+01  0.14769921834E+03  0.23650562926E+03  0.12506298451E+03 0.  0.
         35    2    3    3    0    0 -0.13590129442E+03  0.31530389087E+01  0.87384213453E+03  0.11927462707E+04  0.80035272640E+03 0.  0.
         22    1    5    5    0    0 -0.46859398232E+01 -0.34572863543E+03  0.70151865317E+03  0.78209888642E+03  0.00000000000E+00 0.  1.
         22    1    5    5    0    0 -0.13121535459E+03  0.34888167434E+03  0.17232348135E+03  0.41064738425E+03  0.00000000000E+00 0.  1.
          5    1    4    4  502    0  0.15356256038E+02  0.47837074119E+02  0.62215767636E+02  0.80106753787E+02  0.47000000000E+01 0. -1.
         -5    1    4    4    0  502  0.12054503838E+03 -0.50990113028E+02  0.85483450705E+02  0.15639887547E+03  0.47000000000E+01 0. -1.
<mgrwt>
<rscale>  0 0.99960705E+03</rscale>
<asrwt>0</asrwt>
<pdfrwt beam="1">  1        2 0.18852255E+00 0.99960705E+03</pdfrwt>
<pdfrwt beam="2">  1       -2 0.31362350E-01 0.99960705E+03</pdfrwt>
<totfact> 0.20770744E+02</totfact>
</mgrwt>
</event>
<event>
 9    1  0.4370149E-036  0.1000911E+04  0.7818608E-02  0.8680171E-01
          2   -1    0    0  501    0  0.00000000000E+00  0.00000000000E+00  0.40174977278E+03  0.40174977278E+03  0.00000000000E+00 0.  1.
         -2   -1    0    0    0  501 -0.00000000000E+00 -0.00000000000E+00 -0.62341161243E+03  0.62341161243E+03  0.00000000000E+00 0.  1.
         36    2    1    2    0    0 -0.71054273576E-14  0.00000000000E+00 -0.22166183966E+03  0.10251613852E+04  0.10009105327E+04 0.  0.
         25    2    3    3    0    0 -0.17951246382E+02 -0.67829876797E+02 -0.16672662416E+03  0.21955068306E+03  0.12442506096E+03 0.  0.
         35    2    3    3    0    0  0.17951246382E+02  0.67829876797E+02 -0.54935215499E+02  0.80561070216E+03  0.80066696328E+03 0.  0.
         22    1    5    5    0    0  0.31074438867E+02 -0.84596787378E+01  0.37115308335E+03  0.37254771265E+03  0.00000000000E+00 0. -1.
         22    1    5    5    0    0 -0.13123192485E+02  0.76289555535E+02 -0.42608829885E+03  0.43306298951E+03  0.00000000000E+00 0. -1.
          5    1    4    4  502    0 -0.10012990283E+02 -0.10436323297E+03 -0.11722153257E+03  0.15733696981E+03  0.47000000000E+01 0.  1.
         -5    1    4    4    0  502 -0.79382560992E+01  0.36533356171E+02 -0.49505091591E+02  0.62213713250E+02  0.47000000000E+01 0.  1.
<mgrwt>
<rscale>  0 0.10009105E+04</rscale>
<asrwt>0</asrwt>
<pdfrwt beam="1">  1        2 0.61807658E-01 0.10009105E+04</pdfrwt>
<pdfrwt beam="2">  1       -2 0.95909478E-01 0.10009105E+04</pdfrwt>
<totfact> 0.85909992E+01</totfact>
</mgrwt>
</event>
<event>
 9    1  0.4370149E-036  0.1000535E+04  0.7818608E-02  0.8680528E-01
          2   -1    0    0  501    0  0.00000000000E+00  0.00000000000E+00  0.47937815712E+03  0.47937815712E+03  0.00000000000E+00 0.  1.
         -2   -1    0    0    0  501 -0.00000000000E+00 -0.00000000000E+00 -0.52206757628E+03  0.52206757628E+03  0.00000000000E+00 0.  1.
         36    2    1    2    0    0 -0.14210854715E-13  0.00000000000E+00 -0.42689419156E+02  0.10014457334E+04  0.10005354419E+04 0.  0.
         25    2    3    3    0    0  0.28335881950E+02 -0.12761438071E+03  0.38658692708E+02  0.18518458858E+03  0.12534147341E+03 0.  0.
         35    2    3    3    0    0 -0.28335881950E+02  0.12761438071E+03 -0.81348111864E+02  0.81626114482E+03  0.80160862574E+03 0.  0.
         22    1    5    5    0    0  0.12734265969E+03 -0.31047512241E+03  0.33836405843E+02  0.33727712192E+03  0.00000000000E+00 0. -1.
         22    1    5    5    0    0 -0.15567854164E+03  0.43808950312E+03 -0.11518451771E+03  0.47898402290E+03  0.00000000000E+00 0. -1.
          5    1    4    4  502    0 -0.36560302344E+02 -0.42124870146E+02  0.52647058593E+02  0.76843758177E+02  0.47000000000E+01 0. -1.
         -5    1    4    4    0  502  0.64896184295E+02 -0.85489510565E+02 -0.13988365885E+02  0.10834083040E+03  0.47000000000E+01 0. -1.
<mgrwt>
<rscale>  0 0.10005354E+04</rscale>
<asrwt>0</asrwt>
<pdfrwt beam="1">  1        2 0.73750486E-01 0.10005354E+04</pdfrwt>
<pdfrwt beam="2">  1       -2 0.80318089E-01 0.10005354E+04</pdfrwt>
<totfact> 0.10670402E+02</totfact>
</mgrwt>
</event>
<event>
 9    1  0.4370149E-036  0.1000205E+04  0.7818608E-02  0.8680842E-01
          3   -1    0    0  501    0  0.00000000000E+00  0.00000000000E+00  0.28846328318E+03  0.28846328318E+03  0.00000000000E+00 0.  1.
         -3   -1    0    0    0  501 -0.00000000000E+00 -0.00000000000E+00 -0.86701742500E+03  0.86701742500E+03  0.00000000000E+00 0.  1.
         36    2    1    2    0    0 -0.14210854715E-13 -0.28421709430E-13 -0.57855414182E+03  0.11554807082E+04  0.10002053649E+04 0.  0.
         25    2    3    3    0    0 -0.48273498448E+02 -0.12734342489E+03 -0.14900833182E+03  0.23737290681E+03  0.12488288683E+03 0.  0.
         35    2    3    3    0    0  0.48273498448E+02  0.12734342489E+03 -0.42954581000E+03  0.91810780137E+03  0.79991602905E+03 0.  0.
         22    1    5    5    0    0 -0.30706633811E+03  0.27972500769E+03 -0.29198176858E+03  0.50772942510E+03  0.00000000000E+00 0.  1.
         22    1    5    5    0    0  0.35533983656E+03 -0.15238158280E+03 -0.13756404142E+03  0.41037837627E+03  0.00000000000E+00 0.  1.
          5    1    4    4  502    0  0.34930197834E+02 -0.83320410459E+02 -0.75976428644E+02  0.11813939745E+03  0.47000000000E+01 0. -1.
         -5    1    4    4    0  502 -0.83203696282E+02 -0.44023014435E+02 -0.73031903172E+02  0.11923350937E+03  0.47000000000E+01 0. -1.
<mgrwt>
<rscale>  0 0.10002054E+04</rscale>
<asrwt>0</asrwt>
<pdfrwt beam="1">  1        3 0.44378967E-01 0.10002054E+04</pdfrwt>
<pdfrwt beam="2">  1       -3 0.13338730E+00 0.10002054E+04</pdfrwt>
<totfact> 0.74121256E+00</totfact>
</mgrwt>
</event>
<event>
 9    1  0.4370149E-036  0.1000082E+04  0.7818608E-02  0.8680960E-01
          2   -1    0    0  501    0  0.00000000000E+00  0.00000000000E+00  0.63952562732E+03  0.63952562732E+03  0.00000000000E+00 0.  1.
         -2   -1    0    0    0  501 -0.00000000000E+00 -0.00000000000E+00 -0.39097862522E+03  0.39097862522E+03  0.00000000000E+00 0.  1.
         36    2    1    2    0    0 -0.14210854715E-13  0.00000000000E+00  0.24854700210E+03  0.10305042525E+04  0.10000816978E+04 0.  0.
         25    2    3    3    0    0 -0.10458577657E+03 -0.90659634719E+02  0.24128777549E+02  0.18870239589E+03  0.12597238697E+03 0.  0.
         35    2    3    3    0    0  0.10458577657E+03  0.90659634719E+02  0.22441822455E+03  0.84180185665E+03  0.79944322645E+03 0.  0.
         22    1    5    5    0    0  0.43342629771E+03 -0.47801010463E+02  0.34024148284E+02  0.43737962323E+03  0.00000000000E+00 0.  1.
         22    1    5    5    0    0 -0.32884052114E+03  0.13846064518E+03  0.19039407627E+03  0.40442223342E+03  0.00000000000E+00 0.  1.
          5    1    4    4  502    0 -0.64220244310E+02 -0.61226273705E+02 -0.47881781566E+02  0.10093389608E+03  0.47000000000E+01 0. -1.
         -5    1    4    4    0  502 -0.40365532263E+02 -0.29433361014E+02  0.72010559115E+02  0.87768499814E+02  0.47000000000E+01 0. -1.
<mgrwt>
<rscale>  0 0.10000817E+04</rscale>
<asrwt>0</asrwt>
<pdfrwt beam="1">  1        2 0.98388558E-01 0.10000817E+04</pdfrwt>
<pdfrwt beam="2">  1       -2 0.60150558E-01 0.10000817E+04</pdfrwt>
<totfact> 0.14299629E+02</totfact>
</mgrwt>
</event>
<event>
 9    1  0.4370149E-036  0.9999385E+03  0.7818608E-02  0.8681096E-01
          2   -1    0    0  501    0  0.00000000000E+00  0.00000000000E+00  0.33446463389E+04  0.33446463389E+04  0.00000000000E+00 0.  1.
         -2   -1    0    0    0  501 -0.00000000000E+00 -0.00000000000E+00 -0.74737132024E+02  0.74737132024E+02  0.00000000000E+00 0.  1.
         36    2    1    2    0    0  0.88817841970E-15  0.14210854715E-13  0.32699092068E+04  0.34193834709E+04  0.99993854811E+03 0.  0.
         25    2    3    3    0    0 -0.47537209131E+01  0.59845078398E+02  0.10495033009E+04  0.10585447534E+04  0.12432129836E+03 0.  0.
         35    2    3    3    0    0  0.47537209131E+01 -0.59845078398E+02  0.22204059060E+04  0.23608387174E+04  0.79984562965E+03 0.  0.
         22    1    5    5    0    0  0.10318966017E+03 -0.38579753672E+03  0.73066305980E+03  0.83268022209E+03  0.00000000000E+00 0.  1.
         22    1    5    5    0    0 -0.98435939254E+02  0.32595245832E+03  0.14897428462E+04  0.15281584954E+04  0.00000000000E+00 0.  1.
          5    1    4    4  502    0 -0.12425809308E+02  0.46470850963E+02  0.12677741476E+03  0.13567808821E+03  0.47000000000E+01 0. -1.
         -5    1    4    4    0  502  0.76720883945E+01  0.13374227435E+02  0.92272588611E+03  0.92286666523E+03  0.47000000000E+01 0. -1.
<mgrwt>
<rscale>  0 0.99993855E+03</rscale>
<asrwt>0</asrwt>
<pdfrwt beam="1">  1        2 0.51456086E+00 0.99993855E+03</pdfrwt>
<pdfrwt beam="2">  1       -2 0.11498023E-01 0.99993855E+03</pdfrwt>
<totfact> 0.59892952E+01</totfact>
</mgrwt>
</event>
<event>
 9    1  0.4370149E-036  0.1000010E+04  0.7818608E-02  0.8681029E-01
          1   -1    0    0  501    0  0.00000000000E+00  0.00000000000E+00  0.27698070015E+03  0.27698070015E+03  0.00000000000E+00 0. -1.
         -1   -1    0    0    0  501 -0.00000000000E+00 -0.00000000000E+00 -0.90260772560E+03  0.90260772560E+03  0.00000000000E+00 0. -1.
         36    2    1    2    0    0  0.71054273576E-14  0.00000000000E+00 -0.62562702545E+03  0.11795884257E+04  0.10000098395E+04 0.  0.
         25    2    3    3    0    0 -0.16734942243E+02  0.83778476804E+02 -0.24485566892E+03  0.28792475995E+03  0.12508987698E+03 0.  0.
         35    2    3    3    0    0  0.16734942243E+02 -0.83778476804E+02 -0.38077135653E+03  0.89166366579E+03  0.80173460414E+03 0.  0.
         22    1    5    5    0    0  0.13105428056E+03  0.83290648571E+02  0.21342061653E+03  0.26393354495E+03  0.00000000000E+00 0.  1.
         22    1    5    5    0    0 -0.11431933831E+03 -0.16706912537E+03 -0.59419197306E+03  0.62773012084E+03  0.00000000000E+00 0.  1.
          5    1    4    4  502    0  0.57795721120E+01  0.57149411532E+02 -0.24605816335E+03  0.25271756655E+03  0.47000000000E+01 0. -1.
         -5    1    4    4    0  502 -0.22514514355E+02  0.26629065272E+02  0.12024944343E+01  0.35207193395E+02  0.47000000000E+01 0. -1.
<mgrwt>
<rscale>  0 0.10000098E+04</rscale>
<asrwt>0</asrwt>
<pdfrwt beam="1">  1        1 0.42612415E-01 0.10000098E+04</pdfrwt>
<pdfrwt beam="2">  1       -1 0.13886273E+00 0.10000098E+04</pdfrwt>
<totfact> 0.49558641E+01</totfact>
</mgrwt>
</event>
<event>
 9    1  0.4370149E-036  0.1005836E+04  0.7818608E-02  0.8675500E-01
         -1   -1    0    0    0  501 -0.00000000000E+00  0.00000000000E+00  0.45021411736E+03  0.45021411736E+03  0.00000000000E+00 0. -1.
          1   -1    0    0  501    0  0.00000000000E+00 -0.00000000000E+00 -0.56179153819E+03  0.56179153819E+03  0.00000000000E+00 0. -1.
         36    2    1    2    0    0  0.00000000000E+00  0.42632564146E-13 -0.11157742083E+03  0.10120056556E+04  0.10058359340E+04 0.  0.
         25    2    3    3    0    0 -0.63650271889E+02 -0.12682131421E+03  0.14043747673E+02  0.18977124235E+03  0.12522337931E+03 0.  0.
         35    2    3    3    0    0  0.63650271889E+02  0.12682131421E+03 -0.12562116850E+03  0.82223441320E+03  0.80009608762E+03 0.  0.
         22    1    5    5    0    0 -0.18878418588E+03  0.39868480918E+03 -0.82156483525E+02  0.44870784894E+03  0.00000000000E+00 0. -1.
         22    1    5    5    0    0  0.25243445777E+03 -0.27186349498E+03 -0.43464684978E+02  0.37352656427E+03  0.00000000000E+00 0. -1.
          5    1    4    4  502    0 -0.91051999461E+02 -0.12221771741E+03 -0.98896866132E+01  0.15279899527E+03  0.47000000000E+01 0. -1.
         -5    1    4    4    0  502  0.27401727572E+02 -0.46035968005E+01  0.23933434286E+02  0.36972247080E+02  0.47000000000E+01 0. -1.
<mgrwt>
<rscale>  0 0.10058359E+04</rscale>
<asrwt>0</asrwt>
<pdfrwt beam="1">  1        1 0.86429467E-01 0.10058359E+04</pdfrwt>
<pdfrwt beam="2">  1       -1 0.69263711E-01 0.10058359E+04</pdfrwt>
<totfact> 0.92896413E+01</totfact>
</mgrwt>
</event>
<event>
 9    1  0.4370149E-036  0.9989424E+03  0.7818608E-02  0.8682046E-01
         -2   -1    0    0    0  501 -0.00000000000E+00  0.00000000000E+00  0.27371805584E+03  0.27371805584E+03  0.00000000000E+00 0.  1.
          2   -1    0    0  501    0  0.00000000000E+00 -0.00000000000E+00 -0.91141763098E+03  0.91141763098E+03  0.00000000000E+00 0.  1.
         36    2    1    2    0    0  0.00000000000E+00 -0.28421709430E-13 -0.63769957515E+03  0.11851356868E+04  0.99894236472E+03 0.  0.
         25    2    3    3    0    0  0.19955479739E+02 -0.11393859411E+03 -0.21261081042E+03  0.27180858895E+03  0.12367832436E+03 0.  0.
         35    2    3    3    0    0 -0.19955479739E+02  0.11393859411E+03 -0.42508876472E+03  0.91332709787E+03  0.80005356409E+03 0.  0.
         22    1    5    5    0    0 -0.38010232398E+03  0.20981188793E+03 -0.25657350096E+03  0.50431018868E+03  0.00000000000E+00 0.  1.
         22    1    5    5    0    0  0.36014684424E+03 -0.95873293818E+02 -0.16851526376E+03  0.40901690919E+03  0.00000000000E+00 0.  1.
          5    1    4    4  502    0 -0.51079206029E+01 -0.12159567693E+03 -0.10454021698E+03  0.16050653092E+03  0.47000000000E+01 0.  1.
         -5    1    4    4    0  502  0.25063400342E+02  0.76570828228E+01 -0.10807059344E+03  0.11130205802E+03  0.47000000000E+01 0.  1.
<mgrwt>
<rscale>  0 0.99894236E+03</rscale>
<asrwt>0</asrwt>
<pdfrwt beam="1">  1        2 0.14021810E+00 0.99894236E+03</pdfrwt>
<pdfrwt beam="2">  1       -2 0.42110469E-01 0.99894236E+03</pdfrwt>
<totfact> 0.18621883E+02</totfact>
</mgrwt>
</event>
<event>
 9    1  0.4370149E-036  0.9996197E+03  0.7818608E-02  0.8681400E-01
         -1   -1    0    0    0  501 -0.00000000000E+00  0.00000000000E+00  0.23280808903E+03  0.23280808903E+03  0.00000000000E+00 0. -1.
          1   -1    0    0  501    0  0.00000000000E+00 -0.00000000000E+00 -0.10730292775E+04  0.10730292775E+04  0.00000000000E+00 0. -1.
         36    2    1    2    0    0  0.00000000000E+00  0.00000000000E+00 -0.84022118852E+03  0.13058373666E+04  0.99961971885E+03 0.  0.
         25    2    3    3    0    0  0.66678065968E+02  0.12223666341E+03 -0.15864868486E+03  0.24550377215E+03  0.12535920616E+03 0.  0.
         35    2    3    3    0    0 -0.66678065968E+02 -0.12223666341E+03 -0.68157250365E+03  0.10603335944E+04  0.80023651964E+03 0.  0.
         22    1    5    5    0    0 -0.11018074716E+03 -0.13539372576E+02 -0.84889195208E+03  0.85611953485E+03  0.00000000000E+00 0. -1.
         22    1    5    5    0    0  0.43502681189E+02 -0.10869729084E+03  0.16731944842E+03  0.20421405957E+03  0.00000000000E+00 0. -1.
          5    1    4    4  502    0  0.11962802502E+02  0.11440837848E+03 -0.54221179566E+02  0.12725726707E+03  0.47000000000E+01 0.  1.
         -5    1    4    4    0  502  0.54715263466E+02  0.78282849378E+01 -0.10442750530E+03  0.11824650508E+03  0.47000000000E+01 0.  1.
<mgrwt>
<rscale>  0 0.99961972E+03</rscale>
<asrwt>0</asrwt>
<pdfrwt beam="1">  1        1 0.16508143E+00 0.99961972E+03</pdfrwt>
<pdfrwt beam="2">  1       -1 0.35816629E-01 0.99961972E+03</pdfrwt>
<totfact> 0.11011286E+02</totfact>
</mgrwt>
</event>
<event>
 9    1  0.4370149E-036  0.1000161E+04  0.7818608E-02  0.8680885E-01
          1   -1    0    0  501    0  0.00000000000E+00  0.00000000000E+00  0.89892141862E+03  0.89892141862E+03  0.00000000000E+00 0. -1.
         -1   -1    0    0    0  501 -0.00000000000E+00 -0.00000000000E+00 -0.27820043594E+03  0.27820043594E+03  0.00000000000E+00 0. -1.
         36    2    1    2    0    0  0.00000000000E+00  0.14210854715E-13  0.62072098268E+03  0.11771218546E+04  0.10001606482E+04 0.  0.
         25    2    3    3    0    0 -0.44680817244E+02  0.80603956697E+02 -0.83320059031E+01  0.15526269568E+03  0.12467441230E+03 0.  0.
         35    2    3    3    0    0  0.44680817244E+02 -0.80603956697E+02  0.62905298858E+03  0.10218591589E+04  0.79999694055E+03 0.  0.
         22    1    5    5    0    0 -0.73894163910E+02 -0.12349328741E+03 -0.16437614204E+03  0.21847300879E+03  0.00000000000E+00 0.  1.
         22    1    5    5    0    0  0.11857498115E+03  0.42889330716E+02  0.79342913062E+03  0.80338615010E+03  0.00000000000E+00 0.  1.
          5    1    4    4  502    0 -0.24163591864E+02  0.20940806292E+02  0.56238330960E+02  0.64863213065E+02  0.47000000000E+01 0. -1.
         -5    1    4    4    0  502 -0.20517225380E+02  0.59663150405E+02 -0.64570336864E+02  0.90399482610E+02  0.47000000000E+01 0. -1.
<mgrwt>
<rscale>  0 0.10001606E+04</rscale>
<asrwt>0</asrwt>
<pdfrwt beam="1">  1        1 0.13829560E+00 0.10001606E+04</pdfrwt>
<pdfrwt beam="2">  1       -1 0.42800067E-01 0.10001606E+04</pdfrwt>
<totfact> 0.11065006E+02</totfact>
</mgrwt>
</event>
<event>
 9    1  0.4370149E-036  0.9999529E+03  0.7818608E-02  0.8681083E-01
          2   -1    0    0  501    0  0.00000000000E+00  0.00000000000E+00  0.81629941386E+03  0.81629941386E+03  0.00000000000E+00 0.  1.
         -2   -1    0    0    0  501 -0.00000000000E+00 -0.00000000000E+00 -0.30623134836E+03  0.30623134836E+03  0.00000000000E+00 0.  1.
         36    2    1    2    0    0 -0.14210854715E-13  0.00000000000E+00  0.51006806550E+03  0.11225307622E+04  0.99995293924E+03 0.  0.
         25    2    3    3    0    0 -0.21829441556E+02 -0.71130361188E+02 -0.36052290579E+02  0.15070344937E+03  0.12599884600E+03 0.  0.
         35    2    3    3    0    0  0.21829441556E+02  0.71130361188E+02  0.54612035608E+03  0.97182731286E+03  0.80041541082E+03 0.  0.
         22    1    5    5    0    0  0.35386237482E+03  0.15148413344E+03  0.78716775672E+02  0.39288974760E+03  0.00000000000E+00 0.  1.
         22    1    5    5    0    0 -0.33203293326E+03 -0.80353772247E+02  0.46740358041E+03  0.57893756526E+03  0.00000000000E+00 0.  1.
          5    1    4    4  502    0 -0.69450109943E+01  0.26786302171E+02 -0.42952926852E+02  0.51310652762E+02  0.47000000000E+01 0. -1.
         -5    1    4    4    0  502 -0.14884430561E+02 -0.97916663359E+02  0.69006362733E+01  0.99392796608E+02  0.47000000000E+01 0. -1.
<mgrwt>
<rscale>  0 0.99995294E+03</rscale>
<asrwt>0</asrwt>
<pdfrwt beam="1">  1        2 0.12558452E+00 0.99995294E+03</pdfrwt>
<pdfrwt beam="2">  1       -2 0.47112515E-01 0.99995294E+03</pdfrwt>
<totfact> 0.17328268E+02</totfact>
</mgrwt>
</event>
<event>
 9    1  0.4370149E-036  0.9856991E+03  0.7818608E-02  0.8694777E-01
          1   -1    0    0  501    0  0.00000000000E+00  0.00000000000E+00  0.67123389986E+03  0.67123389986E+03  0.00000000000E+00 0. -1.
         -1   -1    0    0    0  501 -0.00000000000E+00 -0.00000000000E+00 -0.36187187062E+03  0.36187187062E+03  0.00000000000E+00 0. -1.
         36    2    1    2    0    0 -0.71054273576E-14  0.49737991503E-13  0.30936202924E+03  0.10331057705E+04  0.98569907571E+03 0.  0.
         25    2    3    3    0    0  0.17011542551E+02 -0.73136375809E+01 -0.73103947226E+02  0.14599291904E+03  0.12500745352E+03 0.  0.
         35    2    3    3    0    0 -0.17011542551E+02  0.73136375809E+01  0.38246597647E+03  0.88711285143E+03  0.80021628710E+03 0.  0.
         22    1    5    5    0    0  0.23290270498E+03  0.31216467644E+03  0.99839955160E+02  0.40206774535E+03  0.00000000000E+00 0.  1.
         22    1    5    5    0    0 -0.24991424753E+03 -0.30485103886E+03  0.28262602131E+03  0.48504510608E+03  0.00000000000E+00 0.  1.
          5    1    4    4  502    0  0.19212898938E+02 -0.63719677017E+02 -0.23614744266E+02  0.70774846319E+02  0.47000000000E+01 0. -1.
         -5    1    4    4    0  502 -0.22013563872E+01  0.56406039436E+02 -0.49489202960E+02  0.75218072725E+02  0.47000000000E+01 0. -1.
<mgrwt>
<rscale>  0 0.98569908E+03</rscale>
<asrwt>0</asrwt>
<pdfrwt beam="1">  1        1 0.10326675E+00 0.98569908E+03</pdfrwt>
<pdfrwt beam="2">  1       -1 0.55672596E-01 0.98569908E+03</pdfrwt>
<totfact> 0.10923590E+02</totfact>
</mgrwt>
</event>
<event>
 9    1  0.4370149E-036  0.9995540E+03  0.7818608E-02  0.8681463E-01
          2   -1    0    0  501    0  0.00000000000E+00  0.00000000000E+00  0.10005886473E+04  0.10005886473E+04  0.00000000000E+00 0.  1.
         -2   -1    0    0    0  501 -0.00000000000E+00 -0.00000000000E+00 -0.24963009033E+03  0.24963009033E+03  0.00000000000E+00 0.  1.
         36    2    1    2    0    0 -0.28421709430E-13  0.14210854715E-13  0.75095855696E+03  0.12502187376E+04  0.99955396935E+03 0.  0.
         25    2    3    3    0    0  0.13295709904E+03  0.27360407768E+02  0.17307676299E+03  0.25321385314E+03  0.12544125093E+03 0.  0.
         35    2    3    3    0    0 -0.13295709904E+03 -0.27360407768E+02  0.57788179397E+03  0.99700488449E+03  0.80102758367E+03 0.  0.
         22    1    5    5    0    0 -0.37756527998E+03  0.19766454206E+03  0.49744506793E+03  0.65504076777E+03  0.00000000000E+00 0. -1.
         22    1    5    5    0    0  0.24460818094E+03 -0.22502494983E+03  0.80436726039E+02  0.34196411672E+03  0.00000000000E+00 0. -1.
          5    1    4    4  502    0  0.82159715836E+01 -0.37947823156E+02  0.64154880176E+02  0.75136396784E+02  0.47000000000E+01 0. -1.
         -5    1    4    4    0  502  0.12474112745E+03  0.65308230924E+02  0.10892188282E+03  0.17807745635E+03  0.47000000000E+01 0. -1.
<mgrwt>
<rscale>  0 0.99955397E+03</rscale>
<asrwt>0</asrwt>
<pdfrwt beam="1">  1        2 0.15393671E+00 0.99955397E+03</pdfrwt>
<pdfrwt beam="2">  1       -2 0.38404630E-01 0.99955397E+03</pdfrwt>
<totfact> 0.19477757E+02</totfact>
</mgrwt>
</event>
<event>
 9    1  0.4370149E-036  0.1001288E+04  0.7818608E-02  0.8679812E-01
          2   -1    0    0  501    0  0.00000000000E+00  0.00000000000E+00  0.19713233553E+04  0.19713233553E+04  0.00000000000E+00 0. -1.
         -2   -1    0    0    0  501 -0.00000000000E+00 -0.00000000000E+00 -0.12714533034E+03  0.12714533034E+03  0.00000000000E+00 0. -1.
         36    2    1    2    0    0  0.00000000000E+00  0.00000000000E+00  0.18441780249E+04  0.20984686856E+04  0.10012882886E+04 0.  0.
         25    2    3    3    0    0 -0.96557206377E+02  0.91119584950E+02  0.44840201546E+03  0.48423953660E+03  0.12568806020E+03 0.  0.
         35    2    3    3    0    0  0.96557206377E+02 -0.91119584950E+02  0.13957760095E+04  0.16142291490E+04  0.79994937594E+03 0.  0.
         22    1    5    5    0    0  0.21713049679E+03  0.29432550554E+02  0.14245618676E+04  0.14413148310E+04  0.00000000000E+00 0.  1.
         22    1    5    5    0    0 -0.12057329041E+03 -0.12055213550E+03 -0.28785858092E+02  0.17291431798E+03  0.00000000000E+00 0.  1.
          5    1    4    4  502    0 -0.12699873267E+03  0.75229568525E+02  0.37620808730E+03  0.40415687675E+03  0.47000000000E+01 0. -1.
         -5    1    4    4    0  502  0.30441526291E+02  0.15890016425E+02  0.72193928166E+02  0.80082659852E+02  0.47000000000E+01 0. -1.
<mgrwt>
<rscale>  0 0.10012883E+04</rscale>
<asrwt>0</asrwt>
<pdfrwt beam="1">  1        2 0.30328049E+00 0.10012883E+04</pdfrwt>
<pdfrwt beam="2">  1       -2 0.19560821E-01 0.10012883E+04</pdfrwt>
<totfact> 0.18085846E+02</totfact>
</mgrwt>
</event>
<event>
 9    1  0.4370149E-036  0.1001304E+04  0.7818608E-02  0.8679797E-01
         -2   -1    0    0    0  501 -0.00000000000E+00  0.00000000000E+00  0.20945515725E+04  0.20945515725E+04  0.00000000000E+00 0. -1.
          2   -1    0    0  501    0  0.00000000000E+00 -0.00000000000E+00 -0.11966871400E+03  0.11966871400E+03  0.00000000000E+00 0. -1.
         36    2    1    2    0    0  0.00000000000E+00 -0.14210854715E-13  0.19748828585E+04  0.22142202865E+04  0.10013037363E+04 0.  0.
         25    2    3    3    0    0  0.29677339068E+02 -0.99239790426E+02  0.58122615121E+03  0.60379512862E+03  0.12655211590E+03 0.  0.
         35    2    3    3    0    0 -0.29677339068E+02  0.99239790426E+02  0.13936567073E+04  0.16104251579E+04  0.80028800497E+03 0.  0.
         22    1    5    5    0    0  0.95109565315E+02 -0.65408456725E+02  0.13990085865E+04  0.14037624873E+04  0.00000000000E+00 0. -1.
         22    1    5    5    0    0 -0.12478690438E+03  0.16464824715E+03 -0.53518792241E+01  0.20666267057E+03  0.00000000000E+00 0. -1.
          5    1    4    4  502    0 -0.24821981437E+02 -0.48352627159E+01  0.31542119623E+03  0.31646821572E+03  0.47000000000E+01 0.  1.
         -5    1    4    4    0  502  0.54499320506E+02 -0.94404527710E+02  0.26580495498E+03  0.28732691290E+03  0.47000000000E+01 0.  1.
<mgrwt>
<rscale>  0 0.10013037E+04</rscale>
<asrwt>0</asrwt>
<pdfrwt beam="1">  1        2 0.18410573E-01 0.10013037E+04</pdfrwt>
<pdfrwt beam="2">  1       -2 0.32223868E+00 0.10013037E+04</pdfrwt>
<totfact> 0.82845302E+00</totfact>
</mgrwt>
</event>
<event>
 9    1  0.4370149E-036  0.1000184E+04  0.7818608E-02  0.8680863E-01
          2   -1    0    0  501    0  0.00000000000E+00  0.00000000000E+00  0.77129114744E+03  0.77129114744E+03  0.00000000000E+00 0. -1.
         -2   -1    0    0    0  501 -0.00000000000E+00 -0.00000000000E+00 -0.32425101778E+03  0.32425101778E+03  0.00000000000E+00 0. -1.
         36    2    1    2    0    0 -0.28421709430E-13 -0.14210854715E-13  0.44704012966E+03  0.10955421652E+04  0.10001838622E+04 0.  0.
         25    2    3    3    0    0 -0.96565277477E+02 -0.96819113180E+02  0.11691963599E+03  0.21893506538E+03  0.12475403033E+03 0.  0.
         35    2    3    3    0    0  0.96565277477E+02  0.96819113180E+02  0.33012049367E+03  0.87660709984E+03  0.80047590449E+03 0.  0.
         22    1    5    5    0    0  0.45094990386E+03  0.68827046895E+02  0.17167585439E+03  0.48740699333E+03  0.00000000000E+00 0. -1.
         22    1    5    5    0    0 -0.35438462638E+03  0.27992066285E+02  0.15844463928E+03  0.38920010651E+03  0.00000000000E+00 0. -1.
          5    1    4    4  502    0 -0.11721333452E+03 -0.41894253601E+02  0.92743083031E+02  0.15529798364E+03  0.47000000000E+01 0. -1.
         -5    1    4    4    0  502  0.20648057042E+02 -0.54924859579E+02  0.24176552959E+02  0.63637081740E+02  0.47000000000E+01 0. -1.
<mgrwt>
<rscale>  0 0.10001839E+04</rscale>
<asrwt>0</asrwt>
<pdfrwt beam="1">  1        2 0.11866018E+00 0.10001839E+04</pdfrwt>
<pdfrwt beam="2">  1       -2 0.49884772E-01 0.10001839E+04</pdfrwt>
<totfact> 0.16637997E+02</totfact>
</mgrwt>
</event>
<event>
 9    1  0.4370149E-036  0.9998545E+03  0.7818608E-02  0.8681177E-01
         -3   -1    0    0    0  501 -0.00000000000E+00  0.00000000000E+00  0.72296733531E+03  0.72296733531E+03  0.00000000000E+00 0. -1.
          3   -1    0    0  501    0  0.00000000000E+00 -0.00000000000E+00 -0.34569644150E+03  0.34569644150E+03  0.00000000000E+00 0. -1.
         36    2    1    2    0    0  0.00000000000E+00 -0.35527136788E-14  0.37727089381E+03  0.10686637768E+04  0.99985445968E+03 0.  0.
         25    2    3    3    0    0 -0.51590357106E+02 -0.25088803411E+02 -0.66115645539E+02  0.15249776614E+03  0.12487304388E+03 0.  0.
         35    2    3    3    0    0  0.51590357106E+02  0.25088803411E+02  0.44338653935E+03  0.91616601068E+03  0.79967338510E+03 0.  0.
         22    1    5    5    0    0 -0.99971865085E+02  0.33126919782E+03 -0.12765088374E+02  0.34626088823E+03  0.00000000000E+00 0.  1.
         22    1    5    5    0    0  0.15156222219E+03 -0.30618039441E+03  0.45615162773E+03  0.56990512245E+03  0.00000000000E+00 0.  1.
          5    1    4    4  502    0  0.81816237938E+01 -0.14757861976E+02  0.32329504083E+02  0.36769828559E+02  0.47000000000E+01 0.  1.
         -5    1    4    4    0  502 -0.59771980900E+02 -0.10330941436E+02 -0.98445149622E+02  0.11572793758E+03  0.47000000000E+01 0.  1.
<mgrwt>
<rscale>  0 0.99985446E+03</rscale>
<asrwt>0</asrwt>
<pdfrwt beam="1">  1        3 0.53184068E-01 0.99985446E+03</pdfrwt>
<pdfrwt beam="2">  1       -3 0.11122574E+00 0.99985446E+03</pdfrwt>
<totfact> 0.85332213E+00</totfact>
</mgrwt>
</event>
<event>
 9    1  0.4370149E-036  0.1000604E+04  0.7818608E-02  0.8680463E-01
         -1   -1    0    0    0  501 -0.00000000000E+00  0.00000000000E+00  0.53651622594E+03  0.53651622594E+03  0.00000000000E+00 0. -1.
          1   -1    0    0  501    0  0.00000000000E+00 -0.00000000000E+00 -0.46653245384E+03  0.46653245384E+03  0.00000000000E+00 0. -1.
         36    2    1    2    0    0 -0.28421709430E-13  0.00000000000E+00  0.69983772097E+02  0.10030486798E+04  0.10006042803E+04 0.  0.
         25    2    3    3    0    0  0.88212808740E+02 -0.50329209167E+02  0.11087278316E+03  0.19585463310E+03  0.12550591356E+03 0.  0.
         35    2    3    3    0    0 -0.88212808740E+02  0.50329209167E+02 -0.40889011065E+02  0.80719404669E+03  0.79973482409E+03 0.  0.
         22    1    5    5    0    0  0.92402275594E+00  0.21606712011E+03  0.32817628067E+03  0.39291923522E+03  0.00000000000E+00 0. -1.
         22    1    5    5    0    0 -0.89136831496E+02 -0.16573791095E+03 -0.36906529173E+03  0.41427481147E+03  0.00000000000E+00 0. -1.
          5    1    4    4  502    0  0.87902650232E+02  0.18890185444E+02  0.77824307191E+02  0.11900599907E+03  0.47000000000E+01 0.  1.
         -5    1    4    4    0  502  0.31015850765E+00 -0.69219394610E+02  0.33048475972E+02  0.76848634032E+02  0.47000000000E+01 0.  1.
<mgrwt>
<rscale>  0 0.10006043E+04</rscale>
<asrwt>0</asrwt>
<pdfrwt beam="1">  1        1 0.71774224E-01 0.10006043E+04</pdfrwt>
<pdfrwt beam="2">  1       -1 0.82540958E-01 0.10006043E+04</pdfrwt>
<totfact> 0.84245498E+01</totfact>
</mgrwt>
</event>
<event>
 9    1  0.4370149E-036  0.1000260E+04  0.7818608E-02  0.8680791E-01
          1   -1    0    0  501    0  0.00000000000E+00  0.00000000000E+00  0.16974823847E+04  0.16974823847E+04  0.00000000000E+00 0.  1.
         -1   -1    0    0    0  501 -0.00000000000E+00 -0.00000000000E+00 -0.14735345588E+03  0.14735345588E+03  0.00000000000E+00 0.  1.
         36    2    1    2    0    0  0.00000000000E+00 -0.14210854715E-13  0.15501289288E+04  0.18448358406E+04  0.10002597576E+04 0.  0.
         25    2    3    3    0    0  0.73833839163E+02  0.68006793221E+02  0.47449703355E+03  0.50080725908E+03  0.12483635760E+03 0.  0.
         35    2    3    3    0    0 -0.73833839163E+02 -0.68006793221E+02  0.10756318953E+04  0.13440285815E+04  0.79959520634E+03 0.  0.
         22    1    5    5    0    0 -0.32418464733E+03  0.24282069578E+03  0.58565506194E+03  0.71207403227E+03  0.00000000000E+00 0.  1.
         22    1    5    5    0    0  0.25035080816E+03 -0.31082748900E+03  0.48997683332E+03  0.63195454920E+03  0.00000000000E+00 0.  1.
          5    1    4    4  502    0  0.43650705004E+02  0.41189718875E+02  0.62381969143E+02  0.86692427942E+02  0.47000000000E+01 0. -1.
         -5    1    4    4    0  502  0.30183134158E+02  0.26817074346E+02  0.41211506440E+03  0.41411483114E+03  0.47000000000E+01 0. -1.
<mgrwt>
<rscale>  0 0.10002598E+04</rscale>
<asrwt>0</asrwt>
<pdfrwt beam="1">  1        1 0.26115112E+00 0.10002598E+04</pdfrwt>
<pdfrwt beam="2">  1       -1 0.22669764E-01 0.10002598E+04</pdfrwt>
<totfact> 0.84359698E+01</totfact>
</mgrwt>
</event>
<event>
 9    1  0.4370149E-036  0.9992458E+03  0.7818608E-02  0.8681757E-01
          2   -1    0    0  501    0  0.00000000000E+00  0.00000000000E+00  0.21055072416E+04  0.21055072416E+04  0.00000000000E+00 0.  1.
         -2   -1    0    0    0  501 -0.00000000000E+00 -0.00000000000E+00 -0.11855718908E+03  0.11855718908E+03  0.00000000000E+00 0.  1.
         36    2    1    2    0    0  0.71054273576E-14  0.14210854715E-13  0.19869500525E+04  0.22240644306E+04  0.99924575584E+03 0.  0.
         25    2    3    3    0    0  0.36174749081E+02  0.10990523804E+03  0.53984408291E+03  0.56605555175E+03  0.12489787826E+03 0.  0.
         35    2    3    3    0    0 -0.36174749081E+02 -0.10990523804E+03  0.14471059696E+04  0.16580088789E+04  0.80093069705E+03 0.  0.
         22    1    5    5    0    0 -0.11591829594E+03  0.32695679434E+03  0.81250230164E+03  0.88345785800E+03  0.00000000000E+00 0. -1.
         22    1    5    5    0    0  0.79743546861E+02 -0.43686203238E+03  0.63460366794E+03  0.77455102089E+03  0.00000000000E+00 0. -1.
          5    1    4    4  502    0 -0.16595574005E+02  0.96367324329E+02  0.45278875408E+03  0.46325135736E+03  0.47000000000E+01 0. -1.
         -5    1    4    4    0  502  0.52770323086E+02  0.13537913706E+02  0.87055328829E+02  0.10280419439E+03  0.47000000000E+01 0. -1.
<mgrwt>
<rscale>  0 0.99924576E+03</rscale>
<asrwt>0</asrwt>
<pdfrwt beam="1">  1        2 0.32392416E+00 0.99924576E+03</pdfrwt>
<pdfrwt beam="2">  1       -2 0.18239569E-01 0.99924576E+03</pdfrwt>
<totfact> 0.17095016E+02</totfact>
</mgrwt>
</event>
<event>
 9    1  0.4370149E-036  0.1000370E+04  0.7818608E-02  0.8680685E-01
         -2   -1    0    0    0  501 -0.00000000000E+00  0.00000000000E+00  0.77992588900E+03  0.77992588900E+03  0.00000000000E+00 0. -1.
          2   -1    0    0  501    0  0.00000000000E+00 -0.00000000000E+00 -0.32078068962E+03  0.32078068962E+03  0.00000000000E+00 0. -1.
         36    2    1    2    0    0 -0.14210854715E-13 -0.28421709430E-13  0.45914519938E+03  0.11007065786E+04  0.10003702605E+04 0.  0.
         25    2    3    3    0    0  0.10738508601E+03 -0.70457497437E+02  0.14631700913E+03  0.23130441141E+03  0.12488894239E+03 0.  0.
         35    2    3    3    0    0 -0.10738508601E+03  0.70457497437E+02  0.31282819025E+03  0.86940216722E+03  0.80093872182E+03 0.  0.
         22    1    5    5    0    0 -0.21646620221E+03 -0.32818513506E+03  0.10569605968E+03  0.40710533847E+03  0.00000000000E+00 0. -1.
         22    1    5    5    0    0  0.10908111620E+03  0.39864263250E+03  0.20713213057E+03  0.46229682875E+03  0.00000000000E+00 0. -1.
          5    1    4    4  502    0  0.11136338991E+03 -0.17221515036E+02  0.55135876871E+02  0.12554059149E+03  0.47000000000E+01 0.  1.
         -5    1    4    4    0  502 -0.39783038947E+01 -0.53235982401E+02  0.91181132260E+02  0.10576381992E+03  0.47000000000E+01 0.  1.
<mgrwt>
<rscale>  0 0.10003703E+04</rscale>
<asrwt>0</asrwt>
<pdfrwt beam="1">  1        2 0.49350876E-01 0.10003703E+04</pdfrwt>
<pdfrwt beam="2">  1       -2 0.11998860E+00 0.10003703E+04</pdfrwt>
<totfact> 0.63093563E+01</totfact>
</mgrwt>
</event>
<event>
 9    1  0.4370149E-036  0.9997365E+03  0.7818608E-02  0.8681289E-01
         -2   -1    0    0    0  501 -0.00000000000E+00  0.00000000000E+00  0.51493577482E+03  0.51493577482E+03  0.00000000000E+00 0.  1.
          2   -1    0    0  501    0  0.00000000000E+00 -0.00000000000E+00 -0.48524159250E+03  0.48524159250E+03  0.00000000000E+00 0.  1.
         36    2    1    2    0    0  0.56843418861E-13  0.00000000000E+00  0.29694182324E+02  0.10001773673E+04  0.99973647610E+03 0.  0.
         25    2    3    3    0    0 -0.12765403763E+03 -0.10736615067E+02 -0.25500379377E+02  0.18076060765E+03  0.12495319004E+03 0.  0.
         35    2    3    3    0    0  0.12765403763E+03  0.10736615067E+02  0.55194561701E+02  0.81941675968E+03  0.80745684601E+03 0.  0.
         22    1    5    5    0    0  0.43969785318E+03  0.40575611419E+02  0.18678847008E+03  0.47944813576E+03  0.00000000000E+00 0.  1.
         22    1    5    5    0    0 -0.31204381555E+03 -0.29838996352E+02 -0.13159390838E+03  0.33996862392E+03  0.00000000000E+00 0.  1.
          5    1    4    4  502    0 -0.12591420920E+03 -0.44357966162E+02 -0.45743316187E+02  0.14119687750E+03  0.47000000000E+01 0. -1.
         -5    1    4    4    0  502 -0.17398284317E+01  0.33621351095E+02  0.20242936811E+02  0.39563730147E+02  0.47000000000E+01 0. -1.
<mgrwt>
<rscale>  0 0.99973648E+03</rscale>
<asrwt>0</asrwt>
<pdfrwt beam="1">  1        2 0.74652552E-01 0.99973648E+03</pdfrwt>
<pdfrwt beam="2">  1       -2 0.79220889E-01 0.99973648E+03</pdfrwt>
<totfact> 0.10860603E+02</totfact>
</mgrwt>
</event>
<event>
 9    1  0.4370149E-036  0.9986091E+03  0.7818608E-02  0.8682364E-01
          1   -1    0    0  501    0  0.00000000000E+00  0.00000000000E+00  0.60413814266E+03  0.60413814266E+03  0.00000000000E+00 0. -1.
         -1   -1    0    0    0  501 -0.00000000000E+00 -0.00000000000E+00 -0.41266232279E+03  0.41266232279E+03  0.00000000000E+00 0. -1.
         36    2    1    2    0    0  0.00000000000E+00  0.10658141036E-13  0.19147581987E+03  0.10168004654E+04  0.99860913121E+03 0.  0.
         25    2    3    3    0    0 -0.87426436290E+02  0.17528653409E+01 -0.72857342756E+02  0.16998776704E+03  0.12625844229E+03 0.  0.
         35    2    3    3    0    0  0.87426436290E+02 -0.17528653409E+01  0.26433316263E+03  0.84681269841E+03  0.79973324991E+03 0.  0.
         22    1    5    5    0    0 -0.71196254836E+01 -0.16317850974E+03 -0.25049928418E+03  0.29904482353E+03  0.00000000000E+00 0.  1.
         22    1    5    5    0    0  0.94546061774E+02  0.16142564439E+03  0.51483244681E+03  0.54776787488E+03  0.00000000000E+00 0.  1.
          5    1    4    4  502    0  0.21234196092E+02  0.27574868865E+02 -0.40515441241E+02  0.53617678573E+02  0.47000000000E+01 0.  1.
         -5    1    4    4    0  502 -0.10866063238E+03 -0.25822003525E+02 -0.32341901516E+02  0.11637008847E+03  0.47000000000E+01 0.  1.
<mgrwt>
<rscale>  0 0.99860913E+03</rscale>
<asrwt>0</asrwt>
<pdfrwt beam="1">  1        1 0.92944329E-01 0.99860913E+03</pdfrwt>
<pdfrwt beam="2">  1       -1 0.63486512E-01 0.99860913E+03</pdfrwt>
<totfact> 0.99241054E+01</totfact>
</mgrwt>
</event>
<event>
 9    1  0.4370149E-036  0.1000165E+04  0.7818608E-02  0.8680881E-01
          1   -1    0    0  501    0  0.00000000000E+00  0.00000000000E+00  0.55087212797E+03  0.55087212797E+03  0.00000000000E+00 0.  1.
         -1   -1    0    0    0  501 -0.00000000000E+00 -0.00000000000E+00 -0.45397557367E+03  0.45397557367E+03  0.00000000000E+00 0.  1.
         36    2    1    2    0    0  0.00000000000E+00  0.14210854715E-13  0.96896554296E+02  0.10048477016E+04  0.10001649670E+04 0.  0.
         25    2    3    3    0    0 -0.98486130072E+02  0.89877947611E+02 -0.24271351181E+02  0.18456737597E+03  0.12529347349E+03 0.  0.
         35    2    3    3    0    0  0.98486130072E+02 -0.89877947611E+02  0.12116790548E+03  0.82028032567E+03  0.80025032839E+03 0.  0.
         22    1    5    5    0    0  0.12140074613E+03 -0.35527393055E+02 -0.33615653399E+03  0.35916786071E+03  0.00000000000E+00 0.  1.
         22    1    5    5    0    0 -0.22914616060E+02 -0.54350554557E+02  0.45732443947E+03  0.46111246496E+03  0.00000000000E+00 0.  1.
          5    1    4    4  502    0 -0.64001488660E+02 -0.10586328908E+02  0.21933206337E+02  0.68639758527E+02  0.47000000000E+01 0.  1.
         -5    1    4    4    0  502 -0.34484641412E+02  0.10046427652E+03 -0.46204557518E+02  0.11592761744E+03  0.47000000000E+01 0.  1.
<mgrwt>
<rscale>  0 0.10001650E+04</rscale>
<asrwt>0</asrwt>
<pdfrwt beam="1">  1        1 0.84749558E-01 0.10001650E+04</pdfrwt>
<pdfrwt beam="2">  1       -1 0.69842396E-01 0.10001650E+04</pdfrwt>
<totfact> 0.94022386E+01</totfact>
</mgrwt>
</event>
<event>
 9    1  0.4370149E-036  0.1001215E+04  0.7818608E-02  0.8679882E-01
          2   -1    0    0  501    0  0.00000000000E+00  0.00000000000E+00  0.13516485149E+04  0.13516485149E+04  0.00000000000E+00 0.  1.
         -2   -1    0    0    0  501 -0.00000000000E+00 -0.00000000000E+00 -0.18540912275E+03  0.18540912275E+03  0.00000000000E+00 0.  1.
         36    2    1    2    0    0  0.28421709430E-13  0.71054273576E-14  0.11662393921E+04  0.15370576376E+04  0.10012151925E+04 0.  0.
         25    2    3    3    0    0  0.13968077955E+03  0.18654960585E+02  0.19076332308E+03  0.26817361378E+03  0.12517073925E+03 0.  0.
         35    2    3    3    0    0 -0.13968077955E+03 -0.18654960585E+02  0.97547606907E+03  0.12688840239E+04  0.79915854308E+03 0.  0.
         22    1    5    5    0    0  0.20524462559E+03  0.67617302373E+02 -0.14910112564E+02  0.21660971209E+03  0.00000000000E+00 0.  1.
         22    1    5    5    0    0 -0.34492540514E+03 -0.86272262959E+02  0.99038618163E+03  0.10522743118E+04  0.00000000000E+00 0.  1.
          5    1    4    4  502    0  0.26498191272E+02 -0.48532724772E+02  0.71364885751E+02  0.90402524482E+02  0.47000000000E+01 0.  1.
         -5    1    4    4    0  502  0.11318258828E+03  0.67187685358E+02  0.11939843733E+03  0.17777108929E+03  0.47000000000E+01 0.  1.
<mgrwt>
<rscale>  0 0.10012152E+04</rscale>
<asrwt>0</asrwt>
<pdfrwt beam="1">  1        2 0.20794592E+00 0.10012152E+04</pdfrwt>
<pdfrwt beam="2">  1       -2 0.28524481E-01 0.10012152E+04</pdfrwt>
<totfact> 0.20850459E+02</totfact>
</mgrwt>
</event>
<event>
 9    1  0.4370149E-036  0.1000333E+04  0.7818608E-02  0.8680721E-01
         -2   -1    0    0    0  501 -0.00000000000E+00  0.00000000000E+00  0.31042066397E+03  0.31042066397E+03  0.00000000000E+00 0. -1.
          2   -1    0    0  501    0  0.00000000000E+00 -0.00000000000E+00 -0.80589464517E+03  0.80589464517E+03  0.00000000000E+00 0. -1.
         36    2    1    2    0    0  0.14210854715E-13 -0.14210854715E-13 -0.49547398120E+03  0.11163153091E+04  0.10003326464E+04 0.  0.
         25    2    3    3    0    0  0.10865786766E+03  0.88854942316E+02 -0.82387631766E+02  0.20505342103E+03  0.12472950987E+03 0.  0.
         35    2    3    3    0    0 -0.10865786766E+03 -0.88854942316E+02 -0.41308634944E+03  0.91126188811E+03  0.80003510151E+03 0.  0.
         22    1    5    5    0    0  0.26851717494E+03 -0.16970443909E+03  0.35504528192E+02  0.31962734772E+03  0.00000000000E+00 0.  1.
         22    1    5    5    0    0 -0.37717504260E+03  0.80849496776E+02 -0.44859087763E+03  0.59163454039E+03  0.00000000000E+00 0.  1.
          5    1    4    4  502    0  0.90963648165E+02  0.11923116071E+03 -0.53445496393E+02  0.15927638261E+03  0.47000000000E+01 0.  1.
         -5    1    4    4    0  502  0.17694219490E+02 -0.30376218392E+02 -0.28942135372E+02  0.45777038426E+02  0.47000000000E+01 0.  1.
<mgrwt>
<rscale>  0 0.10003326E+04</rscale>
<asrwt>0</asrwt>
<pdfrwt beam="1">  1        2 0.12398379E+00 0.10003326E+04</pdfrwt>
<pdfrwt beam="2">  1       -2 0.47757026E-01 0.10003326E+04</pdfrwt>
<totfact> 0.17151898E+02</totfact>
</mgrwt>
</event>
<event>
 9    1  0.4370149E-036  0.1000373E+04  0.7818608E-02  0.8680683E-01
          1   -1    0    0  501    0  0.00000000000E+00  0.00000000000E+00  0.11481184301E+04  0.11481184301E+04  0.00000000000E+00 0. -1.
         -1   -1    0    0    0  501 -0.00000000000E+00 -0.00000000000E+00 -0.21790999920E+03  0.21790999920E+03  0.00000000000E+00 0. -1.
         36    2    1    2    0    0  0.00000000000E+00  0.00000000000E+00  0.93020843092E+03  0.13660284293E+04  0.10003729028E+04 0.  0.
         25    2    3    3    0    0 -0.69578328799E+02  0.48547060115E+02  0.32987165318E+03  0.36252197652E+03  0.12413265085E+03 0.  0.
         35    2    3    3    0    0  0.69578328799E+02 -0.48547060115E+02  0.60033677774E+03  0.10035064528E+04  0.79963928943E+03 0.  0.
         22    1    5    5    0    0 -0.25156750447E+03 -0.11178124500E+03 -0.45921049626E+02  0.27908779773E+03  0.00000000000E+00 0. -1.
         22    1    5    5    0    0  0.32114583327E+03  0.63234184888E+02  0.64625782737E+03  0.72441865506E+03  0.00000000000E+00 0. -1.
          5    1    4    4  502    0 -0.15454916367E+02  0.83909440749E+02  0.18157532006E+03  0.20067719238E+03  0.47000000000E+01 0.  1.
         -5    1    4    4    0  502 -0.54123412432E+02 -0.35362380634E+02  0.14829633311E+03  0.16184478414E+03  0.47000000000E+01 0.  1.
<mgrwt>
<rscale>  0 0.10003729E+04</rscale>
<asrwt>0</asrwt>
<pdfrwt beam="1">  1        1 0.17663360E+00 0.10003729E+04</pdfrwt>
<pdfrwt beam="2">  1       -1 0.33524616E-01 0.10003729E+04</pdfrwt>
<totfact> 0.10824819E+02</totfact>
</mgrwt>
</event>
<event>
 9    1  0.4370149E-036  0.1000081E+04  0.7818608E-02  0.8680961E-01
          2   -1    0    0  501    0  0.00000000000E+00  0.00000000000E+00  0.22271004631E+04  0.22271004631E+04  0.00000000000E+00 0.  1.
         -2   -1    0    0    0  501 -0.00000000000E+00 -0.00000000000E+00 -0.11227179877E+03  0.11227179877E+03  0.00000000000E+00 0.  1.
         36    2    1    2    0    0  0.21316282073E-13  0.00000000000E+00  0.21148286643E+04  0.23393722619E+04  0.10000811468E+04 0.  0.
         25    2    3    3    0    0  0.60521801206E+02 -0.89204700697E+01  0.69420366535E+03  0.70797095030E+03  0.12474643993E+03 0.  0.
         35    2    3    3    0    0 -0.60521801206E+02  0.89204700697E+01  0.14206249990E+04  0.16314013116E+04  0.79972019387E+03 0.  0.
         22    1    5    5    0    0 -0.15726884947E+03  0.41264962675E+02  0.14958456529E+04  0.15046562749E+04  0.00000000000E+00 0.  1.
         22    1    5    5    0    0  0.96747048261E+02 -0.32344492605E+02 -0.75220653943E+02  0.12674503670E+03  0.00000000000E+00 0.  1.
          5    1    4    4  502    0  0.18007541938E+02  0.56647274339E+02  0.34340779435E+03  0.34854581977E+03  0.47000000000E+01 0. -1.
         -5    1    4    4    0  502  0.42514259268E+02 -0.65567744409E+02  0.35079587100E+03  0.35942513053E+03  0.47000000000E+01 0. -1.
<mgrwt>
<rscale>  0 0.10000811E+04</rscale>
<asrwt>0</asrwt>
<pdfrwt beam="1">  1        2 0.34263081E+00 0.10000811E+04</pdfrwt>
<pdfrwt beam="2">  1       -2 0.17272586E-01 0.10000811E+04</pdfrwt>
<totfact> 0.15952231E+02</totfact>
</mgrwt>
</event>
<event>
 9    1  0.4370149E-036  0.1000120E+04  0.7818608E-02  0.8680924E-01
         -2   -1    0    0    0  501 -0.00000000000E+00  0.00000000000E+00  0.22863128740E+03  0.22863128740E+03  0.00000000000E+00 0.  1.
          2   -1    0    0  501    0  0.00000000000E+00 -0.00000000000E+00 -0.10937255448E+04  0.10937255448E+04  0.00000000000E+00 0.  1.
         36    2    1    2    0    0  0.00000000000E+00  0.00000000000E+00 -0.86509425736E+03  0.13223568322E+04  0.10001197516E+04 0.  0.
         25    2    3    3    0    0  0.47482207760E+02  0.13198128049E+03 -0.14721537725E+03  0.23781089805E+03  0.12332087204E+03 0.  0.
         35    2    3    3    0    0 -0.47482207760E+02 -0.13198128049E+03 -0.71787888012E+03  0.10845459341E+04  0.80075975063E+03 0.  0.
         22    1    5    5    0    0 -0.99519267645E+01 -0.38007257499E+03 -0.65795521107E+02  0.38585392794E+03  0.00000000000E+00 0. -1.
         22    1    5    5    0    0 -0.37530280996E+02  0.24809129450E+03 -0.65208335901E+03  0.69869200618E+03  0.00000000000E+00 0. -1.
          5    1    4    4  502    0  0.25023075417E+02  0.92436507203E+02 -0.16328150939E+03  0.18935047789E+03  0.47000000000E+01 0.  1.
         -5    1    4    4    0  502  0.22459132343E+02  0.39544773291E+02  0.16066132147E+02  0.48460420163E+02  0.47000000000E+01 0.  1.
<mgrwt>
<rscale>  0 0.10001198E+04</rscale>
<asrwt>0</asrwt>
<pdfrwt beam="1">  1        2 0.16826547E+00 0.10001198E+04</pdfrwt>
<pdfrwt beam="2">  1       -2 0.35174044E-01 0.10001198E+04</pdfrwt>
<totfact> 0.20131802E+02</totfact>
</mgrwt>
</event>
<event>
 9    1  0.4370149E-036  0.1000706E+04  0.7818608E-02  0.8680366E-01
         -1   -1    0    0    0  501 -0.00000000000E+00  0.00000000000E+00  0.16843101049E+03  0.16843101049E+03  0.00000000000E+00 0. -1.
          1   -1    0    0  501    0  0.00000000000E+00 -0.00000000000E+00 -0.14863840978E+04  0.14863840978E+04  0.00000000000E+00 0. -1.
         36    2    1    2    0    0  0.28421709430E-13  0.00000000000E+00 -0.13179530873E+04  0.16548151083E+04  0.10007061019E+04 0.  0.
         25    2    3    3    0    0 -0.12710433383E+03  0.56419853921E+02 -0.21042725328E+03  0.28126846417E+03  0.12447332413E+03 0.  0.
         35    2    3    3    0    0  0.12710433383E+03 -0.56419853921E+02 -0.11075258340E+04  0.13735466441E+04  0.80042376210E+03 0.  0.
         22    1    5    5    0    0  0.42116815001E+03 -0.97402730211E+02 -0.33802792095E+03  0.54875566310E+03  0.00000000000E+00 0.  1.
         22    1    5    5    0    0 -0.29406381619E+03  0.40982876290E+02 -0.76949791310E+03  0.82479098104E+03  0.00000000000E+00 0.  1.
          5    1    4    4  502    0 -0.14921163296E+03  0.32537560395E+02 -0.16153249928E+03  0.22234577255E+03  0.47000000000E+01 0.  1.
         -5    1    4    4    0  502  0.22107299135E+02  0.23882293526E+02 -0.48894753996E+02  0.58922691618E+02  0.47000000000E+01 0.  1.
<mgrwt>
<rscale>  0 0.10007061E+04</rscale>
<asrwt>0</asrwt>
<pdfrwt beam="1">  1        1 0.22867447E+00 0.10007061E+04</pdfrwt>
<pdfrwt beam="2">  1       -1 0.25912464E-01 0.10007061E+04</pdfrwt>
<totfact> 0.95142784E+01</totfact>
</mgrwt>
</event>
<event>
 9    1  0.4370149E-036  0.1003180E+04  0.7818608E-02  0.8678015E-01
          4   -1    0    0  501    0  0.00000000000E+00  0.00000000000E+00  0.27831485573E+04  0.27831485573E+04  0.00000000000E+00 0. -1.
         -4   -1    0    0    0  501 -0.00000000000E+00 -0.00000000000E+00 -0.90398564763E+02  0.90398564763E+02  0.00000000000E+00 0. -1.
         36    2    1    2    0    0  0.00000000000E+00  0.00000000000E+00  0.26927499926E+04  0.28735471221E+04  0.10031802133E+04 0.  0.
         25    2    3    3    0    0 -0.12194646898E+03  0.54593924950E+02  0.65026686785E+03  0.67579057858E+03  0.12646924031E+03 0.  0.
         35    2    3    3    0    0  0.12194646898E+03 -0.54593924950E+02  0.20424831247E+04  0.21977565435E+04  0.80034059740E+03 0.  0.
         22    1    5    5    0    0 -0.26167843034E+03 -0.50268209311E+02  0.15537333621E+04  0.15764167768E+04  0.00000000000E+00 0.  1.
         22    1    5    5    0    0  0.38362489932E+03 -0.43257156391E+01  0.48874976262E+03  0.62133976668E+03  0.00000000000E+00 0.  1.
          5    1    4    4  502    0 -0.54529352445E+02  0.86782499471E+02  0.28430632683E+03  0.30225292384E+03  0.47000000000E+01 0.  1.
         -5    1    4    4    0  502 -0.67417116536E+02 -0.32188574521E+02  0.36596054102E+03  0.37353765475E+03  0.47000000000E+01 0.  1.
<mgrwt>
<rscale>  0 0.10031802E+04</rscale>
<asrwt>0</asrwt>
<pdfrwt beam="1">  1        4 0.42817664E+00 0.10031802E+04</pdfrwt>
<pdfrwt beam="2">  1       -4 0.13907474E-01 0.10031802E+04</pdfrwt>
<totfact> 0.33215449E-01</totfact>
</mgrwt>
</event>
<event>
 9    1  0.4370149E-036  0.1000041E+04  0.7818608E-02  0.8680999E-01
         -1   -1    0    0    0  501 -0.00000000000E+00  0.00000000000E+00  0.38388773741E+03  0.38388773741E+03  0.00000000000E+00 0.  1.
          1   -1    0    0  501    0  0.00000000000E+00 -0.00000000000E+00 -0.65128492022E+03  0.65128492022E+03  0.00000000000E+00 0.  1.
         36    2    1    2    0    0 -0.71054273576E-14  0.28421709430E-13 -0.26739718281E+03  0.10351726576E+04  0.10000405880E+04 0.  0.
         25    2    3    3    0    0 -0.22641754990E+02 -0.94767119767E+02 -0.14701936533E+03  0.21695713449E+03  0.12634179184E+03 0.  0.
         35    2    3    3    0    0  0.22641754990E+02  0.94767119767E+02 -0.12037781748E+03  0.81821552314E+03  0.80342539623E+03 0.  0.
         22    1    5    5    0    0 -0.33480619252E+03 -0.10698318600E+03 -0.19361051567E+03  0.40127997759E+03  0.00000000000E+00 0.  1.
         22    1    5    5    0    0  0.35744794751E+03  0.20175030577E+03  0.73232698187E+02  0.41693554555E+03  0.00000000000E+00 0.  1.
          5    1    4    4  502    0  0.50905077762E+02 -0.37481968716E+02 -0.79882701228E+02  0.10197823727E+03  0.47000000000E+01 0. -1.
         -5    1    4    4    0  502 -0.73546832752E+02 -0.57285151051E+02 -0.67136664101E+02  0.11497889722E+03  0.47000000000E+01 0. -1.
<mgrwt>
<rscale>  0 0.10000406E+04</rscale>
<asrwt>0</asrwt>
<pdfrwt beam="1">  1        1 0.10019768E+00 0.10000406E+04</pdfrwt>
<pdfrwt beam="2">  1       -1 0.59059652E-01 0.10000406E+04</pdfrwt>
<totfact> 0.10203430E+02</totfact>
</mgrwt>
</event>
<event>
 9    1  0.4370149E-036  0.1000756E+04  0.7818608E-02  0.8680319E-01
          3   -1    0    0  501    0  0.00000000000E+00  0.00000000000E+00  0.85591126029E+03  0.85591126029E+03  0.00000000000E+00 0. -1.
         -3   -1    0    0    0  501 -0.00000000000E+00 -0.00000000000E+00 -0.29252796284E+03  0.29252796284E+03  0.00000000000E+00 0. -1.
         36    2    1    2    0    0  0.71054273576E-14  0.10658141036E-13  0.56338329745E+03  0.11484392231E+04  0.10007556692E+04 0.  0.
         25    2    3    3    0    0 -0.54468070619E+02 -0.31823820715E+02 -0.38766228614E+02  0.14513266866E+03  0.12482445573E+03 0.  0.
         35    2    3    3    0    0  0.54468070619E+02  0.31823820715E+02  0.60214952606E+03  0.10033065545E+04  0.80003778926E+03 0.  0.
         22    1    5    5    0    0  0.63959147449E+02  0.25949224168E+03 -0.84129479139E+02  0.28018701842E+03  0.00000000000E+00 0.  1.
         22    1    5    5    0    0 -0.94910768294E+01 -0.22766842096E+03  0.68627900520E+03  0.72311953605E+03  0.00000000000E+00 0.  1.
          5    1    4    4  502    0  0.14553799954E+02 -0.60299817507E+02 -0.32155322613E+02  0.70028107620E+02  0.47000000000E+01 0.  1.
         -5    1    4    4    0  502 -0.69021870573E+02  0.28475996792E+02 -0.66109060009E+01  0.75104561039E+02  0.47000000000E+01 0.  1.
<mgrwt>
<rscale>  0 0.10007557E+04</rscale>
<asrwt>0</asrwt>
<pdfrwt beam="1">  1        3 0.13167865E+00 0.10007557E+04</pdfrwt>
<pdfrwt beam="2">  1       -3 0.45004302E-01 0.10007557E+04</pdfrwt>
<totfact> 0.92747825E+00</totfact>
</mgrwt>
</event>
<event>
 9    1  0.4370149E-036  0.1001504E+04  0.7818608E-02  0.8679607E-01
         -2   -1    0    0    0  501 -0.00000000000E+00  0.00000000000E+00  0.13309813299E+04  0.13309813299E+04  0.00000000000E+00 0. -1.
          2   -1    0    0  501    0  0.00000000000E+00 -0.00000000000E+00 -0.18839678843E+03  0.18839678843E+03  0.00000000000E+00 0. -1.
         36    2    1    2    0    0  0.00000000000E+00  0.00000000000E+00  0.11425845415E+04  0.15193781183E+04  0.10015040849E+04 0.  0.
         25    2    3    3    0    0 -0.55470306970E+02 -0.72770898351E+02  0.51198166387E+02  0.16338417779E+03  0.12530195014E+03 0.  0.
         35    2    3    3    0    0  0.55470306970E+02  0.72770898351E+02  0.10913863751E+04  0.13559939405E+04  0.79951409522E+03 0.  0.
         22    1    5    5    0    0  0.20536016770E+03  0.29589480839E+03  0.10143180545E+04  0.10763678051E+04  0.00000000000E+00 0.  1.
         22    1    5    5    0    0 -0.14988986073E+03 -0.22312391004E+03  0.77068320543E+02  0.27962613543E+03  0.00000000000E+00 0.  1.
          5    1    4    4  502    0  0.23065683509E+02 -0.72604637252E+02  0.21582030925E+02  0.79317924614E+02  0.47000000000E+01 0. -1.
         -5    1    4    4    0  502 -0.78535990478E+02 -0.16626109907E+00  0.29616135462E+02  0.84066253175E+02  0.47000000000E+01 0. -1.
<mgrwt>
<rscale>  0 0.10015041E+04</rscale>
<asrwt>0</asrwt>
<pdfrwt beam="1">  1        2 0.28984122E-01 0.10015041E+04</pdfrwt>
<pdfrwt beam="2">  1       -2 0.20476635E+00 0.10015041E+04</pdfrwt>
<totfact> 0.24899406E+01</totfact>
</mgrwt>
</event>
<event>
 9    1  0.4370149E-036  0.1000035E+04  0.7818608E-02  0.8681004E-01
         -1   -1    0    0    0  501 -0.00000000000E+00  0.00000000000E+00  0.98120616757E+03  0.98120616757E+03  0.00000000000E+00 0. -1.
          1   -1    0    0  501    0  0.00000000000E+00 -0.00000000000E+00 -0.25480641380E+03  0.25480641380E+03  0.00000000000E+00 0. -1.
         36    2    1    2    0    0 -0.28421709430E-13  0.00000000000E+00  0.72639975377E+03  0.12360125814E+04  0.10000352489E+04 0.  0.
         25    2    3    3    0    0 -0.13129230535E+03 -0.11230486341E+02  0.20015705022E+03  0.27024761591E+03  0.12492852310E+03 0.  0.
         35    2    3    3    0    0  0.13129230535E+03  0.11230486341E+02  0.52624270356E+03  0.96576496546E+03  0.79900362465E+03 0.  0.
         22    1    5    5    0    0  0.32137944184E+03 -0.37362122336E+02 -0.76015790848E+02  0.33235383897E+03  0.00000000000E+00 0. -1.
         22    1    5    5    0    0 -0.19008713649E+03  0.48592608677E+02  0.60225849441E+03  0.63341112649E+03  0.00000000000E+00 0. -1.
          5    1    4    4  502    0 -0.14928149675E+03  0.61849897646E+00  0.19811326344E+03  0.24810542711E+03  0.47000000000E+01 0. -1.
         -5    1    4    4    0  502  0.17989191398E+02 -0.11848985317E+02  0.20437867795E+01  0.22142188794E+02  0.47000000000E+01 0. -1.
<mgrwt>
<rscale>  0 0.10000352E+04</rscale>
<asrwt>0</asrwt>
<pdfrwt beam="1">  1        1 0.39200987E-01 0.10000352E+04</pdfrwt>
<pdfrwt beam="2">  1       -1 0.15095479E+00 0.10000352E+04</pdfrwt>
<totfact> 0.43647456E+01</totfact>
</mgrwt>
</event>
<event>
 9    1  0.4370149E-036  0.1005805E+04  0.7818608E-02  0.8675530E-01
         -1   -1    0    0    0  501 -0.00000000000E+00  0.00000000000E+00  0.35113823644E+03  0.35113823644E+03  0.00000000000E+00 0. -1.
          1   -1    0    0  501    0  0.00000000000E+00 -0.00000000000E+00 -0.72025976546E+03  0.72025976546E+03  0.00000000000E+00 0. -1.
         36    2    1    2    0    0  0.71054273576E-14  0.00000000000E+00 -0.36912152902E+03  0.10713980019E+04  0.10058046407E+04 0.  0.
         25    2    3    3    0    0 -0.48144127505E+02  0.13767672675E+03 -0.46304611185E+02  0.19780634286E+03  0.12534151012E+03 0.  0.
         35    2    3    3    0    0  0.48144127505E+02 -0.13767672675E+03 -0.32281691783E+03  0.87359165903E+03  0.79854798615E+03 0.  0.
         22    1    5    5    0    0 -0.22016562579E+03 -0.18411635439E+03  0.15309646349E+03  0.32528489339E+03  0.00000000000E+00 0. -1.
         22    1    5    5    0    0  0.26830975329E+03  0.46439627643E+02 -0.47591338133E+03  0.54830676565E+03  0.00000000000E+00 0. -1.
          5    1    4    4  502    0  0.39038849094E+02  0.75487612779E+02 -0.20034116747E+02  0.87440649904E+02  0.47000000000E+01 0.  1.
         -5    1    4    4    0  502 -0.87182976599E+02  0.62189113968E+02 -0.26270494438E+02  0.11036569296E+03  0.47000000000E+01 0.  1.
<mgrwt>
<rscale>  0 0.10058046E+04</rscale>
<asrwt>0</asrwt>
<pdfrwt beam="1">  1        1 0.11080919E+00 0.10058046E+04</pdfrwt>
<pdfrwt beam="2">  1       -1 0.54021267E-01 0.10058046E+04</pdfrwt>
<totfact> 0.10357464E+02</totfact>
</mgrwt>
</event>
<event>
 9    1  0.4370149E-036  0.9985426E+03  0.7818608E-02  0.8682427E-01
         -2   -1    0    0    0  501 -0.00000000000E+00  0.00000000000E+00  0.32008081891E+03  0.32008081891E+03  0.00000000000E+00 0.  1.
          2   -1    0    0  501    0  0.00000000000E+00 -0.00000000000E+00 -0.77877770950E+03  0.77877770950E+03  0.00000000000E+00 0.  1.
         36    2    1    2    0    0  0.00000000000E+00  0.00000000000E+00 -0.45869689060E+03  0.10988585284E+04  0.99854255193E+03 0.  0.
         25    2    3    3    0    0 -0.19503100120E+02 -0.79354581155E+02 -0.20899771046E+03  0.25702861729E+03  0.12532416633E+03 0.  0.
         35    2    3    3    0    0  0.19503100120E+02  0.79354581155E+02 -0.24969918014E+03  0.84182991111E+03  0.79978146904E+03 0.  0.
         22    1    5    5    0    0 -0.10251227093E+03  0.24324070929E+03 -0.47144135632E+03  0.54030709860E+03  0.00000000000E+00 0. -1.
         22    1    5    5    0    0  0.12201537105E+03 -0.16388612814E+03  0.22174217618E+03  0.30152281251E+03  0.00000000000E+00 0. -1.
          5    1    4    4  502    0 -0.69877373589E+02 -0.27748424226E+02 -0.85616531506E+02  0.11403991781E+03  0.47000000000E+01 0. -1.
         -5    1    4    4    0  502  0.50374273470E+02 -0.51606156929E+02 -0.12338117895E+03  0.14298869948E+03  0.47000000000E+01 0. -1.
<mgrwt>
<rscale>  0 0.99854255E+03</rscale>
<asrwt>0</asrwt>
<pdfrwt beam="1">  1        2 0.11981196E+00 0.99854255E+03</pdfrwt>
<pdfrwt beam="2">  1       -2 0.49243203E-01 0.99854255E+03</pdfrwt>
<totfact> 0.16865338E+02</totfact>
</mgrwt>
</event>
<event>
 9    1  0.4370149E-036  0.1002113E+04  0.7818608E-02  0.8679028E-01
          2   -1    0    0  501    0  0.00000000000E+00  0.00000000000E+00  0.10271772767E+04  0.10271772767E+04  0.00000000000E+00 0. -1.
         -2   -1    0    0    0  501 -0.00000000000E+00 -0.00000000000E+00 -0.24441527517E+03  0.24441527517E+03  0.00000000000E+00 0. -1.
         36    2    1    2    0    0 -0.71054273576E-14  0.71054273576E-14  0.78276200153E+03  0.12715925519E+04  0.10021134002E+04 0.  0.
         25    2    3    3    0    0  0.27526268227E+01  0.47897740990E+02 -0.22035849235E+02  0.13606055104E+03  0.12539985786E+03 0.  0.
         35    2    3    3    0    0 -0.27526268227E+01 -0.47897740990E+02  0.80479785076E+03  0.11355320008E+04  0.79964465468E+03 0.  0.
         22    1    5    5    0    0 -0.27389508905E+03 -0.15679114913E+03  0.41618396425E+02  0.31833013551E+03  0.00000000000E+00 0. -1.
         22    1    5    5    0    0  0.27114246223E+03  0.10889340814E+03  0.76317945434E+03  0.81720186532E+03  0.00000000000E+00 0. -1.
          5    1    4    4  502    0  0.32347873767E+02  0.49190979746E+02  0.37104255463E+02  0.69749216476E+02  0.47000000000E+01 0.  1.
         -5    1    4    4    0  502 -0.29595246944E+02 -0.12932387560E+01 -0.59140104698E+02  0.66311334565E+02  0.47000000000E+01 0.  1.
<mgrwt>
<rscale>  0 0.10021134E+04</rscale>
<asrwt>0</asrwt>
<pdfrwt beam="1">  1        2 0.15802727E+00 0.10021134E+04</pdfrwt>
<pdfrwt beam="2">  1       -2 0.37602350E-01 0.10021134E+04</pdfrwt>
<totfact> 0.19511584E+02</totfact>
</mgrwt>
</event>
<event>
 9    1  0.4370149E-036  0.9990164E+03  0.7818608E-02  0.8681975E-01
          2   -1    0    0  501    0  0.00000000000E+00  0.00000000000E+00  0.25374865123E+04  0.25374865123E+04  0.00000000000E+00 0.  1.
         -2   -1    0    0    0  501 -0.00000000000E+00 -0.00000000000E+00 -0.98328980093E+02  0.98328980093E+02  0.00000000000E+00 0.  1.
         36    2    1    2    0    0 -0.28421709430E-13  0.21316282073E-13  0.24391575323E+04  0.26358154924E+04  0.99901643782E+03 0.  0.
         25    2    3    3    0    0 -0.12402838738E+03 -0.59340865814E+02  0.51927845937E+03  0.55146604516E+03  0.12474093702E+03 0.  0.
         35    2    3    3    0    0  0.12402838738E+03  0.59340865814E+02  0.19198790729E+04  0.20843494473E+04  0.79979533922E+03 0.  0.
         22    1    5    5    0    0  0.40245796937E+03 -0.59253407194E+02  0.56577613269E+03  0.69684002159E+03  0.00000000000E+00 0.  1.
         22    1    5    5    0    0 -0.27842958199E+03  0.11859427301E+03  0.13541029402E+04  0.13875094257E+04  0.00000000000E+00 0.  1.
          5    1    4    4  502    0  0.23018913136E+02 -0.15791821790E+02  0.46760975946E+02  0.54661969127E+02  0.47000000000E+01 0.  1.
         -5    1    4    4    0  502 -0.14704730052E+03 -0.43549044024E+02  0.47251748342E+03  0.49680407603E+03  0.47000000000E+01 0.  1.
<mgrwt>
<rscale>  0 0.99901644E+03</rscale>
<asrwt>0</asrwt>
<pdfrwt beam="1">  1        2 0.39038249E+00 0.99901644E+03</pdfrwt>
<pdfrwt beam="2">  1       -2 0.15127537E-01 0.99901644E+03</pdfrwt>
<totfact> 0.13024697E+02</totfact>
</mgrwt>
</event>
<event>
 9    1  0.4370149E-036  0.1000286E+04  0.7818608E-02  0.8680765E-01
         -2   -1    0    0    0  501 -0.00000000000E+00  0.00000000000E+00  0.31878617068E+03  0.31878617068E+03  0.00000000000E+00 0.  1.
          2   -1    0    0  501    0  0.00000000000E+00 -0.00000000000E+00 -0.78467412085E+03  0.78467412085E+03  0.00000000000E+00 0.  1.
         36    2    1    2    0    0  0.00000000000E+00 -0.14210854715E-13 -0.46588795017E+03  0.11034602915E+04  0.10002864754E+04 0.  0.
         25    2    3    3    0    0  0.13517371599E+02 -0.54317879475E+02  0.54209844408E+02  0.14722552926E+03  0.12491396187E+03 0.  0.
         35    2    3    3    0    0 -0.13517371599E+02  0.54317879475E+02 -0.52009779457E+03  0.95623476227E+03  0.80046864603E+03 0.  0.
         22    1    5    5    0    0  0.26266391152E+03 -0.13823153212E+03 -0.54294793067E+03  0.61878327572E+03  0.00000000000E+00 0. -1.
         22    1    5    5    0    0 -0.27618128312E+03  0.19254941160E+03  0.22850136099E+02  0.33745148655E+03  0.00000000000E+00 0. -1.
          5    1    4    4  502    0  0.58766974095E+02 -0.47928866581E+01 -0.25809996268E+01  0.59205409937E+02  0.47000000000E+01 0. -1.
         -5    1    4    4    0  502 -0.45249602495E+02 -0.49524992817E+02  0.56790844035E+02  0.88020119323E+02  0.47000000000E+01 0. -1.
<mgrwt>
<rscale>  0 0.10002865E+04</rscale>
<asrwt>0</asrwt>
<pdfrwt beam="1">  1        2 0.12071909E+00 0.10002865E+04</pdfrwt>
<pdfrwt beam="2">  1       -2 0.49044027E-01 0.10002865E+04</pdfrwt>
<totfact> 0.16838169E+02</totfact>
</mgrwt>
</event>
<event>
 9    1  0.4370149E-036  0.9996330E+03  0.7818608E-02  0.8681388E-01
          2   -1    0    0  501    0  0.00000000000E+00  0.00000000000E+00  0.32265478075E+03  0.32265478075E+03  0.00000000000E+00 0. -1.
         -2   -1    0    0    0  501 -0.00000000000E+00 -0.00000000000E+00 -0.77425334526E+03  0.77425334526E+03  0.00000000000E+00 0. -1.
         36    2    1    2    0    0 -0.14210854715E-13 -0.14210854715E-13 -0.45159856451E+03  0.10969081260E+04  0.99963301939E+03 0.  0.
         25    2    3    3    0    0 -0.11606683585E+03  0.76084630358E+02 -0.64648611576E+02  0.19712062431E+03  0.12416406963E+03 0.  0.
         35    2    3    3    0    0  0.11606683585E+03 -0.76084630358E+02 -0.38694995293E+03  0.89978750170E+03  0.80039171709E+03 0.  0.
         22    1    5    5    0    0 -0.38822288029E+02  0.26942241430E+03 -0.44006004034E+03  0.51744414818E+03  0.00000000000E+00 0.  1.
         22    1    5    5    0    0  0.15488912388E+03 -0.34550704466E+03  0.53110087413E+02  0.38234335353E+03  0.00000000000E+00 0.  1.
          5    1    4    4  502    0 -0.30585419367E+02  0.38409565353E+02  0.34978150987E+02  0.60467541995E+02  0.47000000000E+01 0.  1.
         -5    1    4    4    0  502 -0.85481416483E+02  0.37675065004E+02 -0.99626762563E+02  0.13665308231E+03  0.47000000000E+01 0.  1.
<mgrwt>
<rscale>  0 0.99963302E+03</rscale>
<asrwt>0</asrwt>
<pdfrwt beam="1">  1        2 0.49639197E-01 0.99963302E+03</pdfrwt>
<pdfrwt beam="2">  1       -2 0.11911590E+00 0.99963302E+03</pdfrwt>
<totfact> 0.63891264E+01</totfact>
</mgrwt>
</event>
<event>
 9    1  0.4370149E-036  0.9995231E+03  0.7818608E-02  0.8681492E-01
         -2   -1    0    0    0  501 -0.00000000000E+00  0.00000000000E+00  0.14306330052E+03  0.14306330052E+03  0.00000000000E+00 0.  1.
          2   -1    0    0  501    0  0.00000000000E+00 -0.00000000000E+00 -0.17458117663E+04  0.17458117663E+04  0.00000000000E+00 0.  1.
         36    2    1    2    0    0  0.00000000000E+00 -0.14210854715E-13 -0.16027484658E+04  0.18888750668E+04  0.99952307302E+03 0.  0.
         25    2    3    3    0    0 -0.11296661392E+03  0.47749520281E+02 -0.18548692283E+03  0.25665196403E+03  0.12815365602E+03 0.  0.
         35    2    3    3    0    0  0.11296661392E+03 -0.47749520281E+02 -0.14172615429E+04  0.16322231028E+04  0.80030025842E+03 0.  0.
         22    1    5    5    0    0 -0.97061480269E+02  0.10771979726E+03  0.41040467639E+02  0.15069441150E+03  0.00000000000E+00 0.  1.
         22    1    5    5    0    0  0.21002809419E+03 -0.15546931754E+03 -0.14583020106E+04  0.14815286913E+04  0.00000000000E+00 0.  1.
          5    1    4    4  502    0 -0.11771056048E+02  0.17585310182E+02 -0.13985093545E+03  0.14152093499E+03  0.47000000000E+01 0. -1.
         -5    1    4    4    0  502 -0.10119555787E+03  0.30164210099E+02 -0.45635987379E+02  0.11513102904E+03  0.47000000000E+01 0. -1.
<mgrwt>
<rscale>  0 0.99952307E+03</rscale>
<asrwt>0</asrwt>
<pdfrwt beam="1">  1        2 0.26858643E+00 0.99952307E+03</pdfrwt>
<pdfrwt beam="2">  1       -2 0.22009738E-01 0.99952307E+03</pdfrwt>
<totfact> 0.19765610E+02</totfact>
</mgrwt>
</event>
<event>
 9    1  0.4370149E-036  0.9996347E+03  0.7818608E-02  0.8681386E-01
          2   -1    0    0  501    0  0.00000000000E+00  0.00000000000E+00  0.52571076158E+03  0.52571076158E+03  0.00000000000E+00 0.  1.
         -2   -1    0    0    0  501 -0.00000000000E+00 -0.00000000000E+00 -0.47519932986E+03  0.47519932986E+03  0.00000000000E+00 0.  1.
         36    2    1    2    0    0 -0.14210854715E-13  0.28421709430E-13  0.50511431718E+02  0.10009100914E+04  0.99963473650E+03 0.  0.
         25    2    3    3    0    0 -0.82180390034E+02  0.83793910421E+02 -0.66529661243E+02  0.18385964203E+03  0.12491251424E+03 0.  0.
         35    2    3    3    0    0  0.82180390034E+02 -0.83793910421E+02  0.11704109296E+03  0.81705044941E+03  0.80006111236E+03 0.  0.
         22    1    5    5    0    0 -0.31035792147E+03 -0.22347506360E+03  0.11855481262E+03  0.40039778604E+03  0.00000000000E+00 0. -1.
         22    1    5    5    0    0  0.39253831150E+03  0.13968115318E+03 -0.15137196581E+01  0.41665266338E+03  0.00000000000E+00 0. -1.
          5    1    4    4  502    0 -0.63810403055E+02  0.11187932552E+03 -0.26798084621E+02  0.13163957747E+03  0.47000000000E+01 0. -1.
         -5    1    4    4    0  502 -0.18369986979E+02 -0.28085415094E+02 -0.39731576622E+02  0.52220064568E+02  0.47000000000E+01 0. -1.
<mgrwt>
<rscale>  0 0.99963474E+03</rscale>
<asrwt>0</asrwt>
<pdfrwt beam="1">  1        2 0.80878579E-01 0.99963474E+03</pdfrwt>
<pdfrwt beam="2">  1       -2 0.73107589E-01 0.99963474E+03</pdfrwt>
<totfact> 0.11860926E+02</totfact>
</mgrwt>
</event>
<event>
 9    1  0.4370149E-036  0.1000925E+04  0.7818608E-02  0.8680158E-01
          1   -1    0    0  501    0  0.00000000000E+00  0.00000000000E+00  0.18819417928E+04  0.18819417928E+04  0.00000000000E+00 0. -1.
         -1   -1    0    0    0  501 -0.00000000000E+00 -0.00000000000E+00 -0.13308740009E+03  0.13308740009E+03  0.00000000000E+00 0. -1.
         36    2    1    2    0    0 -0.28421709430E-13  0.00000000000E+00  0.17488543927E+04  0.20150291929E+04  0.10009250528E+04 0.  0.
         25    2    3    3    0    0  0.75402561136E+02  0.73042382639E+02  0.13857641232E+03  0.21422809739E+03  0.12517795242E+03 0.  0.
         35    2    3    3    0    0 -0.75402561136E+02 -0.73042382639E+02  0.16102779804E+04  0.18008010955E+04  0.79929260947E+03 0.  0.
         22    1    5    5    0    0  0.26583959828E+03  0.86661300904E+02  0.20718573575E+03  0.34800402610E+03  0.00000000000E+00 0.  1.
         22    1    5    5    0    0 -0.34124215941E+03 -0.15970368354E+03  0.14030922446E+04  0.14527970694E+04  0.00000000000E+00 0.  1.
          5    1    4    4  502    0  0.10187520686E+03  0.71188271780E+02  0.75149678610E+02  0.14531308271E+03  0.47000000000E+01 0.  1.
         -5    1    4    4    0  502 -0.26472645724E+02  0.18541108595E+01  0.63426733708E+02  0.68915014674E+02  0.47000000000E+01 0.  1.
<mgrwt>
<rscale>  0 0.10009251E+04</rscale>
<asrwt>0</asrwt>
<pdfrwt beam="1">  1        1 0.28952949E+00 0.10009251E+04</pdfrwt>
<pdfrwt beam="2">  1       -1 0.20474986E-01 0.10009251E+04</pdfrwt>
<totfact> 0.74128388E+01</totfact>
</mgrwt>
</event>
<event>
 9    1  0.4370149E-036  0.9989649E+03  0.7818608E-02  0.8682024E-01
         -1   -1    0    0    0  501 -0.00000000000E+00  0.00000000000E+00  0.15408950489E+03  0.15408950489E+03  0.00000000000E+00 0.  1.
          1   -1    0    0  501    0  0.00000000000E+00 -0.00000000000E+00 -0.16190765796E+04  0.16190765796E+04  0.00000000000E+00 0.  1.
         36    2    1    2    0    0  0.00000000000E+00 -0.17763568394E-13 -0.14649870747E+04  0.17731660845E+04  0.99896488132E+03 0.  0.
         25    2    3    3    0    0 -0.61608975243E+01 -0.14005939681E+02 -0.51963797419E+03  0.53489199880E+03  0.12590354705E+03 0.  0.
         35    2    3    3    0    0  0.61608975243E+01  0.14005939681E+02 -0.94534910048E+03  0.12382740856E+04  0.79962720465E+03 0.  0.
         22    1    5    5    0    0 -0.52111707938E+02 -0.38392114071E+03 -0.56244082526E+03  0.68297200112E+03  0.00000000000E+00 0.  1.
         22    1    5    5    0    0  0.58272605462E+02  0.39792708039E+03 -0.38290827522E+03  0.55530208453E+03  0.00000000000E+00 0.  1.
          5    1    4    4  502    0 -0.58800299527E+02 -0.10172574392E+02 -0.15044368911E+03  0.16191463828E+03  0.47000000000E+01 0.  1.
         -5    1    4    4    0  502  0.52639402003E+02 -0.38333652889E+01 -0.36919428507E+03  0.37297736052E+03  0.47000000000E+01 0.  1.
<mgrwt>
<rscale>  0 0.99896488E+03</rscale>
<asrwt>0</asrwt>
<pdfrwt beam="1">  1        1 0.24908872E+00 0.99896488E+03</pdfrwt>
<pdfrwt beam="2">  1       -1 0.23706076E-01 0.99896488E+03</pdfrwt>
<totfact> 0.88946511E+01</totfact>
</mgrwt>
</event>
<event>
 9    1  0.4370149E-036  0.1000468E+04  0.7818608E-02  0.8680592E-01
          2   -1    0    0  501    0  0.00000000000E+00  0.00000000000E+00  0.45805240172E+03  0.45805240172E+03  0.00000000000E+00 0. -1.
         -2   -1    0    0    0  501 -0.00000000000E+00 -0.00000000000E+00 -0.54630054247E+03  0.54630054247E+03  0.00000000000E+00 0. -1.
         36    2    1    2    0    0  0.14210854715E-13 -0.71054273576E-14 -0.88248140751E+02  0.10043529442E+04  0.10004684414E+04 0.  0.
         25    2    3    3    0    0 -0.11162480584E+03 -0.28474221102E+02  0.67992556519E+02  0.18294266515E+03  0.12479644403E+03 0.  0.
         35    2    3    3    0    0  0.11162480584E+03  0.28474221102E+02 -0.15624069727E+03  0.82141027905E+03  0.79814335335E+03 0.  0.
         22    1    5    5    0    0  0.42218121166E+03  0.12251737507E+03  0.41286034502E+02  0.44153371255E+03  0.00000000000E+00 0. -1.
         22    1    5    5    0    0 -0.31055640583E+03 -0.94043153969E+02 -0.19752673177E+03  0.37987656650E+03  0.00000000000E+00 0. -1.
          5    1    4    4  502    0 -0.16941286279E+02  0.28506561505E+02  0.64035304826E+02  0.72265077968E+02  0.47000000000E+01 0.  1.
         -5    1    4    4    0  502 -0.94683519557E+02 -0.56980782608E+02  0.39572516928E+01  0.11067758718E+03  0.47000000000E+01 0.  1.
<mgrwt>
<rscale>  0 0.10004684E+04</rscale>
<asrwt>0</asrwt>
<pdfrwt beam="1">  1        2 0.70469600E-01 0.10004684E+04</pdfrwt>
<pdfrwt beam="2">  1       -2 0.84046238E-01 0.10004684E+04</pdfrwt>
<totfact> 0.10112718E+02</totfact>
</mgrwt>
</event>
<event>
 9    1  0.4370149E-036  0.9998716E+03  0.7818608E-02  0.8681160E-01
         -1   -1    0    0    0  501 -0.00000000000E+00  0.00000000000E+00  0.18853731142E+03  0.18853731142E+03  0.00000000000E+00 0.  1.
          1   -1    0    0  501    0  0.00000000000E+00 -0.00000000000E+00 -0.13256568752E+04  0.13256568752E+04  0.00000000000E+00 0.  1.
         36    2    1    2    0    0  0.00000000000E+00  0.00000000000E+00 -0.11371195638E+04  0.15141941867E+04  0.99987155799E+03 0.  0.
         25    2    3    3    0    0  0.44735736169E+02 -0.64349398771E+02 -0.39027681844E+03  0.41672022347E+03  0.12327862113E+03 0.  0.
         35    2    3    3    0    0 -0.44735736169E+02  0.64349398771E+02 -0.74684274538E+03  0.10974739632E+04  0.80033298215E+03 0.  0.
         22    1    5    5    0    0  0.69006854618E+02 -0.31456248203E+02  0.16076934669E+03  0.17775889392E+03  0.00000000000E+00 0. -1.
         22    1    5    5    0    0 -0.11374259079E+03  0.95805646974E+02 -0.90761209207E+03  0.91971506925E+03  0.00000000000E+00 0. -1.
          5    1    4    4  502    0  0.12818442714E+02 -0.91542549325E+02 -0.18166047273E+03  0.20387978851E+03  0.47000000000E+01 0. -1.
         -5    1    4    4    0  502  0.31917293454E+02  0.27193150554E+02 -0.20861634571E+03  0.21284043496E+03  0.47000000000E+01 0. -1.
<mgrwt>
<rscale>  0 0.99987156E+03</rscale>
<asrwt>0</asrwt>
<pdfrwt beam="1">  1        1 0.20394721E+00 0.99987156E+03</pdfrwt>
<pdfrwt beam="2">  1       -1 0.29005741E-01 0.99987156E+03</pdfrwt>
<totfact> 0.10256392E+02</totfact>
</mgrwt>
</event>
<event>
 9    1  0.4370149E-036  0.1000930E+04  0.7818608E-02  0.8680153E-01
          2   -1    0    0  501    0  0.00000000000E+00  0.00000000000E+00  0.97133700821E+03  0.97133700821E+03  0.00000000000E+00 0. -1.
         -2   -1    0    0    0  501 -0.00000000000E+00 -0.00000000000E+00 -0.25785607570E+03  0.25785607570E+03  0.00000000000E+00 0. -1.
         36    2    1    2    0    0 -0.14210854715E-13 -0.14210854715E-13  0.71348093251E+03  0.12291930839E+04  0.10009298659E+04 0.  0.
         25    2    3    3    0    0  0.39654644725E+02  0.25321071154E+02 -0.28049942497E+02  0.13743452711E+03  0.12604682652E+03 0.  0.
         35    2    3    3    0    0 -0.39654644725E+02 -0.25321071154E+02  0.74153087501E+03  0.10917585568E+04  0.79990940753E+03 0.  0.
         22    1    5    5    0    0 -0.31773123675E+03  0.22991259515E+03  0.22543840590E+03  0.45236646104E+03  0.00000000000E+00 0.  1.
         22    1    5    5    0    0  0.27807659203E+03 -0.25523366631E+03  0.51609246910E+03  0.63939209575E+03  0.00000000000E+00 0.  1.
          5    1    4    4  502    0 -0.13052854061E+02 -0.43457740146E+02 -0.21434450651E+02  0.50403153200E+02  0.47000000000E+01 0.  1.
         -5    1    4    4    0  502  0.52707498786E+02  0.68778811301E+02 -0.66154918467E+01  0.87031373910E+02  0.47000000000E+01 0.  1.
<mgrwt>
<rscale>  0 0.10009299E+04</rscale>
<asrwt>0</asrwt>
<pdfrwt beam="1">  1        2 0.14943646E+00 0.10009299E+04</pdfrwt>
<pdfrwt beam="2">  1       -2 0.39670166E-01 0.10009299E+04</pdfrwt>
<totfact> 0.19106974E+02</totfact>
</mgrwt>
</event>
<event>
 9    1  0.4370149E-036  0.9997266E+03  0.7818608E-02  0.8681298E-01
         -2   -1    0    0    0  501 -0.00000000000E+00  0.00000000000E+00  0.35370365740E+03  0.35370365740E+03  0.00000000000E+00 0.  1.
          2   -1    0    0  501    0  0.00000000000E+00 -0.00000000000E+00 -0.70641997919E+03  0.70641997919E+03  0.00000000000E+00 0.  1.
         36    2    1    2    0    0 -0.28421709430E-13  0.00000000000E+00 -0.35271632179E+03  0.10601236366E+04  0.99972662323E+03 0.  0.
         25    2    3    3    0    0  0.10991023666E+03 -0.76725724515E+02 -0.24283818699E+02  0.18515187218E+03  0.12539702946E+03 0.  0.
         35    2    3    3    0    0 -0.10991023666E+03  0.76725724515E+02 -0.32843250309E+03  0.87497176441E+03  0.79983784763E+03 0.  0.
         22    1    5    5    0    0  0.25598686879E+03 -0.17896840185E+03 -0.29120655155E+03  0.42703655759E+03  0.00000000000E+00 0. -1.
         22    1    5    5    0    0 -0.36589710545E+03  0.25569412636E+03 -0.37225951536E+02  0.44793520681E+03  0.00000000000E+00 0. -1.
          5    1    4    4  502    0  0.92040945882E+02 -0.22481227850E+02 -0.64876728386E+02  0.11492615547E+03  0.47000000000E+01 0. -1.
         -5    1    4    4    0  502  0.17869290777E+02 -0.54244496665E+02  0.40592909687E+02  0.70225716716E+02  0.47000000000E+01 0. -1.
<mgrwt>
<rscale>  0 0.99972662E+03</rscale>
<asrwt>0</asrwt>
<pdfrwt beam="1">  1        2 0.10868000E+00 0.99972662E+03</pdfrwt>
<pdfrwt beam="2">  1       -2 0.54415948E-01 0.99972662E+03</pdfrwt>
<totfact> 0.15581046E+02</totfact>
</mgrwt>
</event>
<event>
 9    1  0.4370149E-036  0.1000863E+04  0.7818608E-02  0.8680217E-01
         -1   -1    0    0    0  501 -0.00000000000E+00  0.00000000000E+00  0.39450059198E+03  0.39450059198E+03  0.00000000000E+00 0. -1.
          1   -1    0    0  501    0  0.00000000000E+00 -0.00000000000E+00 -0.63480627718E+03  0.63480627718E+03  0.00000000000E+00 0. -1.
         36    2    1    2    0    0 -0.24868995752E-13  0.00000000000E+00 -0.24030568520E+03  0.10293068692E+04  0.10008625323E+04 0.  0.
         25    2    3    3    0    0 -0.11993855647E+02 -0.99715599360E+02  0.53747666213E+02  0.16889977181E+03  0.12470472311E+03 0.  0.
         35    2    3    3    0    0  0.11993855647E+02  0.99715599360E+02 -0.29405335141E+03  0.86040709735E+03  0.80233780066E+03 0.  0.
         22    1    5    5    0    0  0.29197373985E+03 -0.22824031430E+03 -0.19157617920E+03  0.41718549624E+03  0.00000000000E+00 0.  1.
         22    1    5    5    0    0 -0.27997988421E+03  0.32795591366E+03 -0.10247717221E+03  0.44322160111E+03  0.00000000000E+00 0.  1.
          5    1    4    4  502    0 -0.24151798178E+02 -0.14031926882E+02 -0.34884006817E+02  0.44935378700E+02  0.47000000000E+01 0. -1.
         -5    1    4    4    0  502  0.12157942531E+02 -0.85683672478E+02  0.88631673030E+02  0.12396439311E+03  0.47000000000E+01 0. -1.
<mgrwt>
<rscale>  0 0.10008625E+04</rscale>
<asrwt>0</asrwt>
<pdfrwt beam="1">  1        1 0.97662504E-01 0.10008625E+04</pdfrwt>
<pdfrwt beam="2">  1       -1 0.60692399E-01 0.10008625E+04</pdfrwt>
<totfact> 0.10060550E+02</totfact>
</mgrwt>
</event>
<event>
 9    1  0.4370149E-036  0.9989302E+03  0.7818608E-02  0.8682057E-01
         -2   -1    0    0    0  501 -0.00000000000E+00  0.00000000000E+00  0.17475378731E+03  0.17475378731E+03  0.00000000000E+00 0.  1.
          2   -1    0    0  501    0  0.00000000000E+00 -0.00000000000E+00 -0.14275248215E+04  0.14275248215E+04  0.00000000000E+00 0.  1.
         36    2    1    2    0    0  0.00000000000E+00  0.14210854715E-13 -0.12527710342E+04  0.16022786088E+04  0.99893016581E+03 0.  0.
         25    2    3    3    0    0 -0.36451531806E+02  0.10404003187E+03 -0.36769790551E+03  0.40396202772E+03  0.12581942503E+03 0.  0.
         35    2    3    3    0    0  0.36451531806E+02 -0.10404003187E+03 -0.88507312869E+03  0.11983165811E+04  0.80028441384E+03 0.  0.
         22    1    5    5    0    0 -0.12980242884E+02  0.81627019905E+02  0.13609673061E+03  0.15922869454E+03  0.00000000000E+00 0.  1.
         22    1    5    5    0    0  0.49431774689E+02 -0.18566705178E+03 -0.10211698593E+04  0.10390878866E+04  0.00000000000E+00 0.  1.
          5    1    4    4  502    0 -0.82501149034E+02  0.52091011742E+02 -0.21779969745E+03  0.23870213930E+03  0.47000000000E+01 0.  1.
         -5    1    4    4    0  502  0.46049617228E+02  0.51949020129E+02 -0.14989820806E+03  0.16525988841E+03  0.47000000000E+01 0.  1.
<mgrwt>
<rscale>  0 0.99893017E+03</rscale>
<asrwt>0</asrwt>
<pdfrwt beam="1">  1        2 0.21961920E+00 0.99893017E+03</pdfrwt>
<pdfrwt beam="2">  1       -2 0.26885199E-01 0.99893017E+03</pdfrwt>
<totfact> 0.20989284E+02</totfact>
</mgrwt>
</event>
<event>
 9    1  0.4370149E-036  0.9994270E+03  0.7818608E-02  0.8681584E-01
          2   -1    0    0  501    0  0.00000000000E+00  0.00000000000E+00  0.14652636932E+04  0.14652636932E+04  0.00000000000E+00 0. -1.
         -2   -1    0    0    0  501 -0.00000000000E+00 -0.00000000000E+00 -0.17042228491E+03  0.17042228491E+03  0.00000000000E+00 0. -1.
         36    2    1    2    0    0  0.00000000000E+00 -0.28421709430E-13  0.12948414083E+04  0.16356859782E+04  0.99942700904E+03 0.  0.
         25    2    3    3    0    0 -0.12516197145E+03 -0.39653166187E+02  0.18432029111E+03  0.25904968437E+03  0.12607488478E+03 0.  0.
         35    2    3    3    0    0  0.12516197145E+03  0.39653166187E+02  0.11105211172E+04  0.13766362938E+04  0.80289005529E+03 0.  0.
         22    1    5    5    0    0  0.76330740417E+02  0.36721624818E+03  0.92243406924E+03  0.99577043888E+03  0.00000000000E+00 0. -1.
         22    1    5    5    0    0  0.48831231035E+02 -0.32756308199E+03  0.18808704798E+03  0.38086585490E+03  0.00000000000E+00 0. -1.
          5    1    4    4  502    0  0.19428305102E+01  0.15360233303E+02  0.89940024898E+02  0.91383857635E+02  0.47000000000E+01 0.  1.
         -5    1    4    4    0  502 -0.12710480196E+03 -0.55013399490E+02  0.94380266209E+02  0.16766582674E+03  0.47000000000E+01 0.  1.
<mgrwt>
<rscale>  0 0.99942701E+03</rscale>
<asrwt>0</asrwt>
<pdfrwt beam="1">  1        2 0.22542518E+00 0.99942701E+03</pdfrwt>
<pdfrwt beam="2">  1       -2 0.26218814E-01 0.99942701E+03</pdfrwt>
<totfact> 0.20894455E+02</totfact>
</mgrwt>
</event>
<event>
 9    1  0.4370149E-036  0.9999543E+03  0.7818608E-02  0.8681082E-01
          1   -1    0    0  501    0  0.00000000000E+00  0.00000000000E+00  0.84936285247E+03  0.84936285247E+03  0.00000000000E+00 0.  1.
         -1   -1    0    0    0  501 -0.00000000000E+00 -0.00000000000E+00 -0.29431134760E+03  0.29431134760E+03  0.00000000000E+00 0.  1.
         36    2    1    2    0    0 -0.28421709430E-13  0.28421709430E-13  0.55505150487E+03  0.11436742001E+04  0.99995425038E+03 0.  0.
         25    2    3    3    0    0  0.67015227752E+02 -0.11722314635E+03  0.74589173580E+02  0.19907589332E+03  0.12583862560E+03 0.  0.
         35    2    3    3    0    0 -0.67015227752E+02  0.11722314635E+03  0.48046233129E+03  0.94459830675E+03  0.80199102398E+03 0.  0.
         22    1    5    5    0    0  0.25488821028E+03  0.86403534365E+02 -0.94244955380E+02  0.28515904704E+03  0.00000000000E+00 0. -1.
         22    1    5    5    0    0 -0.32190343803E+03  0.30819611988E+02  0.57470728667E+03  0.65943925971E+03  0.00000000000E+00 0. -1.
          5    1    4    4  502    0  0.45152353030E+02 -0.13654916881E+03  0.85718470853E+02  0.16749375132E+03  0.47000000000E+01 0. -1.
         -5    1    4    4    0  502  0.21862874722E+02  0.19326022459E+02 -0.11129297273E+02  0.31582141995E+02  0.47000000000E+01 0. -1.
<mgrwt>
<rscale>  0 0.99995425E+03</rscale>
<asrwt>0</asrwt>
<pdfrwt beam="1">  1        1 0.13067121E+00 0.99995425E+03</pdfrwt>
<pdfrwt beam="2">  1       -1 0.45278669E-01 0.99995425E+03</pdfrwt>
<totfact> 0.11004803E+02</totfact>
</mgrwt>
</event>
<event>
 9    1  0.4370149E-036  0.1000226E+04  0.7818608E-02  0.8680823E-01
          1   -1    0    0  501    0  0.00000000000E+00  0.00000000000E+00  0.20904060856E+04  0.20904060856E+04  0.00000000000E+00 0. -1.
         -1   -1    0    0    0  501 -0.00000000000E+00 -0.00000000000E+00 -0.11964811320E+03  0.11964811320E+03  0.00000000000E+00 0. -1.
         36    2    1    2    0    0  0.00000000000E+00  0.56843418861E-13  0.19707579724E+04  0.22100541988E+04  0.10002262623E+04 0.  0.
         25    2    3    3    0    0  0.39721844972E+02 -0.13328851433E+03  0.39073828231E+03  0.43328014140E+03  0.12534601169E+03 0.  0.
         35    2    3    3    0    0 -0.39721844972E+02  0.13328851433E+03  0.15800196901E+04  0.17767740575E+04  0.80069980455E+03 0.  0.
         22    1    5    5    0    0 -0.31206203777E+03 -0.17101710130E+03  0.44043295018E+03  0.56622499765E+03  0.00000000000E+00 0.  1.
         22    1    5    5    0    0  0.27234019280E+03  0.30430561563E+03  0.11395867399E+04  0.12105490598E+04  0.00000000000E+00 0.  1.
          5    1    4    4  502    0  0.48685202046E+01 -0.11911568723E+03  0.16074986783E+03  0.20018706113E+03  0.47000000000E+01 0.  1.
         -5    1    4    4    0  502  0.34853324767E+02 -0.14172827091E+02  0.22998841448E+03  0.23309308027E+03  0.47000000000E+01 0.  1.
<mgrwt>
<rscale>  0 0.10002263E+04</rscale>
<asrwt>0</asrwt>
<pdfrwt beam="1">  1        1 0.32160091E+00 0.10002263E+04</pdfrwt>
<pdfrwt beam="2">  1       -1 0.18407404E-01 0.10002263E+04</pdfrwt>
<totfact> 0.63107318E+01</totfact>
</mgrwt>
</event>
<event>
 9    1  0.4370149E-036  0.9967446E+03  0.7818608E-02  0.8684144E-01
         -2   -1    0    0    0  501 -0.00000000000E+00  0.00000000000E+00  0.12497032780E+03  0.12497032780E+03  0.00000000000E+00 0.  1.
          2   -1    0    0  501    0  0.00000000000E+00 -0.00000000000E+00 -0.19874712608E+04  0.19874712608E+04  0.00000000000E+00 0.  1.
         36    2    1    2    0    0  0.00000000000E+00  0.00000000000E+00 -0.18625009330E+04  0.21124415886E+04  0.99674457101E+03 0.  0.
         25    2    3    3    0    0 -0.24897385740E+02  0.13155502060E+03 -0.31561622373E+03  0.36464450756E+03  0.12419908594E+03 0.  0.
         35    2    3    3    0    0  0.24897385740E+02 -0.13155502060E+03 -0.15468847093E+04  0.17477970811E+04  0.80250590620E+03 0.  0.
         22    1    5    5    0    0  0.36503363759E+03 -0.25047827151E+03 -0.71108354812E+03  0.83763281542E+03  0.00000000000E+00 0. -1.
         22    1    5    5    0    0 -0.34013625185E+03  0.11892325091E+03 -0.83580116116E+03  0.91016426563E+03  0.00000000000E+00 0. -1.
          5    1    4    4  502    0  0.33165970165E+02  0.25753542576E+02 -0.23056245936E+02  0.48134260240E+02  0.47000000000E+01 0. -1.
         -5    1    4    4    0  502 -0.58063355905E+02  0.10580147802E+03 -0.29255997779E+03  0.31651024732E+03  0.47000000000E+01 0. -1.
<mgrwt>
<rscale>  0 0.99674457E+03</rscale>
<asrwt>0</asrwt>
<pdfrwt beam="1">  1        2 0.30576479E+00 0.99674457E+03</pdfrwt>
<pdfrwt beam="2">  1       -2 0.19226205E-01 0.99674457E+03</pdfrwt>
<totfact> 0.18242641E+02</totfact>
</mgrwt>
</event>
<event>
 9    1  0.4370149E-036  0.9983589E+03  0.7818608E-02  0.8682602E-01
         -2   -1    0    0    0  501 -0.00000000000E+00  0.00000000000E+00  0.35041445018E+03  0.35041445018E+03  0.00000000000E+00 0.  1.
          2   -1    0    0  501    0  0.00000000000E+00 -0.00000000000E+00 -0.71110123251E+03  0.71110123251E+03  0.00000000000E+00 0.  1.
         36    2    1    2    0    0 -0.14210854715E-13  0.00000000000E+00 -0.36068678233E+03  0.10615156827E+04  0.99835894830E+03 0.  0.
         25    2    3    3    0    0  0.64814538253E+02 -0.80482558994E+02 -0.16186228227E+03  0.22940710489E+03  0.12549842502E+03 0.  0.
         35    2    3    3    0    0 -0.64814538253E+02  0.80482558994E+02 -0.19882450006E+03  0.83210857780E+03  0.80137078606E+03 0.  0.
         22    1    5    5    0    0 -0.35767794668E+03 -0.18733166153E+03 -0.44130943265E+02  0.40617016767E+03  0.00000000000E+00 0. -1.
         22    1    5    5    0    0  0.29286340843E+03  0.26781422052E+03 -0.15469355680E+03  0.42593841013E+03  0.00000000000E+00 0. -1.
          5    1    4    4  502    0  0.52609200780E+02 -0.77394597416E+02 -0.18228620547E+03  0.20495853830E+03  0.47000000000E+01 0.  1.
         -5    1    4    4    0  502  0.12205337472E+02 -0.30879615787E+01  0.20423923203E+02  0.24448566594E+02  0.47000000000E+01 0.  1.
<mgrwt>
<rscale>  0 0.99835895E+03</rscale>
<asrwt>0</asrwt>
<pdfrwt beam="1">  1        2 0.10940019E+00 0.99835895E+03</pdfrwt>
<pdfrwt beam="2">  1       -2 0.53909915E-01 0.99835895E+03</pdfrwt>
<totfact> 0.15752276E+02</totfact>
</mgrwt>
</event>
<event>
 9    1  0.4370149E-036  0.9995372E+03  0.7818608E-02  0.8681479E-01
         -1   -1    0    0    0  501 -0.00000000000E+00  0.00000000000E+00  0.60336745234E+03  0.60336745234E+03  0.00000000000E+00 0.  1.
          1   -1    0    0  501    0  0.00000000000E+00 -0.00000000000E+00 -0.41395780177E+03  0.41395780177E+03  0.00000000000E+00 0.  1.
         36    2    1    2    0    0  0.28421709430E-13  0.00000000000E+00  0.18940965057E+03  0.10173252541E+04  0.99953722138E+03 0.  0.
         25    2    3    3    0    0  0.11112069637E+03 -0.80226492396E+02  0.78480023770E+01  0.18555574242E+03  0.12484087134E+03 0.  0.
         35    2    3    3    0    0 -0.11112069637E+03  0.80226492396E+02  0.18156164819E+03  0.83176951170E+03  0.80005736623E+03 0.  0.
         22    1    5    5    0    0 -0.15240315261E+03  0.43154846766E+03  0.11368161817E+03  0.47157641075E+03  0.00000000000E+00 0.  1.
         22    1    5    5    0    0  0.41282456237E+02 -0.35132197526E+03  0.67880030023E+02  0.36019310095E+03  0.00000000000E+00 0.  1.
          5    1    4    4  502    0 -0.24758327143E+02 -0.46475268381E+01  0.15258512223E+02  0.29824259654E+02  0.47000000000E+01 0. -1.
         -5    1    4    4    0  502  0.13587902352E+03 -0.75578965558E+02 -0.74105098464E+01  0.15573148276E+03  0.47000000000E+01 0. -1.
<mgrwt>
<rscale>  0 0.99953722E+03</rscale>
<asrwt>0</asrwt>
<pdfrwt beam="1">  1        1 0.63685816E-01 0.99953722E+03</pdfrwt>
<pdfrwt beam="2">  1       -1 0.92825762E-01 0.99953722E+03</pdfrwt>
<totfact> 0.77084414E+01</totfact>
</mgrwt>
</event>
<event>
 9    1  0.4370149E-036  0.9955805E+03  0.7818608E-02  0.8685258E-01
         -2   -1    0    0    0  501 -0.00000000000E+00  0.00000000000E+00  0.39150190178E+03  0.39150190178E+03  0.00000000000E+00 0.  1.
          2   -1    0    0  501    0  0.00000000000E+00 -0.00000000000E+00 -0.63293468621E+03  0.63293468621E+03  0.00000000000E+00 0.  1.
         36    2    1    2    0    0  0.42632564146E-13  0.71054273576E-14 -0.24143278443E+03  0.10244365880E+04  0.99558050073E+03 0.  0.
         25    2    3    3    0    0  0.83713880954E+02  0.56821057909E+02  0.32542666721E+02  0.16525747315E+03  0.12654785967E+03 0.  0.
         35    2    3    3    0    0 -0.83713880954E+02 -0.56821057909E+02 -0.27397545115E+03  0.85917911485E+03  0.80801581487E+03 0.  0.
         22    1    5    5    0    0  0.32299211016E+03 -0.13327748825E+02 -0.31087679040E+03  0.44849293297E+03  0.00000000000E+00 0. -1.
         22    1    5    5    0    0 -0.40670599112E+03 -0.43493309084E+02  0.36901339248E+02  0.41068618188E+03  0.00000000000E+00 0. -1.
          5    1    4    4  502    0 -0.25050041566E+02 -0.12175422792E+02  0.22253631451E+02  0.35959138134E+02  0.47000000000E+01 0. -1.
         -5    1    4    4    0  502  0.10876392252E+03  0.68996480701E+02  0.10289035270E+02  0.12929833502E+03  0.47000000000E+01 0. -1.
<mgrwt>
<rscale>  0 0.99558050E+03</rscale>
<asrwt>0</asrwt>
<pdfrwt beam="1">  1        2 0.97374566E-01 0.99558050E+03</pdfrwt>
<pdfrwt beam="2">  1       -2 0.60231062E-01 0.99558050E+03</pdfrwt>
<totfact> 0.14440040E+02</totfact>
</mgrwt>
</event>
<event>
 9    1  0.4370149E-036  0.9993924E+03  0.7818608E-02  0.8681617E-01
          2   -1    0    0  501    0  0.00000000000E+00  0.00000000000E+00  0.19323414232E+04  0.19323414232E+04  0.00000000000E+00 0. -1.
         -2   -1    0    0    0  501 -0.00000000000E+00 -0.00000000000E+00 -0.12921954450E+03  0.12921954450E+03  0.00000000000E+00 0. -1.
         36    2    1    2    0    0 -0.35527136788E-13  0.00000000000E+00  0.18031218787E+04  0.20615609677E+04  0.99939237243E+03 0.  0.
         25    2    3    3    0    0  0.62448606786E+02 -0.13331733285E+03  0.34018192994E+03  0.39135230897E+03  0.12553702463E+03 0.  0.
         35    2    3    3    0    0 -0.62448606786E+02  0.13331733285E+03  0.14629399488E+04  0.16702086587E+04  0.79229434572E+03 0.  0.
         22    1    5    5    0    0  0.24982565595E+03 -0.19386939915E+03  0.36603176174E+03  0.48371215914E+03  0.00000000000E+00 0.  1.
         22    1    5    5    0    0 -0.31227426274E+03  0.32718673200E+03  0.10969081870E+04  0.11864964996E+04  0.00000000000E+00 0.  1.
          5    1    4    4  502    0  0.50463839296E+02 -0.12917637317E+03  0.34875082577E+03  0.37534299372E+03  0.47000000000E+01 0. -1.
         -5    1    4    4    0  502  0.11984767489E+02 -0.41409596867E+01 -0.85688958332E+01  0.16009315248E+02  0.47000000000E+01 0. -1.
<mgrwt>
<rscale>  0 0.99939237E+03</rscale>
<asrwt>0</asrwt>
<pdfrwt beam="1">  1        2 0.29728328E+00 0.99939237E+03</pdfrwt>
<pdfrwt beam="2">  1       -2 0.19879931E-01 0.99939237E+03</pdfrwt>
<totfact> 0.18506924E+02</totfact>
</mgrwt>
</event>
<event>
 9    1  0.4370149E-036  0.9996679E+03  0.7818608E-02  0.8681354E-01
          2   -1    0    0  501    0  0.00000000000E+00  0.00000000000E+00  0.31688801751E+03  0.31688801751E+03  0.00000000000E+00 0.  1.
         -2   -1    0    0    0  501 -0.00000000000E+00 -0.00000000000E+00 -0.78839837757E+03  0.78839837757E+03  0.00000000000E+00 0.  1.
         36    2    1    2    0    0  0.28421709430E-13  0.35527136788E-14 -0.47151036006E+03  0.11052863951E+04  0.99966794261E+03 0.  0.
         25    2    3    3    0    0  0.11311705102E+03 -0.25704252479E+02 -0.94615617646E+01  0.16931298065E+03  0.12296824158E+03 0.  0.
         35    2    3    3    0    0 -0.11311705102E+03  0.25704252479E+02 -0.46204879830E+03  0.93597341443E+03  0.80566802387E+03 0.  0.
         22    1    5    5    0    0  0.20237395979E+03 -0.12938238978E+03 -0.52637377784E+03  0.57858826154E+03  0.00000000000E+00 0. -1.
         22    1    5    5    0    0 -0.31549101082E+03  0.15508664226E+03  0.64324979548E+02  0.35738515289E+03  0.00000000000E+00 0. -1.
          5    1    4    4  502    0 -0.13075228739E+02  0.22464335351E+02 -0.20889571744E+02  0.33675988137E+02  0.47000000000E+01 0.  1.
         -5    1    4    4    0  502  0.12619227976E+03 -0.48168587830E+02  0.11428009979E+02  0.13563699251E+03  0.47000000000E+01 0.  1.
<mgrwt>
<rscale>  0 0.99966794E+03</rscale>
<asrwt>0</asrwt>
<pdfrwt beam="1">  1        2 0.48752003E-01 0.99966794E+03</pdfrwt>
<pdfrwt beam="2">  1       -2 0.12129206E+00 0.99966794E+03</pdfrwt>
<totfact> 0.62184160E+01</totfact>
</mgrwt>
</event>
<event>
 9    1  0.4370149E-036  0.9973380E+03  0.7818608E-02  0.8683577E-01
         -2   -1    0    0    0  501 -0.00000000000E+00  0.00000000000E+00  0.88169391383E+03  0.88169391383E+03  0.00000000000E+00 0. -1.
          2   -1    0    0  501    0  0.00000000000E+00 -0.00000000000E+00 -0.28203754982E+03  0.28203754982E+03  0.00000000000E+00 0. -1.
         36    2    1    2    0    0  0.71054273576E-14  0.00000000000E+00  0.59965636401E+03  0.11637314637E+04  0.99733803929E+03 0.  0.
         25    2    3    3    0    0  0.16393163177E+02  0.13145209731E+03  0.15224642999E+03  0.23748192734E+03  0.12518107157E+03 0.  0.
         35    2    3    3    0    0 -0.16393163177E+02 -0.13145209731E+03  0.44740993402E+03  0.92624953632E+03  0.80013384180E+03 0.  0.
         22    1    5    5    0    0 -0.37666591181E+02 -0.24967960696E+03  0.64631253616E+03  0.69388657043E+03  0.00000000000E+00 0. -1.
         22    1    5    5    0    0  0.21273428004E+02  0.11822750965E+03 -0.19890260215E+03  0.23236296589E+03  0.00000000000E+00 0. -1.
          5    1    4    4  502    0  0.16433601299E+02 -0.22330821899E+02  0.28485468611E+02  0.40027999955E+02  0.47000000000E+01 0. -1.
         -5    1    4    4    0  502 -0.40438122386E-01  0.15378291921E+03  0.12376096138E+03  0.19745392738E+03  0.47000000000E+01 0. -1.
<mgrwt>
<rscale>  0 0.99733804E+03</rscale>
<asrwt>0</asrwt>
<pdfrwt beam="1">  1        2 0.43390393E-01 0.99733804E+03</pdfrwt>
<pdfrwt beam="2">  1       -2 0.13564522E+00 0.99733804E+03</pdfrwt>
<totfact> 0.52630613E+01</totfact>
</mgrwt>
</event>
<event>
 9    1  0.4370149E-036  0.1000377E+04  0.7818608E-02  0.8680679E-01
          3   -1    0    0  501    0  0.00000000000E+00  0.00000000000E+00  0.28219833446E+03  0.28219833446E+03  0.00000000000E+00 0.  1.
         -3   -1    0    0    0  501 -0.00000000000E+00 -0.00000000000E+00 -0.88657043049E+03  0.88657043049E+03  0.00000000000E+00 0.  1.
         36    2    1    2    0    0  0.00000000000E+00 -0.28421709430E-13 -0.60437209603E+03  0.11687687650E+04  0.10003773266E+04 0.  0.
         25    2    3    3    0    0  0.17164291230E+02 -0.12826689908E+03 -0.57188269837E+02  0.19069470946E+03  0.12785524516E+03 0.  0.
         35    2    3    3    0    0 -0.17164291230E+02  0.12826689908E+03 -0.54718382619E+03  0.97807405550E+03  0.80029476326E+03 0.  0.
         22    1    5    5    0    0  0.28558416503E+03  0.29072442582E+03 -0.11014646979E+03  0.42215074545E+03  0.00000000000E+00 0. -1.
         22    1    5    5    0    0 -0.30274845626E+03 -0.16245752673E+03 -0.43703735640E+03  0.55592331004E+03  0.00000000000E+00 0. -1.
          5    1    4    4  502    0 -0.11505833810E+02 -0.12943220636E+03 -0.80930488867E+02  0.15315650258E+03  0.47000000000E+01 0.  1.
         -5    1    4    4    0  502  0.28670125040E+02  0.11653072777E+01  0.23742219030E+02  0.37538206874E+02  0.47000000000E+01 0.  1.
<mgrwt>
<rscale>  0 0.10003773E+04</rscale>
<asrwt>0</asrwt>
<pdfrwt beam="1">  1        3 0.43415130E-01 0.10003773E+04</pdfrwt>
<pdfrwt beam="2">  1       -3 0.13639545E+00 0.10003773E+04</pdfrwt>
<totfact> 0.72569499E+00</totfact>
</mgrwt>
</event>
<event>
 9    1  0.4370149E-036  0.1004399E+04  0.7818608E-02  0.8676860E-01
         -2   -1    0    0    0  501 -0.00000000000E+00  0.00000000000E+00  0.20687567691E+04  0.20687567691E+04  0.00000000000E+00 0.  1.
          2   -1    0    0  501    0  0.00000000000E+00 -0.00000000000E+00 -0.12191117389E+03  0.12191117389E+03  0.00000000000E+00 0.  1.
         36    2    1    2    0    0  0.00000000000E+00  0.28421709430E-13  0.19468455952E+04  0.21906679430E+04  0.10043994548E+04 0.  0.
         25    2    3    3    0    0  0.11679191585E+03 -0.77309174916E+02  0.47150270018E+03  0.50696339610E+03  0.12280076779E+03 0.  0.
         35    2    3    3    0    0 -0.11679191585E+03  0.77309174916E+02  0.14753428950E+04  0.16837045469E+04  0.79912907790E+03 0.  0.
         22    1    5    5    0    0 -0.16884048920E+03 -0.34349560239E+03  0.61144187639E+03  0.72135809960E+03  0.00000000000E+00 0. -1.
         22    1    5    5    0    0  0.52048573344E+02  0.42080477731E+03  0.86390101864E+03  0.96234644728E+03  0.00000000000E+00 0. -1.
          5    1    4    4  502    0  0.29341742928E+02 -0.63340258092E+02  0.83414593746E+02  0.10887153266E+03  0.47000000000E+01 0.  1.
         -5    1    4    4    0  502  0.87450172927E+02 -0.13968916824E+02  0.38808810644E+03  0.39809186344E+03  0.47000000000E+01 0.  1.
<mgrwt>
<rscale>  0 0.10043995E+04</rscale>
<asrwt>0</asrwt>
<pdfrwt beam="1">  1        2 0.18755567E-01 0.10043995E+04</pdfrwt>
<pdfrwt beam="2">  1       -2 0.31827025E+00 0.10043995E+04</pdfrwt>
<totfact> 0.84997882E+00</totfact>
</mgrwt>
</event>
<event>
 9    1  0.4370149E-036  0.9995297E+03  0.7818608E-02  0.8681486E-01
         -1   -1    0    0    0  501 -0.00000000000E+00  0.00000000000E+00  0.23032877122E+03  0.23032877122E+03  0.00000000000E+00 0. -1.
          1   -1    0    0  501    0  0.00000000000E+00 -0.00000000000E+00 -0.10843842745E+04  0.10843842745E+04  0.00000000000E+00 0. -1.
         36    2    1    2    0    0  0.00000000000E+00  0.00000000000E+00 -0.85405550329E+03  0.13147130457E+04  0.99952968435E+03 0.  0.
         25    2    3    3    0    0  0.12733518757E+03 -0.46607258206E+02 -0.16636828771E+03  0.24834062074E+03  0.12493266284E+03 0.  0.
         35    2    3    3    0    0 -0.12733518757E+03  0.46607258206E+02 -0.68768721558E+03  0.10663724250E+04  0.80364790535E+03 0.  0.
         22    1    5    5    0    0 -0.35734822345E+03 -0.25529292298E+02 -0.73777939463E+03  0.82016335733E+03  0.00000000000E+00 0. -1.
         22    1    5    5    0    0  0.23001303588E+03  0.72136550505E+02  0.50092179048E+02  0.24620906765E+03  0.00000000000E+00 0. -1.
          5    1    4    4  502    0  0.68442141924E+02 -0.75616550559E+02 -0.47812293772E+02  0.11273994388E+03  0.47000000000E+01 0.  1.
         -5    1    4    4    0  502  0.58893045644E+02  0.29009292353E+02 -0.11855599394E+03  0.13560067687E+03  0.47000000000E+01 0.  1.
<mgrwt>
<rscale>  0 0.99952968E+03</rscale>
<asrwt>0</asrwt>
<pdfrwt beam="1">  1        1 0.16682835E+00 0.99952968E+03</pdfrwt>
<pdfrwt beam="2">  1       -1 0.35435196E-01 0.99952968E+03</pdfrwt>
<totfact> 0.10995068E+02</totfact>
</mgrwt>
</event>
<event>
 9    1  0.4370149E-036  0.9999327E+03  0.7818608E-02  0.8681102E-01
          1   -1    0    0  501    0  0.00000000000E+00  0.00000000000E+00  0.75402472869E+03  0.75402472869E+03  0.00000000000E+00 0. -1.
         -1   -1    0    0    0  501 -0.00000000000E+00 -0.00000000000E+00 -0.33150947197E+03  0.33150947197E+03  0.00000000000E+00 0. -1.
         36    2    1    2    0    0 -0.14210854715E-13  0.71054273576E-14  0.42251525672E+03  0.10855342007E+04  0.99993267705E+03 0.  0.
         25    2    3    3    0    0 -0.10432631023E+03  0.26638755605E+02  0.16779678950E+03  0.23885515912E+03  0.13153867175E+03 0.  0.
         35    2    3    3    0    0  0.10432631023E+03 -0.26638755605E+02  0.25471846723E+03  0.84667904154E+03  0.80024390002E+03 0.  0.
         22    1    5    5    0    0 -0.13220568715E+02  0.36654934896E+03  0.23542693924E+03  0.43584292168E+03  0.00000000000E+00 0. -1.
         22    1    5    5    0    0  0.11754687895E+03 -0.39318810457E+03  0.19291527987E+02  0.41083611985E+03  0.00000000000E+00 0. -1.
          5    1    4    4  502    0 -0.10654106049E+03 -0.18715856318E+02  0.15899825659E+03  0.19236376075E+03  0.47000000000E+01 0. -1.
         -5    1    4    4    0  502  0.22147502609E+01  0.45354611923E+02  0.87985329047E+01  0.46491398373E+02  0.47000000000E+01 0. -1.
<mgrwt>
<rscale>  0 0.99993268E+03</rscale>
<asrwt>0</asrwt>
<pdfrwt beam="1">  1        1 0.11600380E+00 0.99993268E+03</pdfrwt>
<pdfrwt beam="2">  1       -1 0.51001457E-01 0.99993268E+03</pdfrwt>
<totfact> 0.10737364E+02</totfact>
</mgrwt>
</event>
<event>
 9    1  0.4370149E-036  0.9998908E+03  0.7818608E-02  0.8681142E-01
          1   -1    0    0  501    0  0.00000000000E+00  0.00000000000E+00  0.28883695265E+03  0.28883695265E+03  0.00000000000E+00 0.  1.
         -1   -1    0    0    0  501 -0.00000000000E+00 -0.00000000000E+00 -0.86535124850E+03  0.86535124850E+03  0.00000000000E+00 0.  1.
         36    2    1    2    0    0  0.00000000000E+00 -0.14210854715E-13 -0.57651429585E+03  0.11541882012E+04  0.99989082923E+03 0.  0.
         25    2    3    3    0    0 -0.11009821106E+03 -0.69712493291E+02 -0.50236209067E+02  0.18786618609E+03  0.12565261389E+03 0.  0.
         35    2    3    3    0    0  0.11009821106E+03  0.69712493291E+02 -0.52627808678E+03  0.96632201507E+03  0.79989259553E+03 0.  0.
         22    1    5    5    0    0 -0.21160469276E+03 -0.61258851458E+02  0.10634343094E+03  0.24461831122E+03  0.00000000000E+00 0.  1.
         22    1    5    5    0    0  0.32170290382E+03  0.13097134475E+03 -0.63262151772E+03  0.72170370385E+03  0.00000000000E+00 0.  1.
          5    1    4    4  502    0 -0.11146512898E+03 -0.15653135625E+02  0.18012086689E+01  0.11267133613E+03  0.47000000000E+01 0. -1.
         -5    1    4    4    0  502  0.13669179222E+01 -0.54059357666E+02 -0.52037417735E+02  0.75194849959E+02  0.47000000000E+01 0. -1.
<mgrwt>
<rscale>  0 0.99989083E+03</rscale>
<asrwt>0</asrwt>
<pdfrwt beam="1">  1        1 0.44436455E-01 0.99989083E+03</pdfrwt>
<pdfrwt beam="2">  1       -1 0.13313096E+00 0.99989083E+03</pdfrwt>
<totfact> 0.52560049E+01</totfact>
</mgrwt>
</event>
<event>
 9    1  0.4370149E-036  0.1000419E+04  0.7818608E-02  0.8680639E-01
          2   -1    0    0  501    0  0.00000000000E+00  0.00000000000E+00  0.43168624909E+03  0.43168624909E+03  0.00000000000E+00 0. -1.
         -2   -1    0    0    0  501 -0.00000000000E+00 -0.00000000000E+00 -0.57960964713E+03  0.57960964713E+03  0.00000000000E+00 0. -1.
         36    2    1    2    0    0 -0.28421709430E-13  0.14210854715E-13 -0.14792339804E+03  0.10112958962E+04  0.10004189413E+04 0.  0.
         25    2    3    3    0    0  0.10439216440E+03 -0.86836813218E+02 -0.65060132761E+02  0.19568998751E+03  0.12499357671E+03 0.  0.
         35    2    3    3    0    0 -0.10439216440E+03  0.86836813218E+02 -0.82863265275E+02  0.81560590871E+03  0.79994269887E+03 0.  0.
         22    1    5    5    0    0 -0.34969128985E+03  0.31512389897E+03 -0.13081469893E+01  0.47073217560E+03  0.00000000000E+00 0. -1.
         22    1    5    5    0    0  0.24529912545E+03 -0.22828708575E+03 -0.81555118286E+02  0.34487373311E+03  0.00000000000E+00 0. -1.
          5    1    4    4  502    0  0.46306978450E+02  0.19950452281E+02 -0.53218332088E+02  0.73461810961E+02  0.47000000000E+01 0.  1.
         -5    1    4    4    0  502  0.58085185950E+02 -0.10678726550E+03 -0.11841800673E+02  0.12222817655E+03  0.47000000000E+01 0.  1.
<mgrwt>
<rscale>  0 0.10004189E+04</rscale>
<asrwt>0</asrwt>
<pdfrwt beam="1">  1        2 0.66413269E-01 0.10004189E+04</pdfrwt>
<pdfrwt beam="2">  1       -2 0.89170715E-01 0.10004189E+04</pdfrwt>
<totfact> 0.94149005E+01</totfact>
</mgrwt>
</event>
<event>
 9    1  0.4370149E-036  0.1000788E+04  0.7818608E-02  0.8680288E-01
         -2   -1    0    0    0  501 -0.00000000000E+00  0.00000000000E+00  0.23084464343E+03  0.23084464343E+03  0.00000000000E+00 0. -1.
          2   -1    0    0  501    0  0.00000000000E+00 -0.00000000000E+00 -0.10846864067E+04  0.10846864067E+04  0.00000000000E+00 0. -1.
         36    2    1    2    0    0  0.00000000000E+00 -0.14210854715E-13 -0.85384176332E+03  0.13155310502E+04  0.10007877833E+04 0.  0.
         25    2    3    3    0    0 -0.12774426170E+03  0.44135276101E+02 -0.20830961219E+03  0.27850537626E+03  0.12611832176E+03 0.  0.
         35    2    3    3    0    0  0.12774426170E+03 -0.44135276101E+02 -0.64553215112E+03  0.10370256739E+04  0.80027743391E+03 0.  0.
         22    1    5    5    0    0 -0.17804502994E+03  0.12359115690E+03 -0.65315309974E+03  0.68817423553E+03  0.00000000000E+00 0. -1.
         22    1    5    5    0    0  0.30578929163E+03 -0.16772643300E+03  0.76209486116E+01  0.34885143839E+03  0.00000000000E+00 0. -1.
          5    1    4    4  502    0  0.66326004887E+01  0.41997849004E+02 -0.20291289564E+02  0.47345930579E+02  0.47000000000E+01 0. -1.
         -5    1    4    4    0  502 -0.13437686219E+03  0.21374270969E+01 -0.18801832263E+03  0.23115944568E+03  0.47000000000E+01 0. -1.
<mgrwt>
<rscale>  0 0.10007878E+04</rscale>
<asrwt>0</asrwt>
<pdfrwt beam="1">  1        2 0.16687483E+00 0.10007878E+04</pdfrwt>
<pdfrwt beam="2">  1       -2 0.35514561E-01 0.10007878E+04</pdfrwt>
<totfact> 0.20024415E+02</totfact>
</mgrwt>
</event>
<event>
 9    1  0.4370149E-036  0.9998848E+03  0.7818608E-02  0.8681148E-01
         -2   -1    0    0    0  501 -0.00000000000E+00  0.00000000000E+00  0.24606048885E+03  0.24606048885E+03  0.00000000000E+00 0.  1.
          2   -1    0    0  501    0  0.00000000000E+00 -0.00000000000E+00 -0.10157761999E+04  0.10157761999E+04  0.00000000000E+00 0.  1.
         36    2    1    2    0    0 -0.28421709430E-13  0.00000000000E+00 -0.76971571104E+03  0.12618366887E+04  0.99988476999E+03 0.  0.
         25    2    3    3    0    0 -0.13831294878E+03 -0.12405298864E+02 -0.11295764802E+03  0.21858705611E+03  0.12544523750E+03 0.  0.
         35    2    3    3    0    0  0.13831294878E+03  0.12405298864E+02 -0.65675806302E+03  0.10432496326E+04  0.79859519121E+03 0.  0.
         22    1    5    5    0    0 -0.21494632357E+03  0.33331586591E+02  0.75271232599E+02  0.23017096937E+03  0.00000000000E+00 0. -1.
         22    1    5    5    0    0  0.35325927236E+03 -0.20926287727E+02 -0.73202929562E+03  0.81307866328E+03  0.00000000000E+00 0. -1.
          5    1    4    4  502    0 -0.28656437108E+02 -0.59866063304E+02 -0.51497691936E+02  0.84138214849E+02  0.47000000000E+01 0.  1.
         -5    1    4    4    0  502 -0.10965651168E+03  0.47460764440E+02 -0.61459956084E+02  0.13444884126E+03  0.47000000000E+01 0.  1.
<mgrwt>
<rscale>  0 0.99988477E+03</rscale>
<asrwt>0</asrwt>
<pdfrwt beam="1">  1        2 0.15627326E+00 0.99988477E+03</pdfrwt>
<pdfrwt beam="2">  1       -2 0.37855460E-01 0.99988477E+03</pdfrwt>
<totfact> 0.19583520E+02</totfact>
</mgrwt>
</event>
<event>
 9    1  0.4370149E-036  0.1000329E+04  0.7818608E-02  0.8680724E-01
         -2   -1    0    0    0  501 -0.00000000000E+00  0.00000000000E+00  0.21758637852E+03  0.21758637852E+03  0.00000000000E+00 0.  1.
          2   -1    0    0  501    0  0.00000000000E+00 -0.00000000000E+00 -0.11497262589E+04  0.11497262589E+04  0.00000000000E+00 0.  1.
         36    2    1    2    0    0  0.00000000000E+00  0.00000000000E+00 -0.93213988036E+03  0.13673126374E+04  0.10003294916E+04 0.  0.
         25    2    3    3    0    0  0.21220144062E+02 -0.13830641493E+03 -0.18140986487E+03  0.26053362951E+03  0.12405351309E+03 0.  0.
         35    2    3    3    0    0 -0.21220144062E+02  0.13830641493E+03 -0.75073001549E+03  0.11067790079E+04  0.80111500873E+03 0.  0.
         22    1    5    5    0    0 -0.10262240042E+03 -0.10400197690E+03 -0.82717240399E+03  0.83997735338E+03  0.00000000000E+00 0.  1.
         22    1    5    5    0    0  0.81402256363E+02  0.24230839182E+03  0.76442388500E+02  0.26680165451E+03  0.00000000000E+00 0.  1.
          5    1    4    4  502    0  0.27362759098E+02 -0.15594495371E+03 -0.12765975486E+03  0.20343709638E+03  0.47000000000E+01 0.  1.
         -5    1    4    4    0  502 -0.61426150352E+01  0.17638538780E+02 -0.53750110009E+02  0.57096533132E+02  0.47000000000E+01 0.  1.
<mgrwt>
<rscale>  0 0.10003295E+04</rscale>
<asrwt>0</asrwt>
<pdfrwt beam="1">  1        2 0.17688096E+00 0.10003295E+04</pdfrwt>
<pdfrwt beam="2">  1       -2 0.33474828E-01 0.10003295E+04</pdfrwt>
<totfact> 0.20423930E+02</totfact>
</mgrwt>
</event>
<event>
 9    1  0.4370149E-036  0.9997462E+03  0.7818608E-02  0.8681280E-01
         -1   -1    0    0    0  501 -0.00000000000E+00  0.00000000000E+00  0.29596920575E+03  0.29596920575E+03  0.00000000000E+00 0.  1.
          1   -1    0    0  501    0  0.00000000000E+00 -0.00000000000E+00 -0.84425369102E+03  0.84425369102E+03  0.00000000000E+00 0.  1.
         36    2    1    2    0    0 -0.71054273576E-14  0.14210854715E-13 -0.54828448527E+03  0.11402228968E+04  0.99974615655E+03 0.  0.
         25    2    3    3    0    0 -0.12103697587E+02  0.63574496293E+02 -0.24411160771E+03  0.28197245008E+03  0.12541837790E+03 0.  0.
         35    2    3    3    0    0  0.12103697587E+02 -0.63574496293E+02 -0.30417287756E+03  0.85825044669E+03  0.79992779282E+03 0.  0.
         22    1    5    5    0    0 -0.54092684668E+02  0.32641471764E+03 -0.32279677194E+03  0.46224489440E+03  0.00000000000E+00 0.  1.
         22    1    5    5    0    0  0.66196382256E+02 -0.38998921393E+03  0.18623894374E+02  0.39600555229E+03  0.00000000000E+00 0.  1.
          5    1    4    4  502    0 -0.61723182519E+02  0.66153449103E+02 -0.16977328413E+03  0.19243463330E+03  0.47000000000E+01 0.  1.
         -5    1    4    4    0  502  0.49619484932E+02 -0.25789528104E+01 -0.74338323578E+02  0.89537816786E+02  0.47000000000E+01 0.  1.
<mgrwt>
<rscale>  0 0.99974616E+03</rscale>
<asrwt>0</asrwt>
<pdfrwt beam="1">  1        1 0.12988518E+00 0.99974616E+03</pdfrwt>
<pdfrwt beam="2">  1       -1 0.45533725E-01 0.99974616E+03</pdfrwt>
<totfact> 0.11003718E+02</totfact>
</mgrwt>
</event>
<event>
 9    1  0.4370149E-036  0.9984220E+03  0.7818608E-02  0.8682542E-01
          2   -1    0    0  501    0  0.00000000000E+00  0.00000000000E+00  0.49780611746E+03  0.49780611746E+03  0.00000000000E+00 0. -1.
         -2   -1    0    0    0  501 -0.00000000000E+00 -0.00000000000E+00 -0.50061988646E+03  0.50061988646E+03  0.00000000000E+00 0. -1.
         36    2    1    2    0    0  0.00000000000E+00  0.14210854715E-13 -0.28137689987E+01  0.99842600393E+03  0.99842203903E+03 0.  0.
         25    2    3    3    0    0 -0.55897106679E+02  0.95571049912E+02  0.64252651603E+02  0.17928700218E+03  0.12552734282E+03 0.  0.
         35    2    3    3    0    0  0.55897106679E+02 -0.95571049912E+02 -0.67066420601E+02  0.81913900175E+03  0.80884639289E+03 0.  0.
         22    1    5    5    0    0 -0.15984968712E+03  0.21774642258E+03  0.21526377461E+03  0.34540399488E+03  0.00000000000E+00 0. -1.
         22    1    5    5    0    0  0.21574679380E+03 -0.31331747249E+03 -0.28233019521E+03  0.47373500687E+03  0.00000000000E+00 0. -1.
          5    1    4    4  502    0 -0.43284161606E+01  0.84234039756E+02  0.87303675803E+02  0.12148304593E+03  0.47000000000E+01 0. -1.
         -5    1    4    4    0  502 -0.51568690518E+02  0.11337010156E+02 -0.23051024201E+02  0.57803956247E+02  0.47000000000E+01 0. -1.
<mgrwt>
<rscale>  0 0.99842204E+03</rscale>
<asrwt>0</asrwt>
<pdfrwt beam="1">  1        2 0.76585556E-01 0.99842204E+03</pdfrwt>
<pdfrwt beam="2">  1       -2 0.77018444E-01 0.99842204E+03</pdfrwt>
<totfact> 0.11244683E+02</totfact>
</mgrwt>
</event>
<event>
 9    1  0.4370149E-036  0.1000734E+04  0.7818608E-02  0.8680340E-01
         -1   -1    0    0    0  501 -0.00000000000E+00  0.00000000000E+00  0.41894301502E+03  0.41894301502E+03  0.00000000000E+00 0. -1.
          1   -1    0    0  501    0  0.00000000000E+00 -0.00000000000E+00 -0.59761566081E+03  0.59761566081E+03  0.00000000000E+00 0. -1.
         36    2    1    2    0    0 -0.14210854715E-13 -0.14210854715E-13 -0.17867264579E+03  0.10165586758E+04  0.10007335445E+04 0.  0.
         25    2    3    3    0    0 -0.64874464883E+02  0.11508106354E+03  0.10941080820E+02  0.18261509869E+03  0.12560342208E+03 0.  0.
         35    2    3    3    0    0  0.64874464883E+02 -0.11508106354E+03 -0.18961372661E+03  0.83394357714E+03  0.80128408019E+03 0.  0.
         22    1    5    5    0    0 -0.13374171741E+03 -0.31388387558E+03 -0.36741479471E+03  0.50140160121E+03  0.00000000000E+00 0.  1.
         22    1    5    5    0    0  0.19861618229E+03  0.19880281203E+03  0.17780106810E+03  0.33254197594E+03  0.00000000000E+00 0.  1.
          5    1    4    4  502    0  0.34462750090E+02  0.12444141233E+02  0.14429138125E+02  0.39658893351E+02  0.47000000000E+01 0. -1.
         -5    1    4    4    0  502 -0.99337214974E+02  0.10263692231E+03 -0.34880573046E+01  0.14295620534E+03  0.47000000000E+01 0. -1.
<mgrwt>
<rscale>  0 0.10007335E+04</rscale>
<asrwt>0</asrwt>
<pdfrwt beam="1">  1        1 0.91940870E-01 0.10007335E+04</pdfrwt>
<pdfrwt beam="2">  1       -1 0.64452772E-01 0.10007335E+04</pdfrwt>
<totfact> 0.97893808E+01</totfact>
</mgrwt>
</event>
<event>
 9    1  0.4370149E-036  0.9997714E+03  0.7818608E-02  0.8681256E-01
         -2   -1    0    0    0  501 -0.00000000000E+00  0.00000000000E+00  0.52814672354E+03  0.52814672354E+03  0.00000000000E+00 0.  1.
          2   -1    0    0  501    0  0.00000000000E+00 -0.00000000000E+00 -0.47313693242E+03  0.47313693242E+03  0.00000000000E+00 0.  1.
         36    2    1    2    0    0  0.00000000000E+00  0.00000000000E+00  0.55009791121E+02  0.10012836560E+04  0.99977141516E+03 0.  0.
         25    2    3    3    0    0 -0.13262762697E+03  0.27531271768E+02  0.44377328693E+02  0.18950715278E+03  0.12488216563E+03 0.  0.
         35    2    3    3    0    0  0.13262762697E+03 -0.27531271768E+02  0.10632462429E+02  0.81177650318E+03  0.80032492370E+03 0.  0.
         22    1    5    5    0    0 -0.80685516126E+02 -0.15196268576E+03  0.35120897217E+03  0.39108893171E+03  0.00000000000E+00 0.  1.
         22    1    5    5    0    0  0.21331314309E+03  0.12443141399E+03 -0.34057650974E+03  0.42068757147E+03  0.00000000000E+00 0.  1.
          5    1    4    4  502    0 -0.11558249300E+03  0.71710111087E+02  0.39235361181E+02  0.14164447143E+03  0.47000000000E+01 0. -1.
         -5    1    4    4    0  502 -0.17045133968E+02 -0.44178839320E+02  0.51419675120E+01  0.47862681345E+02  0.47000000000E+01 0. -1.
<mgrwt>
<rscale>  0 0.99977142E+03</rscale>
<asrwt>0</asrwt>
<pdfrwt beam="1">  1        2 0.72790298E-01 0.99977142E+03</pdfrwt>
<pdfrwt beam="2">  1       -2 0.81253342E-01 0.99977142E+03</pdfrwt>
<totfact> 0.10546041E+02</totfact>
</mgrwt>
</event>
<event>
 9    1  0.4370149E-036  0.1001043E+04  0.7818608E-02  0.8680045E-01
          2   -1    0    0  501    0  0.00000000000E+00  0.00000000000E+00  0.22759931350E+04  0.22759931350E+04  0.00000000000E+00 0.  1.
         -2   -1    0    0    0  501 -0.00000000000E+00 -0.00000000000E+00 -0.11007143607E+03  0.11007143607E+03  0.00000000000E+00 0.  1.
         36    2    1    2    0    0  0.00000000000E+00 -0.28421709430E-13  0.21659216990E+04  0.23860645711E+04  0.10010431217E+04 0.  0.
         25    2    3    3    0    0 -0.77149059854E+02 -0.93022792443E+02  0.23482076754E+03  0.29244216367E+03  0.12560417538E+03 0.  0.
         35    2    3    3    0    0  0.77149059854E+02  0.93022792443E+02  0.19311009314E+04  0.20936224074E+04  0.79968666378E+03 0.  0.
         22    1    5    5    0    0 -0.96738062989E+01  0.15361521623E+03 -0.56079960586E+01  0.15402164395E+03  0.00000000000E+00 0. -1.
         22    1    5    5    0    0  0.86822866153E+02 -0.60592423790E+02  0.19367089275E+04  0.19396007635E+04  0.00000000000E+00 0. -1.
          5    1    4    4  502    0 -0.96046728362E+02 -0.19368046793E+02  0.12970806576E+03  0.16262339189E+03  0.47000000000E+01 0.  1.
         -5    1    4    4    0  502  0.18897668508E+02 -0.73654745650E+02  0.10511270178E+03  0.12981877178E+03  0.47000000000E+01 0.  1.
<mgrwt>
<rscale>  0 0.10010431E+04</rscale>
<asrwt>0</asrwt>
<pdfrwt beam="1">  1        2 0.35015275E+00 0.10010431E+04</pdfrwt>
<pdfrwt beam="2">  1       -2 0.16934069E-01 0.10010431E+04</pdfrwt>
<totfact> 0.15445162E+02</totfact>
</mgrwt>
</event>
<event>
 9    1  0.4370149E-036  0.9993970E+03  0.7818608E-02  0.8681612E-01
         -3   -1    0    0    0  501 -0.00000000000E+00  0.00000000000E+00  0.66925166753E+02  0.66925166753E+02  0.00000000000E+00 0. -1.
          3   -1    0    0  501    0  0.00000000000E+00 -0.00000000000E+00 -0.37310120100E+04  0.37310120100E+04  0.00000000000E+00 0. -1.
         36    2    1    2    0    0 -0.28421709430E-13  0.35527136788E-13 -0.36640868432E+04  0.37979371767E+04  0.99939702006E+03 0.  0.
         25    2    3    3    0    0 -0.13365497172E+03 -0.37403987121E+02 -0.68945375532E+03  0.71441249563E+03  0.12560264115E+03 0.  0.
         35    2    3    3    0    0  0.13365497172E+03  0.37403987121E+02 -0.29746330879E+04  0.30835246811E+04  0.80026229550E+03 0.  0.
         22    1    5    5    0    0  0.16494764145E+03 -0.33788647136E+03 -0.90652745431E+03  0.98141072817E+03  0.00000000000E+00 0. -1.
         22    1    5    5    0    0 -0.31292669730E+02  0.37529045849E+03 -0.20681056336E+04  0.21021139529E+04  0.00000000000E+00 0. -1.
          5    1    4    4  502    0 -0.14765795084E+03 -0.60606413549E+02 -0.58787982806E+03  0.60918042488E+03  0.47000000000E+01 0.  1.
         -5    1    4    4    0  502  0.14002979112E+02  0.23202426428E+02 -0.10157392726E+03  0.10523207075E+03  0.47000000000E+01 0.  1.
<mgrwt>
<rscale>  0 0.99939702E+03</rscale>
<asrwt>0</asrwt>
<pdfrwt beam="1">  1        3 0.57400172E+00 0.99939702E+03</pdfrwt>
<pdfrwt beam="2">  1       -3 0.10296182E-01 0.99939702E+03</pdfrwt>
<totfact> 0.19201869E+00</totfact>
</mgrwt>
</event>
<event>
 9    1  0.4370149E-036  0.1002254E+04  0.7818608E-02  0.8678894E-01
         -2   -1    0    0    0  501 -0.00000000000E+00  0.00000000000E+00  0.14337845642E+04  0.14337845642E+04  0.00000000000E+00 0.  1.
          2   -1    0    0  501    0  0.00000000000E+00 -0.00000000000E+00 -0.17515069996E+03  0.17515069996E+03  0.00000000000E+00 0.  1.
         36    2    1    2    0    0  0.00000000000E+00 -0.71054273576E-14  0.12586338642E+04  0.16089352641E+04  0.10022541993E+04 0.  0.
         25    2    3    3    0    0 -0.13742337369E+03  0.15447377283E+02  0.29803410980E+03  0.35155150863E+03  0.12506129503E+03 0.  0.
         35    2    3    3    0    0  0.13742337369E+03 -0.15447377283E+02  0.96059975442E+03  0.12573837555E+04  0.79946120313E+03 0.  0.
         22    1    5    5    0    0  0.19830012576E+03 -0.95054889180E+02  0.10796213915E+04  0.11017897807E+04  0.00000000000E+00 0. -1.
         22    1    5    5    0    0 -0.60876752064E+02  0.79607511897E+02 -0.11902163711E+03  0.15559397479E+03  0.00000000000E+00 0. -1.
          5    1    4    4  502    0 -0.99765879570E+02  0.61959136194E+02  0.14177607005E+03  0.18415946710E+03  0.47000000000E+01 0.  1.
         -5    1    4    4    0  502 -0.37657494125E+02 -0.46511758911E+02  0.15625803975E+03  0.16739204153E+03  0.47000000000E+01 0.  1.
<mgrwt>
<rscale>  0 0.10022542E+04</rscale>
<asrwt>0</asrwt>
<pdfrwt beam="1">  1        2 0.26946263E-01 0.10022542E+04</pdfrwt>
<pdfrwt beam="2">  1       -2 0.22058223E+00 0.10022542E+04</pdfrwt>
<totfact> 0.21264635E+01</totfact>
</mgrwt>
</event>
<event>
 9    1  0.4370149E-036  0.9991443E+03  0.7818608E-02  0.8681853E-01
          3   -1    0    0  501    0  0.00000000000E+00  0.00000000000E+00  0.80176585702E+03  0.80176585702E+03  0.00000000000E+00 0.  1.
         -3   -1    0    0    0  501 -0.00000000000E+00 -0.00000000000E+00 -0.31127831204E+03  0.31127831204E+03  0.00000000000E+00 0.  1.
         36    2    1    2    0    0  0.28421709430E-13  0.71054273576E-14  0.49048754498E+03  0.11130441691E+04  0.99914427911E+03 0.  0.
         25    2    3    3    0    0 -0.12335452733E+03 -0.44392495977E+02  0.42485820159E+02  0.18571336401E+03  0.12448845546E+03 0.  0.
         35    2    3    3    0    0  0.12335452733E+03  0.44392495977E+02  0.44800172482E+03  0.92733080504E+03  0.80128012794E+03 0.  0.
         22    1    5    5    0    0  0.40633933034E+03  0.83820381885E+02  0.23407593536E+02  0.41555435654E+03  0.00000000000E+00 0. -1.
         22    1    5    5    0    0 -0.28298480301E+03 -0.39427885909E+02  0.42459413129E+03  0.51177644850E+03  0.00000000000E+00 0. -1.
          5    1    4    4  502    0 -0.67704961675E+02  0.14020509886E+02  0.71759464568E+02  0.99759948316E+02  0.47000000000E+01 0. -1.
         -5    1    4    4    0  502 -0.55649565659E+02 -0.58413005863E+02 -0.29273644409E+02  0.85953415691E+02  0.47000000000E+01 0. -1.
<mgrwt>
<rscale>  0 0.99914428E+03</rscale>
<asrwt>0</asrwt>
<pdfrwt beam="1">  1        3 0.12334859E+00 0.99914428E+03</pdfrwt>
<pdfrwt beam="2">  1       -3 0.47888971E-01 0.99914428E+03</pdfrwt>
<totfact> 0.96190024E+00</totfact>
</mgrwt>
</event>
<event>
 9    1  0.4370149E-036  0.1001205E+04  0.7818608E-02  0.8679891E-01
         -2   -1    0    0    0  501 -0.00000000000E+00  0.00000000000E+00  0.91397091295E+02  0.91397091295E+02  0.00000000000E+00 0. -1.
          2   -1    0    0  501    0  0.00000000000E+00 -0.00000000000E+00 -0.27419143667E+04  0.27419143667E+04  0.00000000000E+00 0. -1.
         36    2    1    2    0    0  0.71054273576E-14  0.00000000000E+00 -0.26505172754E+04  0.28333114580E+04  0.10012052690E+04 0.  0.
         25    2    3    3    0    0  0.20946712276E+02  0.14101099232E+03 -0.55815720065E+03  0.58958706630E+03  0.12550132828E+03 0.  0.
         35    2    3    3    0    0 -0.20946712276E+02 -0.14101099232E+03 -0.20923600747E+04  0.22437243917E+04  0.79749959169E+03 0.  0.
         22    1    5    5    0    0 -0.18198349231E+03  0.84305495194E+02 -0.18902746056E+04  0.19008849235E+04  0.00000000000E+00 0. -1.
         22    1    5    5    0    0  0.16103678003E+03 -0.22531648751E+03 -0.20208546912E+03  0.34283946811E+03  0.00000000000E+00 0. -1.
          5    1    4    4  502    0  0.63813464405E+02  0.10236599236E+03 -0.46043175137E+03  0.47599416204E+03  0.47000000000E+01 0. -1.
         -5    1    4    4    0  502 -0.42866752129E+02  0.38644999957E+02 -0.97725449285E+02  0.11359290426E+03  0.47000000000E+01 0. -1.
<mgrwt>
<rscale>  0 0.10012053E+04</rscale>
<asrwt>0</asrwt>
<pdfrwt beam="1">  1        2 0.42183290E+00 0.10012053E+04</pdfrwt>
<pdfrwt beam="2">  1       -2 0.14061094E-01 0.10012053E+04</pdfrwt>
<totfact> 0.10974703E+02</totfact>
</mgrwt>
</event>
<event>
 9    1  0.4370149E-036  0.9966893E+03  0.7818608E-02  0.8684197E-01
          3   -1    0    0  501    0  0.00000000000E+00  0.00000000000E+00  0.28721535843E+03  0.28721535843E+03  0.00000000000E+00 0. -1.
         -3   -1    0    0    0  501 -0.00000000000E+00 -0.00000000000E+00 -0.86467311068E+03  0.86467311068E+03  0.00000000000E+00 0. -1.
         36    2    1    2    0    0  0.00000000000E+00  0.00000000000E+00 -0.57745775226E+03  0.11518884691E+04  0.99668931450E+03 0.  0.
         25    2    3    3    0    0 -0.10619219112E+03  0.83231454564E+02 -0.13514575036E+03  0.22805428213E+03  0.12466003879E+03 0.  0.
         35    2    3    3    0    0  0.10619219112E+03 -0.83231454564E+02 -0.44231200189E+03  0.92383418699E+03  0.79976586670E+03 0.  0.
         22    1    5    5    0    0  0.14462209576E+03 -0.64488135848E+02 -0.67189571667E+03  0.69030292215E+03  0.00000000000E+00 0.  1.
         22    1    5    5    0    0 -0.38429904632E+02 -0.18743318716E+02  0.22958371478E+03  0.23353126484E+03  0.00000000000E+00 0.  1.
          5    1    4    4  502    0  0.11868681424E+02  0.53010317623E+02 -0.14312068809E+02  0.56372729993E+02  0.47000000000E+01 0.  1.
         -5    1    4    4    0  502 -0.11806087255E+03  0.30221136941E+02 -0.12083368155E+03  0.17168155213E+03  0.47000000000E+01 0.  1.
<mgrwt>
<rscale>  0 0.99668931E+03</rscale>
<asrwt>0</asrwt>
<pdfrwt beam="1">  1        3 0.44186979E-01 0.99668931E+03</pdfrwt>
<pdfrwt beam="2">  1       -3 0.13302663E+00 0.99668931E+03</pdfrwt>
<totfact> 0.75354451E+00</totfact>
</mgrwt>
</event>
<event>
 9    1  0.4370149E-036  0.9966247E+03  0.7818608E-02  0.8684259E-01
          2   -1    0    0  501    0  0.00000000000E+00  0.00000000000E+00  0.63747880565E+03  0.63747880565E+03  0.00000000000E+00 0. -1.
         -2   -1    0    0    0  501 -0.00000000000E+00 -0.00000000000E+00 -0.38952696030E+03  0.38952696030E+03  0.00000000000E+00 0. -1.
         36    2    1    2    0    0 -0.88817841970E-14  0.00000000000E+00  0.24795184535E+03  0.10270057659E+04  0.99662466640E+03 0.  0.
         25    2    3    3    0    0 -0.76288622977E+01  0.92894432581E+02  0.14620582939E+03  0.21580344632E+03  0.12848115719E+03 0.  0.
         35    2    3    3    0    0  0.76288622977E+01 -0.92894432581E+02  0.10174601596E+03  0.81120231962E+03  0.79938062052E+03 0.  0.
         22    1    5    5    0    0 -0.15491037614E+03 -0.35747509150E+03 -0.14384362693E+03  0.41530308774E+03  0.00000000000E+00 0. -1.
         22    1    5    5    0    0  0.16253923844E+03  0.26458065892E+03  0.24558964289E+03  0.39589923188E+03  0.00000000000E+00 0. -1.
          5    1    4    4  502    0 -0.17606258226E+02 -0.30126147853E+02  0.31620020230E+02  0.47323152817E+02  0.47000000000E+01 0. -1.
         -5    1    4    4    0  502  0.99773959285E+01  0.12302058043E+03  0.11458580916E+03  0.16848029351E+03  0.47000000000E+01 0. -1.
<mgrwt>
<rscale>  0 0.99662467E+03</rscale>
<asrwt>0</asrwt>
<pdfrwt beam="1">  1        2 0.98073662E-01 0.99662467E+03</pdfrwt>
<pdfrwt beam="2">  1       -2 0.59927225E-01 0.99662467E+03</pdfrwt>
<totfact> 0.14468045E+02</totfact>
</mgrwt>
</event>
<event>
 9    1  0.4370149E-036  0.9987767E+03  0.7818608E-02  0.8682204E-01
          1   -1    0    0  501    0  0.00000000000E+00  0.00000000000E+00  0.53172599293E+03  0.53172599293E+03  0.00000000000E+00 0. -1.
         -1   -1    0    0    0  501 -0.00000000000E+00 -0.00000000000E+00 -0.46901736044E+03  0.46901736044E+03  0.00000000000E+00 0. -1.
         36    2    1    2    0    0  0.17763568394E-13  0.00000000000E+00  0.62708632494E+02  0.10007433534E+04  0.99877669512E+03 0.  0.
         25    2    3    3    0    0  0.30041982474E+02 -0.38601159471E+02 -0.11777678802E+03  0.17670550097E+03  0.12231472541E+03 0.  0.
         35    2    3    3    0    0 -0.30041982474E+02  0.38601159471E+02  0.18048542052E+03  0.82403785240E+03  0.80254023260E+03 0.  0.
         22    1    5    5    0    0  0.22412332965E+03  0.30790539032E+03 -0.55605638068E+02  0.38487528275E+03  0.00000000000E+00 0. -1.
         22    1    5    5    0    0 -0.25416531212E+03 -0.26930423085E+03  0.23609105858E+03  0.43916256965E+03  0.00000000000E+00 0. -1.
          5    1    4    4  502    0 -0.19431166757E+02 -0.61199634292E+02 -0.25014453596E+02  0.69070821392E+02  0.47000000000E+01 0. -1.
         -5    1    4    4    0  502  0.49473149232E+02  0.22598474821E+02 -0.92762334427E+02  0.10763467958E+03  0.47000000000E+01 0. -1.
<mgrwt>
<rscale>  0 0.99877670E+03</rscale>
<asrwt>0</asrwt>
<pdfrwt beam="1">  1        1 0.81803999E-01 0.99877670E+03</pdfrwt>
<pdfrwt beam="2">  1       -1 0.72156517E-01 0.99877670E+03</pdfrwt>
<totfact> 0.92644237E+01</totfact>
</mgrwt>
</event>
<event>
 9    1  0.4370149E-036  0.1000400E+04  0.7818608E-02  0.8680657E-01
          2   -1    0    0  501    0  0.00000000000E+00  0.00000000000E+00  0.24983247650E+04  0.24983247650E+04  0.00000000000E+00 0.  1.
         -2   -1    0    0    0  501 -0.00000000000E+00 -0.00000000000E+00 -0.10014717366E+03  0.10014717366E+03  0.00000000000E+00 0.  1.
         36    2    1    2    0    0 -0.14210854715E-13 -0.28421709430E-13  0.23981775914E+04  0.25984719387E+04  0.10004002481E+04 0.  0.
         25    2    3    3    0    0  0.13353770002E+02  0.43639795926E+02  0.79422427130E+03  0.80525507054E+03  0.12474285769E+03 0.  0.
         35    2    3    3    0    0 -0.13353770002E+02 -0.43639795926E+02  0.16039533201E+04  0.17932168681E+04  0.80054839222E+03 0.  0.
         22    1    5    5    0    0 -0.21361202138E+03 -0.29790004219E+03  0.38324568231E+03  0.53033176769E+03  0.00000000000E+00 0. -1.
         22    1    5    5    0    0  0.20025825137E+03  0.25426024627E+03  0.12207076378E+04  0.12628851004E+04  0.00000000000E+00 0. -1.
          5    1    4    4  502    0  0.24070055987E+02  0.30463157600E+02  0.65282895256E+02  0.76100709453E+02  0.47000000000E+01 0. -1.
         -5    1    4    4    0  502 -0.10716285985E+02  0.13176638325E+02  0.72894137604E+03  0.72915436108E+03  0.47000000000E+01 0. -1.
<mgrwt>
<rscale>  0 0.10004002E+04</rscale>
<asrwt>0</asrwt>
<pdfrwt beam="1">  1        2 0.38435761E+00 0.10004002E+04</pdfrwt>
<pdfrwt beam="2">  1       -2 0.15407259E-01 0.10004002E+04</pdfrwt>
<totfact> 0.13344371E+02</totfact>
</mgrwt>
</event>
<event>
 9    1  0.4370149E-036  0.9995078E+03  0.7818608E-02  0.8681507E-01
          2   -1    0    0  501    0  0.00000000000E+00  0.00000000000E+00  0.85639666825E+03  0.85639666825E+03  0.00000000000E+00 0.  1.
         -2   -1    0    0    0  501 -0.00000000000E+00 -0.00000000000E+00 -0.29163347910E+03  0.29163347910E+03  0.00000000000E+00 0.  1.
         36    2    1    2    0    0  0.21316282073E-13  0.00000000000E+00  0.56476318915E+03  0.11480301474E+04  0.99950775856E+03 0.  0.
         25    2    3    3    0    0  0.20463743278E+02 -0.13282837249E+03  0.15129959705E+03  0.23750428264E+03  0.12431643046E+03 0.  0.
         35    2    3    3    0    0 -0.20463743278E+02  0.13282837249E+03  0.41346359210E+03  0.91052586471E+03  0.80002691641E+03 0.  0.
         22    1    5    5    0    0  0.29879875513E+03  0.32230200603E+03  0.20842964044E+03  0.48641771572E+03  0.00000000000E+00 0. -1.
         22    1    5    5    0    0 -0.31926249841E+03 -0.18947363354E+03  0.20503395167E+03  0.42410814898E+03  0.00000000000E+00 0. -1.
          5    1    4    4  502    0 -0.43288204347E+02 -0.14015863295E+02  0.22496953508E+02  0.50975641013E+02  0.47000000000E+01 0.  1.
         -5    1    4    4    0  502  0.63751947626E+02 -0.11881250919E+03  0.12880264354E+03  0.18652864163E+03  0.47000000000E+01 0.  1.
<mgrwt>
<rscale>  0 0.99950776E+03</rscale>
<asrwt>0</asrwt>
<pdfrwt beam="1">  1        2 0.13175333E+00 0.99950776E+03</pdfrwt>
<pdfrwt beam="2">  1       -2 0.44866689E-01 0.99950776E+03</pdfrwt>
<totfact> 0.17907942E+02</totfact>
</mgrwt>
</event>
<event>
 9    1  0.4370149E-036  0.1000459E+04  0.7818608E-02  0.8680601E-01
         -2   -1    0    0    0  501 -0.00000000000E+00  0.00000000000E+00  0.13834188835E+03  0.13834188835E+03  0.00000000000E+00 0.  1.
          2   -1    0    0  501    0  0.00000000000E+00 -0.00000000000E+00 -0.18087769823E+04  0.18087769823E+04  0.00000000000E+00 0.  1.
         36    2    1    2    0    0  0.28421709430E-13  0.71054273576E-14 -0.16704350940E+04  0.19471188707E+04  0.10004591413E+04 0.  0.
         25    2    3    3    0    0  0.38286825106E+02  0.24573452306E+01 -0.57538190695E+03  0.58976032398E+03  0.12361626663E+03 0.  0.
         35    2    3    3    0    0 -0.38286825106E+02 -0.24573452306E+01 -0.10950531870E+04  0.13573585467E+04  0.80112971629E+03 0.  0.
         22    1    5    5    0    0 -0.41329381443E+03 -0.51526289755E+02 -0.48185571751E+03  0.63690789607E+03  0.00000000000E+00 0. -1.
         22    1    5    5    0    0  0.37500698932E+03  0.49068944525E+02 -0.61319746951E+03  0.72045065061E+03  0.00000000000E+00 0. -1.
          5    1    4    4  502    0  0.97172878760E+01  0.12194459345E+02 -0.54944798866E+03  0.54968928747E+03  0.47000000000E+01 0.  1.
         -5    1    4    4    0  502  0.28569537230E+02 -0.97371141141E+01 -0.25933918289E+02  0.40071036506E+02  0.47000000000E+01 0.  1.
<mgrwt>
<rscale>  0 0.10004591E+04</rscale>
<asrwt>0</asrwt>
<pdfrwt beam="1">  1        2 0.27827338E+00 0.10004591E+04</pdfrwt>
<pdfrwt beam="2">  1       -2 0.21283367E-01 0.10004591E+04</pdfrwt>
<totfact> 0.19311829E+02</totfact>
</mgrwt>
</event>
<event>
 9    1  0.4370149E-036  0.9993756E+03  0.7818608E-02  0.8681633E-01
          2   -1    0    0  501    0  0.00000000000E+00  0.00000000000E+00  0.16917700613E+04  0.16917700613E+04  0.00000000000E+00 0. -1.
         -2   -1    0    0    0  501 -0.00000000000E+00 -0.00000000000E+00 -0.14758974859E+03  0.14758974859E+03  0.00000000000E+00 0. -1.
         36    2    1    2    0    0  0.14210854715E-13  0.28421709430E-13  0.15441803127E+04  0.18393598099E+04  0.99937564111E+03 0.  0.
         25    2    3    3    0    0 -0.84824087966E+02  0.10112460440E+03  0.36090182669E+03  0.40431672093E+03  0.12570032138E+03 0.  0.
         35    2    3    3    0    0  0.84824087966E+02 -0.10112460440E+03  0.11832784860E+04  0.14350430890E+04  0.80111134069E+03 0.  0.
         22    1    5    5    0    0  0.52962618048E+02 -0.44782482070E+03  0.79126538375E+03  0.91074311223E+03  0.00000000000E+00 0.  1.
         22    1    5    5    0    0  0.31861469918E+02  0.34670021630E+03  0.39201310226E+03  0.52429997673E+03  0.00000000000E+00 0.  1.
          5    1    4    4  502    0 -0.54968150195E+02  0.52125693454E+02  0.56763244468E+02  0.94777325223E+02  0.47000000000E+01 0.  1.
         -5    1    4    4    0  502 -0.29855937771E+02  0.48998910942E+02  0.30413858223E+03  0.30953939570E+03  0.47000000000E+01 0.  1.
<mgrwt>
<rscale>  0 0.99937564E+03</rscale>
<asrwt>0</asrwt>
<pdfrwt beam="1">  1        2 0.26027230E+00 0.99937564E+03</pdfrwt>
<pdfrwt beam="2">  1       -2 0.22706116E-01 0.99937564E+03</pdfrwt>
<totfact> 0.20074848E+02</totfact>
</mgrwt>
</event>
<event>
 9    1  0.4370149E-036  0.9997662E+03  0.7818608E-02  0.8681261E-01
          2   -1    0    0  501    0  0.00000000000E+00  0.00000000000E+00  0.13898400199E+03  0.13898400199E+03  0.00000000000E+00 0. -1.
         -2   -1    0    0    0  501 -0.00000000000E+00 -0.00000000000E+00 -0.17979271494E+04  0.17979271494E+04  0.00000000000E+00 0. -1.
         36    2    1    2    0    0  0.28421709430E-13  0.14210854715E-13 -0.16589431475E+04  0.19369111514E+04  0.99976619369E+03 0.  0.
         25    2    3    3    0    0 -0.99257444404E+02 -0.89019557852E+02 -0.38366719365E+03  0.42576715504E+03  0.12767393186E+03 0.  0.
         35    2    3    3    0    0  0.99257444404E+02  0.89019557852E+02 -0.12752759538E+04  0.15111439964E+04  0.79965673732E+03 0.  0.
         22    1    5    5    0    0  0.25184331475E+03 -0.10692744188E+03 -0.72568619901E+02  0.28306313360E+03  0.00000000000E+00 0. -1.
         22    1    5    5    0    0 -0.15258587034E+03  0.19594699973E+03 -0.12027073339E+04  0.12280808628E+04  0.00000000000E+00 0. -1.
          5    1    4    4  502    0 -0.96310336092E+02 -0.20536704847E+01 -0.22366546913E+03  0.24357387068E+03  0.47000000000E+01 0. -1.
         -5    1    4    4    0  502 -0.29471083121E+01 -0.86965887367E+02 -0.16000172452E+03  0.18219328435E+03  0.47000000000E+01 0. -1.
<mgrwt>
<rscale>  0 0.99976619E+03</rscale>
<asrwt>0</asrwt>
<pdfrwt beam="1">  1        2 0.21382153E-01 0.99976619E+03</pdfrwt>
<pdfrwt beam="2">  1       -2 0.27660419E+00 0.99976619E+03</pdfrwt>
<totfact> 0.12493173E+01</totfact>
</mgrwt>
</event>
<event>
 9    1  0.4370149E-036  0.9995372E+03  0.7818608E-02  0.8681479E-01
         -2   -1    0    0    0  501 -0.00000000000E+00  0.00000000000E+00  0.18143690680E+03  0.18143690680E+03  0.00000000000E+00 0.  1.
          2   -1    0    0  501    0  0.00000000000E+00 -0.00000000000E+00 -0.13766144810E+04  0.13766144810E+04  0.00000000000E+00 0.  1.
         36    2    1    2    0    0  0.00000000000E+00 -0.14210854715E-13 -0.11951775742E+04  0.15580513878E+04  0.99953723949E+03 0.  0.
         25    2    3    3    0    0 -0.88206793003E+02  0.10257263842E+03 -0.15451227009E+03  0.24031323016E+03  0.12479912859E+03 0.  0.
         35    2    3    3    0    0  0.88206793003E+02 -0.10257263842E+03 -0.10406653041E+04  0.13177381576E+04  0.79696172582E+03 0.  0.
         22    1    5    5    0    0  0.37159944463E+03  0.13508349596E+03 -0.74809740629E+03  0.84615803927E+03  0.00000000000E+00 0.  1.
         22    1    5    5    0    0 -0.28339265163E+03 -0.23765613437E+03 -0.29256789782E+03  0.47158011836E+03  0.00000000000E+00 0.  1.
          5    1    4    4  502    0  0.96862750542E+01 -0.17856441384E+02  0.57438099304E+00  0.20858962986E+02  0.47000000000E+01 0. -1.
         -5    1    4    4    0  502 -0.97893068057E+02  0.12042907980E+03 -0.15508665108E+03  0.21945426717E+03  0.47000000000E+01 0. -1.
<mgrwt>
<rscale>  0 0.99953724E+03</rscale>
<asrwt>0</asrwt>
<pdfrwt beam="1">  1        2 0.21178684E+00 0.99953724E+03</pdfrwt>
<pdfrwt beam="2">  1       -2 0.27913371E-01 0.99953724E+03</pdfrwt>
<totfact> 0.20978910E+02</totfact>
</mgrwt>
</event>
<event>
 9    1  0.4370149E-036  0.1000963E+04  0.7818608E-02  0.8680122E-01
         -1   -1    0    0    0  501 -0.00000000000E+00  0.00000000000E+00  0.50626476667E+03  0.50626476667E+03  0.00000000000E+00 0. -1.
          1   -1    0    0  501    0  0.00000000000E+00 -0.00000000000E+00 -0.49476420061E+03  0.49476420061E+03  0.00000000000E+00 0. -1.
         36    2    1    2    0    0 -0.14210854715E-13  0.35527136788E-14  0.11500566056E+02  0.10010289673E+04  0.10009629016E+04 0.  0.
         25    2    3    3    0    0  0.11837149144E+03  0.26473166449E+02 -0.68583946927E+02  0.18732487671E+03  0.12519669777E+03 0.  0.
         35    2    3    3    0    0 -0.11837149144E+03 -0.26473166449E+02  0.80084512984E+02  0.81370409056E+03  0.80061737381E+03 0.  0.
         22    1    5    5    0    0 -0.37891032191E+03 -0.27660678181E+01  0.29091048016E+03  0.47771287469E+03  0.00000000000E+00 0.  1.
         22    1    5    5    0    0  0.26053883047E+03 -0.23707098631E+02 -0.21082596717E+03  0.33599121587E+03  0.00000000000E+00 0.  1.
          5    1    4    4  502    0  0.87679331201E+02 -0.19597141484E+02  0.10607612871E+02  0.90588765998E+02  0.47000000000E+01 0.  1.
         -5    1    4    4    0  502  0.30692160243E+02  0.46070307933E+02 -0.79191559798E+02  0.96736110717E+02  0.47000000000E+01 0.  1.
<mgrwt>
<rscale>  0 0.10009629E+04</rscale>
<asrwt>0</asrwt>
<pdfrwt beam="1">  1        1 0.76117569E-01 0.10009629E+04</pdfrwt>
<pdfrwt beam="2">  1       -1 0.77886887E-01 0.10009629E+04</pdfrwt>
<totfact> 0.87704342E+01</totfact>
</mgrwt>
</event>
<event>
 9    1  0.4370149E-036  0.9999142E+03  0.7818608E-02  0.8681120E-01
          2   -1    0    0  501    0  0.00000000000E+00  0.00000000000E+00  0.46383955681E+03  0.46383955681E+03  0.00000000000E+00 0. -1.
         -2   -1    0    0    0  501 -0.00000000000E+00 -0.00000000000E+00 -0.53888694884E+03  0.53888694884E+03  0.00000000000E+00 0. -1.
         36    2    1    2    0    0  0.14210854715E-13  0.00000000000E+00 -0.75047392036E+02  0.10027265057E+04  0.99991416336E+03 0.  0.
         25    2    3    3    0    0 -0.11120245938E+03  0.65995740330E+02  0.40187691424E+02  0.18429985351E+03  0.12501984142E+03 0.  0.
         35    2    3    3    0    0  0.11120245938E+03 -0.65995740330E+02 -0.11523508346E+03  0.81842665214E+03  0.79988851458E+03 0.  0.
         22    1    5    5    0    0 -0.94893387801E+01  0.34019460540E+02  0.33749064296E+03  0.33933361951E+03  0.00000000000E+00 0. -1.
         22    1    5    5    0    0  0.12069179816E+03 -0.10001520087E+03 -0.45272572642E+03  0.47909303263E+03  0.00000000000E+00 0. -1.
          5    1    4    4  502    0 -0.87816127815E+02 -0.20044291207E+02  0.26199709179E+02  0.93925293055E+02  0.47000000000E+01 0. -1.
         -5    1    4    4    0  502 -0.23386331563E+02  0.86040031537E+02  0.13987982245E+02  0.90374560459E+02  0.47000000000E+01 0. -1.
<mgrwt>
<rscale>  0 0.99991416E+03</rscale>
<asrwt>0</asrwt>
<pdfrwt beam="1">  1        2 0.71359932E-01 0.99991416E+03</pdfrwt>
<pdfrwt beam="2">  1       -2 0.82905684E-01 0.99991416E+03</pdfrwt>
<totfact> 0.10293569E+02</totfact>
</mgrwt>
</event>
<event>
 9    1  0.4370149E-036  0.1000946E+04  0.7818608E-02  0.8680138E-01
          2   -1    0    0  501    0  0.00000000000E+00  0.00000000000E+00  0.11587905729E+04  0.11587905729E+04  0.00000000000E+00 0.  1.
         -2   -1    0    0    0  501 -0.00000000000E+00 -0.00000000000E+00 -0.21615035630E+03  0.21615035630E+03  0.00000000000E+00 0.  1.
         36    2    1    2    0    0  0.49737991503E-13  0.14210854715E-13  0.94264021656E+03  0.13749409292E+04  0.10009455434E+04 0.  0.
         25    2    3    3    0    0  0.18737176898E+01  0.59550933190E+02  0.80383788991E+01  0.14341387132E+03  0.13020406479E+03 0.  0.
         35    2    3    3    0    0 -0.18737176898E+01 -0.59550933190E+02  0.93460183767E+03  0.12315270579E+04  0.79976776304E+03 0.  0.
         22    1    5    5    0    0 -0.27177510088E+03 -0.25594680326E+03  0.77776911650E+03  0.86272548945E+03  0.00000000000E+00 0.  1.
         22    1    5    5    0    0  0.26990138319E+03  0.19639587007E+03  0.15683272117E+03  0.36880156841E+03  0.00000000000E+00 0.  1.
          5    1    4    4  502    0  0.39820100526E+02 -0.26885593936E+02 -0.23214218150E+01  0.48331713879E+02  0.47000000000E+01 0.  1.
         -5    1    4    4    0  502 -0.37946382836E+02  0.86436527126E+02  0.10359800714E+02  0.95082157437E+02  0.47000000000E+01 0.  1.
<mgrwt>
<rscale>  0 0.10009455E+04</rscale>
<asrwt>0</asrwt>
<pdfrwt beam="1">  1        2 0.17827547E+00 0.10009455E+04</pdfrwt>
<pdfrwt beam="2">  1       -2 0.33253902E-01 0.10009455E+04</pdfrwt>
<totfact> 0.20419546E+02</totfact>
</mgrwt>
</event>
<event>
 9    1  0.4370149E-036  0.9997918E+03  0.7818608E-02  0.8681236E-01
          2   -1    0    0  501    0  0.00000000000E+00  0.00000000000E+00  0.22019748706E+04  0.22019748706E+04  0.00000000000E+00 0. -1.
         -2   -1    0    0    0  501 -0.00000000000E+00 -0.00000000000E+00 -0.11348718247E+03  0.11348718247E+03  0.00000000000E+00 0. -1.
         36    2    1    2    0    0 -0.14210854715E-13  0.00000000000E+00  0.20884876881E+04  0.23154620531E+04  0.99979182622E+03 0.  0.
         25    2    3    3    0    0 -0.40906588171E+02  0.78877270138E+02  0.14330744493E+03  0.20981586884E+03  0.12486273400E+03 0.  0.
         35    2    3    3    0    0  0.40906588171E+02 -0.78877270138E+02  0.19451802432E+04  0.21056461842E+04  0.80132683843E+03 0.  0.
         22    1    5    5    0    0 -0.31915147165E+03 -0.12951984095E+03  0.44885369158E+03  0.56577618146E+03  0.00000000000E+00 0.  1.
         22    1    5    5    0    0  0.36005805982E+03  0.50642570816E+02  0.14963265516E+04  0.15398700028E+04  0.00000000000E+00 0.  1.
          5    1    4    4  502    0 -0.22311212782E+02 -0.29889283989E+02  0.62616540312E+02  0.73034790571E+02  0.47000000000E+01 0.  1.
         -5    1    4    4    0  502 -0.18595375389E+02  0.10876655413E+03  0.80690904622E+02  0.13678107826E+03  0.47000000000E+01 0.  1.
<mgrwt>
<rscale>  0 0.99979183E+03</rscale>
<asrwt>0</asrwt>
<pdfrwt beam="1">  1        2 0.33876533E+00 0.99979183E+03</pdfrwt>
<pdfrwt beam="2">  1       -2 0.17459568E-01 0.99979183E+03</pdfrwt>
<totfact> 0.16199148E+02</totfact>
</mgrwt>
</event>
<event>
 9    1  0.4370149E-036  0.1005394E+04  0.7818608E-02  0.8675918E-01
          2   -1    0    0  501    0  0.00000000000E+00  0.00000000000E+00  0.23432154596E+04  0.23432154596E+04  0.00000000000E+00 0. -1.
         -2   -1    0    0    0  501 -0.00000000000E+00 -0.00000000000E+00 -0.10784503268E+03  0.10784503268E+03  0.00000000000E+00 0. -1.
         36    2    1    2    0    0  0.14210854715E-13 -0.49737991503E-13  0.22353704269E+04  0.24510604923E+04  0.10053937494E+04 0.  0.
         25    2    3    3    0    0  0.11305543618E+03 -0.25314910467E+02  0.61136519546E+03  0.63494751078E+03  0.12636677918E+03 0.  0.
         35    2    3    3    0    0 -0.11305543618E+03  0.25314910467E+02  0.16240052314E+04  0.18161129815E+04  0.80464339520E+03 0.  0.
         22    1    5    5    0    0 -0.24685509534E+03 -0.31291676720E+03  0.52943058927E+03  0.66268475925E+03  0.00000000000E+00 0. -1.
         22    1    5    5    0    0  0.13379965915E+03  0.33823167767E+03  0.10945746422E+04  0.11534282222E+04  0.00000000000E+00 0. -1.
          5    1    4    4  502    0  0.59971929285E+02 -0.76374470194E+02  0.32550151214E+03  0.33971019473E+03  0.47000000000E+01 0.  1.
         -5    1    4    4    0  502  0.53083506899E+02  0.51059559727E+02  0.28586368333E+03  0.29523731605E+03  0.47000000000E+01 0.  1.
<mgrwt>
<rscale>  0 0.10053937E+04</rscale>
<asrwt>0</asrwt>
<pdfrwt beam="1">  1        2 0.36049465E+00 0.10053937E+04</pdfrwt>
<pdfrwt beam="2">  1       -2 0.16591545E-01 0.10053937E+04</pdfrwt>
<totfact> 0.14593133E+02</totfact>
</mgrwt>
</event>
<event>
 9    1  0.4370149E-036  0.1000679E+04  0.7818608E-02  0.8680391E-01
         -2   -1    0    0    0  501 -0.00000000000E+00  0.00000000000E+00  0.17347385716E+03  0.17347385716E+03  0.00000000000E+00 0. -1.
          2   -1    0    0  501    0  0.00000000000E+00 -0.00000000000E+00 -0.14430976949E+04  0.14430976949E+04  0.00000000000E+00 0. -1.
         36    2    1    2    0    0  0.21316282073E-13  0.28421709430E-13 -0.12696238377E+04  0.16165715520E+04  0.10006792161E+04 0.  0.
         25    2    3    3    0    0  0.58288231383E+02 -0.12446052052E+03 -0.26774481951E+03  0.32753502308E+03  0.12924381565E+03 0.  0.
         35    2    3    3    0    0 -0.58288231383E+02  0.12446052052E+03 -0.10018790182E+04  0.12890365289E+04  0.79935328031E+03 0.  0.
         22    1    5    5    0    0  0.19465918535E+03  0.28137383000E+03 -0.12708271437E+03  0.36498417354E+03  0.00000000000E+00 0. -1.
         22    1    5    5    0    0 -0.25294741673E+03 -0.15691330947E+03 -0.87479630382E+03  0.92405235539E+03  0.00000000000E+00 0. -1.
          5    1    4    4  502    0  0.58711016176E+02 -0.34799883948E+02 -0.20980914503E+03  0.22068072567E+03  0.47000000000E+01 0.  1.
         -5    1    4    4    0  502 -0.42278479233E+00 -0.89660636575E+02 -0.57935674480E+02  0.10685429741E+03  0.47000000000E+01 0.  1.
<mgrwt>
<rscale>  0 0.10006792E+04</rscale>
<asrwt>0</asrwt>
<pdfrwt beam="1">  1        2 0.22201503E+00 0.10006792E+04</pdfrwt>
<pdfrwt beam="2">  1       -2 0.26688286E-01 0.10006792E+04</pdfrwt>
<totfact> 0.20837407E+02</totfact>
</mgrwt>
</event>
<event>
 9    1  0.4370149E-036  0.1000647E+04  0.7818608E-02  0.8680422E-01
          2   -1    0    0  501    0  0.00000000000E+00  0.00000000000E+00  0.84382402991E+03  0.84382402991E+03  0.00000000000E+00 0.  1.
         -2   -1    0    0    0  501 -0.00000000000E+00 -0.00000000000E+00 -0.29665362083E+03  0.29665362083E+03  0.00000000000E+00 0.  1.
         36    2    1    2    0    0  0.14210854715E-13  0.00000000000E+00  0.54717040908E+03  0.11404776507E+04  0.10006466985E+04 0.  0.
         25    2    3    3    0    0  0.90868809283E+02 -0.67616077721E+02  0.68937499701E+01  0.16845557490E+03  0.12450173677E+03 0.  0.
         35    2    3    3    0    0 -0.90868809283E+02  0.67616077721E+02  0.54027665911E+03  0.97202207585E+03  0.80006185579E+03 0.  0.
         22    1    5    5    0    0  0.17509581778E+02  0.28708605255E+03  0.64466840379E+03  0.70591949815E+03  0.00000000000E+00 0. -1.
         22    1    5    5    0    0 -0.10837839106E+03 -0.21946997483E+03 -0.10439174468E+03  0.26610257770E+03  0.00000000000E+00 0. -1.
          5    1    4    4  502    0  0.10041417729E+03 -0.37791093279E+02  0.47107730665E+02  0.11727063580E+03  0.47000000000E+01 0.  1.
         -5    1    4    4    0  502 -0.95453680085E+01 -0.29824984442E+02 -0.40213980695E+02  0.51184939101E+02  0.47000000000E+01 0.  1.
<mgrwt>
<rscale>  0 0.10006467E+04</rscale>
<asrwt>0</asrwt>
<pdfrwt beam="1">  1        2 0.12981908E+00 0.10006467E+04</pdfrwt>
<pdfrwt beam="2">  1       -2 0.45639019E-01 0.10006467E+04</pdfrwt>
<totfact> 0.17661636E+02</totfact>
</mgrwt>
</event>
<event>
 9    1  0.4370149E-036  0.9994739E+03  0.7818608E-02  0.8681539E-01
          2   -1    0    0  501    0  0.00000000000E+00  0.00000000000E+00  0.37815980217E+04  0.37815980217E+04  0.00000000000E+00 0.  1.
         -2   -1    0    0    0  501 -0.00000000000E+00 -0.00000000000E+00 -0.66040070638E+02  0.66040070638E+02  0.00000000000E+00 0.  1.
         36    2    1    2    0    0  0.14210854715E-13  0.00000000000E+00  0.37155579511E+04  0.38476380924E+04  0.99947386255E+03 0.  0.
         25    2    3    3    0    0 -0.82026026333E+02  0.11113521164E+02  0.28017358618E+03  0.31926031303E+03  0.12875608619E+03 0.  0.
         35    2    3    3    0    0  0.82026026333E+02 -0.11113521164E+02  0.34353843649E+04  0.35283777793E+04  0.80045751901E+03 0.  0.
         22    1    5    5    0    0  0.19477369927E+03 -0.30691362767E+03  0.86077422209E+03  0.93437948939E+03  0.00000000000E+00 0.  1.
         22    1    5    5    0    0 -0.11274767294E+03  0.29580010651E+03  0.25746101428E+04  0.25939982899E+04  0.00000000000E+00 0.  1.
          5    1    4    4  502    0 -0.56366695937E+02 -0.27127858274E+02  0.39402402647E+02  0.74079446811E+02  0.47000000000E+01 0. -1.
         -5    1    4    4    0  502 -0.25659330396E+02  0.38241379438E+02  0.24077118353E+03  0.24518086622E+03  0.47000000000E+01 0. -1.
<mgrwt>
<rscale>  0 0.99947386E+03</rscale>
<asrwt>0</asrwt>
<pdfrwt beam="1">  1        2 0.58178414E+00 0.99947386E+03</pdfrwt>
<pdfrwt beam="2">  1       -2 0.10160014E-01 0.99947386E+03</pdfrwt>
<totfact> 0.33787390E+01</totfact>
</mgrwt>
</event>
<event>
 9    1  0.4370149E-036  0.9992127E+03  0.7818608E-02  0.8681788E-01
         -2   -1    0    0    0  501 -0.00000000000E+00  0.00000000000E+00  0.30593731772E+03  0.30593731772E+03  0.00000000000E+00 0. -1.
          2   -1    0    0  501    0  0.00000000000E+00 -0.00000000000E+00 -0.81587471711E+03  0.81587471711E+03  0.00000000000E+00 0. -1.
         36    2    1    2    0    0  0.14210854715E-13 -0.56843418861E-13 -0.50993739939E+03  0.11218120348E+04  0.99921273521E+03 0.  0.
         25    2    3    3    0    0 -0.27959763766E+02 -0.13512210274E+03 -0.11179203352E+03  0.21818830519E+03  0.12676334930E+03 0.  0.
         35    2    3    3    0    0  0.27959763766E+02  0.13512210274E+03 -0.39814536587E+03  0.90362372964E+03  0.79935998234E+03 0.  0.
         22    1    5    5    0    0  0.19059829794E+03  0.43171139162E+03 -0.20956602703E+03  0.51635293793E+03  0.00000000000E+00 0. -1.
         22    1    5    5    0    0 -0.16263853417E+03 -0.29658928887E+03 -0.18857933884E+03  0.38727079171E+03  0.00000000000E+00 0. -1.
          5    1    4    4  502    0 -0.62668535088E+02 -0.13635783620E+03 -0.10293273469E+03  0.18203857463E+03  0.47000000000E+01 0.  1.
         -5    1    4    4    0  502  0.34708771323E+02  0.12357334529E+01 -0.88592988207E+01  0.36149730559E+02  0.47000000000E+01 0.  1.
<mgrwt>
<rscale>  0 0.99921274E+03</rscale>
<asrwt>0</asrwt>
<pdfrwt beam="1">  1        2 0.12551919E+00 0.99921274E+03</pdfrwt>
<pdfrwt beam="2">  1       -2 0.47067280E-01 0.99921274E+03</pdfrwt>
<totfact> 0.17373220E+02</totfact>
</mgrwt>
</event>
<event>
 9    1  0.4370149E-036  0.1000946E+04  0.7818608E-02  0.8680137E-01
          2   -1    0    0  501    0  0.00000000000E+00  0.00000000000E+00  0.19509453759E+04  0.19509453759E+04  0.00000000000E+00 0. -1.
         -2   -1    0    0    0  501 -0.00000000000E+00 -0.00000000000E+00 -0.12838563617E+03  0.12838563617E+03  0.00000000000E+00 0. -1.
         36    2    1    2    0    0  0.00000000000E+00  0.42632564146E-13  0.18225597397E+04  0.20793310121E+04  0.10009462787E+04 0.  0.
         25    2    3    3    0    0  0.66279772103E+02  0.35217275779E+02  0.95276638755E+02  0.17429328308E+03  0.12516886966E+03 0.  0.
         35    2    3    3    0    0 -0.66279772103E+02 -0.35217275779E+02  0.17272831010E+04  0.19050377290E+04  0.80001785810E+03 0.  0.
         22    1    5    5    0    0 -0.82145282962E+02 -0.39141842902E+03  0.58692431684E+03  0.71023685330E+03  0.00000000000E+00 0.  1.
         22    1    5    5    0    0  0.15865510859E+02  0.35620115324E+03  0.11403587841E+04  0.11948008757E+04  0.00000000000E+00 0.  1.
          5    1    4    4  502    0  0.72649769295E+02  0.57113153190E+02  0.11225618104E+03  0.14547660097E+03  0.47000000000E+01 0.  1.
         -5    1    4    4    0  502 -0.63699971917E+01 -0.21895877412E+02 -0.16979542288E+02  0.28816682116E+02  0.47000000000E+01 0.  1.
<mgrwt>
<rscale>  0 0.10009463E+04</rscale>
<asrwt>0</asrwt>
<pdfrwt beam="1">  1        2 0.30014542E+00 0.10009463E+04</pdfrwt>
<pdfrwt beam="2">  1       -2 0.19751638E-01 0.10009463E+04</pdfrwt>
<totfact> 0.18265492E+02</totfact>
</mgrwt>
</event>
<event>
 9    1  0.4370149E-036  0.1000356E+04  0.7818608E-02  0.8680699E-01
          2   -1    0    0  501    0  0.00000000000E+00  0.00000000000E+00  0.20627249468E+04  0.20627249468E+04  0.00000000000E+00 0. -1.
         -2   -1    0    0    0  501 -0.00000000000E+00 -0.00000000000E+00 -0.12128513943E+03  0.12128513943E+03  0.00000000000E+00 0. -1.
         36    2    1    2    0    0  0.28421709430E-13 -0.23647750425E-13  0.19414398074E+04  0.21840100862E+04  0.10003557023E+04 0.  0.
         25    2    3    3    0    0  0.13335949229E+03 -0.14720066155E+00  0.44524946039E+03  0.48197670029E+03  0.12755266283E+03 0.  0.
         35    2    3    3    0    0 -0.13335949229E+03  0.14720066155E+00  0.14961903470E+04  0.17020333859E+04  0.80034199976E+03 0.  0.
         22    1    5    5    0    0 -0.27413321157E+03 -0.33999238735E+03  0.70361872390E+03  0.82814440152E+03  0.00000000000E+00 0. -1.
         22    1    5    5    0    0  0.14077371928E+03  0.34013958801E+03  0.79257162309E+03  0.87388898442E+03  0.00000000000E+00 0. -1.
          5    1    4    4  502    0 -0.45468598366E+01 -0.68767331358E+00 -0.67263492380E+01  0.94064128674E+01  0.47000000000E+01 0.  1.
         -5    1    4    4    0  502  0.13790635212E+03  0.54047265202E+00  0.45197580963E+03  0.47257028743E+03  0.47000000000E+01 0.  1.
<mgrwt>
<rscale>  0 0.10003557E+04</rscale>
<asrwt>0</asrwt>
<pdfrwt beam="1">  1        2 0.31734227E+00 0.10003557E+04</pdfrwt>
<pdfrwt beam="2">  1       -2 0.18659254E-01 0.10003557E+04</pdfrwt>
<totfact> 0.17396553E+02</totfact>
</mgrwt>
</event>
<event>
 9    1  0.4370149E-036  0.1000670E+04  0.7818608E-02  0.8680400E-01
          2   -1    0    0  501    0  0.00000000000E+00  0.00000000000E+00  0.88841435494E+03  0.88841435494E+03  0.00000000000E+00 0. -1.
         -2   -1    0    0    0  501 -0.00000000000E+00 -0.00000000000E+00 -0.28177747738E+03  0.28177747738E+03  0.00000000000E+00 0. -1.
         36    2    1    2    0    0  0.00000000000E+00  0.88817841970E-15  0.60663687756E+03  0.11701918323E+04  0.10006700871E+04 0.  0.
         25    2    3    3    0    0  0.13072954131E+03  0.46679840874E+01  0.18048119805E+03  0.25521793070E+03  0.12430095034E+03 0.  0.
         35    2    3    3    0    0 -0.13072954131E+03 -0.46679840874E+01  0.42615567951E+03  0.91497390161E+03  0.79903477671E+03 0.  0.
         22    1    5    5    0    0 -0.38339297031E+03 -0.22273733430E+03  0.11360608856E+03  0.45772091183E+03  0.00000000000E+00 0. -1.
         22    1    5    5    0    0  0.25266342900E+03  0.21806935021E+03  0.31254959095E+03  0.45725298978E+03  0.00000000000E+00 0. -1.
          5    1    4    4  502    0  0.27117117284E+02 -0.52526781921E+01 -0.16400971539E+02  0.32465528571E+02  0.47000000000E+01 0. -1.
         -5    1    4    4    0  502  0.10361242403E+03  0.99206622795E+01  0.19688216959E+03  0.22275240213E+03  0.47000000000E+01 0. -1.
<mgrwt>
<rscale>  0 0.10006701E+04</rscale>
<asrwt>0</asrwt>
<pdfrwt beam="1">  1        2 0.13667913E+00 0.10006701E+04</pdfrwt>
<pdfrwt beam="2">  1       -2 0.43350381E-01 0.10006701E+04</pdfrwt>
<totfact> 0.18228002E+02</totfact>
</mgrwt>
</event>
<event>
 9    1  0.4370149E-036  0.9983072E+03  0.7818608E-02  0.8682652E-01
          3   -1    0    0  501    0  0.00000000000E+00  0.00000000000E+00  0.55408780238E+04  0.55408780238E+04  0.00000000000E+00 0. -1.
         -3   -1    0    0    0  501 -0.00000000000E+00 -0.00000000000E+00 -0.44966580105E+02  0.44966580105E+02  0.00000000000E+00 0. -1.
         36    2    1    2    0    0  0.00000000000E+00  0.00000000000E+00  0.54959114437E+04  0.55858446039E+04  0.99830723830E+03 0.  0.
         25    2    3    3    0    0  0.68867315427E+02  0.11195245680E+03  0.78842048836E+03  0.80897564871E+03  0.12473441396E+03 0.  0.
         35    2    3    3    0    0 -0.68867315427E+02 -0.11195245680E+03  0.47074909553E+04  0.47768689552E+04  0.80045603303E+03 0.  0.
         22    1    5    5    0    0 -0.99620834541E+02  0.28872862189E+03  0.94863556984E+03  0.99659318286E+03  0.00000000000E+00 0. -1.
         22    1    5    5    0    0  0.30753519114E+02 -0.40068107869E+03  0.37588553855E+04  0.37802757723E+04  0.00000000000E+00 0. -1.
          5    1    4    4  502    0  0.79580054673E+02  0.65663777789E+02  0.70766805942E+03  0.71516493841E+03  0.47000000000E+01 0.  1.
         -5    1    4    4    0  502 -0.10712739246E+02  0.46288679012E+02  0.80752428944E+02  0.93810710301E+02  0.47000000000E+01 0.  1.
<mgrwt>
<rscale>  0 0.99830724E+03</rscale>
<asrwt>0</asrwt>
<pdfrwt beam="1">  1        3 0.85244223E+00 0.99830724E+03</pdfrwt>
<pdfrwt beam="2">  1       -3 0.69179398E-02 0.99830724E+03</pdfrwt>
<totfact> 0.97929322E-02</totfact>
</mgrwt>
</event>
<event>
 9    1  0.4370149E-036  0.9962748E+03  0.7818608E-02  0.8684594E-01
          2   -1    0    0  501    0  0.00000000000E+00  0.00000000000E+00  0.43584419741E+04  0.43584419741E+04  0.00000000000E+00 0.  1.
         -2   -1    0    0    0  501 -0.00000000000E+00 -0.00000000000E+00 -0.56933383062E+02  0.56933383062E+02  0.00000000000E+00 0.  1.
         36    2    1    2    0    0 -0.12434497876E-13  0.00000000000E+00  0.43015085910E+04  0.44153753572E+04  0.99627475420E+03 0.  0.
         25    2    3    3    0    0 -0.84095981549E+01 -0.13747042864E+03  0.87027283414E+03  0.88993005193E+03  0.12502740259E+03 0.  0.
         35    2    3    3    0    0  0.84095981549E+01  0.13747042864E+03  0.34312357569E+04  0.35254453052E+04  0.79775744476E+03 0.  0.
         22    1    5    5    0    0 -0.21572189402E+03 -0.18941903203E+03  0.24563625747E+04  0.24730816006E+04  0.00000000000E+00 0.  1.
         22    1    5    5    0    0  0.22413149218E+03  0.32688946067E+03  0.97487318225E+03  0.10523637046E+04  0.00000000000E+00 0.  1.
          5    1    4    4  502    0  0.11975643091E+02 -0.50220987595E+02  0.65029550997E+03  0.65235872334E+03  0.47000000000E+01 0.  1.
         -5    1    4    4    0  502 -0.20385241246E+02 -0.87249441044E+02  0.21997732417E+03  0.23757132860E+03  0.47000000000E+01 0.  1.
<mgrwt>
<rscale>  0 0.99627475E+03</rscale>
<asrwt>0</asrwt>
<pdfrwt beam="1">  1        2 0.67052927E+00 0.99627475E+03</pdfrwt>
<pdfrwt beam="2">  1       -2 0.87589854E-02 0.99627475E+03</pdfrwt>
<totfact> 0.13123276E+01</totfact>
</mgrwt>
</event>
<event>
 9    1  0.4370149E-036  0.9995212E+03  0.7818608E-02  0.8681494E-01
         -2   -1    0    0    0  501 -0.00000000000E+00  0.00000000000E+00  0.35466597563E+03  0.35466597563E+03  0.00000000000E+00 0. -1.
          2   -1    0    0  501    0  0.00000000000E+00 -0.00000000000E+00 -0.70421373997E+03  0.70421373997E+03  0.00000000000E+00 0. -1.
         36    2    1    2    0    0  0.14210854715E-13  0.00000000000E+00 -0.34954776434E+03  0.10588797156E+04  0.99952119165E+03 0.  0.
         25    2    3    3    0    0 -0.43234475872E+02  0.11535543860E+03 -0.15358775568E+03  0.23367942805E+03  0.12586015763E+03 0.  0.
         35    2    3    3    0    0  0.43234475872E+02 -0.11535543860E+03 -0.19596000865E+03  0.82520028755E+03  0.79207265605E+03 0.  0.
         22    1    5    5    0    0 -0.12068677572E+03  0.20956858120E+03  0.18036391873E+03  0.30168763853E+03  0.00000000000E+00 0.  1.
         22    1    5    5    0    0  0.16392125159E+03 -0.32492401980E+03 -0.37632392738E+03  0.52351264902E+03  0.00000000000E+00 0.  1.
          5    1    4    4  502    0 -0.21809212160E+02  0.23270179356E+02  0.18577011309E+02  0.37206697401E+02  0.47000000000E+01 0. -1.
         -5    1    4    4    0  502 -0.21425263712E+02  0.92085259239E+02 -0.17216476699E+03  0.19647273065E+03  0.47000000000E+01 0. -1.
<mgrwt>
<rscale>  0 0.99952119E+03</rscale>
<asrwt>0</asrwt>
<pdfrwt beam="1">  1        2 0.10834057E+00 0.99952119E+03</pdfrwt>
<pdfrwt beam="2">  1       -2 0.54563997E-01 0.99952119E+03</pdfrwt>
<totfact> 0.15554793E+02</totfact>
</mgrwt>
</event>
<event>
 9    1  0.4370149E-036  0.9977396E+03  0.7818608E-02  0.8683193E-01
          1   -1    0    0  501    0  0.00000000000E+00  0.00000000000E+00  0.44069023541E+03  0.44069023541E+03  0.00000000000E+00 0. -1.
         -1   -1    0    0    0  501 -0.00000000000E+00 -0.00000000000E+00 -0.56473022105E+03  0.56473022105E+03  0.00000000000E+00 0. -1.
         36    2    1    2    0    0 -0.28421709430E-13 -0.14210854715E-13 -0.12403998564E+03  0.10054204565E+04  0.99773963348E+03 0.  0.
         25    2    3    3    0    0 -0.91971538407E+02  0.10200347687E+03 -0.32132540175E+02  0.18861609242E+03  0.12522003439E+03 0.  0.
         35    2    3    3    0    0  0.91971538407E+02 -0.10200347687E+03 -0.91907445462E+02  0.81680436403E+03  0.79991181852E+03 0.  0.
         22    1    5    5    0    0  0.10892038927E+03 -0.27559133707E+03 -0.37887004286E+03  0.48099557757E+03  0.00000000000E+00 0.  1.
         22    1    5    5    0    0 -0.16948850860E+02  0.17358786020E+03  0.28696259740E+03  0.33580878646E+03  0.00000000000E+00 0.  1.
          5    1    4    4  502    0 -0.88209469695E+01  0.10207498847E+03 -0.16649792317E+02  0.10390581293E+03  0.47000000000E+01 0.  1.
         -5    1    4    4    0  502 -0.83150591438E+02 -0.71511602189E-01 -0.15482747858E+02  0.84710279492E+02  0.47000000000E+01 0.  1.
<mgrwt>
<rscale>  0 0.99773963E+03</rscale>
<asrwt>0</asrwt>
<pdfrwt beam="1">  1        1 0.67798497E-01 0.99773963E+03</pdfrwt>
<pdfrwt beam="2">  1       -1 0.86881573E-01 0.99773963E+03</pdfrwt>
<totfact> 0.81673150E+01</totfact>
</mgrwt>
</event>
<event>
 9    1  0.4370149E-036  0.1000133E+04  0.7818608E-02  0.8680911E-01
         -2   -1    0    0    0  501 -0.00000000000E+00  0.00000000000E+00  0.15641450295E+03  0.15641450295E+03  0.00000000000E+00 0. -1.
          2   -1    0    0  501    0  0.00000000000E+00 -0.00000000000E+00 -0.15987420820E+04  0.15987420820E+04  0.00000000000E+00 0. -1.
         36    2    1    2    0    0  0.00000000000E+00 -0.42632564146E-13 -0.14423275791E+04  0.17551565850E+04  0.10001328874E+04 0.  0.
         25    2    3    3    0    0  0.64105932163E+02  0.11657507600E+03 -0.20325719062E+03  0.27353138348E+03  0.12572435456E+03 0.  0.
         35    2    3    3    0    0 -0.64105932163E+02 -0.11657507600E+03 -0.12390703885E+04  0.14816252015E+04  0.80138535752E+03 0.  0.
         22    1    5    5    0    0 -0.15782340700E+03  0.28770208499E+03 -0.85643832473E+03  0.91715174403E+03  0.00000000000E+00 0.  1.
         22    1    5    5    0    0  0.93717474838E+02 -0.40427716099E+03 -0.38263206373E+03  0.56447345746E+03  0.00000000000E+00 0.  1.
          5    1    4    4  502    0  0.99360299388E+02  0.73073027709E+02 -0.11375450027E+03  0.16785205630E+03  0.47000000000E+01 0.  1.
         -5    1    4    4    0  502 -0.35254367224E+02  0.43502048287E+02 -0.89502690353E+02  0.10567932718E+03  0.47000000000E+01 0.  1.
<mgrwt>
<rscale>  0 0.10001329E+04</rscale>
<asrwt>0</asrwt>
<pdfrwt beam="1">  1        2 0.24596032E+00 0.10001329E+04</pdfrwt>
<pdfrwt beam="2">  1       -2 0.24063770E-01 0.10001329E+04</pdfrwt>
<totfact> 0.20449830E+02</totfact>
</mgrwt>
</event>
<event>
 9    1  0.4370149E-036  0.1000027E+04  0.7818608E-02  0.8681012E-01
         -2   -1    0    0    0  501 -0.00000000000E+00  0.00000000000E+00  0.13355846531E+03  0.13355846531E+03  0.00000000000E+00 0.  1.
          2   -1    0    0  501    0  0.00000000000E+00 -0.00000000000E+00 -0.18719399583E+04  0.18719399583E+04  0.00000000000E+00 0.  1.
         36    2    1    2    0    0  0.00000000000E+00  0.35527136788E-13 -0.17383814930E+04  0.20054984236E+04  0.10000268556E+04 0.  0.
         25    2    3    3    0    0  0.13516493219E+03  0.15456322369E+01 -0.28438522413E+03  0.33884955770E+03  0.12518833483E+03 0.  0.
         35    2    3    3    0    0 -0.13516493219E+03 -0.15456322369E+01 -0.14539962689E+04  0.16666488659E+04  0.80333140391E+03 0.  0.
         22    1    5    5    0    0 -0.13863974762E+02 -0.36720987044E+03 -0.10308692809E+04  0.10944070417E+04  0.00000000000E+00 0. -1.
         22    1    5    5    0    0 -0.12130095742E+03  0.36566423820E+03 -0.42312698799E+03  0.57224182417E+03  0.00000000000E+00 0. -1.
          5    1    4    4  502    0  0.84691211150E+01  0.34318076962E+02 -0.13786932913E+02  0.38231216800E+02  0.47000000000E+01 0. -1.
         -5    1    4    4    0  502  0.12669581107E+03 -0.32772444725E+02 -0.27059829122E+03  0.30061834090E+03  0.47000000000E+01 0. -1.
<mgrwt>
<rscale>  0 0.10000269E+04</rscale>
<asrwt>0</asrwt>
<pdfrwt beam="1">  1        2 0.28799076E+00 0.10000269E+04</pdfrwt>
<pdfrwt beam="2">  1       -2 0.20547456E-01 0.10000269E+04</pdfrwt>
<totfact> 0.18911302E+02</totfact>
</mgrwt>
</event>
<event>
 9    1  0.4370149E-036  0.9993478E+03  0.7818608E-02  0.8681659E-01
         -1   -1    0    0    0  501 -0.00000000000E+00  0.00000000000E+00  0.37359362333E+03  0.37359362333E+03  0.00000000000E+00 0.  1.
          1   -1    0    0  501    0  0.00000000000E+00 -0.00000000000E+00 -0.66830365930E+03  0.66830365930E+03  0.00000000000E+00 0.  1.
         36    2    1    2    0    0  0.00000000000E+00  0.53290705182E-14 -0.29471003596E+03  0.10418972826E+04  0.99934775842E+03 0.  0.
         25    2    3    3    0    0  0.13383622566E+03 -0.15801050718E+02 -0.90643503478E+02  0.20295465155E+03  0.12170676792E+03 0.  0.
         35    2    3    3    0    0 -0.13383622566E+03  0.15801050718E+02 -0.20406653249E+03  0.83894263108E+03  0.80250842990E+03 0.  0.
         22    1    5    5    0    0 -0.40239706021E+02 -0.33151334574E+02  0.30988971568E+03  0.31424493760E+03  0.00000000000E+00 0.  1.
         22    1    5    5    0    0 -0.93596519643E+02  0.48952385292E+02 -0.51395624816E+03  0.52469769348E+03  0.00000000000E+00 0.  1.
          5    1    4    4  502    0  0.67242764002E+02 -0.36793380538E+01  0.22387436664E+02  0.71122529198E+02  0.47000000000E+01 0. -1.
         -5    1    4    4    0  502  0.66593461661E+02 -0.12121712664E+02 -0.11303094014E+03  0.13183212235E+03  0.47000000000E+01 0. -1.
<mgrwt>
<rscale>  0 0.99934776E+03</rscale>
<asrwt>0</asrwt>
<pdfrwt beam="1">  1        1 0.10281595E+00 0.99934776E+03</pdfrwt>
<pdfrwt beam="2">  1       -1 0.57475943E-01 0.99934776E+03</pdfrwt>
<totfact> 0.10337965E+02</totfact>
</mgrwt>
</event>
<event>
 9    1  0.4370149E-036  0.1000001E+04  0.7818608E-02  0.8681037E-01
          2   -1    0    0  501    0  0.00000000000E+00  0.00000000000E+00  0.27604444326E+03  0.27604444326E+03  0.00000000000E+00 0.  1.
         -2   -1    0    0    0  501 -0.00000000000E+00 -0.00000000000E+00 -0.90565373838E+03  0.90565373838E+03  0.00000000000E+00 0.  1.
         36    2    1    2    0    0  0.28421709430E-13 -0.14210854715E-13 -0.62960929512E+03  0.11816981816E+04  0.10000013640E+04 0.  0.
         25    2    3    3    0    0 -0.11792669934E+03 -0.23679873486E+02 -0.33598902608E+02  0.17696449051E+03  0.12537983020E+03 0.  0.
         35    2    3    3    0    0  0.11792669934E+03  0.23679873486E+02 -0.59601039251E+03  0.10047336911E+04  0.79987121419E+03 0.  0.
         22    1    5    5    0    0 -0.12991726019E+02 -0.36554168949E+03 -0.42276682063E+03  0.55903604207E+03  0.00000000000E+00 0. -1.
         22    1    5    5    0    0  0.13091842535E+03  0.38922156298E+03 -0.17324357188E+03  0.44569764907E+03  0.00000000000E+00 0. -1.
          5    1    4    4  502    0  0.24068400189E+02  0.44982040429E+01 -0.19086216741E+02  0.31398971269E+02  0.47000000000E+01 0.  1.
         -5    1    4    4    0  502 -0.14199509952E+03 -0.28178077529E+02 -0.14512685866E+02  0.14556551925E+03  0.47000000000E+01 0.  1.
<mgrwt>
<rscale>  0 0.10000014E+04</rscale>
<asrwt>0</asrwt>
<pdfrwt beam="1">  1        2 0.42468376E-01 0.10000014E+04</pdfrwt>
<pdfrwt beam="2">  1       -2 0.13933134E+00 0.10000014E+04</pdfrwt>
<totfact> 0.50097873E+01</totfact>
</mgrwt>
</event>
<event>
 9    1  0.4370149E-036  0.9997763E+03  0.7818608E-02  0.8681251E-01
         -1   -1    0    0    0  501 -0.00000000000E+00  0.00000000000E+00  0.53495034990E+03  0.53495034990E+03  0.00000000000E+00 0.  1.
          1   -1    0    0  501    0  0.00000000000E+00 -0.00000000000E+00 -0.46712403961E+03  0.46712403961E+03  0.00000000000E+00 0.  1.
         36    2    1    2    0    0 -0.14210854715E-13 -0.14210854715E-13  0.67826310283E+02  0.10020743895E+04  0.99977631185E+03 0.  0.
         25    2    3    3    0    0 -0.90251582873E+02  0.62825702873E+02  0.99962938876E+02  0.19399492565E+03  0.12469572919E+03 0.  0.
         35    2    3    3    0    0  0.90251582873E+02 -0.62825702873E+02 -0.32136628593E+02  0.80807946386E+03  0.79991702061E+03 0.  0.
         22    1    5    5    0    0  0.40656991616E+03 -0.10389671839E+03 -0.17986443760E+03  0.45655759848E+03  0.00000000000E+00 0.  1.
         22    1    5    5    0    0 -0.31631833329E+03  0.41071015513E+02  0.14772780900E+03  0.35152186538E+03  0.00000000000E+00 0.  1.
          5    1    4    4  502    0  0.10975962032E+02 -0.26499843839E+02  0.66581248347E+01  0.29818351603E+02  0.47000000000E+01 0.  1.
         -5    1    4    4    0  502 -0.10122754490E+03  0.89325546712E+02  0.93304814042E+02  0.16417657405E+03  0.47000000000E+01 0.  1.
<mgrwt>
<rscale>  0 0.99977631E+03</rscale>
<asrwt>0</asrwt>
<pdfrwt beam="1">  1        1 0.71865237E-01 0.99977631E+03</pdfrwt>
<pdfrwt beam="2">  1       -1 0.82300054E-01 0.99977631E+03</pdfrwt>
<totfact> 0.84628003E+01</totfact>
</mgrwt>
</event>
<event>
 9    1  0.4370149E-036  0.1007982E+04  0.7818608E-02  0.8673473E-01
          2   -1    0    0  501    0  0.00000000000E+00  0.00000000000E+00  0.89757533376E+03  0.89757533376E+03  0.00000000000E+00 0. -1.
         -2   -1    0    0    0  501 -0.00000000000E+00 -0.00000000000E+00 -0.28299248492E+03  0.28299248492E+03  0.00000000000E+00 0. -1.
         36    2    1    2    0    0 -0.14210854715E-13  0.14210854715E-13  0.61458284884E+03  0.11805678187E+04  0.10079822897E+04 0.  0.
         25    2    3    3    0    0 -0.89589218366E+02 -0.41766129336E+01 -0.20384806027E+02  0.15551240288E+03  0.12539894333E+03 0.  0.
         35    2    3    3    0    0  0.89589218366E+02  0.41766129336E+01  0.63496765486E+03  0.10250554158E+04  0.79969432322E+03 0.  0.
         22    1    5    5    0    0  0.11623925783E+03  0.28109936662E+03  0.67840792770E+03  0.74348216881E+03  0.00000000000E+00 0.  1.
         22    1    5    5    0    0 -0.26650039459E+02 -0.27692275369E+03 -0.43440272840E+02  0.28157324699E+03  0.00000000000E+00 0.  1.
          5    1    4    4  502    0 -0.55845858537E+02 -0.62793209707E+02  0.17758203904E+01  0.84184265983E+02  0.47000000000E+01 0.  1.
         -5    1    4    4    0  502 -0.33743359829E+02  0.58616596773E+02 -0.22160626418E+02  0.71328136896E+02  0.47000000000E+01 0.  1.
<mgrwt>
<rscale>  0 0.10079823E+04</rscale>
<asrwt>0</asrwt>
<pdfrwt beam="1">  1        2 0.13808851E+00 0.10079823E+04</pdfrwt>
<pdfrwt beam="2">  1       -2 0.43537306E-01 0.10079823E+04</pdfrwt>
<totfact> 0.17823827E+02</totfact>
</mgrwt>
</event>
<event>
 9    1  0.4370149E-036  0.1000105E+04  0.7818608E-02  0.8680938E-01
          2   -1    0    0  501    0  0.00000000000E+00  0.00000000000E+00  0.71165645988E+03  0.71165645988E+03  0.00000000000E+00 0.  1.
         -2   -1    0    0    0  501 -0.00000000000E+00 -0.00000000000E+00 -0.35136676072E+03  0.35136676072E+03  0.00000000000E+00 0.  1.
         36    2    1    2    0    0 -0.71054273576E-14  0.00000000000E+00  0.36028969917E+03  0.10630232206E+04  0.10001048446E+04 0.  0.
         25    2    3    3    0    0 -0.47508826590E+02  0.85808075191E+02 -0.38259423001E+02  0.16311843426E+03  0.12459424455E+03 0.  0.
         35    2    3    3    0    0  0.47508826590E+02 -0.85808075191E+02  0.39854912217E+03  0.89990478634E+03  0.80085398627E+03 0.  0.
         22    1    5    5    0    0 -0.29943206868E+03 -0.57670091143E+02  0.45454024802E+03  0.54735019890E+03  0.00000000000E+00 0.  1.
         22    1    5    5    0    0  0.34694089527E+03 -0.28137984047E+02 -0.55991125851E+02  0.35255458744E+03  0.00000000000E+00 0.  1.
          5    1    4    4  502    0  0.38066389226E+02  0.42699681433E+01  0.62263299580E+00  0.38597412977E+02  0.47000000000E+01 0.  1.
         -5    1    4    4    0  502 -0.85575215816E+02  0.81538107047E+02 -0.38882055997E+02  0.12452102128E+03  0.47000000000E+01 0.  1.
<mgrwt>
<rscale>  0 0.10001048E+04</rscale>
<asrwt>0</asrwt>
<pdfrwt beam="1">  1        2 0.10948561E+00 0.10001048E+04</pdfrwt>
<pdfrwt beam="2">  1       -2 0.54056425E-01 0.10001048E+04</pdfrwt>
<totfact> 0.15649616E+02</totfact>
</mgrwt>
</event>
<event>
 9    1  0.4370149E-036  0.9968381E+03  0.7818608E-02  0.8684055E-01
         -1   -1    0    0    0  501 -0.00000000000E+00  0.00000000000E+00  0.14487809700E+03  0.14487809700E+03  0.00000000000E+00 0.  1.
          1   -1    0    0  501    0  0.00000000000E+00 -0.00000000000E+00 -0.17146935953E+04  0.17146935953E+04  0.00000000000E+00 0.  1.
         36    2    1    2    0    0 -0.28421709430E-13  0.28421709430E-13 -0.15698154983E+04  0.18595716923E+04  0.99683809120E+03 0.  0.
         25    2    3    3    0    0  0.54764489296E+02 -0.10980268238E+03 -0.40779275647E+03  0.44368463170E+03  0.12452044744E+03 0.  0.
         35    2    3    3    0    0 -0.54764489296E+02  0.10980268238E+03 -0.11620227418E+04  0.14158870606E+04  0.79961461810E+03 0.  0.
         22    1    5    5    0    0 -0.36118355213E+03  0.25266216153E+03 -0.84180695628E+03  0.95022664551E+03  0.00000000000E+00 0.  1.
         22    1    5    5    0    0  0.30641906284E+03 -0.14285947915E+03 -0.32021578553E+03  0.46566041507E+03  0.00000000000E+00 0.  1.
          5    1    4    4  502    0  0.36953914241E+02  0.75569258556E+01 -0.32407377816E+02  0.49950245675E+02  0.47000000000E+01 0.  1.
         -5    1    4    4    0  502  0.17810575055E+02 -0.11735960824E+03 -0.37538537866E+03  0.39373438603E+03  0.47000000000E+01 0.  1.
<mgrwt>
<rscale>  0 0.99683809E+03</rscale>
<asrwt>0</asrwt>
<pdfrwt beam="1">  1        1 0.26379901E+00 0.99683809E+03</pdfrwt>
<pdfrwt beam="2">  1       -1 0.22288939E-01 0.99683809E+03</pdfrwt>
<totfact> 0.84405404E+01</totfact>
</mgrwt>
</event>
<event>
 9    1  0.4370149E-036  0.9985177E+03  0.7818608E-02  0.8682451E-01
          2   -1    0    0  501    0  0.00000000000E+00  0.00000000000E+00  0.14159909518E+04  0.14159909518E+04  0.00000000000E+00 0.  1.
         -2   -1    0    0    0  501 -0.00000000000E+00 -0.00000000000E+00 -0.17603176941E+03  0.17603176941E+03  0.00000000000E+00 0.  1.
         36    2    1    2    0    0  0.14210854715E-13  0.00000000000E+00  0.12399591824E+04  0.15920227212E+04  0.99851768679E+03 0.  0.
         25    2    3    3    0    0  0.42251127537E+02 -0.38111487218E+02  0.43298010901E+03  0.45402446904E+03  0.12421272260E+03 0.  0.
         35    2    3    3    0    0 -0.42251127537E+02  0.38111487218E+02  0.80697907338E+03  0.11379982522E+04  0.80036688700E+03 0.  0.
         22    1    5    5    0    0  0.25075543292E+03 -0.69433479842E+02 -0.13110900481E+02  0.26052099910E+03  0.00000000000E+00 0. -1.
         22    1    5    5    0    0 -0.29300656045E+03  0.10754496706E+03  0.82008997386E+03  0.87747725305E+03  0.00000000000E+00 0. -1.
          5    1    4    4  502    0  0.12021291275E+01 -0.77473238243E+02  0.28624252102E+03  0.29658121754E+03  0.47000000000E+01 0.  1.
         -5    1    4    4    0  502  0.41048998409E+02  0.39361751025E+02  0.14673758799E+03  0.15744325150E+03  0.47000000000E+01 0.  1.
<mgrwt>
<rscale>  0 0.99851769E+03</rscale>
<asrwt>0</asrwt>
<pdfrwt beam="1">  1        2 0.21784475E+00 0.99851769E+03</pdfrwt>
<pdfrwt beam="2">  1       -2 0.27081812E-01 0.99851769E+03</pdfrwt>
<totfact> 0.21032966E+02</totfact>
</mgrwt>
</event>
<event>
 9    1  0.4370149E-036  0.1000024E+04  0.7818608E-02  0.8681015E-01
          2   -1    0    0  501    0  0.00000000000E+00  0.00000000000E+00  0.38398354421E+03  0.38398354421E+03  0.00000000000E+00 0. -1.
         -2   -1    0    0    0  501 -0.00000000000E+00 -0.00000000000E+00 -0.65110115779E+03  0.65110115779E+03  0.00000000000E+00 0. -1.
         36    2    1    2    0    0  0.14210854715E-13  0.49737991503E-13 -0.26711761358E+03  0.10350847020E+04  0.10000242601E+04 0.  0.
         25    2    3    3    0    0 -0.94449348239E+01 -0.63142983251E+01  0.94760899282E+02  0.15733186856E+03  0.12507842210E+03 0.  0.
         35    2    3    3    0    0  0.94449348239E+01  0.63142983251E+01 -0.36187851286E+03  0.87775283344E+03  0.79960296484E+03 0.  0.
         22    1    5    5    0    0  0.17925156583E+03  0.33737882548E+03 -0.32909078795E+03  0.50423837860E+03  0.00000000000E+00 0. -1.
         22    1    5    5    0    0 -0.16980663101E+03 -0.33106452715E+03 -0.32787724907E+02  0.37351445485E+03  0.00000000000E+00 0. -1.
          5    1    4    4  502    0 -0.58959546189E+02  0.26812710724E+02  0.39961296342E+02  0.76250539333E+02  0.47000000000E+01 0. -1.
         -5    1    4    4    0  502  0.49514611366E+02 -0.33127009049E+02  0.54799602940E+02  0.81081329230E+02  0.47000000000E+01 0. -1.
<mgrwt>
<rscale>  0 0.10000243E+04</rscale>
<asrwt>0</asrwt>
<pdfrwt beam="1">  1        2 0.59074392E-01 0.10000243E+04</pdfrwt>
<pdfrwt beam="2">  1       -2 0.10016941E+00 0.10000243E+04</pdfrwt>
<totfact> 0.81369721E+01</totfact>
</mgrwt>
</event>
<event>
 9    1  0.4370149E-036  0.9998364E+03  0.7818608E-02  0.8681194E-01
          2   -1    0    0  501    0  0.00000000000E+00  0.00000000000E+00  0.69419334881E+03  0.69419334881E+03  0.00000000000E+00 0. -1.
         -2   -1    0    0    0  501 -0.00000000000E+00 -0.00000000000E+00 -0.36001239123E+03  0.36001239123E+03  0.00000000000E+00 0. -1.
         36    2    1    2    0    0  0.21316282073E-13  0.71054273576E-14  0.33418095758E+03  0.10542057400E+04  0.99983640159E+03 0.  0.
         25    2    3    3    0    0  0.61924627724E+02  0.17375905996E+02  0.19330755688E+03  0.23924204266E+03  0.12542871203E+03 0.  0.
         35    2    3    3    0    0 -0.61924627724E+02 -0.17375905996E+02  0.14087340070E+03  0.81496369738E+03  0.80011494887E+03 0.  0.
         22    1    5    5    0    0 -0.39780401707E+03  0.11498289783E+03  0.18061681724E+03  0.45176491393E+03  0.00000000000E+00 0. -1.
         22    1    5    5    0    0  0.33587938935E+03 -0.13235880383E+03 -0.39743416547E+02  0.36319878345E+03  0.00000000000E+00 0. -1.
          5    1    4    4  502    0  0.75559434472E+02  0.59195432640E+02  0.14247860521E+03  0.17185915840E+03  0.47000000000E+01 0. -1.
         -5    1    4    4    0  502 -0.13634806748E+02 -0.41819526643E+02  0.50828951675E+02  0.67382884267E+02  0.47000000000E+01 0. -1.
<mgrwt>
<rscale>  0 0.99983640E+03</rscale>
<asrwt>0</asrwt>
<pdfrwt beam="1">  1        2 0.10679898E+00 0.99983640E+03</pdfrwt>
<pdfrwt beam="2">  1       -2 0.55386522E-01 0.99983640E+03</pdfrwt>
<totfact> 0.15353846E+02</totfact>
</mgrwt>
</event>
<event>
 9    1  0.4370149E-036  0.9998124E+03  0.7818608E-02  0.8681217E-01
         -2   -1    0    0    0  501 -0.00000000000E+00  0.00000000000E+00  0.22044785476E+03  0.22044785476E+03  0.00000000000E+00 0.  1.
          2   -1    0    0  501    0  0.00000000000E+00 -0.00000000000E+00 -0.11336295663E+04  0.11336295663E+04  0.00000000000E+00 0.  1.
         36    2    1    2    0    0  0.28421709430E-13  0.14210854715E-13 -0.91318171154E+03  0.13540774211E+04  0.99981239436E+03 0.  0.
         25    2    3    3    0    0 -0.54704692230E+02 -0.19658620627E+02  0.72444307599E+00  0.13834414328E+03  0.12553689675E+03 0.  0.
         35    2    3    3    0    0  0.54704692230E+02  0.19658620627E+02 -0.91390615462E+03  0.12157332778E+04  0.79962733728E+03 0.  0.
         22    1    5    5    0    0  0.31270438657E+03 -0.13919429150E+03 -0.83531566935E+03  0.90272440514E+03  0.00000000000E+00 0.  1.
         22    1    5    5    0    0 -0.25799969434E+03  0.15885291213E+03 -0.78590485267E+02  0.31300887263E+03  0.00000000000E+00 0.  1.
          5    1    4    4  502    0  0.13228787423E+02  0.13073456570E+02 -0.45771771964E+02  0.49629237271E+02  0.47000000000E+01 0.  1.
         -5    1    4    4    0  502 -0.67933479654E+02 -0.32732077197E+02  0.46496215040E+02  0.88714906011E+02  0.47000000000E+01 0.  1.
<mgrwt>
<rscale>  0 0.99981239E+03</rscale>
<asrwt>0</asrwt>
<pdfrwt beam="1">  1        2 0.17440455E+00 0.99981239E+03</pdfrwt>
<pdfrwt beam="2">  1       -2 0.33915055E-01 0.99981239E+03</pdfrwt>
<totfact> 0.20382807E+02</totfact>
</mgrwt>
</event>
<event>
 9    1  0.4370149E-036  0.9994699E+03  0.7818608E-02  0.8681543E-01
          2   -1    0    0  501    0  0.00000000000E+00  0.00000000000E+00  0.19167736262E+04  0.19167736262E+04  0.00000000000E+00 0.  1.
         -2   -1    0    0    0  501 -0.00000000000E+00 -0.00000000000E+00 -0.13028926046E+03  0.13028926046E+03  0.00000000000E+00 0.  1.
         36    2    1    2    0    0  0.28421709430E-13  0.00000000000E+00  0.17864843658E+04  0.20470628867E+04  0.99946989596E+03 0.  0.
         25    2    3    3    0    0  0.13578255562E+03 -0.37971922658E+02  0.30450189830E+03  0.35669305766E+03  0.12095355303E+03 0.  0.
         35    2    3    3    0    0 -0.13578255562E+03  0.37971922658E+02  0.14819824675E+04  0.16903698290E+04  0.80074924645E+03 0.  0.
         22    1    5    5    0    0  0.20335037469E+03 -0.11571321634E+03  0.92037251794E+02  0.25141952796E+03  0.00000000000E+00 0. -1.
         22    1    5    5    0    0 -0.33913293032E+03  0.15368513900E+03  0.13899452157E+04  0.14389503011E+04  0.00000000000E+00 0. -1.
          5    1    4    4  502    0  0.16005708729E+01 -0.26798779790E+02  0.14665580679E+03  0.14916685990E+03  0.47000000000E+01 0.  1.
         -5    1    4    4    0  502  0.13418198475E+03 -0.11173142868E+02  0.15784609150E+03  0.20752619776E+03  0.47000000000E+01 0.  1.
<mgrwt>
<rscale>  0 0.99946990E+03</rscale>
<asrwt>0</asrwt>
<pdfrwt beam="1">  1        2 0.29488823E+00 0.99946990E+03</pdfrwt>
<pdfrwt beam="2">  1       -2 0.20044503E-01 0.99946990E+03</pdfrwt>
<totfact> 0.18619714E+02</totfact>
</mgrwt>
</event>
<event>
 9    1  0.4370149E-036  0.9983494E+03  0.7818608E-02  0.8682611E-01
         -1   -1    0    0    0  501 -0.00000000000E+00  0.00000000000E+00  0.14766038297E+03  0.14766038297E+03  0.00000000000E+00 0.  1.
          1   -1    0    0  501    0  0.00000000000E+00 -0.00000000000E+00 -0.16874897678E+04  0.16874897678E+04  0.00000000000E+00 0.  1.
         36    2    1    2    0    0  0.00000000000E+00  0.14210854715E-13 -0.15398293849E+04  0.18351501508E+04  0.99834940852E+03 0.  0.
         25    2    3    3    0    0 -0.73822989345E+02  0.27685233511E+02 -0.49849968456E+03  0.51981577731E+03  0.12445963572E+03 0.  0.
         35    2    3    3    0    0  0.73822989345E+02 -0.27685233511E+02 -0.10413297003E+04  0.13153343735E+04  0.79970035853E+03 0.  0.
         22    1    5    5    0    0 -0.43834525652E+02  0.35628464447E+03 -0.28253910854E+03  0.45682443168E+03  0.00000000000E+00 0.  1.
         22    1    5    5    0    0  0.11765751500E+03 -0.38396987798E+03 -0.75879059175E+03  0.85850994179E+03  0.00000000000E+00 0.  1.
          5    1    4    4  502    0 -0.15236522986E+02 -0.36886820983E+02 -0.30363843244E+03  0.30628610294E+03  0.47000000000E+01 0. -1.
         -5    1    4    4    0  502 -0.58586466359E+02  0.64572054494E+02 -0.19486125212E+03  0.21352967438E+03  0.47000000000E+01 0. -1.
<mgrwt>
<rscale>  0 0.99834941E+03</rscale>
<asrwt>0</asrwt>
<pdfrwt beam="1">  1        1 0.25961381E+00 0.99834941E+03</pdfrwt>
<pdfrwt beam="2">  1       -1 0.22716982E-01 0.99834941E+03</pdfrwt>
<totfact> 0.85453841E+01</totfact>
</mgrwt>
</event>
<event>
 9    1  0.4370149E-036  0.1000520E+04  0.7818608E-02  0.8680543E-01
         -2   -1    0    0    0  501 -0.00000000000E+00  0.00000000000E+00  0.96152304199E+03  0.96152304199E+03  0.00000000000E+00 0. -1.
          2   -1    0    0  501    0  0.00000000000E+00 -0.00000000000E+00 -0.26027461794E+03  0.26027461794E+03  0.00000000000E+00 0. -1.
         36    2    1    2    0    0 -0.28421709430E-13 -0.14210854715E-13  0.70124842405E+03  0.12217976599E+04  0.10005199496E+04 0.  0.
         25    2    3    3    0    0 -0.30138381762E+02 -0.10607794262E+03  0.25109988604E+02  0.16904495250E+03  0.12563770323E+03 0.  0.
         35    2    3    3    0    0  0.30138381762E+02  0.10607794262E+03  0.67613843544E+03  0.10527527074E+04  0.79935237984E+03 0.  0.
         22    1    5    5    0    0  0.39673252511E+03 -0.21760741197E+02  0.22150069282E+03  0.45489865163E+03  0.00000000000E+00 0.  1.
         22    1    5    5    0    0 -0.36659414335E+03  0.12783868381E+03  0.45463774262E+03  0.59785405580E+03  0.00000000000E+00 0.  1.
          5    1    4    4  502    0 -0.25753643282E+02 -0.11583994575E+03  0.59421431237E+02  0.13279736317E+03  0.47000000000E+01 0.  1.
         -5    1    4    4    0  502 -0.43847384803E+01  0.97620031374E+01 -0.34311442633E+02  0.36247589331E+02  0.47000000000E+01 0.  1.
<mgrwt>
<rscale>  0 0.10005199E+04</rscale>
<asrwt>0</asrwt>
<pdfrwt beam="1">  1        2 0.40042249E-01 0.10005199E+04</pdfrwt>
<pdfrwt beam="2">  1       -2 0.14792662E+00 0.10005199E+04</pdfrwt>
<totfact> 0.45374510E+01</totfact>
</mgrwt>
</event>
<event>
 9    1  0.4370149E-036  0.9997846E+03  0.7818608E-02  0.8681243E-01
         -2   -1    0    0    0  501 -0.00000000000E+00  0.00000000000E+00  0.17920210870E+03  0.17920210870E+03  0.00000000000E+00 0. -1.
          2   -1    0    0  501    0  0.00000000000E+00 -0.00000000000E+00 -0.13944720279E+04  0.13944720279E+04  0.00000000000E+00 0. -1.
         36    2    1    2    0    0  0.14210854715E-13  0.14210854715E-13 -0.12152699192E+04  0.15736741366E+04  0.99978463265E+03 0.  0.
         25    2    3    3    0    0  0.22741181365E+02  0.13390322270E+02 -0.44412832223E+03  0.46239204004E+03  0.12593637291E+03 0.  0.
         35    2    3    3    0    0 -0.22741181365E+02 -0.13390322270E+02 -0.77114159694E+03  0.11112820965E+04  0.79974500530E+03 0.  0.
         22    1    5    5    0    0 -0.18999029580E+03 -0.22244932152E+03 -0.79046218810E+03  0.84285851954E+03  0.00000000000E+00 0. -1.
         22    1    5    5    0    0  0.16724911444E+03  0.20905899925E+03  0.19320591161E+02  0.26842357700E+03  0.00000000000E+00 0. -1.
          5    1    4    4  502    0 -0.41906932461E+02  0.29872523161E+02 -0.10867798872E+03  0.12033932799E+03  0.47000000000E+01 0. -1.
         -5    1    4    4    0  502  0.64648113826E+02 -0.16482200891E+02 -0.33545033351E+03  0.34205271205E+03  0.47000000000E+01 0. -1.
<mgrwt>
<rscale>  0 0.99978463E+03</rscale>
<asrwt>0</asrwt>
<pdfrwt beam="1">  1        2 0.21453415E+00 0.99978463E+03</pdfrwt>
<pdfrwt beam="2">  1       -2 0.27569556E-01 0.99978463E+03</pdfrwt>
<totfact> 0.20953548E+02</totfact>
</mgrwt>
</event>
<event>
 9    1  0.4370149E-036  0.1000388E+04  0.7818608E-02  0.8680669E-01
          2   -1    0    0  501    0  0.00000000000E+00  0.00000000000E+00  0.57287287856E+03  0.57287287856E+03  0.00000000000E+00 0.  1.
         -2   -1    0    0    0  501 -0.00000000000E+00 -0.00000000000E+00 -0.43673546177E+03  0.43673546177E+03  0.00000000000E+00 0.  1.
         36    2    1    2    0    0 -0.28421709430E-13 -0.14210854715E-13  0.13613741679E+03  0.10096083403E+04  0.10003877271E+04 0.  0.
         25    2    3    3    0    0 -0.80418936428E+02 -0.10912808948E+03 -0.14418914556E+02  0.18545591154E+03  0.12573720523E+03 0.  0.
         35    2    3    3    0    0  0.80418936428E+02  0.10912808948E+03  0.15055633135E+03  0.82415242879E+03  0.79886411342E+03 0.  0.
         22    1    5    5    0    0 -0.11968805070E+03 -0.77418941767E+02 -0.27990651572E+03  0.31411236774E+03  0.00000000000E+00 0. -1.
         22    1    5    5    0    0  0.20010698713E+03  0.18654703125E+03  0.43046284707E+03  0.51004006105E+03  0.00000000000E+00 0. -1.
          5    1    4    4  502    0 -0.65328913929E+02 -0.23501488857E+02  0.42397981297E+02  0.81485371642E+02  0.47000000000E+01 0. -1.
         -5    1    4    4    0  502 -0.15090022500E+02 -0.85626600623E+02 -0.56816895853E+02  0.10397053990E+03  0.47000000000E+01 0. -1.
<mgrwt>
<rscale>  0 0.10003877E+04</rscale>
<asrwt>0</asrwt>
<pdfrwt beam="1">  1        2 0.88134289E-01 0.10003877E+04</pdfrwt>
<pdfrwt beam="2">  1       -2 0.67190071E-01 0.10003877E+04</pdfrwt>
<totfact> 0.12893828E+02</totfact>
</mgrwt>
</event>
<event>
 9    1  0.4370149E-036  0.1000232E+04  0.7818608E-02  0.8680817E-01
         -2   -1    0    0    0  501 -0.00000000000E+00  0.00000000000E+00  0.14747791096E+03  0.14747791096E+03  0.00000000000E+00 0. -1.
          2   -1    0    0  501    0  0.00000000000E+00 -0.00000000000E+00 -0.16959549133E+04  0.16959549133E+04  0.00000000000E+00 0. -1.
         36    2    1    2    0    0  0.35527136788E-13  0.14210854715E-13 -0.15484770024E+04  0.18434328243E+04  0.10002317485E+04 0.  0.
         25    2    3    3    0    0  0.40870770079E+02 -0.99581856965E+02 -0.45987822866E+03  0.48857629049E+03  0.12502735840E+03 0.  0.
         35    2    3    3    0    0 -0.40870770079E+02  0.99581856965E+02 -0.10885987737E+04  0.13548565338E+04  0.79937598849E+03 0.  0.
         22    1    5    5    0    0  0.30331723757E+03  0.14872410081E+03 -0.89561939702E+03  0.95721173681E+03  0.00000000000E+00 0. -1.
         22    1    5    5    0    0 -0.34418800765E+03 -0.49142243847E+02 -0.19297937668E+03  0.39764479698E+03  0.00000000000E+00 0. -1.
          5    1    4    4  502    0  0.34667483797E+02 -0.91767544701E+02 -0.46581200853E+03  0.47605255381E+03  0.47000000000E+01 0. -1.
         -5    1    4    4    0  502  0.62032862818E+01 -0.78143122637E+01  0.59337798733E+01  0.12523736680E+02  0.47000000000E+01 0. -1.
<mgrwt>
<rscale>  0 0.10002317E+04</rscale>
<asrwt>0</asrwt>
<pdfrwt beam="1">  1        2 0.26091612E+00 0.10002317E+04</pdfrwt>
<pdfrwt beam="2">  1       -2 0.22688911E-01 0.10002317E+04</pdfrwt>
<totfact> 0.19992731E+02</totfact>
</mgrwt>
</event>
<event>
 9    1  0.4370149E-036  0.1001238E+04  0.7818608E-02  0.8679860E-01
          2   -1    0    0  501    0  0.00000000000E+00  0.00000000000E+00  0.15674099982E+03  0.15674099982E+03  0.00000000000E+00 0.  1.
         -2   -1    0    0    0  501 -0.00000000000E+00 -0.00000000000E+00 -0.15989390016E+04  0.15989390016E+04  0.00000000000E+00 0.  1.
         36    2    1    2    0    0 -0.14210854715E-13  0.28421709430E-13 -0.14421980017E+04  0.17556800014E+04  0.10012378294E+04 0.  0.
         25    2    3    3    0    0  0.64564364208E+02  0.12677940172E+03 -0.25237054793E+03  0.31537414953E+03  0.12461294838E+03 0.  0.
         35    2    3    3    0    0 -0.64564364208E+02 -0.12677940172E+03 -0.11898274538E+04  0.14403058518E+04  0.79909323811E+03 0.  0.
         22    1    5    5    0    0 -0.34971605910E+03  0.17413773898E+03 -0.48715632126E+03  0.62445700851E+03  0.00000000000E+00 0. -1.
         22    1    5    5    0    0  0.28515169489E+03 -0.30091714069E+03 -0.70267113255E+03  0.81584884334E+03  0.00000000000E+00 0. -1.
          5    1    4    4  502    0 -0.35754816975E+02  0.36085167513E+02 -0.94940728159E+02  0.10777930281E+03  0.47000000000E+01 0. -1.
         -5    1    4    4    0  502  0.10031918118E+03  0.90694234204E+02 -0.15742981977E+03  0.20759484672E+03  0.47000000000E+01 0. -1.
<mgrwt>
<rscale>  0 0.10012378E+04</rscale>
<asrwt>0</asrwt>
<pdfrwt beam="1">  1        2 0.24113999E-01 0.10012378E+04</pdfrwt>
<pdfrwt beam="2">  1       -2 0.24599062E+00 0.10012378E+04</pdfrwt>
<totfact> 0.16661839E+01</totfact>
</mgrwt>
</event>
<event>
 9    1  0.4370149E-036  0.9999209E+03  0.7818608E-02  0.8681113E-01
          1   -1    0    0  501    0  0.00000000000E+00  0.00000000000E+00  0.98720815235E+03  0.98720815235E+03  0.00000000000E+00 0. -1.
         -1   -1    0    0    0  501 -0.00000000000E+00 -0.00000000000E+00 -0.25319933187E+03  0.25319933187E+03  0.00000000000E+00 0. -1.
         36    2    1    2    0    0 -0.71054273576E-14  0.00000000000E+00  0.73400882048E+03  0.12404074842E+04  0.99992088606E+03 0.  0.
         25    2    3    3    0    0  0.55445725754E+02  0.12824188711E+03  0.13834599948E+03  0.23328270214E+03  0.12554279521E+03 0.  0.
         35    2    3    3    0    0 -0.55445725754E+02 -0.12824188711E+03  0.59566282100E+03  0.10071247821E+04  0.79997869988E+03 0.  0.
         22    1    5    5    0    0 -0.19319293724E+03 -0.10566775755E+03  0.76014512830E+03  0.79139737305E+03  0.00000000000E+00 0. -1.
         22    1    5    5    0    0  0.13774721148E+03 -0.22574129561E+02 -0.16448230730E+03  0.21572740904E+03  0.00000000000E+00 0. -1.
          5    1    4    4  502    0  0.68677369264E+02  0.14340037322E+03  0.14085587290E+03  0.21246815060E+03  0.47000000000E+01 0. -1.
         -5    1    4    4    0  502 -0.13231643510E+02 -0.15158486113E+02 -0.25098734135E+01  0.20814551539E+02  0.47000000000E+01 0. -1.
<mgrwt>
<rscale>  0 0.99992089E+03</rscale>
<asrwt>0</asrwt>
<pdfrwt beam="1">  1        1 0.15187818E+00 0.99992089E+03</pdfrwt>
<pdfrwt beam="2">  1       -1 0.38953744E-01 0.99992089E+03</pdfrwt>
<totfact> 0.11092505E+02</totfact>
</mgrwt>
</event>
<event>
 9    1  0.4370149E-036  0.1005443E+04  0.7818608E-02  0.8675872E-01
         -2   -1    0    0    0  501 -0.00000000000E+00  0.00000000000E+00  0.40850062614E+03  0.40850062614E+03  0.00000000000E+00 0. -1.
          2   -1    0    0  501    0  0.00000000000E+00 -0.00000000000E+00 -0.61867414203E+03  0.61867414203E+03  0.00000000000E+00 0. -1.
         36    2    1    2    0    0 -0.26645352591E-14 -0.14210854715E-13 -0.21017351588E+03  0.10271747682E+04  0.10054427371E+04 0.  0.
         25    2    3    3    0    0 -0.74333380549E+01 -0.97973289415E+01  0.10829756101E+03  0.16604673796E+03  0.12526737523E+03 0.  0.
         35    2    3    3    0    0  0.74333380549E+01  0.97973289415E+01 -0.31847107690E+03  0.86112803021E+03  0.79997900936E+03 0.  0.
         22    1    5    5    0    0  0.13592979528E+02  0.31844201359E+03 -0.42793396446E+03  0.53358932059E+03  0.00000000000E+00 0. -1.
         22    1    5    5    0    0 -0.61596414735E+01 -0.30864468465E+03  0.10946288756E+03  0.32753870962E+03  0.00000000000E+00 0. -1.
          5    1    4    4  502    0 -0.32767640217E+02  0.27103242027E+02  0.11296868066E+03  0.12079866217E+03  0.47000000000E+01 0. -1.
         -5    1    4    4    0  502  0.25334302163E+02 -0.36900570969E+02 -0.46711196422E+01  0.45248075789E+02  0.47000000000E+01 0. -1.
<mgrwt>
<rscale>  0 0.10054427E+04</rscale>
<asrwt>0</asrwt>
<pdfrwt beam="1">  1        2 0.95180637E-01 0.10054427E+04</pdfrwt>
<pdfrwt beam="2">  1       -2 0.62846250E-01 0.10054427E+04</pdfrwt>
<totfact> 0.13569375E+02</totfact>
</mgrwt>
</event>
<event>
 9    1  0.4370149E-036  0.1001148E+04  0.7818608E-02  0.8679945E-01
          2   -1    0    0  501    0  0.00000000000E+00  0.00000000000E+00  0.31990614076E+04  0.31990614076E+04  0.00000000000E+00 0.  1.
         -2   -1    0    0    0  501 -0.00000000000E+00 -0.00000000000E+00 -0.78327464428E+02  0.78327464428E+02  0.00000000000E+00 0.  1.
         36    2    1    2    0    0  0.00000000000E+00  0.00000000000E+00  0.31207339432E+04  0.32773888721E+04  0.10011480782E+04 0.  0.
         25    2    3    3    0    0  0.63782364301E+02 -0.12381247590E+03  0.50512121559E+03  0.53864261227E+03  0.12486273314E+03 0.  0.
         35    2    3    3    0    0 -0.63782364301E+02  0.12381247590E+03  0.26156127276E+04  0.27387462598E+04  0.79993963241E+03 0.  0.
         22    1    5    5    0    0 -0.22900910950E+03  0.16572265814E+03  0.28329059305E+03  0.40020336301E+03  0.00000000000E+00 0.  1.
         22    1    5    5    0    0  0.16522674520E+03 -0.41910182241E+02  0.23323221346E+04  0.23385428968E+04  0.00000000000E+00 0.  1.
          5    1    4    4  502    0  0.11229613791E+02  0.74442025452E+01  0.21895679805E+03  0.21942126103E+03  0.47000000000E+01 0. -1.
         -5    1    4    4    0  502  0.52552750510E+02 -0.13125667844E+03  0.28616441754E+03  0.31922135124E+03  0.47000000000E+01 0. -1.
<mgrwt>
<rscale>  0 0.10011481E+04</rscale>
<asrwt>0</asrwt>
<pdfrwt beam="1">  1        2 0.49216319E+00 0.10011481E+04</pdfrwt>
<pdfrwt beam="2">  1       -2 0.12050382E-01 0.10011481E+04</pdfrwt>
<totfact> 0.70390380E+01</totfact>
</mgrwt>
</event>
<event>
 9    1  0.4370149E-036  0.9990660E+03  0.7818608E-02  0.8681928E-01
          2   -1    0    0  501    0  0.00000000000E+00  0.00000000000E+00  0.79708782585E+03  0.79708782585E+03  0.00000000000E+00 0.  1.
         -2   -1    0    0    0  501 -0.00000000000E+00 -0.00000000000E+00 -0.31305612135E+03  0.31305612135E+03  0.00000000000E+00 0.  1.
         36    2    1    2    0    0  0.14210854715E-13  0.28421709430E-13  0.48403170450E+03  0.11101439472E+04  0.99906601010E+03 0.  0.
         25    2    3    3    0    0 -0.18632625986E+02 -0.60468144291E+02 -0.48028824726E+02  0.14782306891E+03  0.12466483254E+03 0.  0.
         35    2    3    3    0    0  0.18632625986E+02  0.60468144291E+02  0.53206052923E+03  0.96232087828E+03  0.79935567478E+03 0.  0.
         22    1    5    5    0    0 -0.23096983723E+03  0.34917765127E+03  0.30819137998E+03  0.51985962004E+03  0.00000000000E+00 0.  1.
         22    1    5    5    0    0  0.24960246322E+03 -0.28870950697E+03  0.22386914924E+03  0.44246125824E+03  0.00000000000E+00 0.  1.
          5    1    4    4  502    0  0.24348571103E+02 -0.23741647692E+02  0.33849484163E+02  0.48211993612E+02  0.47000000000E+01 0. -1.
         -5    1    4    4    0  502 -0.42981197089E+02 -0.36726496599E+02 -0.81878308889E+02  0.99611075299E+02  0.47000000000E+01 0. -1.
<mgrwt>
<rscale>  0 0.99906601E+03</rscale>
<asrwt>0</asrwt>
<pdfrwt beam="1">  1        2 0.12262890E+00 0.99906601E+03</pdfrwt>
<pdfrwt beam="2">  1       -2 0.48162480E-01 0.99906601E+03</pdfrwt>
<totfact> 0.17108435E+02</totfact>
</mgrwt>
</event>
<event>
 9    1  0.4370149E-036  0.9999535E+03  0.7818608E-02  0.8681082E-01
          2   -1    0    0  501    0  0.00000000000E+00  0.00000000000E+00  0.13502087485E+04  0.13502087485E+04  0.00000000000E+00 0.  1.
         -2   -1    0    0    0  501 -0.00000000000E+00 -0.00000000000E+00 -0.18513934583E+03  0.18513934583E+03  0.00000000000E+00 0.  1.
         36    2    1    2    0    0  0.14210854715E-13  0.00000000000E+00  0.11650694027E+04  0.15353480943E+04  0.99995352778E+03 0.  0.
         25    2    3    3    0    0  0.12325784705E+03  0.60922286191E+02  0.20187097193E+03  0.27524988089E+03  0.12691172448E+03 0.  0.
         35    2    3    3    0    0 -0.12325784705E+03 -0.60922286191E+02  0.96319843073E+03  0.12600982134E+04  0.80074482121E+03 0.  0.
         22    1    5    5    0    0  0.32943875105E+03  0.59431744885E+02  0.49695519191E+03  0.59918818893E+03  0.00000000000E+00 0.  1.
         22    1    5    5    0    0 -0.45269659810E+03 -0.12035403108E+03  0.46624323882E+03  0.66091002449E+03  0.00000000000E+00 0.  1.
          5    1    4    4  502    0  0.11244106307E+03  0.70297523878E+02  0.21670792046E+03  0.25410459917E+03  0.47000000000E+01 0.  1.
         -5    1    4    4    0  502  0.10816783975E+02 -0.93752376863E+01 -0.14836948537E+02  0.21145281723E+02  0.47000000000E+01 0.  1.
<mgrwt>
<rscale>  0 0.99995353E+03</rscale>
<asrwt>0</asrwt>
<pdfrwt beam="1">  1        2 0.20772442E+00 0.99995353E+03</pdfrwt>
<pdfrwt beam="2">  1       -2 0.28482977E-01 0.99995353E+03</pdfrwt>
<totfact> 0.20945427E+02</totfact>
</mgrwt>
</event>
<event>
 9    1  0.4370149E-036  0.9997215E+03  0.7818608E-02  0.8681303E-01
          2   -1    0    0  501    0  0.00000000000E+00  0.00000000000E+00  0.15804383325E+04  0.15804383325E+04  0.00000000000E+00 0. -1.
         -2   -1    0    0    0  501 -0.00000000000E+00 -0.00000000000E+00 -0.15809585399E+03  0.15809585399E+03  0.00000000000E+00 0. -1.
         36    2    1    2    0    0 -0.14210854715E-13  0.00000000000E+00  0.14223424785E+04  0.17385341865E+04  0.99972145690E+03 0.  0.
         25    2    3    3    0    0 -0.10410388790E+03 -0.43131402273E+02  0.12520525050E+03  0.20991802475E+03  0.12526485949E+03 0.  0.
         35    2    3    3    0    0  0.10410388790E+03  0.43131402273E+02  0.12971372280E+04  0.15286161617E+04  0.80087729666E+03 0.  0.
         22    1    5    5    0    0  0.39673452420E+03  0.18797617988E+03  0.48980402296E+03  0.65775474746E+03  0.00000000000E+00 0. -1.
         22    1    5    5    0    0 -0.29263063631E+03 -0.14484477761E+03  0.80733320504E+03  0.87086141427E+03  0.00000000000E+00 0. -1.
          5    1    4    4  502    0 -0.37536903825E+02 -0.16911205429E+02 -0.21460172340E+02  0.46665158466E+02  0.47000000000E+01 0.  1.
         -5    1    4    4    0  502 -0.66566984071E+02 -0.26220196844E+02  0.14666542284E+03  0.16325286628E+03  0.47000000000E+01 0.  1.
<mgrwt>
<rscale>  0 0.99972146E+03</rscale>
<asrwt>0</asrwt>
<pdfrwt beam="1">  1        2 0.24314435E+00 0.99972146E+03</pdfrwt>
<pdfrwt beam="2">  1       -2 0.24322440E-01 0.99972146E+03</pdfrwt>
<totfact> 0.20549677E+02</totfact>
</mgrwt>
</event>
<event>
 9    1  0.4370149E-036  0.9999728E+03  0.7818608E-02  0.8681064E-01
          2   -1    0    0  501    0  0.00000000000E+00  0.00000000000E+00  0.12319476619E+04  0.12319476619E+04  0.00000000000E+00 0.  1.
         -2   -1    0    0    0  501 -0.00000000000E+00 -0.00000000000E+00 -0.20291964059E+03  0.20291964059E+03  0.00000000000E+00 0.  1.
         36    2    1    2    0    0 -0.28421709430E-13  0.21316282073E-13  0.10290280214E+04  0.14348673025E+04  0.99997275320E+03 0.  0.
         25    2    3    3    0    0  0.13307821752E+03  0.13330461940E+02  0.12984604444E+03  0.22444115825E+03  0.12500530015E+03 0.  0.
         35    2    3    3    0    0 -0.13307821752E+03 -0.13330461940E+02  0.89918197692E+03  0.12104261443E+04  0.79919691563E+03 0.  0.
         22    1    5    5    0    0 -0.21618422140E+03 -0.26896005834E+03  0.88354236186E+02  0.35620443795E+03  0.00000000000E+00 0.  1.
         22    1    5    5    0    0  0.83106003878E+02  0.25562959640E+03  0.81082774073E+03  0.85422170633E+03  0.00000000000E+00 0.  1.
          5    1    4    4  502    0  0.77723363324E+02  0.69239179620E+02  0.71219712934E+02  0.12621142068E+03  0.47000000000E+01 0.  1.
         -5    1    4    4    0  502  0.55354854197E+02 -0.55908717680E+02  0.58626331509E+02  0.98229737565E+02  0.47000000000E+01 0.  1.
<mgrwt>
<rscale>  0 0.99997275E+03</rscale>
<asrwt>0</asrwt>
<pdfrwt beam="1">  1        2 0.18953040E+00 0.99997275E+03</pdfrwt>
<pdfrwt beam="2">  1       -2 0.31218407E-01 0.99997275E+03</pdfrwt>
<totfact> 0.20761922E+02</totfact>
</mgrwt>
</event>
<event>
 9    1  0.4370149E-036  0.9955953E+03  0.7818608E-02  0.8685244E-01
         -2   -1    0    0    0  501 -0.00000000000E+00  0.00000000000E+00  0.15057834435E+03  0.15057834435E+03  0.00000000000E+00 0.  1.
          2   -1    0    0  501    0  0.00000000000E+00 -0.00000000000E+00 -0.16456715039E+04  0.16456715039E+04  0.00000000000E+00 0.  1.
         36    2    1    2    0    0  0.71054273576E-14 -0.14210854715E-13 -0.14950931595E+04  0.17962498482E+04  0.99559528003E+03 0.  0.
         25    2    3    3    0    0 -0.42748532692E+02  0.12638020325E+03 -0.30486300737E+03  0.35600959864E+03  0.12649896536E+03 0.  0.
         35    2    3    3    0    0  0.42748532692E+02 -0.12638020325E+03 -0.11902301521E+04  0.14402402496E+04  0.79990297451E+03 0.  0.
         22    1    5    5    0    0  0.31507740449E+03 -0.36214284448E+02 -0.13149746066E+03  0.34333194925E+03  0.00000000000E+00 0. -1.
         22    1    5    5    0    0 -0.27232887179E+03 -0.90165918803E+02 -0.10587326915E+04  0.10969083003E+04  0.00000000000E+00 0. -1.
          5    1    4    4  502    0  0.70632929940E+01  0.10925914396E+03 -0.11472510237E+03  0.15865493929E+03  0.47000000000E+01 0.  1.
         -5    1    4    4    0  502 -0.49811825686E+02  0.17121059291E+02 -0.19013790500E+03  0.19735465935E+03  0.47000000000E+01 0.  1.
<mgrwt>
<rscale>  0 0.99559528E+03</rscale>
<asrwt>0</asrwt>
<pdfrwt beam="1">  1        2 0.25318024E+00 0.99559528E+03</pdfrwt>
<pdfrwt beam="2">  1       -2 0.23165898E-01 0.99559528E+03</pdfrwt>
<totfact> 0.20575234E+02</totfact>
</mgrwt>
</event>
<event>
 9    1  0.4370149E-036  0.9999197E+03  0.7818608E-02  0.8681114E-01
         -2   -1    0    0    0  501 -0.00000000000E+00  0.00000000000E+00  0.21832276600E+03  0.21832276600E+03  0.00000000000E+00 0.  1.
          2   -1    0    0  501    0  0.00000000000E+00 -0.00000000000E+00 -0.11449097856E+04  0.11449097856E+04  0.00000000000E+00 0.  1.
         36    2    1    2    0    0  0.28421709430E-13  0.00000000000E+00 -0.92658701956E+03  0.13632325516E+04  0.99991973919E+03 0.  0.
         25    2    3    3    0    0  0.11299974661E+03  0.59344150371E+02 -0.25754655084E+03  0.31285278552E+03  0.12351505432E+03 0.  0.
         35    2    3    3    0    0 -0.11299974661E+03 -0.59344150371E+02 -0.66904046872E+03  0.10503797660E+04  0.79961980541E+03 0.  0.
         22    1    5    5    0    0 -0.41900122584E+03 -0.10566340961E+03 -0.17248212882E+03  0.46527074715E+03  0.00000000000E+00 0. -1.
         22    1    5    5    0    0  0.30600147923E+03  0.46319259235E+02 -0.49655833990E+03  0.58510901889E+03  0.00000000000E+00 0. -1.
          5    1    4    4  502    0  0.82439754205E+02  0.94019834049E+02 -0.14766818626E+03  0.19355625927E+03  0.47000000000E+01 0. -1.
         -5    1    4    4    0  502  0.30559992407E+02 -0.34675683678E+02 -0.10987836458E+03  0.11929652626E+03  0.47000000000E+01 0. -1.
<mgrwt>
<rscale>  0 0.99991974E+03</rscale>
<asrwt>0</asrwt>
<pdfrwt beam="1">  1        2 0.17613997E+00 0.99991974E+03</pdfrwt>
<pdfrwt beam="2">  1       -2 0.33588118E-01 0.99991974E+03</pdfrwt>
<totfact> 0.20431676E+02</totfact>
</mgrwt>
</event>
<event>
 9    1  0.4370149E-036  0.9996879E+03  0.7818608E-02  0.8681335E-01
         -2   -1    0    0    0  501 -0.00000000000E+00  0.00000000000E+00  0.13262226909E+03  0.13262226909E+03  0.00000000000E+00 0. -1.
          2   -1    0    0  501    0  0.00000000000E+00 -0.00000000000E+00 -0.18838765122E+04  0.18838765122E+04  0.00000000000E+00 0. -1.
         36    2    1    2    0    0 -0.21316282073E-13  0.00000000000E+00 -0.17512542431E+04  0.20164987813E+04  0.99968790678E+03 0.  0.
         25    2    3    3    0    0 -0.37650940461E+02 -0.12984213042E+03 -0.25434909653E+03  0.31407107949E+03  0.12518229874E+03 0.  0.
         35    2    3    3    0    0  0.37650940461E+02  0.12984213042E+03 -0.14969051466E+04  0.17024277018E+04  0.79953642185E+03 0.  0.
         22    1    5    5    0    0 -0.33924529976E+03  0.72018090041E+01 -0.10578412424E+04  0.11109308411E+04  0.00000000000E+00 0. -1.
         22    1    5    5    0    0  0.37689624022E+03  0.12264032141E+03 -0.43906390414E+03  0.59149686072E+03  0.00000000000E+00 0. -1.
          5    1    4    4  502    0  0.39953606962E+02 -0.56544466164E+02 -0.14726415458E+03  0.16279554228E+03  0.47000000000E+01 0. -1.
         -5    1    4    4    0  502 -0.77604547423E+02 -0.73297664253E+02 -0.10708494195E+03  0.15127553721E+03  0.47000000000E+01 0. -1.
<mgrwt>
<rscale>  0 0.99968791E+03</rscale>
<asrwt>0</asrwt>
<pdfrwt beam="1">  1        2 0.28982714E+00 0.99968791E+03</pdfrwt>
<pdfrwt beam="2">  1       -2 0.20403427E-01 0.99968791E+03</pdfrwt>
<totfact> 0.18847985E+02</totfact>
</mgrwt>
</event>
<event>
 9    1  0.4370149E-036  0.1000358E+04  0.7818608E-02  0.8680697E-01
          1   -1    0    0  501    0  0.00000000000E+00  0.00000000000E+00  0.15089021365E+04  0.15089021365E+04  0.00000000000E+00 0. -1.
         -1   -1    0    0    0  501 -0.00000000000E+00 -0.00000000000E+00 -0.16580208055E+03  0.16580208055E+03  0.00000000000E+00 0. -1.
         36    2    1    2    0    0 -0.71054273576E-14 -0.35527136788E-13  0.13431000560E+04  0.16747042171E+04  0.10003581630E+04 0.  0.
         25    2    3    3    0    0  0.40696442232E+02  0.22432641483E+02  0.31090115497E+02  0.13708842498E+03  0.12516875476E+03 0.  0.
         35    2    3    3    0    0 -0.40696442232E+02 -0.22432641483E+02  0.13120099405E+04  0.15376157921E+04  0.80045787920E+03 0.  0.
         22    1    5    5    0    0 -0.15307262450E+03  0.27642289896E+03  0.11229416406E+04  0.11665499457E+04  0.00000000000E+00 0. -1.
         22    1    5    5    0    0  0.11237618227E+03 -0.29885554044E+03  0.18906829987E+03  0.37106584646E+03  0.00000000000E+00 0. -1.
          5    1    4    4  502    0  0.58136082146E+02 -0.38547056874E+02  0.15660234153E+02  0.71645045709E+02  0.47000000000E+01 0. -1.
         -5    1    4    4    0  502 -0.17439639915E+02  0.60979698357E+02  0.15429881344E+02  0.65443379270E+02  0.47000000000E+01 0. -1.
<mgrwt>
<rscale>  0 0.10003582E+04</rscale>
<asrwt>0</asrwt>
<pdfrwt beam="1">  1        1 0.23213878E+00 0.10003582E+04</pdfrwt>
<pdfrwt beam="2">  1       -1 0.25508013E-01 0.10003582E+04</pdfrwt>
<totfact> 0.94158509E+01</totfact>
</mgrwt>
</event>
<event>
 9    1  0.4370149E-036  0.9984747E+03  0.7818608E-02  0.8682492E-01
          2   -1    0    0  501    0  0.00000000000E+00  0.00000000000E+00  0.10659386182E+04  0.10659386182E+04  0.00000000000E+00 0. -1.
         -2   -1    0    0    0  501 -0.00000000000E+00 -0.00000000000E+00 -0.23382015718E+03  0.23382015718E+03  0.00000000000E+00 0. -1.
         36    2    1    2    0    0  0.00000000000E+00  0.14210854715E-13  0.83211846100E+03  0.12997587754E+04  0.99847470724E+03 0.  0.
         25    2    3    3    0    0  0.49169071401E+02 -0.92918154442E+02  0.26157436667E+03  0.30838859932E+03  0.12502398925E+03 0.  0.
         35    2    3    3    0    0 -0.49169071401E+02  0.92918154442E+02  0.57054409434E+03  0.99137017605E+03  0.80389233195E+03 0.  0.
         22    1    5    5    0    0 -0.15026108570E+02  0.16005149597E+03 -0.17753945522E+03  0.23950474622E+03  0.00000000000E+00 0.  1.
         22    1    5    5    0    0 -0.34142962832E+02 -0.67133341528E+02  0.74808354956E+03  0.75186542983E+03  0.00000000000E+00 0.  1.
          5    1    4    4  502    0 -0.66031300222E+01 -0.35166818706E+02  0.20948376940E+03  0.21256962649E+03  0.47000000000E+01 0. -1.
         -5    1    4    4    0  502  0.55772201423E+02 -0.57751335735E+02  0.52090597264E+02  0.95818972830E+02  0.47000000000E+01 0. -1.
<mgrwt>
<rscale>  0 0.99847471E+03</rscale>
<asrwt>0</asrwt>
<pdfrwt beam="1">  1        2 0.16399055E+00 0.99847471E+03</pdfrwt>
<pdfrwt beam="2">  1       -2 0.35972333E-01 0.99847471E+03</pdfrwt>
<totfact> 0.20073014E+02</totfact>
</mgrwt>
</event>
<event>
 9    1  0.4370149E-036  0.9999772E+03  0.7818608E-02  0.8681060E-01
         -2   -1    0    0    0  501 -0.00000000000E+00  0.00000000000E+00  0.11951578483E+03  0.11951578483E+03  0.00000000000E+00 0.  1.
          2   -1    0    0  501    0  0.00000000000E+00 -0.00000000000E+00 -0.20916783345E+04  0.20916783345E+04  0.00000000000E+00 0.  1.
         36    2    1    2    0    0 -0.39079850467E-13  0.00000000000E+00 -0.19721625497E+04  0.22111941193E+04  0.99997715524E+03 0.  0.
         25    2    3    3    0    0  0.30191287969E+01  0.14300599646E+03 -0.38037348965E+03  0.42509901756E+03  0.12476118363E+03 0.  0.
         35    2    3    3    0    0 -0.30191287969E+01 -0.14300599646E+03 -0.15917890600E+04  0.17860951018E+04  0.79742301872E+03 0.  0.
         22    1    5    5    0    0  0.32472391145E+03 -0.12276348659E+03 -0.13041413559E+04  0.13495559153E+04  0.00000000000E+00 0. -1.
         22    1    5    5    0    0 -0.32774304025E+03 -0.20242509866E+02 -0.28764770408E+03  0.43653918644E+03  0.00000000000E+00 0. -1.
          5    1    4    4  502    0 -0.17430460146E+02  0.15818955837E+03 -0.28706196686E+03  0.32825968399E+03  0.47000000000E+01 0. -1.
         -5    1    4    4    0  502  0.20449588943E+02 -0.15183561912E+02 -0.93311522792E+02  0.96839333569E+02  0.47000000000E+01 0. -1.
<mgrwt>
<rscale>  0 0.99997716E+03</rscale>
<asrwt>0</asrwt>
<pdfrwt beam="1">  1        2 0.32179665E+00 0.99997716E+03</pdfrwt>
<pdfrwt beam="2">  1       -2 0.18387045E-01 0.99997716E+03</pdfrwt>
<totfact> 0.17171978E+02</totfact>
</mgrwt>
</event>
<event>
 9    1  0.4370149E-036  0.1000753E+04  0.7818608E-02  0.8680321E-01
          2   -1    0    0  501    0  0.00000000000E+00  0.00000000000E+00  0.15330606787E+04  0.15330606787E+04  0.00000000000E+00 0. -1.
         -2   -1    0    0    0  501 -0.00000000000E+00 -0.00000000000E+00 -0.16331814599E+03  0.16331814599E+03  0.00000000000E+00 0. -1.
         36    2    1    2    0    0  0.28421709430E-13  0.00000000000E+00  0.13697425327E+04  0.16963788247E+04  0.10007529720E+04 0.  0.
         25    2    3    3    0    0 -0.10571843565E+03 -0.56936689499E+02  0.13703718257E+03  0.22163524361E+03  0.12619357178E+03 0.  0.
         35    2    3    3    0    0  0.10571843565E+03  0.56936689499E+02  0.12327053502E+04  0.14747435811E+04  0.80055479227E+03 0.  0.
         22    1    5    5    0    0 -0.15521731279E+03  0.18079124837E+02  0.11985900058E+04  0.12087337470E+04  0.00000000000E+00 0. -1.
         22    1    5    5    0    0  0.26093574844E+03  0.38857564661E+02  0.34115344334E+02  0.26600983415E+03  0.00000000000E+00 0. -1.
          5    1    4    4  502    0 -0.12690605050E+03 -0.16751528402E+02  0.94018945815E+02  0.15889434077E+03  0.47000000000E+01 0.  1.
         -5    1    4    4    0  502  0.21187614855E+02 -0.40185161097E+02  0.43018236750E+02  0.62740902836E+02  0.47000000000E+01 0.  1.
<mgrwt>
<rscale>  0 0.10007530E+04</rscale>
<asrwt>0</asrwt>
<pdfrwt beam="1">  1        2 0.23585548E+00 0.10007530E+04</pdfrwt>
<pdfrwt beam="2">  1       -2 0.25125870E-01 0.10007530E+04</pdfrwt>
<totfact> 0.20633030E+02</totfact>
</mgrwt>
</event>
<event>
 9    1  0.4370149E-036  0.1002805E+04  0.7818608E-02  0.8678371E-01
         -2   -1    0    0    0  501 -0.00000000000E+00  0.00000000000E+00  0.20201788947E+03  0.20201788947E+03  0.00000000000E+00 0.  1.
          2   -1    0    0  501    0  0.00000000000E+00 -0.00000000000E+00 -0.12444663529E+04  0.12444663529E+04  0.00000000000E+00 0.  1.
         36    2    1    2    0    0  0.71054273576E-14  0.14210854715E-13 -0.10424484635E+04  0.14464842424E+04  0.10028049983E+04 0.  0.
         25    2    3    3    0    0  0.21028140229E+02  0.57028792256E+02 -0.13984512598E+02  0.14255672477E+03  0.12818887376E+03 0.  0.
         35    2    3    3    0    0 -0.21028140229E+02 -0.57028792256E+02 -0.10284639509E+04  0.13039275176E+04  0.79924614932E+03 0.  0.
         22    1    5    5    0    0 -0.37708265852E+03 -0.18816331754E+03 -0.56828100046E+03  0.70748855885E+03  0.00000000000E+00 0. -1.
         22    1    5    5    0    0  0.35605451829E+03  0.13113452529E+03 -0.46018295040E+03  0.59643895878E+03  0.00000000000E+00 0. -1.
          5    1    4    4  502    0  0.64922660709E+02  0.54144650607E+02 -0.37333456223E+02  0.92533626409E+02  0.47000000000E+01 0. -1.
         -5    1    4    4    0  502 -0.43894520480E+02  0.28841416483E+01  0.23348943625E+02  0.50023098361E+02  0.47000000000E+01 0. -1.
<mgrwt>
<rscale>  0 0.10028050E+04</rscale>
<asrwt>0</asrwt>
<pdfrwt beam="1">  1        2 0.19145637E+00 0.10028050E+04</pdfrwt>
<pdfrwt beam="2">  1       -2 0.31079675E-01 0.10028050E+04</pdfrwt>
<totfact> 0.20581285E+02</totfact>
</mgrwt>
</event>
<event>
 9    1  0.4370149E-036  0.9987460E+03  0.7818608E-02  0.8682233E-01
          4   -1    0    0  501    0  0.00000000000E+00  0.00000000000E+00  0.77002843597E+03  0.77002843597E+03  0.00000000000E+00 0.  1.
         -4   -1    0    0    0  501 -0.00000000000E+00 -0.00000000000E+00 -0.32384959442E+03  0.32384959442E+03  0.00000000000E+00 0.  1.
         36    2    1    2    0    0 -0.28421709430E-13  0.14210854715E-13  0.44617884155E+03  0.10938780304E+04  0.99874600712E+03 0.  0.
         25    2    3    3    0    0  0.10427859552E+03  0.87343811199E+02  0.11257480094E+03  0.21608932553E+03  0.12457344806E+03 0.  0.
         35    2    3    3    0    0 -0.10427859552E+03 -0.87343811199E+02  0.33360404061E+03  0.87778870487E+03  0.80044886636E+03 0.  0.
         22    1    5    5    0    0 -0.33334028827E+03 -0.29819800066E+03  0.34713198488E+03  0.56616111691E+03  0.00000000000E+00 0. -1.
         22    1    5    5    0    0  0.22906169275E+03  0.21085418946E+03 -0.13527944272E+02  0.31162758796E+03  0.00000000000E+00 0. -1.
          5    1    4    4  502    0  0.10081466779E+03  0.93869541256E+02  0.40743333340E+02  0.14372611881E+03  0.47000000000E+01 0.  1.
         -5    1    4    4    0  502  0.34639277290E+01 -0.65257300573E+01  0.71831467601E+02  0.72363206713E+02  0.47000000000E+01 0.  1.
<mgrwt>
<rscale>  0 0.99874601E+03</rscale>
<asrwt>0</asrwt>
<pdfrwt beam="1">  1        4 0.11846591E+00 0.99874601E+03</pdfrwt>
<pdfrwt beam="2">  1       -4 0.49823015E-01 0.99874601E+03</pdfrwt>
<totfact> 0.45868964E+00</totfact>
</mgrwt>
</event>
<event>
 9    1  0.4370149E-036  0.1000483E+04  0.7818608E-02  0.8680578E-01
         -2   -1    0    0    0  501 -0.00000000000E+00  0.00000000000E+00  0.18486616512E+03  0.18486616512E+03  0.00000000000E+00 0.  1.
          2   -1    0    0  501    0  0.00000000000E+00 -0.00000000000E+00 -0.13536353668E+04  0.13536353668E+04  0.00000000000E+00 0.  1.
         36    2    1    2    0    0  0.28421709430E-13 -0.53290705182E-14 -0.11687692017E+04  0.15385015319E+04  0.10004826420E+04 0.  0.
         25    2    3    3    0    0  0.12950700050E+03  0.47553326928E+01 -0.30145837772E+03  0.35143138332E+03  0.12582602004E+03 0.  0.
         35    2    3    3    0    0 -0.12950700050E+03 -0.47553326928E+01 -0.86731082397E+03  0.11870701486E+04  0.80007049439E+03 0.  0.
         22    1    5    5    0    0 -0.72570878070E+02 -0.16520773935E+03 -0.97106776877E+03  0.98769060997E+03  0.00000000000E+00 0. -1.
         22    1    5    5    0    0 -0.56936122429E+02  0.16045240666E+03  0.10375694479E+03  0.19937953865E+03  0.00000000000E+00 0. -1.
          5    1    4    4  502    0 -0.22062917273E+02  0.15124394145E+02 -0.31218899558E+02  0.41379092625E+02  0.47000000000E+01 0. -1.
         -5    1    4    4    0  502  0.15156991777E+03 -0.10369061452E+02 -0.27023947816E+03  0.31005229069E+03  0.47000000000E+01 0. -1.
<mgrwt>
<rscale>  0 0.10004826E+04</rscale>
<asrwt>0</asrwt>
<pdfrwt beam="1">  1        2 0.20825159E+00 0.10004826E+04</pdfrwt>
<pdfrwt beam="2">  1       -2 0.28440949E-01 0.10004826E+04</pdfrwt>
<totfact> 0.20906352E+02</totfact>
</mgrwt>
</event>
<event>
 9    1  0.4370149E-036  0.9984969E+03  0.7818608E-02  0.8682471E-01
         -2   -1    0    0    0  501 -0.00000000000E+00  0.00000000000E+00  0.42266881383E+03  0.42266881383E+03  0.00000000000E+00 0. -1.
          2   -1    0    0  501    0  0.00000000000E+00 -0.00000000000E+00 -0.58970289899E+03  0.58970289899E+03  0.00000000000E+00 0. -1.
         36    2    1    2    0    0 -0.28421709430E-13  0.35527136788E-13 -0.16703408516E+03  0.10123717128E+04  0.99849692004E+03 0.  0.
         25    2    3    3    0    0  0.11631092378E+03 -0.60341710758E+02  0.15738781359E+02  0.18126564736E+03  0.12425849117E+03 0.  0.
         35    2    3    3    0    0 -0.11631092378E+03  0.60341710758E+02 -0.18277286652E+03  0.83110606546E+03  0.80010125501E+03 0.  0.
         22    1    5    5    0    0  0.18126442427E+03 -0.26181898188E+03 -0.22589244463E+03  0.39042716007E+03  0.00000000000E+00 0. -1.
         22    1    5    5    0    0 -0.29757534805E+03  0.32216069264E+03  0.43119578111E+02  0.44067890540E+03  0.00000000000E+00 0. -1.
          5    1    4    4  502    0  0.78931386278E+02 -0.55502914775E+02 -0.47379790902E+02  0.10759959049E+03  0.47000000000E+01 0. -1.
         -5    1    4    4    0  502  0.37379537499E+02 -0.48387959830E+01  0.63118572261E+02  0.73666056868E+02  0.47000000000E+01 0. -1.
<mgrwt>
<rscale>  0 0.99849692E+03</rscale>
<asrwt>0</asrwt>
<pdfrwt beam="1">  1        2 0.90723522E-01 0.99849692E+03</pdfrwt>
<pdfrwt beam="2">  1       -2 0.65025972E-01 0.99849692E+03</pdfrwt>
<totfact> 0.13365613E+02</totfact>
</mgrwt>
</event>
<event>
 9    1  0.4370149E-036  0.1006022E+04  0.7818608E-02  0.8675325E-01
          2   -1    0    0  501    0  0.00000000000E+00  0.00000000000E+00  0.62445416087E+03  0.62445416087E+03  0.00000000000E+00 0. -1.
         -2   -1    0    0    0  501 -0.00000000000E+00 -0.00000000000E+00 -0.40518569919E+03  0.40518569919E+03  0.00000000000E+00 0. -1.
         36    2    1    2    0    0  0.71054273576E-14  0.14210854715E-13  0.21926846169E+03  0.10296398601E+04  0.10060216614E+04 0.  0.
         25    2    3    3    0    0 -0.61225127632E+02 -0.33302827881E+02  0.17542384822E+03  0.22657019785E+03  0.12531134597E+03 0.  0.
         35    2    3    3    0    0  0.61225127632E+02  0.33302827881E+02  0.43844613465E+02  0.80306966221E+03  0.79883724102E+03 0.  0.
         22    1    5    5    0    0 -0.24541077682E+02 -0.23587200928E+03  0.32643671957E+03  0.40348333440E+03  0.00000000000E+00 0.  1.
         22    1    5    5    0    0  0.85766205314E+02  0.26917483717E+03 -0.28259210611E+03  0.39958632781E+03  0.00000000000E+00 0.  1.
          5    1    4    4  502    0  0.19866412796E+02  0.23137021636E+02  0.76175687854E+01  0.31782282514E+02  0.47000000000E+01 0. -1.
         -5    1    4    4    0  502 -0.81091540428E+02 -0.56439849517E+02  0.16780627944E+03  0.19478791534E+03  0.47000000000E+01 0. -1.
<mgrwt>
<rscale>  0 0.10060217E+04</rscale>
<asrwt>0</asrwt>
<pdfrwt beam="1">  1        2 0.96069871E-01 0.10060217E+04</pdfrwt>
<pdfrwt beam="2">  1       -2 0.62336261E-01 0.10060217E+04</pdfrwt>
<totfact> 0.13651656E+02</totfact>
</mgrwt>
</event>
<event>
 9    1  0.4370149E-036  0.1000092E+04  0.7818608E-02  0.8680950E-01
          2   -1    0    0  501    0  0.00000000000E+00  0.00000000000E+00  0.22482538514E+03  0.22482538514E+03  0.00000000000E+00 0.  1.
         -2   -1    0    0    0  501 -0.00000000000E+00 -0.00000000000E+00 -0.11121790376E+04  0.11121790376E+04  0.00000000000E+00 0.  1.
         36    2    1    2    0    0  0.00000000000E+00  0.00000000000E+00 -0.88735365243E+03  0.13370044227E+04  0.10000921567E+04 0.  0.
         25    2    3    3    0    0 -0.84690095671E+02 -0.10711390699E+03 -0.12679941075E+03  0.22455462061E+03  0.12530317513E+03 0.  0.
         35    2    3    3    0    0  0.84690095671E+02  0.10711390699E+03 -0.76055424168E+03  0.11124498021E+04  0.80028495316E+03 0.  0.
         22    1    5    5    0    0  0.37736146860E+03  0.12403199811E+03 -0.13147431300E+03  0.41841499676E+03  0.00000000000E+00 0. -1.
         22    1    5    5    0    0 -0.29267137293E+03 -0.16918091120E+02 -0.62907992868E+03  0.69403480533E+03  0.00000000000E+00 0. -1.
          5    1    4    4  502    0 -0.67180285914E+01 -0.56262611513E+02 -0.11793719956E+03  0.13092702701E+03  0.47000000000E+01 0. -1.
         -5    1    4    4    0  502 -0.77972067080E+02 -0.50851295478E+02 -0.88622111902E+01  0.93627593602E+02  0.47000000000E+01 0. -1.
<mgrwt>
<rscale>  0 0.10000922E+04</rscale>
<asrwt>0</asrwt>
<pdfrwt beam="1">  1        2 0.34588521E-01 0.10000922E+04</pdfrwt>
<pdfrwt beam="2">  1       -2 0.17110446E+00 0.10000922E+04</pdfrwt>
<totfact> 0.35277018E+01</totfact>
</mgrwt>
</event>
<event>
 9    1  0.4370149E-036  0.1000156E+04  0.7818608E-02  0.8680889E-01
          1   -1    0    0  501    0  0.00000000000E+00  0.00000000000E+00  0.13710917519E+04  0.13710917519E+04  0.00000000000E+00 0. -1.
         -1   -1    0    0    0  501 -0.00000000000E+00 -0.00000000000E+00 -0.18239338087E+03  0.18239338087E+03  0.00000000000E+00 0. -1.
         36    2    1    2    0    0 -0.71054273576E-14 -0.28421709430E-13  0.11886983711E+04  0.15534851328E+04  0.10001561081E+04 0.  0.
         25    2    3    3    0    0 -0.52894327219E+02  0.11670488694E+03  0.34808152507E+03  0.39116773219E+03  0.12423206561E+03 0.  0.
         35    2    3    3    0    0  0.52894327219E+02 -0.11670488694E+03  0.84061684600E+03  0.11623174006E+04  0.79241858732E+03 0.  0.
         22    1    5    5    0    0 -0.70614872221E+02  0.18764319434E+03  0.80770732945E+03  0.83221845606E+03  0.00000000000E+00 0. -1.
         22    1    5    5    0    0  0.12350919944E+03 -0.30434808128E+03  0.32909516554E+02  0.33009894457E+03  0.00000000000E+00 0. -1.
          5    1    4    4  502    0  0.29019714897E+01  0.10971483105E+03  0.29036080237E+03  0.31044685719E+03  0.47000000000E+01 0.  1.
         -5    1    4    4    0  502 -0.55796298709E+02  0.69900558918E+01  0.57720722704E+02  0.80720874998E+02  0.47000000000E+01 0.  1.
<mgrwt>
<rscale>  0 0.10001561E+04</rscale>
<asrwt>0</asrwt>
<pdfrwt beam="1">  1        1 0.21093719E+00 0.10001561E+04</pdfrwt>
<pdfrwt beam="2">  1       -1 0.28060521E-01 0.10001561E+04</pdfrwt>
<totfact> 0.10058993E+02</totfact>
</mgrwt>
</event>
<event>
 9    1  0.4370149E-036  0.9997807E+03  0.7818608E-02  0.8681247E-01
          1   -1    0    0  501    0  0.00000000000E+00  0.00000000000E+00  0.65239169498E+03  0.65239169498E+03  0.00000000000E+00 0. -1.
         -1   -1    0    0    0  501 -0.00000000000E+00 -0.00000000000E+00 -0.38303732267E+03  0.38303732267E+03  0.00000000000E+00 0. -1.
         36    2    1    2    0    0  0.14210854715E-13  0.14210854715E-13  0.26935437231E+03  0.10354290177E+04  0.99978071231E+03 0.  0.
         25    2    3    3    0    0  0.46430128439E+02  0.23809940794E+02  0.18439564235E+03  0.22821731607E+03  0.12393030432E+03 0.  0.
         35    2    3    3    0    0 -0.46430128439E+02 -0.23809940794E+02  0.84958729959E+02  0.80721170158E+03  0.80103063316E+03 0.  0.
         22    1    5    5    0    0  0.34896264629E+03 -0.14491112705E+03 -0.26948627837E+02  0.37881445562E+03  0.00000000000E+00 0.  1.
         22    1    5    5    0    0 -0.39539277473E+03  0.12110118625E+03  0.11190735780E+03  0.42839724596E+03  0.00000000000E+00 0.  1.
          5    1    4    4  502    0  0.18594806560E+02 -0.45942023847E+02  0.34735227040E+02  0.60704714674E+02  0.47000000000E+01 0.  1.
         -5    1    4    4    0  502  0.27835321878E+02  0.69751964641E+02  0.14966041531E+03  0.16751260140E+03  0.47000000000E+01 0.  1.
<mgrwt>
<rscale>  0 0.99978071E+03</rscale>
<asrwt>0</asrwt>
<pdfrwt beam="1">  1        1 0.10036795E+00 0.99978071E+03</pdfrwt>
<pdfrwt beam="2">  1       -1 0.58928819E-01 0.99978071E+03</pdfrwt>
<totfact> 0.10220976E+02</totfact>
</mgrwt>
</event>
<event>
 9    1  0.4370149E-036  0.9995380E+03  0.7818608E-02  0.8681478E-01
         -2   -1    0    0    0  501 -0.00000000000E+00  0.00000000000E+00  0.16486409885E+03  0.16486409885E+03  0.00000000000E+00 0. -1.
          2   -1    0    0  501    0  0.00000000000E+00 -0.00000000000E+00 -0.15149996957E+04  0.15149996957E+04  0.00000000000E+00 0. -1.
         36    2    1    2    0    0  0.00000000000E+00 -0.42632564146E-13 -0.13501355968E+04  0.16798637945E+04  0.99953801245E+03 0.  0.
         25    2    3    3    0    0  0.14327270327E+02  0.84093489116E+02 -0.44095574406E+03  0.46610384655E+03  0.12463483446E+03 0.  0.
         35    2    3    3    0    0 -0.14327270327E+02 -0.84093489116E+02 -0.90917985276E+03  0.12137599480E+04  0.79958002792E+03 0.  0.
         22    1    5    5    0    0 -0.21416148911E+02  0.22561206607E+03 -0.87291989359E+03  0.90185841262E+03  0.00000000000E+00 0.  1.
         22    1    5    5    0    0  0.70888785849E+01 -0.30970555518E+03 -0.36259959163E+02  0.31190153534E+03  0.00000000000E+00 0.  1.
          5    1    4    4  502    0 -0.44670167871E+02  0.64495355339E+02 -0.15933666516E+03  0.17766636604E+03  0.47000000000E+01 0.  1.
         -5    1    4    4    0  502  0.58997438197E+02  0.19598133778E+02 -0.28161907890E+03  0.28843748050E+03  0.47000000000E+01 0.  1.
<mgrwt>
<rscale>  0 0.99953801E+03</rscale>
<asrwt>0</asrwt>
<pdfrwt beam="1">  1        2 0.23307687E+00 0.99953801E+03</pdfrwt>
<pdfrwt beam="2">  1       -2 0.25363708E-01 0.99953801E+03</pdfrwt>
<totfact> 0.20773719E+02</totfact>
</mgrwt>
</event>
<event>
 9    1  0.4370149E-036  0.9988955E+03  0.7818608E-02  0.8682090E-01
         -2   -1    0    0    0  501 -0.00000000000E+00  0.00000000000E+00  0.24071939492E+03  0.24071939492E+03  0.00000000000E+00 0.  1.
          2   -1    0    0  501    0  0.00000000000E+00 -0.00000000000E+00 -0.10362608094E+04  0.10362608094E+04  0.00000000000E+00 0.  1.
         36    2    1    2    0    0  0.14210854715E-13  0.00000000000E+00 -0.79554141449E+03  0.12769802043E+04  0.99889554012E+03 0.  0.
         25    2    3    3    0    0  0.10328560647E+03 -0.53817570246E+02 -0.58152601808E+02  0.18057648615E+03  0.12514749251E+03 0.  0.
         35    2    3    3    0    0 -0.10328560647E+03  0.53817570246E+02 -0.73738881268E+03  0.10964037182E+04  0.80299103656E+03 0.  0.
         22    1    5    5    0    0  0.30384547849E+03 -0.57174974484E+02 -0.55787021233E+03  0.63781676547E+03  0.00000000000E+00 0.  1.
         22    1    5    5    0    0 -0.40713108496E+03  0.11099254473E+03 -0.17951860035E+03  0.45858695271E+03  0.00000000000E+00 0.  1.
          5    1    4    4  502    0  0.50844742877E+02  0.13234994538E+02 -0.76932006449E+02  0.93279025375E+02  0.47000000000E+01 0. -1.
         -5    1    4    4    0  502  0.52440863595E+02 -0.67052564784E+02  0.18779404641E+02  0.87297460773E+02  0.47000000000E+01 0. -1.
<mgrwt>
<rscale>  0 0.99889554E+03</rscale>
<asrwt>0</asrwt>
<pdfrwt beam="1">  1        2 0.15942474E+00 0.99889554E+03</pdfrwt>
<pdfrwt beam="2">  1       -2 0.37033753E-01 0.99889554E+03</pdfrwt>
<totfact> 0.19822645E+02</totfact>
</mgrwt>
</event>
<event>
 9    1  0.4370149E-036  0.1002391E+04  0.7818608E-02  0.8678765E-01
         -2   -1    0    0    0  501 -0.00000000000E+00  0.00000000000E+00  0.83488172907E+03  0.83488172907E+03  0.00000000000E+00 0.  1.
          2   -1    0    0  501    0  0.00000000000E+00 -0.00000000000E+00 -0.30087708934E+03  0.30087708934E+03  0.00000000000E+00 0.  1.
         36    2    1    2    0    0  0.00000000000E+00  0.71054273576E-14  0.53400463973E+03  0.11357588184E+04  0.10023907114E+04 0.  0.
         25    2    3    3    0    0  0.15015428934E+03  0.30823501150E+01  0.13079999793E+03  0.23561668220E+03  0.12589984108E+03 0.  0.
         35    2    3    3    0    0 -0.15015428934E+03 -0.30823501150E+01  0.40320464179E+03  0.90014213621E+03  0.79064914515E+03 0.  0.
         22    1    5    5    0    0 -0.24750522290E+02 -0.21894513742E+03  0.56242386690E+03  0.60404483907E+03  0.00000000000E+00 0. -1.
         22    1    5    5    0    0 -0.12540376704E+03  0.21586278730E+03 -0.15921922510E+03  0.29609729714E+03  0.00000000000E+00 0. -1.
          5    1    4    4  502    0  0.91728668019E+01 -0.44702757451E+02  0.42130046118E+02  0.62285702974E+02  0.47000000000E+01 0.  1.
         -5    1    4    4    0  502  0.14098142253E+03  0.47785107566E+02  0.88669951815E+02  0.17333097923E+03  0.47000000000E+01 0.  1.
<mgrwt>
<rscale>  0 0.10023907E+04</rscale>
<asrwt>0</asrwt>
<pdfrwt beam="1">  1        2 0.46288783E-01 0.10023907E+04</pdfrwt>
<pdfrwt beam="2">  1       -2 0.12844334E+00 0.10023907E+04</pdfrwt>
<totfact> 0.56657114E+01</totfact>
</mgrwt>
</event>
<event>
 9    1  0.4370149E-036  0.9999393E+03  0.7818608E-02  0.8681096E-01
         -2   -1    0    0    0  501 -0.00000000000E+00  0.00000000000E+00  0.81148029588E+03  0.81148029588E+03  0.00000000000E+00 0. -1.
          2   -1    0    0  501    0  0.00000000000E+00 -0.00000000000E+00 -0.30804158295E+03  0.30804158295E+03  0.00000000000E+00 0. -1.
         36    2    1    2    0    0  0.28421709430E-13 -0.17763568394E-13  0.50343871294E+03  0.11195218788E+04  0.99993934790E+03 0.  0.
         25    2    3    3    0    0 -0.13400369715E+03 -0.30829114898E+02  0.10724474034E+03  0.21452693485E+03  0.12495177579E+03 0.  0.
         35    2    3    3    0    0  0.13400369715E+03  0.30829114898E+02  0.39619397260E+03  0.90499494397E+03  0.80195932535E+03 0.  0.
         22    1    5    5    0    0 -0.34436076462E+02  0.38595854323E+03  0.69014370685E+02  0.39358966427E+03  0.00000000000E+00 0. -1.
         22    1    5    5    0    0  0.16843977361E+03 -0.35512942834E+03  0.32717960191E+03  0.51140527970E+03  0.00000000000E+00 0. -1.
          5    1    4    4  502    0 -0.42270636362E+02  0.29524655378E+02  0.89215847352E+02  0.10315071203E+03  0.47000000000E+01 0. -1.
         -5    1    4    4    0  502 -0.91733060786E+02 -0.60353770277E+02  0.18028892988E+02  0.11137622282E+03  0.47000000000E+01 0. -1.
<mgrwt>
<rscale>  0 0.99993935E+03</rscale>
<asrwt>0</asrwt>
<pdfrwt beam="1">  1        2 0.47391013E-01 0.99993935E+03</pdfrwt>
<pdfrwt beam="2">  1       -2 0.12484312E+00 0.99993935E+03</pdfrwt>
<totfact> 0.59503808E+01</totfact>
</mgrwt>
</event>
<event>
 9    1  0.4370149E-036  0.9998224E+03  0.7818608E-02  0.8681207E-01
          2   -1    0    0  501    0  0.00000000000E+00  0.00000000000E+00  0.49820553603E+03  0.49820553603E+03  0.00000000000E+00 0. -1.
         -2   -1    0    0    0  501 -0.00000000000E+00 -0.00000000000E+00 -0.50162273532E+03  0.50162273532E+03  0.00000000000E+00 0. -1.
         36    2    1    2    0    0  0.14210854715E-13  0.71054273576E-14 -0.34171992968E+01  0.99982827135E+03  0.99982243170E+03 0.  0.
         25    2    3    3    0    0 -0.10736324926E+01 -0.36546364798E+02 -0.13707111468E+03  0.18866205673E+03  0.12437078316E+03 0.  0.
         35    2    3    3    0    0  0.10736324926E+01  0.36546364798E+02  0.13365391538E+03  0.81116621461E+03  0.79924368572E+03 0.  0.
         22    1    5    5    0    0  0.35566524819E+03 -0.10531556251E+03 -0.71315694387E+02  0.37772352951E+03  0.00000000000E+00 0. -1.
         22    1    5    5    0    0 -0.35459161570E+03  0.14186192731E+03  0.20496960977E+03  0.43344268511E+03  0.00000000000E+00 0. -1.
          5    1    4    4  502    0 -0.44300053589E+02 -0.32738450192E+02 -0.13394144807E+03  0.14490238914E+03  0.47000000000E+01 0. -1.
         -5    1    4    4    0  502  0.43226421096E+02 -0.38079146063E+01 -0.31296666105E+01  0.43759667589E+02  0.47000000000E+01 0. -1.
<mgrwt>
<rscale>  0 0.99982243E+03</rscale>
<asrwt>0</asrwt>
<pdfrwt beam="1">  1        2 0.76647006E-01 0.99982243E+03</pdfrwt>
<pdfrwt beam="2">  1       -2 0.77172729E-01 0.99982243E+03</pdfrwt>
<totfact> 0.11183162E+02</totfact>
</mgrwt>
</event>
<event>
 9    1  0.4370149E-036  0.1001077E+04  0.7818608E-02  0.8680013E-01
         -1   -1    0    0    0  501 -0.00000000000E+00  0.00000000000E+00  0.88163324470E+03  0.88163324470E+03  0.00000000000E+00 0. -1.
          1   -1    0    0  501    0  0.00000000000E+00 -0.00000000000E+00 -0.28417552190E+03  0.28417552190E+03  0.00000000000E+00 0. -1.
         36    2    1    2    0    0  0.14210854715E-13 -0.28421709430E-13  0.59745772280E+03  0.11658087666E+04  0.10010765953E+04 0.  0.
         25    2    3    3    0    0 -0.89623278165E+01 -0.96113038347E+02  0.21189370665E+03  0.26433320054E+03  0.12512017636E+03 0.  0.
         35    2    3    3    0    0  0.89623278165E+01  0.96113038347E+02  0.38556401615E+03  0.90147556605E+03  0.80912331951E+03 0.  0.
         22    1    5    5    0    0  0.17562075436E+03 -0.17142336806E+03  0.50733203624E+03  0.56357290165E+03  0.00000000000E+00 0.  1.
         22    1    5    5    0    0 -0.16665842655E+03  0.26753640640E+03 -0.12176802009E+03  0.33790266440E+03  0.00000000000E+00 0.  1.
          5    1    4    4  502    0  0.39025723060E+02  0.10714601557E+02  0.58426619482E+02  0.71228994173E+02  0.47000000000E+01 0.  1.
         -5    1    4    4    0  502 -0.47988050876E+02 -0.10682763990E+03  0.15346708717E+03  0.19310420637E+03  0.47000000000E+01 0.  1.
<mgrwt>
<rscale>  0 0.10010766E+04</rscale>
<asrwt>0</asrwt>
<pdfrwt beam="1">  1        1 0.43719311E-01 0.10010766E+04</pdfrwt>
<pdfrwt beam="2">  1       -1 0.13563588E+00 0.10010766E+04</pdfrwt>
<totfact> 0.51076292E+01</totfact>
</mgrwt>
</event>
<event>
 9    1  0.4370149E-036  0.1000093E+04  0.7818608E-02  0.8680949E-01
         -1   -1    0    0    0  501 -0.00000000000E+00  0.00000000000E+00  0.15818625909E+03  0.15818625909E+03  0.00000000000E+00 0.  1.
          1   -1    0    0  501    0  0.00000000000E+00 -0.00000000000E+00 -0.15807101485E+04  0.15807101485E+04  0.00000000000E+00 0.  1.
         36    2    1    2    0    0 -0.71054273576E-14  0.14210854715E-13 -0.14225238894E+04  0.17388964076E+04  0.10000932459E+04 0.  0.
         25    2    3    3    0    0  0.56347499918E+02  0.11641235348E+03 -0.35823924592E+03  0.40121817281E+03  0.12614986360E+03 0.  0.
         35    2    3    3    0    0 -0.56347499918E+02 -0.11641235348E+03 -0.10642846435E+04  0.13376782348E+04  0.79997148741E+03 0.  0.
         22    1    5    5    0    0  0.37875507331E+02 -0.41669237717E+03 -0.31112072052E+03  0.52140501914E+03  0.00000000000E+00 0. -1.
         22    1    5    5    0    0 -0.94223007249E+02  0.30028002369E+03 -0.75316392297E+03  0.81627321565E+03  0.00000000000E+00 0. -1.
          5    1    4    4  502    0 -0.19412051944E+01  0.86215273606E+02 -0.30370406955E+03  0.31574529852E+03  0.47000000000E+01 0.  1.
         -5    1    4    4    0  502  0.58288705112E+02  0.30197079875E+02 -0.54535176370E+02  0.85472874284E+02  0.47000000000E+01 0.  1.
<mgrwt>
<rscale>  0 0.10000932E+04</rscale>
<asrwt>0</asrwt>
<pdfrwt beam="1">  1        1 0.24318617E+00 0.10000932E+04</pdfrwt>
<pdfrwt beam="2">  1       -1 0.24336348E-01 0.10000932E+04</pdfrwt>
<totfact> 0.90605152E+01</totfact>
</mgrwt>
</event>
<event>
 9    1  0.4370149E-036  0.1001446E+04  0.7818608E-02  0.8679662E-01
         -2   -1    0    0    0  501 -0.00000000000E+00  0.00000000000E+00  0.13762489027E+03  0.13762489027E+03  0.00000000000E+00 0.  1.
          2   -1    0    0  501    0  0.00000000000E+00 -0.00000000000E+00 -0.18217882831E+04  0.18217882831E+04  0.00000000000E+00 0.  1.
         36    2    1    2    0    0  0.00000000000E+00 -0.28421709430E-13 -0.16841633928E+04  0.19594131733E+04  0.10014457799E+04 0.  0.
         25    2    3    3    0    0 -0.86504962995E+02  0.10176140357E+03 -0.41563476342E+03  0.45405527876E+03  0.12480163351E+03 0.  0.
         35    2    3    3    0    0  0.86504962995E+02 -0.10176140357E+03 -0.12685286294E+04  0.15053578946E+04  0.79943668624E+03 0.  0.
         22    1    5    5    0    0  0.94199459228E+02  0.34351721960E+03 -0.67628560014E+03  0.76435582763E+03  0.00000000000E+00 0. -1.
         22    1    5    5    0    0 -0.76944962335E+01 -0.44527862317E+03 -0.59224302923E+03  0.74100206693E+03  0.00000000000E+00 0. -1.
          5    1    4    4  502    0 -0.91861449655E+02  0.15430983561E+02 -0.17497105553E+03  0.19827657819E+03  0.47000000000E+01 0. -1.
         -5    1    4    4    0  502  0.53564866608E+01  0.86330420007E+02 -0.24066370789E+03  0.25577870057E+03  0.47000000000E+01 0. -1.
<mgrwt>
<rscale>  0 0.10014458E+04</rscale>
<asrwt>0</asrwt>
<pdfrwt beam="1">  1        2 0.28027509E+00 0.10014458E+04</pdfrwt>
<pdfrwt beam="2">  1       -2 0.21173062E-01 0.10014458E+04</pdfrwt>
<totfact> 0.19160550E+02</totfact>
</mgrwt>
</event>
<event>
 9    1  0.4370149E-036  0.1000923E+04  0.7818608E-02  0.8680160E-01
          2   -1    0    0  501    0  0.00000000000E+00  0.00000000000E+00  0.17977865714E+04  0.17977865714E+04  0.00000000000E+00 0.  1.
         -2   -1    0    0    0  501 -0.00000000000E+00 -0.00000000000E+00 -0.13931664381E+03  0.13931664381E+03  0.00000000000E+00 0.  1.
         36    2    1    2    0    0  0.00000000000E+00  0.00000000000E+00  0.16584699276E+04  0.19371032152E+04  0.10009227571E+04 0.  0.
         25    2    3    3    0    0 -0.13038993061E+03  0.55649945223E+02  0.27583618812E+03  0.33410393342E+03  0.12426337048E+03 0.  0.
         35    2    3    3    0    0  0.13038993061E+03 -0.55649945223E+02  0.13826337395E+04  0.16029992818E+04  0.79864396917E+03 0.  0.
         22    1    5    5    0    0  0.46846962426E+03 -0.63500008019E+02  0.78823378107E+03  0.91913466559E+03  0.00000000000E+00 0.  1.
         22    1    5    5    0    0 -0.33807969365E+03  0.78500627957E+01  0.59439995840E+03  0.68386461620E+03  0.00000000000E+00 0.  1.
          5    1    4    4  502    0 -0.12247582598E+03  0.77737154834E+02  0.16084096554E+03  0.21664556166E+03  0.47000000000E+01 0. -1.
         -5    1    4    4    0  502 -0.79141046342E+01 -0.22087209610E+02  0.11499522258E+03  0.11745837177E+03  0.47000000000E+01 0. -1.
<mgrwt>
<rscale>  0 0.10009228E+04</rscale>
<asrwt>0</asrwt>
<pdfrwt beam="1">  1        2 0.27658253E+00 0.10009228E+04</pdfrwt>
<pdfrwt beam="2">  1       -2 0.21433331E-01 0.10009228E+04</pdfrwt>
<totfact> 0.19351457E+02</totfact>
</mgrwt>
</event>
<event>
 9    1  0.4370149E-036  0.9987827E+03  0.7818608E-02  0.8682198E-01
          1   -1    0    0  501    0  0.00000000000E+00  0.00000000000E+00  0.59603606004E+03  0.59603606004E+03  0.00000000000E+00 0. -1.
         -1   -1    0    0    0  501 -0.00000000000E+00 -0.00000000000E+00 -0.41841713303E+03  0.41841713303E+03  0.00000000000E+00 0. -1.
         36    2    1    2    0    0  0.28421709430E-13  0.88817841970E-15  0.17761892702E+03  0.10144531931E+04  0.99878265789E+03 0.  0.
         25    2    3    3    0    0  0.96219988871E+02 -0.25567796940E+01  0.13391958788E+03  0.20782244404E+03  0.12645508629E+03 0.  0.
         35    2    3    3    0    0 -0.96219988871E+02  0.25567796940E+01  0.43699339139E+02  0.80663074903E+03  0.79967412717E+03 0.  0.
         22    1    5    5    0    0 -0.37352063242E+03  0.16895777216E+03 -0.14182783824E+03  0.43379664282E+03  0.00000000000E+00 0.  1.
         22    1    5    5    0    0  0.27730064355E+03 -0.16640099246E+03  0.18552717738E+03  0.37283410621E+03  0.00000000000E+00 0.  1.
          5    1    4    4  502    0  0.48546458409E+02  0.68527068072E+01  0.14883671561E+03  0.15677428401E+03  0.47000000000E+01 0.  1.
         -5    1    4    4    0  502  0.47673530462E+02 -0.94094865012E+01 -0.14917127729E+02  0.51048160031E+02  0.47000000000E+01 0.  1.
<mgrwt>
<rscale>  0 0.99878266E+03</rscale>
<asrwt>0</asrwt>
<pdfrwt beam="1">  1        1 0.91697856E-01 0.99878266E+03</pdfrwt>
<pdfrwt beam="2">  1       -1 0.64371866E-01 0.99878266E+03</pdfrwt>
<totfact> 0.98529726E+01</totfact>
</mgrwt>
</event>
<event>
 9    1  0.4370149E-036  0.9977700E+03  0.7818608E-02  0.8683164E-01
          3   -1    0    0  501    0  0.00000000000E+00  0.00000000000E+00  0.90257364353E+03  0.90257364353E+03  0.00000000000E+00 0.  1.
         -3   -1    0    0    0  501 -0.00000000000E+00 -0.00000000000E+00 -0.27575171908E+03  0.27575171908E+03  0.00000000000E+00 0.  1.
         36    2    1    2    0    0 -0.42632564146E-13  0.14210854715E-13  0.62682192445E+03  0.11783253626E+04  0.99776998111E+03 0.  0.
         25    2    3    3    0    0 -0.10055629709E+03  0.88862998885E+02  0.13684686952E+03  0.23082487889E+03  0.12862681510E+03 0.  0.
         35    2    3    3    0    0  0.10055629709E+03 -0.88862998885E+02  0.48997505493E+03  0.94750048372E+03  0.79979585567E+03 0.  0.
         22    1    5    5    0    0 -0.33266307409E+03 -0.91579425531E+02  0.87020364157E+02  0.35584274030E+03  0.00000000000E+00 0. -1.
         22    1    5    5    0    0  0.43321937118E+03  0.27164266463E+01  0.40295469078E+03  0.59165774343E+03  0.00000000000E+00 0. -1.
          5    1    4    4  502    0 -0.53735791664E+01  0.14712706771E+02 -0.24403182464E+02  0.29375915440E+02  0.47000000000E+01 0. -1.
         -5    1    4    4    0  502 -0.95182717920E+02  0.74150292114E+02  0.16125005198E+03  0.20144896345E+03  0.47000000000E+01 0. -1.
<mgrwt>
<rscale>  0 0.99776998E+03</rscale>
<asrwt>0</asrwt>
<pdfrwt beam="1">  1        3 0.13885748E+00 0.99776998E+03</pdfrwt>
<pdfrwt beam="2">  1       -3 0.42423342E-01 0.99776998E+03</pdfrwt>
<totfact> 0.91243518E+00</totfact>
</mgrwt>
</event>
<event>
 9    1  0.4370149E-036  0.1000719E+04  0.7818608E-02  0.8680353E-01
          1   -1    0    0  501    0  0.00000000000E+00  0.00000000000E+00  0.60962021371E+03  0.60962021371E+03  0.00000000000E+00 0. -1.
         -1   -1    0    0    0  501 -0.00000000000E+00 -0.00000000000E+00 -0.41068156190E+03  0.41068156190E+03  0.00000000000E+00 0. -1.
         36    2    1    2    0    0  0.14210854715E-13  0.00000000000E+00  0.19893865181E+03  0.10203017756E+04  0.10007193044E+04 0.  0.
         25    2    3    3    0    0 -0.88141330549E+02 -0.10179420662E+03  0.80485696833E+02  0.20047024933E+03  0.12481754212E+03 0.  0.
         35    2    3    3    0    0  0.88141330549E+02  0.10179420662E+03  0.11845295498E+03  0.81983152628E+03  0.79997604607E+03 0.  0.
         22    1    5    5    0    0  0.32392419156E+03  0.32791405493E+03  0.16557434690E+03  0.48976461045E+03  0.00000000000E+00 0. -1.
         22    1    5    5    0    0 -0.23578286101E+03 -0.22611984831E+03 -0.47121391921E+02  0.33006691583E+03  0.00000000000E+00 0. -1.
          5    1    4    4  502    0  0.12371543941E+02 -0.76320083012E+02  0.50356284653E+02  0.92388611714E+02  0.47000000000E+01 0. -1.
         -5    1    4    4    0  502 -0.10051287449E+03 -0.25474123607E+02  0.30129412180E+02  0.10808163762E+03  0.47000000000E+01 0. -1.
<mgrwt>
<rscale>  0 0.10007193E+04</rscale>
<asrwt>0</asrwt>
<pdfrwt beam="1">  1        1 0.93787725E-01 0.10007193E+04</pdfrwt>
<pdfrwt beam="2">  1       -1 0.63181779E-01 0.10007193E+04</pdfrwt>
<totfact> 0.98835106E+01</totfact>
</mgrwt>
</event>
<event>
 9    1  0.4370149E-036  0.9998940E+03  0.7818608E-02  0.8681139E-01
         -1   -1    0    0    0  501 -0.00000000000E+00  0.00000000000E+00  0.52827301052E+03  0.52827301052E+03  0.00000000000E+00 0. -1.
          1   -1    0    0  501    0  0.00000000000E+00 -0.00000000000E+00 -0.47313983045E+03  0.47313983045E+03  0.00000000000E+00 0. -1.
         36    2    1    2    0    0 -0.14210854715E-13  0.00000000000E+00  0.55133180076E+02  0.10014128410E+04  0.99989399964E+03 0.  0.
         25    2    3    3    0    0  0.68985522629E+02 -0.11036108661E+03  0.63873494579E+02  0.19108601269E+03  0.12448079838E+03 0.  0.
         35    2    3    3    0    0 -0.68985522629E+02  0.11036108661E+03 -0.87403145030E+01  0.81032682829E+03  0.79975909108E+03 0.  0.
         22    1    5    5    0    0  0.75279283694E+01  0.21483358220E+03 -0.36925002423E+03  0.42726539545E+03  0.00000000000E+00 0.  1.
         22    1    5    5    0    0 -0.76513450999E+02 -0.10447249559E+03  0.36050970973E+03  0.38306143284E+03  0.00000000000E+00 0.  1.
          5    1    4    4  502    0 -0.25974728920E+02 -0.46622206825E+02 -0.10480559714E+02  0.54591655439E+02  0.47000000000E+01 0.  1.
         -5    1    4    4    0  502  0.94960251550E+02 -0.63738879786E+02  0.74354054293E+02  0.13649435725E+03  0.47000000000E+01 0.  1.
<mgrwt>
<rscale>  0 0.99989400E+03</rscale>
<asrwt>0</asrwt>
<pdfrwt beam="1">  1        1 0.72790743E-01 0.99989400E+03</pdfrwt>
<pdfrwt beam="2">  1       -1 0.81272771E-01 0.99989400E+03</pdfrwt>
<totfact> 0.85385203E+01</totfact>
</mgrwt>
</event>
<event>
 9    1  0.4370149E-036  0.1000560E+04  0.7818608E-02  0.8680505E-01
          4   -1    0    0  501    0  0.00000000000E+00  0.00000000000E+00  0.25884053296E+04  0.25884053296E+04  0.00000000000E+00 0.  1.
         -4   -1    0    0    0  501 -0.00000000000E+00 -0.00000000000E+00 -0.96692714672E+02  0.96692714672E+02  0.00000000000E+00 0.  1.
         36    2    1    2    0    0  0.14210854715E-13  0.71054273576E-14  0.24917126150E+04  0.26850980443E+04  0.10005597193E+04 0.  0.
         25    2    3    3    0    0 -0.12656094416E+03  0.60355514659E+02  0.44749823995E+03  0.48528179406E+03  0.12483302506E+03 0.  0.
         35    2    3    3    0    0  0.12656094416E+03 -0.60355514659E+02  0.20442143750E+04  0.21998162503E+04  0.80044903843E+03 0.  0.
         22    1    5    5    0    0 -0.16090515221E+03  0.15678482279E+03  0.14649199077E+03  0.26820114098E+03  0.00000000000E+00 0. -1.
         22    1    5    5    0    0  0.28746609637E+03 -0.21714033745E+03  0.18977223843E+04  0.19316151093E+04  0.00000000000E+00 0. -1.
          5    1    4    4  502    0 -0.56293820636E+02  0.88953916301E+02  0.19576702050E+03  0.22232545915E+03  0.47000000000E+01 0. -1.
         -5    1    4    4    0  502 -0.70267123526E+02 -0.28598401642E+02  0.25173121945E+03  0.26295633491E+03  0.47000000000E+01 0. -1.
<mgrwt>
<rscale>  0 0.10005597E+04</rscale>
<asrwt>0</asrwt>
<pdfrwt beam="1">  1        4 0.39821615E+00 0.10005597E+04</pdfrwt>
<pdfrwt beam="2">  1       -4 0.14875804E-01 0.10005597E+04</pdfrwt>
<totfact> 0.45672827E-01</totfact>
</mgrwt>
</event>
<event>
 9    1  0.4370149E-036  0.1003628E+04  0.7818608E-02  0.8677591E-01
         -1   -1    0    0    0  501 -0.00000000000E+00  0.00000000000E+00  0.17250836239E+03  0.17250836239E+03  0.00000000000E+00 0. -1.
          1   -1    0    0  501    0  0.00000000000E+00 -0.00000000000E+00 -0.14597387044E+04  0.14597387044E+04  0.00000000000E+00 0. -1.
         36    2    1    2    0    0  0.00000000000E+00 -0.14210854715E-13 -0.12872303420E+04  0.16322470668E+04  0.10036276868E+04 0.  0.
         25    2    3    3    0    0  0.43098268746E+02 -0.78647009576E+02 -0.42442723869E+03  0.45205885093E+03  0.12718455439E+03 0.  0.
         35    2    3    3    0    0 -0.43098268746E+02  0.78647009576E+02 -0.86280310334E+03  0.11801882159E+04  0.80023260175E+03 0.  0.
         22    1    5    5    0    0 -0.16697810373E+03 -0.31512704606E+03 -0.57623985397E+03  0.67767183178E+03  0.00000000000E+00 0.  1.
         22    1    5    5    0    0  0.12387983498E+03  0.39377405564E+03 -0.28656324937E+03  0.50251638411E+03  0.00000000000E+00 0.  1.
          5    1    4    4  502    0  0.56433376555E+02  0.42795725942E+00 -0.28985054987E+03  0.29533089983E+03  0.47000000000E+01 0. -1.
         -5    1    4    4    0  502 -0.13335107808E+02 -0.79074966835E+02 -0.13457668882E+03  0.15672795110E+03  0.47000000000E+01 0. -1.
<mgrwt>
<rscale>  0 0.10036277E+04</rscale>
<asrwt>0</asrwt>
<pdfrwt beam="1">  1        1 0.22457519E+00 0.10036277E+04</pdfrwt>
<pdfrwt beam="2">  1       -1 0.26539747E-01 0.10036277E+04</pdfrwt>
<totfact> 0.95444948E+01</totfact>
</mgrwt>
</event>
<event>
 9    1  0.4370149E-036  0.1000471E+04  0.7818608E-02  0.8680590E-01
          1   -1    0    0  501    0  0.00000000000E+00  0.00000000000E+00  0.45435980608E+03  0.45435980608E+03  0.00000000000E+00 0.  1.
         -1   -1    0    0    0  501 -0.00000000000E+00 -0.00000000000E+00 -0.55074285592E+03  0.55074285592E+03  0.00000000000E+00 0.  1.
         36    2    1    2    0    0  0.00000000000E+00  0.71054273576E-14 -0.96383049831E+02  0.10051026620E+04  0.10004707236E+04 0.  0.
         25    2    3    3    0    0  0.89491848338E+02  0.49020655450E+02  0.80679710654E+02  0.17975236945E+03  0.12405596734E+03 0.  0.
         35    2    3    3    0    0 -0.89491848338E+02 -0.49020655450E+02 -0.17706276049E+03  0.82535029255E+03  0.79964996635E+03 0.  0.
         22    1    5    5    0    0 -0.39666479641E+03  0.47501410956E+02 -0.27938819754E+03  0.48750088172E+03  0.00000000000E+00 0.  1.
         22    1    5    5    0    0  0.30717294807E+03 -0.96522066406E+02  0.10232543706E+03  0.33784941083E+03  0.00000000000E+00 0.  1.
          5    1    4    4  502    0 -0.13910435670E+01  0.52165143101E+02 -0.75791869843E+01  0.52940260977E+02  0.47000000000E+01 0.  1.
         -5    1    4    4    0  502  0.90882891905E+02 -0.31444876510E+01  0.88258897638E+02  0.12681210848E+03  0.47000000000E+01 0.  1.
<mgrwt>
<rscale>  0 0.10004707E+04</rscale>
<asrwt>0</asrwt>
<pdfrwt beam="1">  1        1 0.69901509E-01 0.10004707E+04</pdfrwt>
<pdfrwt beam="2">  1       -1 0.84729670E-01 0.10004707E+04</pdfrwt>
<totfact> 0.82623987E+01</totfact>
</mgrwt>
</event>
<event>
 9    1  0.4370149E-036  0.9997948E+03  0.7818608E-02  0.8681233E-01
         -1   -1    0    0    0  501 -0.00000000000E+00  0.00000000000E+00  0.26488588019E+03  0.26488588019E+03  0.00000000000E+00 0. -1.
          1   -1    0    0  501    0  0.00000000000E+00 -0.00000000000E+00 -0.94341544083E+03  0.94341544083E+03  0.00000000000E+00 0. -1.
         36    2    1    2    0    0  0.00000000000E+00  0.28421709430E-13 -0.67852956064E+03  0.12083013210E+04  0.99979483781E+03 0.  0.
         25    2    3    3    0    0  0.78798746848E+02 -0.67617193901E+02 -0.13270170285E+02  0.16209436115E+03  0.12376250273E+03 0.  0.
         35    2    3    3    0    0 -0.78798746848E+02  0.67617193901E+02 -0.66525939035E+03  0.10462069599E+04  0.80074816203E+03 0.  0.
         22    1    5    5    0    0  0.58399299581E+02  0.18370531072E+03 -0.79916562468E+03  0.82208504125E+03  0.00000000000E+00 0.  1.
         22    1    5    5    0    0 -0.13719804643E+03 -0.11608811682E+03  0.13390623433E+03  0.22412191861E+03  0.00000000000E+00 0.  1.
          5    1    4    4  502    0  0.63803652853E+02  0.77135859136E+01  0.32901272771E+02  0.72353225740E+02  0.47000000000E+01 0. -1.
         -5    1    4    4    0  502  0.14995093995E+02 -0.75330779815E+02 -0.46171443057E+02  0.89741135414E+02  0.47000000000E+01 0. -1.
<mgrwt>
<rscale>  0 0.99979484E+03</rscale>
<asrwt>0</asrwt>
<pdfrwt beam="1">  1        1 0.14514084E+00 0.99979484E+03</pdfrwt>
<pdfrwt beam="2">  1       -1 0.40751674E-01 0.99979484E+03</pdfrwt>
<totfact> 0.11104351E+02</totfact>
</mgrwt>
</event>
<event>
 9    1  0.4370149E-036  0.9979211E+03  0.7818608E-02  0.8683020E-01
         -2   -1    0    0    0  501 -0.00000000000E+00  0.00000000000E+00  0.72723551740E+03  0.72723551740E+03  0.00000000000E+00 0. -1.
          2   -1    0    0  501    0  0.00000000000E+00 -0.00000000000E+00 -0.34233975426E+03  0.34233975426E+03  0.00000000000E+00 0. -1.
         36    2    1    2    0    0  0.00000000000E+00  0.21316282073E-13  0.38489576314E+03  0.10695752717E+04  0.99792109571E+03 0.  0.
         25    2    3    3    0    0 -0.13040036421E+03 -0.35741148347E+01  0.32647642392E+02  0.18395119533E+03  0.12551949819E+03 0.  0.
         35    2    3    3    0    0  0.13040036421E+03  0.35741148347E+01  0.35224812075E+03  0.88562407633E+03  0.80201885060E+03 0.  0.
         22    1    5    5    0    0 -0.15156417546E+03 -0.27155101530E+03  0.37960285650E+03  0.49072393650E+03  0.00000000000E+00 0.  1.
         22    1    5    5    0    0  0.28196453968E+03  0.27512513013E+03 -0.27354735754E+02  0.39490013983E+03  0.00000000000E+00 0.  1.
          5    1    4    4  502    0 -0.11021242898E+03 -0.36292036858E+02  0.65355781150E+02  0.13325674306E+03  0.47000000000E+01 0.  1.
         -5    1    4    4    0  502 -0.20187935237E+02  0.32717922023E+02 -0.32708138758E+02  0.50694452277E+02  0.47000000000E+01 0.  1.
<mgrwt>
<rscale>  0 0.99792110E+03</rscale>
<asrwt>0</asrwt>
<pdfrwt beam="1">  1        2 0.52667655E-01 0.99792110E+03</pdfrwt>
<pdfrwt beam="2">  1       -2 0.11188239E+00 0.99792110E+03</pdfrwt>
<totfact> 0.70269844E+01</totfact>
</mgrwt>
</event>
<event>
 9    1  0.4370149E-036  0.9991392E+03  0.7818608E-02  0.8681858E-01
         -1   -1    0    0    0  501 -0.00000000000E+00  0.00000000000E+00  0.83933352438E+03  0.83933352438E+03  0.00000000000E+00 0.  1.
          1   -1    0    0  501    0  0.00000000000E+00 -0.00000000000E+00 -0.29734281442E+03  0.29734281442E+03  0.00000000000E+00 0.  1.
         36    2    1    2    0    0  0.00000000000E+00  0.14210854715E-13  0.54199070996E+03  0.11366763388E+04  0.99913921428E+03 0.  0.
         25    2    3    3    0    0  0.88722680469E+02 -0.35159379309E+02  0.21711149514E+03  0.26826687526E+03  0.12538667815E+03 0.  0.
         35    2    3    3    0    0 -0.88722680469E+02  0.35159379309E+02  0.32487921482E+03  0.86840946354E+03  0.79967530671E+03 0.  0.
         22    1    5    5    0    0 -0.24989291013E+03 -0.22581211169E+03  0.42816419562E+03  0.54475880418E+03  0.00000000000E+00 0.  1.
         22    1    5    5    0    0  0.16117022966E+03  0.26097149100E+03 -0.10328498081E+03  0.32365065936E+03  0.00000000000E+00 0.  1.
          5    1    4    4  502    0  0.96025583378E+01 -0.58766585199E+02  0.15101404066E+03  0.16239781753E+03  0.47000000000E+01 0.  1.
         -5    1    4    4    0  502  0.79120122131E+02  0.23607205890E+02  0.66097454489E+02  0.10586905774E+03  0.47000000000E+01 0.  1.
<mgrwt>
<rscale>  0 0.99913921E+03</rscale>
<asrwt>0</asrwt>
<pdfrwt beam="1">  1        1 0.45745049E-01 0.99913921E+03</pdfrwt>
<pdfrwt beam="2">  1       -1 0.12912823E+00 0.99913921E+03</pdfrwt>
<totfact> 0.54824348E+01</totfact>
</mgrwt>
</event>
<event>
 9    1  0.4370149E-036  0.1001338E+04  0.7818608E-02  0.8679765E-01
         -2   -1    0    0    0  501 -0.00000000000E+00  0.00000000000E+00  0.78289089428E+02  0.78289089428E+02  0.00000000000E+00 0. -1.
          2   -1    0    0  501    0  0.00000000000E+00 -0.00000000000E+00 -0.32018434991E+04  0.32018434991E+04  0.00000000000E+00 0. -1.
         36    2    1    2    0    0  0.00000000000E+00 -0.28421709430E-13 -0.31235544097E+04  0.32801325885E+04  0.10013379290E+04 0.  0.
         25    2    3    3    0    0 -0.72618936239E+02 -0.73428039893E+02 -0.26819981365E+03  0.31300161356E+03  0.12399065733E+03 0.  0.
         35    2    3    3    0    0  0.72618936239E+02  0.73428039893E+02 -0.28553545960E+04  0.29671309750E+04  0.80009447358E+03 0.  0.
         22    1    5    5    0    0  0.22281068619E+03  0.36840370694E+03 -0.20797222571E+04  0.21238198040E+04  0.00000000000E+00 0. -1.
         22    1    5    5    0    0 -0.15019174995E+03 -0.29497566705E+03 -0.77563233887E+03  0.84331117092E+03  0.00000000000E+00 0. -1.
          5    1    4    4  502    0 -0.25545465117E+02 -0.85414193147E+02 -0.24128013408E+03  0.25726707578E+03  0.47000000000E+01 0. -1.
         -5    1    4    4    0  502 -0.47073471122E+02  0.11986153255E+02 -0.26919679575E+02  0.55734537782E+02  0.47000000000E+01 0. -1.
<mgrwt>
<rscale>  0 0.10013379E+04</rscale>
<asrwt>0</asrwt>
<pdfrwt beam="1">  1        2 0.49259122E+00 0.10013379E+04</pdfrwt>
<pdfrwt beam="2">  1       -2 0.12044477E-01 0.10013379E+04</pdfrwt>
<totfact> 0.70131685E+01</totfact>
</mgrwt>
</event>
<event>
 9    1  0.4370149E-036  0.1000188E+04  0.7818608E-02  0.8680859E-01
         -1   -1    0    0    0  501 -0.00000000000E+00  0.00000000000E+00  0.31627740732E+03  0.31627740732E+03  0.00000000000E+00 0. -1.
          1   -1    0    0  501    0  0.00000000000E+00 -0.00000000000E+00 -0.79074221250E+03  0.79074221250E+03  0.00000000000E+00 0. -1.
         36    2    1    2    0    0  0.00000000000E+00 -0.14210854715E-13 -0.47446480518E+03  0.11070196198E+04  0.10001877760E+04 0.  0.
         25    2    3    3    0    0 -0.29734359697E+02 -0.62445070152E+00  0.63927101537E+02  0.14314378097E+03  0.12457506024E+03 0.  0.
         35    2    3    3    0    0  0.29734359697E+02  0.62445070152E+00 -0.53839190671E+03  0.96387583885E+03  0.79894071458E+03 0.  0.
         22    1    5    5    0    0  0.44909168271E+01 -0.39809113389E+03 -0.30161439458E+03  0.49946767887E+03  0.00000000000E+00 0. -1.
         22    1    5    5    0    0  0.25243442870E+02  0.39871558459E+03 -0.23677751213E+03  0.46440815998E+03  0.00000000000E+00 0. -1.
          5    1    4    4  502    0  0.38824986388E+01  0.27737394721E+02 -0.28775028933E+02  0.40429310552E+02  0.47000000000E+01 0. -1.
         -5    1    4    4    0  502 -0.33616858335E+02 -0.28361845422E+02  0.92702130470E+02  0.10271447042E+03  0.47000000000E+01 0. -1.
<mgrwt>
<rscale>  0 0.10001878E+04</rscale>
<asrwt>0</asrwt>
<pdfrwt beam="1">  1        1 0.12165265E+00 0.10001878E+04</pdfrwt>
<pdfrwt beam="2">  1       -1 0.48658063E-01 0.10001878E+04</pdfrwt>
<totfact> 0.10853632E+02</totfact>
</mgrwt>
</event>
<event>
 9    1  0.4370149E-036  0.9999407E+03  0.7818608E-02  0.8681094E-01
          2   -1    0    0  501    0  0.00000000000E+00  0.00000000000E+00  0.18594436847E+04  0.18594436847E+04  0.00000000000E+00 0.  1.
         -2   -1    0    0    0  501 -0.00000000000E+00 -0.00000000000E+00 -0.13443287514E+03  0.13443287514E+03  0.00000000000E+00 0.  1.
         36    2    1    2    0    0  0.00000000000E+00  0.14210854715E-13  0.17250108096E+04  0.19938765599E+04  0.99994071962E+03 0.  0.
         25    2    3    3    0    0  0.93644967508E+02  0.80806668403E+02  0.19112932001E+03  0.25961182183E+03  0.12477493126E+03 0.  0.
         35    2    3    3    0    0 -0.93644967508E+02 -0.80806668403E+02  0.15338814896E+04  0.17342647380E+04  0.79973911989E+03 0.  0.
         22    1    5    5    0    0 -0.13362725506E+03  0.30088629808E+03  0.11305894435E+04  0.11775488514E+04  0.00000000000E+00 0.  1.
         22    1    5    5    0    0  0.39982287556E+02 -0.38169296648E+03  0.40329204603E+03  0.55671588658E+03  0.00000000000E+00 0.  1.
          5    1    4    4  502    0 -0.85539912381E+01 -0.25882403356E+02  0.25594550115E+02  0.37686079196E+02  0.47000000000E+01 0. -1.
         -5    1    4    4    0  502  0.10219895875E+03  0.10668907176E+03  0.16553476989E+03  0.22192574264E+03  0.47000000000E+01 0. -1.
<mgrwt>
<rscale>  0 0.99994072E+03</rscale>
<asrwt>0</asrwt>
<pdfrwt beam="1">  1        2 0.28606824E+00 0.99994072E+03</pdfrwt>
<pdfrwt beam="2">  1       -2 0.20681982E-01 0.99994072E+03</pdfrwt>
<totfact> 0.19005013E+02</totfact>
</mgrwt>
</event>
<event>
 9    1  0.4370149E-036  0.1000680E+04  0.7818608E-02  0.8680391E-01
          2   -1    0    0  501    0  0.00000000000E+00  0.00000000000E+00  0.82215209823E+03  0.82215209823E+03  0.00000000000E+00 0.  1.
         -2   -1    0    0    0  501 -0.00000000000E+00 -0.00000000000E+00 -0.30449338748E+03  0.30449338748E+03  0.00000000000E+00 0.  1.
         36    2    1    2    0    0  0.14210854715E-13  0.00000000000E+00  0.51765871075E+03  0.11266454857E+04  0.10006795239E+04 0.  0.
         25    2    3    3    0    0 -0.35247249784E+02  0.52583504040E+02 -0.41769856890E+02  0.14663663673E+03  0.12549975607E+03 0.  0.
         35    2    3    3    0    0  0.35247249784E+02 -0.52583504040E+02  0.55942856764E+03  0.98000884898E+03  0.80215312021E+03 0.  0.
         22    1    5    5    0    0  0.28787123705E+03  0.11529259358E+03 -0.35594313458E+02  0.31213648682E+03  0.00000000000E+00 0.  1.
         22    1    5    5    0    0 -0.25262398727E+03 -0.16787609762E+03  0.59502288110E+03  0.66787236215E+03  0.00000000000E+00 0.  1.
          5    1    4    4  502    0  0.27844639022E+02  0.68733636927E+02 -0.30742103139E+02  0.80416439071E+02  0.47000000000E+01 0.  1.
         -5    1    4    4    0  502 -0.63091888806E+02 -0.16150132888E+02 -0.11027753751E+02  0.66220197661E+02  0.47000000000E+01 0.  1.
<mgrwt>
<rscale>  0 0.10006795E+04</rscale>
<asrwt>0</asrwt>
<pdfrwt beam="1">  1        2 0.12648494E+00 0.10006795E+04</pdfrwt>
<pdfrwt beam="2">  1       -2 0.46845137E-01 0.10006795E+04</pdfrwt>
<totfact> 0.17361305E+02</totfact>
</mgrwt>
</event>
<event>
 9    1  0.4370149E-036  0.1000803E+04  0.7818608E-02  0.8680274E-01
          1   -1    0    0  501    0  0.00000000000E+00  0.00000000000E+00  0.11779985614E+04  0.11779985614E+04  0.00000000000E+00 0. -1.
         -1   -1    0    0    0  501 -0.00000000000E+00 -0.00000000000E+00 -0.21256514176E+03  0.21256514176E+03  0.00000000000E+00 0. -1.
         36    2    1    2    0    0 -0.71054273576E-14  0.00000000000E+00  0.96543341961E+03  0.13905637031E+04  0.10008025404E+04 0.  0.
         25    2    3    3    0    0 -0.14388499784E+02  0.93062837041E+02  0.36125144112E+02  0.16074631241E+03  0.12516641064E+03 0.  0.
         35    2    3    3    0    0  0.14388499784E+02 -0.93062837041E+02  0.92930827550E+03  0.12298173907E+04  0.79998076417E+03 0.  0.
         22    1    5    5    0    0  0.23577284356E+03 -0.16702525772E+03  0.18450475788E+02  0.28952839332E+03  0.00000000000E+00 0.  1.
         22    1    5    5    0    0 -0.22138434378E+03  0.73962420684E+02  0.91085779971E+03  0.94028899740E+03  0.00000000000E+00 0.  1.
          5    1    4    4  502    0  0.43924991187E+02  0.73204563845E+02 -0.64066620267E+01  0.85740587454E+02  0.47000000000E+01 0. -1.
         -5    1    4    4    0  502 -0.58313490971E+02  0.19858273195E+02  0.42531806138E+02  0.75005724961E+02  0.47000000000E+01 0. -1.
<mgrwt>
<rscale>  0 0.10008025E+04</rscale>
<asrwt>0</asrwt>
<pdfrwt beam="1">  1        1 0.18123054E+00 0.10008025E+04</pdfrwt>
<pdfrwt beam="2">  1       -1 0.32702330E-01 0.10008025E+04</pdfrwt>
<totfact> 0.10728823E+02</totfact>
</mgrwt>
</event>
<event>
 9    1  0.4370149E-036  0.1000049E+04  0.7818608E-02  0.8680991E-01
         -1   -1    0    0    0  501 -0.00000000000E+00  0.00000000000E+00  0.14145362561E+03  0.14145362561E+03  0.00000000000E+00 0.  1.
          1   -1    0    0  501    0  0.00000000000E+00 -0.00000000000E+00 -0.17675377665E+04  0.17675377665E+04  0.00000000000E+00 0.  1.
         36    2    1    2    0    0  0.00000000000E+00 -0.14210854715E-13 -0.16260841409E+04  0.19089913921E+04  0.10000492497E+04 0.  0.
         25    2    3    3    0    0  0.85410726507E+02  0.11001315911E+03 -0.33811626279E+03  0.38667845912E+03  0.12569700159E+03 0.  0.
         35    2    3    3    0    0 -0.85410726507E+02 -0.11001315911E+03 -0.12879678781E+04  0.15223129330E+04  0.79948578694E+03 0.  0.
         22    1    5    5    0    0  0.37030350668E+02 -0.28918743226E+03 -0.90401672499E+02  0.30524265796E+03  0.00000000000E+00 0.  1.
         22    1    5    5    0    0 -0.12244107718E+03  0.17917427315E+03 -0.11975662056E+04  0.12170702750E+04  0.00000000000E+00 0.  1.
          5    1    4    4  502    0  0.81185398025E+02  0.26174980948E+02 -0.25302082133E+03  0.26705397302E+03  0.47000000000E+01 0.  1.
         -5    1    4    4    0  502  0.42253284816E+01  0.83838178163E+02 -0.85095441455E+02  0.11962448610E+03  0.47000000000E+01 0.  1.
<mgrwt>
<rscale>  0 0.10000492E+04</rscale>
<asrwt>0</asrwt>
<pdfrwt beam="1">  1        1 0.27192889E+00 0.10000492E+04</pdfrwt>
<pdfrwt beam="2">  1       -1 0.21762096E-01 0.10000492E+04</pdfrwt>
<totfact> 0.80611106E+01</totfact>
</mgrwt>
</event>
<event>
 9    1  0.4370149E-036  0.9998712E+03  0.7818608E-02  0.8681161E-01
          2   -1    0    0  501    0  0.00000000000E+00  0.00000000000E+00  0.87704139347E+03  0.87704139347E+03  0.00000000000E+00 0. -1.
         -2   -1    0    0    0  501 -0.00000000000E+00 -0.00000000000E+00 -0.28497585073E+03  0.28497585073E+03  0.00000000000E+00 0. -1.
         36    2    1    2    0    0  0.42632564146E-13 -0.14210854715E-13  0.59206554274E+03  0.11620172442E+04  0.99987122617E+03 0.  0.
         25    2    3    3    0    0  0.59872412127E+02  0.12784696672E+03  0.12320784727E+03  0.22821655354E+03  0.13028073167E+03 0.  0.
         35    2    3    3    0    0 -0.59872412127E+02 -0.12784696672E+03  0.46885769547E+03  0.93380069066E+03  0.79512680665E+03 0.  0.
         22    1    5    5    0    0 -0.29739254780E+03  0.20014523130E+02 -0.87849971321E+02  0.31074189625E+03  0.00000000000E+00 0. -1.
         22    1    5    5    0    0  0.23752013567E+03 -0.14786148985E+03  0.55670766679E+03  0.62305879441E+03  0.00000000000E+00 0. -1.
          5    1    4    4  502    0  0.56149204693E+02  0.15039460792E+02 -0.35491065198E+01  0.58426062041E+02  0.47000000000E+01 0.  1.
         -5    1    4    4    0  502  0.37232074337E+01  0.11280750593E+03  0.12675695379E+03  0.16979049150E+03  0.47000000000E+01 0.  1.
<mgrwt>
<rscale>  0 0.99987123E+03</rscale>
<asrwt>0</asrwt>
<pdfrwt beam="1">  1        2 0.13492944E+00 0.99987123E+03</pdfrwt>
<pdfrwt beam="2">  1       -2 0.43842439E-01 0.99987123E+03</pdfrwt>
<totfact> 0.18145492E+02</totfact>
</mgrwt>
</event>
<event>
 9    1  0.4370149E-036  0.9980741E+03  0.7818608E-02  0.8682874E-01
         -1   -1    0    0    0  501 -0.00000000000E+00  0.00000000000E+00  0.53914386513E+03  0.53914386513E+03  0.00000000000E+00 0. -1.
          1   -1    0    0  501    0  0.00000000000E+00 -0.00000000000E+00 -0.46191379803E+03  0.46191379803E+03  0.00000000000E+00 0. -1.
         36    2    1    2    0    0  0.14210854715E-13 -0.14210854715E-13  0.77230067105E+02  0.10010576632E+04  0.99807412636E+03 0.  0.
         25    2    3    3    0    0  0.66506454627E+02  0.65040465916E+02 -0.87291820826E+02  0.17856551440E+03  0.12494963079E+03 0.  0.
         35    2    3    3    0    0 -0.66506454627E+02 -0.65040465916E+02  0.16452188793E+03  0.82249214876E+03  0.80048267468E+03 0.  0.
         22    1    5    5    0    0  0.35772685571E+03 -0.12170930734E+03  0.75921532470E+02  0.38541631761E+03  0.00000000000E+00 0. -1.
         22    1    5    5    0    0 -0.42423331034E+03  0.56668841427E+02  0.88600355461E+02  0.43707583115E+03  0.00000000000E+00 0. -1.
          5    1    4    4  502    0 -0.75974735953E+01 -0.10989105505E+02  0.21973551471E+02  0.26142092669E+02  0.47000000000E+01 0. -1.
         -5    1    4    4    0  502  0.74103928222E+02  0.76029571421E+02 -0.10926537230E+03  0.15242342173E+03  0.47000000000E+01 0. -1.
<mgrwt>
<rscale>  0 0.99807413E+03</rscale>
<asrwt>0</asrwt>
<pdfrwt beam="1">  1        1 0.71063661E-01 0.99807413E+03</pdfrwt>
<pdfrwt beam="2">  1       -1 0.82945210E-01 0.99807413E+03</pdfrwt>
<totfact> 0.84542035E+01</totfact>
</mgrwt>
</event>
<event>
 9    1  0.4370149E-036  0.1000039E+04  0.7818608E-02  0.8681000E-01
          2   -1    0    0  501    0  0.00000000000E+00  0.00000000000E+00  0.11986605192E+04  0.11986605192E+04  0.00000000000E+00 0. -1.
         -2   -1    0    0    0  501 -0.00000000000E+00 -0.00000000000E+00 -0.20858260967E+03  0.20858260967E+03  0.00000000000E+00 0. -1.
         36    2    1    2    0    0  0.71054273576E-14  0.00000000000E+00  0.99007790955E+03  0.14072431289E+04  0.10000394776E+04 0.  0.
         25    2    3    3    0    0 -0.16610373842E+00 -0.33875334818E+02 -0.82292319461E+01  0.12777164287E+03  0.12292398693E+03 0.  0.
         35    2    3    3    0    0  0.16610373842E+00  0.33875334818E+02  0.99830714149E+03  0.12794714860E+04  0.79955147980E+03 0.  0.
         22    1    5    5    0    0 -0.11167704760E+03  0.11944380937E+03  0.10959677548E+04  0.11080992312E+04  0.00000000000E+00 0.  1.
         22    1    5    5    0    0  0.11184315134E+03 -0.85568474554E+02 -0.97660613303E+02  0.17137225484E+03  0.00000000000E+00 0.  1.
          5    1    4    4  502    0  0.24166437037E+02 -0.57593965667E+02 -0.45273192971E+02  0.77284109376E+02  0.47000000000E+01 0. -1.
         -5    1    4    4    0  502 -0.24332540775E+02  0.23718630849E+02  0.37043961024E+02  0.50487533494E+02  0.47000000000E+01 0. -1.
<mgrwt>
<rscale>  0 0.10000395E+04</rscale>
<asrwt>0</asrwt>
<pdfrwt beam="1">  1        2 0.18440931E+00 0.10000395E+04</pdfrwt>
<pdfrwt beam="2">  1       -2 0.32089633E-01 0.10000395E+04</pdfrwt>
<totfact> 0.20650092E+02</totfact>
</mgrwt>
</event>
<event>
 9    1  0.4370149E-036  0.9992189E+03  0.7818608E-02  0.8681782E-01
         -2   -1    0    0    0  501 -0.00000000000E+00  0.00000000000E+00  0.30787865879E+03  0.30787865879E+03  0.00000000000E+00 0.  1.
          2   -1    0    0  501    0  0.00000000000E+00 -0.00000000000E+00 -0.81074017273E+03  0.81074017273E+03  0.00000000000E+00 0.  1.
         36    2    1    2    0    0 -0.14210854715E-13 -0.39079850467E-13 -0.50286151394E+03  0.11186188315E+04  0.99921888895E+03 0.  0.
         25    2    3    3    0    0 -0.10735899269E+03 -0.97724742779E+01 -0.18054877987E+03  0.24458926705E+03  0.12491834564E+03 0.  0.
         35    2    3    3    0    0  0.10735899269E+03  0.97724742779E+01 -0.32231273407E+03  0.87402956448E+03  0.80524575533E+03 0.  0.
         22    1    5    5    0    0 -0.68810889192E+02  0.25719031547E+03  0.15515216576E+03  0.30814605528E+03  0.00000000000E+00 0.  1.
         22    1    5    5    0    0  0.17616988188E+03 -0.24741784119E+03 -0.47746489983E+03  0.56588350920E+03  0.00000000000E+00 0.  1.
          5    1    4    4  502    0 -0.11340580615E+03 -0.19809091713E+01 -0.19550166496E+03  0.22607032506E+03  0.47000000000E+01 0. -1.
         -5    1    4    4    0  502  0.60468134623E+01 -0.77915651066E+01  0.14952885089E+02  0.18518941987E+02  0.47000000000E+01 0. -1.
<mgrwt>
<rscale>  0 0.99921889E+03</rscale>
<asrwt>0</asrwt>
<pdfrwt beam="1">  1        2 0.12472926E+00 0.99921889E+03</pdfrwt>
<pdfrwt beam="2">  1       -2 0.47365948E-01 0.99921889E+03</pdfrwt>
<totfact> 0.17298778E+02</totfact>
</mgrwt>
</event>
<event>
 9    1  0.4370149E-036  0.1000888E+04  0.7818608E-02  0.8680193E-01
         -2   -1    0    0    0  501 -0.00000000000E+00  0.00000000000E+00  0.44045653925E+03  0.44045653925E+03  0.00000000000E+00 0. -1.
          2   -1    0    0  501    0  0.00000000000E+00 -0.00000000000E+00 -0.56860120402E+03  0.56860120402E+03  0.00000000000E+00 0. -1.
         36    2    1    2    0    0  0.00000000000E+00 -0.28421709430E-13 -0.12814466476E+03  0.10090577433E+04  0.10008878429E+04 0.  0.
         25    2    3    3    0    0 -0.81603282733E+02  0.71958161579E+02  0.65835362680E+02  0.17846978774E+03  0.12522019559E+03 0.  0.
         35    2    3    3    0    0  0.81603282733E+02 -0.71958161579E+02 -0.19398002744E+03  0.83058795553E+03  0.80025685131E+03 0.  0.
         22    1    5    5    0    0 -0.92618265336E+02  0.22812546620E+03  0.19151588507E+03  0.31192580149E+03  0.00000000000E+00 0.  1.
         22    1    5    5    0    0  0.17422154807E+03 -0.30008362778E+03 -0.38549591251E+03  0.51866215404E+03  0.00000000000E+00 0.  1.
          5    1    4    4  502    0 -0.46664884498E+01  0.75820914832E+02 -0.13861734563E+01  0.76122261640E+02  0.47000000000E+01 0.  1.
         -5    1    4    4    0  502 -0.76936794283E+02 -0.38627532529E+01  0.67221536137E+02  0.10234752610E+03  0.47000000000E+01 0.  1.
<mgrwt>
<rscale>  0 0.10008878E+04</rscale>
<asrwt>0</asrwt>
<pdfrwt beam="1">  1        2 0.87477109E-01 0.10008878E+04</pdfrwt>
<pdfrwt beam="2">  1       -2 0.67762544E-01 0.10008878E+04</pdfrwt>
<totfact> 0.12772261E+02</totfact>
</mgrwt>
</event>
<event>
 9    1  0.4370149E-036  0.9992594E+03  0.7818608E-02  0.8681744E-01
         -2   -1    0    0    0  501 -0.00000000000E+00  0.00000000000E+00  0.49099337650E+03  0.49099337650E+03  0.00000000000E+00 0. -1.
          2   -1    0    0  501    0  0.00000000000E+00 -0.00000000000E+00 -0.50841792882E+03  0.50841792882E+03  0.00000000000E+00 0. -1.
         36    2    1    2    0    0 -0.14210854715E-13  0.28421709430E-13 -0.17424552318E+02  0.99941130531E+03  0.99925939683E+03 0.  0.
         25    2    3    3    0    0 -0.61456104772E+02  0.10231325651E+03  0.86905262713E+02  0.19339847140E+03  0.12492233099E+03 0.  0.
         35    2    3    3    0    0  0.61456104772E+02 -0.10231325651E+03 -0.10432981503E+03  0.80601283392E+03  0.79027028469E+03 0.  0.
         22    1    5    5    0    0 -0.22905230527E+03 -0.34796385007E+03 -0.24666370795E+02  0.41731550337E+03  0.00000000000E+00 0. -1.
         22    1    5    5    0    0  0.29050841004E+03  0.24565059356E+03 -0.79663444236E+02  0.38869733054E+03  0.00000000000E+00 0. -1.
          5    1    4    4  502    0  0.13066478967E+02 -0.11242628268E+02  0.49221744293E+02  0.52364106735E+02  0.47000000000E+01 0. -1.
         -5    1    4    4    0  502 -0.74522583739E+02  0.11355588478E+03  0.37683518421E+02  0.14103436466E+03  0.47000000000E+01 0. -1.
<mgrwt>
<rscale>  0 0.99925940E+03</rscale>
<asrwt>0</asrwt>
<pdfrwt beam="1">  1        2 0.78218143E-01 0.99925940E+03</pdfrwt>
<pdfrwt beam="2">  1       -2 0.75537443E-01 0.99925940E+03</pdfrwt>
<totfact> 0.11464139E+02</totfact>
</mgrwt>
</event>
<event>
 9    1  0.4370149E-036  0.1002563E+04  0.7818608E-02  0.8678601E-01
         -2   -1    0    0    0  501 -0.00000000000E+00  0.00000000000E+00  0.37568904231E+03  0.37568904231E+03  0.00000000000E+00 0. -1.
          2   -1    0    0  501    0  0.00000000000E+00 -0.00000000000E+00 -0.66885919503E+03  0.66885919503E+03  0.00000000000E+00 0. -1.
         36    2    1    2    0    0 -0.14210854715E-13  0.71054273576E-14 -0.29317015273E+03  0.10445482373E+04  0.10025628567E+04 0.  0.
         25    2    3    3    0    0 -0.60479671271E+02  0.28162475555E+02 -0.18801902965E+03  0.23512436058E+03  0.12442424908E+03 0.  0.
         35    2    3    3    0    0  0.60479671271E+02 -0.28162475555E+02 -0.10515112308E+03  0.80942387676E+03  0.79978705786E+03 0.  0.
         22    1    5    5    0    0 -0.11707174416E+03  0.11709512665E+03 -0.40170877431E+03  0.43449626158E+03  0.00000000000E+00 0.  1.
         22    1    5    5    0    0  0.17755141544E+03 -0.14525760221E+03  0.29655765123E+03  0.37492761518E+03  0.00000000000E+00 0.  1.
          5    1    4    4  502    0  0.30965653029E+02 -0.19293035047E+02 -0.64077922287E+02  0.73886148861E+02  0.47000000000E+01 0.  1.
         -5    1    4    4    0  502 -0.91445324301E+02  0.47455510602E+02 -0.12394110736E+03  0.16123821171E+03  0.47000000000E+01 0.  1.
<mgrwt>
<rscale>  0 0.10025629E+04</rscale>
<asrwt>0</asrwt>
<pdfrwt beam="1">  1        2 0.10290142E+00 0.10025629E+04</pdfrwt>
<pdfrwt beam="2">  1       -2 0.57798314E-01 0.10025629E+04</pdfrwt>
<totfact> 0.14714746E+02</totfact>
</mgrwt>
</event>
<event>
 9    1  0.4370149E-036  0.1000612E+04  0.7818608E-02  0.8680455E-01
          2   -1    0    0  501    0  0.00000000000E+00  0.00000000000E+00  0.28263119760E+04  0.28263119760E+04  0.00000000000E+00 0. -1.
         -2   -1    0    0    0  501 -0.00000000000E+00 -0.00000000000E+00 -0.88562878493E+02  0.88562878493E+02  0.00000000000E+00 0. -1.
         36    2    1    2    0    0  0.14210854715E-13 -0.56843418861E-13  0.27377490975E+04  0.29148748545E+04  0.10006124607E+04 0.  0.
         25    2    3    3    0    0  0.10331187917E+02 -0.63799165554E+02  0.88790301598E+03  0.89853508271E+03  0.12172289064E+03 0.  0.
         35    2    3    3    0    0 -0.10331187917E+02  0.63799165554E+02  0.18498460815E+04  0.20163397718E+04  0.79969899522E+03 0.  0.
         22    1    5    5    0    0 -0.14955976923E+03 -0.29287271905E+03  0.40539056673E+03  0.52200006296E+03  0.00000000000E+00 0. -1.
         22    1    5    5    0    0  0.13922858132E+03  0.35667188461E+03  0.14444555148E+04  0.14943397088E+04  0.00000000000E+00 0. -1.
          5    1    4    4  502    0 -0.18651407116E+02 -0.93840533753E+02  0.62401666281E+03  0.63132622805E+03  0.47000000000E+01 0. -1.
         -5    1    4    4    0  502  0.28982595033E+02  0.30041368199E+02  0.26388635317E+03  0.26720885466E+03  0.47000000000E+01 0. -1.
<mgrwt>
<rscale>  0 0.10006125E+04</rscale>
<asrwt>0</asrwt>
<pdfrwt beam="1">  1        2 0.43481716E+00 0.10006125E+04</pdfrwt>
<pdfrwt beam="2">  1       -2 0.13625060E-01 0.10006125E+04</pdfrwt>
<totfact> 0.10213791E+02</totfact>
</mgrwt>
</event>
<event>
 9    1  0.4370149E-036  0.9998295E+03  0.7818608E-02  0.8681200E-01
         -2   -1    0    0    0  501 -0.00000000000E+00  0.00000000000E+00  0.21126194329E+03  0.21126194329E+03  0.00000000000E+00 0.  1.
          2   -1    0    0  501    0  0.00000000000E+00 -0.00000000000E+00 -0.11829615169E+04  0.11829615169E+04  0.00000000000E+00 0.  1.
         36    2    1    2    0    0 -0.14210854715E-13  0.71054273576E-14 -0.97169957365E+03  0.13942234602E+04  0.99982948326E+03 0.  0.
         25    2    3    3    0    0 -0.71912120389E+02  0.63780644518E+02 -0.40871368309E+02  0.16291788232E+03  0.12502977229E+03 0.  0.
         35    2    3    3    0    0  0.71912120389E+02 -0.63780644518E+02 -0.93082820534E+03  0.12313055779E+04  0.80027055089E+03 0.  0.
         22    1    5    5    0    0  0.24074306074E+03  0.38392144564E+02 -0.99450290193E+03  0.10239468736E+04  0.00000000000E+00 0. -1.
         22    1    5    5    0    0 -0.16883094035E+03 -0.10217278908E+03  0.63674696594E+02  0.20735870427E+03  0.00000000000E+00 0. -1.
          5    1    4    4  502    0  0.21595504898E+02  0.55269762509E+01 -0.47259557431E+02  0.52463978756E+02  0.47000000000E+01 0.  1.
         -5    1    4    4    0  502 -0.93507625287E+02  0.58253668267E+02  0.63881891221E+01  0.11045390357E+03  0.47000000000E+01 0.  1.
<mgrwt>
<rscale>  0 0.99982948E+03</rscale>
<asrwt>0</asrwt>
<pdfrwt beam="1">  1        2 0.18199408E+00 0.99982948E+03</pdfrwt>
<pdfrwt beam="2">  1       -2 0.32501837E-01 0.99982948E+03</pdfrwt>
<totfact> 0.20606903E+02</totfact>
</mgrwt>
</event>
<event>
 9    1  0.4370149E-036  0.1005290E+04  0.7818608E-02  0.8676017E-01
          2   -1    0    0  501    0  0.00000000000E+00  0.00000000000E+00  0.31349791492E+03  0.31349791492E+03  0.00000000000E+00 0.  1.
         -2   -1    0    0    0  501 -0.00000000000E+00 -0.00000000000E+00 -0.80591235216E+03  0.80591235216E+03  0.00000000000E+00 0.  1.
         36    2    1    2    0    0 -0.14210854715E-13  0.28421709430E-13 -0.49241443724E+03  0.11194102671E+04  0.10052896936E+04 0.  0.
         25    2    3    3    0    0  0.68737722576E+02  0.12052480325E+03 -0.14257099216E+03  0.23489978101E+03  0.12490122742E+03 0.  0.
         35    2    3    3    0    0 -0.68737722576E+02 -0.12052480325E+03 -0.34984344508E+03  0.88451048607E+03  0.80044816272E+03 0.  0.
         22    1    5    5    0    0 -0.41304685709E+03  0.68762175612E+02 -0.16157644355E+03  0.44882389649E+03  0.00000000000E+00 0. -1.
         22    1    5    5    0    0  0.34430913451E+03 -0.18928697886E+03 -0.18826700153E+03  0.43568658958E+03  0.00000000000E+00 0. -1.
          5    1    4    4  502    0 -0.13968810183E+02  0.26729540105E+02  0.14731156858E+02  0.33892373103E+02  0.47000000000E+01 0.  1.
         -5    1    4    4    0  502  0.82706532760E+02  0.93795263144E+02 -0.15730214902E+03  0.20100740791E+03  0.47000000000E+01 0.  1.
<mgrwt>
<rscale>  0 0.10052897E+04</rscale>
<asrwt>0</asrwt>
<pdfrwt beam="1">  1        2 0.48230449E-01 0.10052897E+04</pdfrwt>
<pdfrwt beam="2">  1       -2 0.12398651E+00 0.10052897E+04</pdfrwt>
<totfact> 0.59392037E+01</totfact>
</mgrwt>
</event>
<event>
 9    1  0.4370149E-036  0.9988438E+03  0.7818608E-02  0.8682140E-01
         -1   -1    0    0    0  501 -0.00000000000E+00  0.00000000000E+00  0.24372787463E+03  0.24372787463E+03  0.00000000000E+00 0.  1.
          1   -1    0    0  501    0  0.00000000000E+00 -0.00000000000E+00 -0.10233635306E+04  0.10233635306E+04  0.00000000000E+00 0.  1.
         36    2    1    2    0    0  0.00000000000E+00 -0.14210854715E-13 -0.77963565596E+03  0.12670914052E+04  0.99884376814E+03 0.  0.
         25    2    3    3    0    0  0.87622736162E+02 -0.52239616279E+02 -0.27104185567E+03  0.31366910554E+03  0.12049024376E+03 0.  0.
         35    2    3    3    0    0 -0.87622736162E+02  0.52239616279E+02 -0.50859380029E+03  0.95342229969E+03  0.79996231565E+03 0.  0.
         22    1    5    5    0    0 -0.32825928891E+03  0.30228004917E+03 -0.19989176863E+03  0.48896227671E+03  0.00000000000E+00 0. -1.
         22    1    5    5    0    0  0.24063655275E+03 -0.25004043289E+03 -0.30870203166E+03  0.46446002298E+03  0.00000000000E+00 0. -1.
          5    1    4    4  502    0  0.10704298828E+03 -0.37336489436E+02 -0.26463234733E+03  0.28793156138E+03  0.47000000000E+01 0. -1.
         -5    1    4    4    0  502 -0.19420252122E+02 -0.14903126842E+02 -0.64095083425E+01  0.25737544159E+02  0.47000000000E+01 0. -1.
<mgrwt>
<rscale>  0 0.99884377E+03</rscale>
<asrwt>0</asrwt>
<pdfrwt beam="1">  1        1 0.15744055E+00 0.99884377E+03</pdfrwt>
<pdfrwt beam="2">  1       -1 0.37496596E-01 0.99884377E+03</pdfrwt>
<totfact> 0.11109307E+02</totfact>
</mgrwt>
</event>
<event>
 9    1  0.4370149E-036  0.9994023E+03  0.7818608E-02  0.8681607E-01
          2   -1    0    0  501    0  0.00000000000E+00  0.00000000000E+00  0.23871187888E+04  0.23871187888E+04  0.00000000000E+00 0. -1.
         -2   -1    0    0    0  501 -0.00000000000E+00 -0.00000000000E+00 -0.10460359859E+03  0.10460359859E+03  0.00000000000E+00 0. -1.
         36    2    1    2    0    0 -0.28421709430E-13 -0.14210854715E-13  0.22825151902E+04  0.24917223874E+04  0.99940225249E+03 0.  0.
         25    2    3    3    0    0 -0.12875193165E+03 -0.46912913647E+02  0.36201869524E+03  0.40676743345E+03  0.12499731133E+03 0.  0.
         35    2    3    3    0    0  0.12875193165E+03  0.46912913647E+02  0.19204964950E+04  0.20849549539E+04  0.79997030658E+03 0.  0.
         22    1    5    5    0    0  0.28698427552E+03  0.32981819690E+03  0.72802355228E+03  0.84921040389E+03  0.00000000000E+00 0. -1.
         22    1    5    5    0    0 -0.15823234387E+03 -0.28290528325E+03  0.11924729427E+04  0.12357445500E+04  0.00000000000E+00 0. -1.
          5    1    4    4  502    0 -0.12184736157E+03 -0.51786895876E+02  0.37076862912E+03  0.39372595602E+03  0.47000000000E+01 0.  1.
         -5    1    4    4    0  502 -0.69045700810E+01  0.48739822292E+01 -0.87499338749E+01  0.13041477431E+02  0.47000000000E+01 0.  1.
<mgrwt>
<rscale>  0 0.99940225E+03</rscale>
<asrwt>0</asrwt>
<pdfrwt beam="1">  1        2 0.36724900E+00 0.99940225E+03</pdfrwt>
<pdfrwt beam="2">  1       -2 0.16092863E-01 0.99940225E+03</pdfrwt>
<totfact> 0.14469808E+02</totfact>
</mgrwt>
</event>
<event>
 9    1  0.4370149E-036  0.9994553E+03  0.7818608E-02  0.8681557E-01
          1   -1    0    0  501    0  0.00000000000E+00  0.00000000000E+00  0.53166265736E+03  0.53166265736E+03  0.00000000000E+00 0.  1.
         -1   -1    0    0    0  501 -0.00000000000E+00 -0.00000000000E+00 -0.46971086035E+03  0.46971086035E+03  0.00000000000E+00 0.  1.
         36    2    1    2    0    0  0.00000000000E+00  0.00000000000E+00  0.61951797014E+02  0.10013735177E+04  0.99945530007E+03 0.  0.
         25    2    3    3    0    0 -0.54383404704E+02  0.10256415271E+03  0.89804150166E+02  0.19249145860E+03  0.12454403284E+03 0.  0.
         35    2    3    3    0    0  0.54383404704E+02 -0.10256415271E+03 -0.27852353152E+02  0.80888205912E+03  0.80002341957E+03 0.  0.
         22    1    5    5    0    0  0.42092319023E+03 -0.44708192833E+02  0.60065925475E+02  0.42753136725E+03  0.00000000000E+00 0. -1.
         22    1    5    5    0    0 -0.36653978553E+03 -0.57855959881E+02 -0.87918278627E+02  0.38135069186E+03  0.00000000000E+00 0. -1.
          5    1    4    4  502    0 -0.85233556418E+02  0.37832578650E+02  0.27378251653E+02  0.97302218940E+02  0.47000000000E+01 0. -1.
         -5    1    4    4    0  502  0.30850151714E+02  0.64731574064E+02  0.62425898513E+02  0.95189239658E+02  0.47000000000E+01 0. -1.
<mgrwt>
<rscale>  0 0.99945530E+03</rscale>
<asrwt>0</asrwt>
<pdfrwt beam="1">  1        1 0.81794255E-01 0.99945530E+03</pdfrwt>
<pdfrwt beam="2">  1       -1 0.72263210E-01 0.99945530E+03</pdfrwt>
<totfact> 0.92379818E+01</totfact>
</mgrwt>
</event>
<event>
 9    1  0.4370149E-036  0.1000309E+04  0.7818608E-02  0.8680744E-01
          1   -1    0    0  501    0  0.00000000000E+00  0.00000000000E+00  0.29365533901E+03  0.29365533901E+03  0.00000000000E+00 0.  1.
         -1   -1    0    0    0  501 -0.00000000000E+00 -0.00000000000E+00 -0.85186356390E+03  0.85186356390E+03  0.00000000000E+00 0.  1.
         36    2    1    2    0    0 -0.35527136788E-13  0.00000000000E+00 -0.55820822489E+03  0.11455189029E+04  0.10003085197E+04 0.  0.
         25    2    3    3    0    0  0.41351020094E+02  0.91689691364E+02  0.15249948445E+02  0.15883697239E+03  0.12198244343E+03 0.  0.
         35    2    3    3    0    0 -0.41351020094E+02 -0.91689691364E+02 -0.57345817334E+03  0.98668193052E+03  0.79659905165E+03 0.  0.
         22    1    5    5    0    0  0.27956474315E+03 -0.84560968849E+02  0.39527298429E+02  0.29473617082E+03  0.00000000000E+00 0. -1.
         22    1    5    5    0    0 -0.32091576325E+03 -0.71287225153E+01 -0.61298547176E+03  0.69194575971E+03  0.00000000000E+00 0. -1.
          5    1    4    4  502    0  0.51760332971E+02  0.50849287428E+02  0.62117126378E+02  0.95631634362E+02  0.47000000000E+01 0.  1.
         -5    1    4    4    0  502 -0.10409312876E+02  0.40840403936E+02 -0.46867177934E+02  0.63205338032E+02  0.47000000000E+01 0.  1.
<mgrwt>
<rscale>  0 0.10003085E+04</rscale>
<asrwt>0</asrwt>
<pdfrwt beam="1">  1        1 0.45177744E-01 0.10003085E+04</pdfrwt>
<pdfrwt beam="2">  1       -1 0.13105593E+00 0.10003085E+04</pdfrwt>
<totfact> 0.53607474E+01</totfact>
</mgrwt>
</event>
<event>
 9    1  0.4370149E-036  0.9976367E+03  0.7818608E-02  0.8683292E-01
         -2   -1    0    0    0  501 -0.00000000000E+00  0.00000000000E+00  0.82843632352E+02  0.82843632352E+02  0.00000000000E+00 0. -1.
          2   -1    0    0  501    0  0.00000000000E+00 -0.00000000000E+00 -0.30034868500E+04  0.30034868500E+04  0.00000000000E+00 0. -1.
         36    2    1    2    0    0  0.53290705182E-14 -0.28421709430E-13 -0.29206432176E+04  0.30863304823E+04  0.99763672822E+03 0.  0.
         25    2    3    3    0    0 -0.41855523504E+01  0.12315923961E+03 -0.35642926547E+03  0.39752516535E+03  0.12569295388E+03 0.  0.
         35    2    3    3    0    0  0.41855523504E+01 -0.12315923961E+03 -0.25642139522E+04  0.26888053170E+04  0.79955933052E+03 0.  0.
         22    1    5    5    0    0  0.22680689739E+03  0.23344016321E+03 -0.62635203008E+03  0.70587006176E+03  0.00000000000E+00 0.  1.
         22    1    5    5    0    0 -0.22262134504E+03 -0.35659940282E+03 -0.19378619221E+04  0.19829352552E+04  0.00000000000E+00 0.  1.
          5    1    4    4  502    0  0.48261006471E+01  0.12562085197E+03 -0.36366441492E+03  0.38480876598E+03  0.47000000000E+01 0.  1.
         -5    1    4    4    0  502 -0.90116529975E+01 -0.24616123629E+01  0.72351494554E+01  0.12716399365E+02  0.47000000000E+01 0.  1.
<mgrwt>
<rscale>  0 0.99763673E+03</rscale>
<asrwt>0</asrwt>
<pdfrwt beam="1">  1        2 0.46207498E+00 0.99763673E+03</pdfrwt>
<pdfrwt beam="2">  1       -2 0.12745172E-01 0.99763673E+03</pdfrwt>
<totfact> 0.87305550E+01</totfact>
</mgrwt>
</event>
<event>
 9    1  0.4370149E-036  0.9992670E+03  0.7818608E-02  0.8681736E-01
          1   -1    0    0  501    0  0.00000000000E+00  0.00000000000E+00  0.22325301713E+04  0.22325301713E+04  0.00000000000E+00 0. -1.
         -1   -1    0    0    0  501 -0.00000000000E+00 -0.00000000000E+00 -0.11181647576E+03  0.11181647576E+03  0.00000000000E+00 0. -1.
         36    2    1    2    0    0  0.28421709430E-13  0.00000000000E+00  0.21207136955E+04  0.23443466470E+04  0.99926704293E+03 0.  0.
         25    2    3    3    0    0 -0.90104110209E+02  0.77367544870E+02  0.58155546024E+03  0.60547584553E+03  0.11953977796E+03 0.  0.
         35    2    3    3    0    0  0.90104110209E+02 -0.77367544870E+02  0.15391582353E+04  0.17388708015E+04  0.80034936334E+03 0.  0.
         22    1    5    5    0    0  0.30115755171E+03 -0.35164861196E+03  0.87146520668E+03  0.98681519227E+03  0.00000000000E+00 0.  1.
         22    1    5    5    0    0 -0.21105344150E+03  0.27428106709E+03  0.66769302861E+03  0.75205560924E+03  0.00000000000E+00 0.  1.
          5    1    4    4  502    0  0.42999185517E+01 -0.25559751971E+02  0.60080151193E+02  0.65601103556E+02  0.47000000000E+01 0.  1.
         -5    1    4    4    0  502 -0.94404028760E+02  0.10292729684E+03  0.52147530905E+03  0.53987474198E+03  0.47000000000E+01 0.  1.
<mgrwt>
<rscale>  0 0.99926704E+03</rscale>
<asrwt>0</asrwt>
<pdfrwt beam="1">  1        1 0.34346615E+00 0.99926704E+03</pdfrwt>
<pdfrwt beam="2">  1       -1 0.17202536E-01 0.99926704E+03</pdfrwt>
<totfact> 0.56034803E+01</totfact>
</mgrwt>
</event>
<event>
 9    1  0.4370149E-036  0.1005791E+04  0.7818608E-02  0.8675543E-01
         -1   -1    0    0    0  501 -0.00000000000E+00  0.00000000000E+00  0.20135222255E+03  0.20135222255E+03  0.00000000000E+00 0. -1.
          1   -1    0    0  501    0  0.00000000000E+00 -0.00000000000E+00 -0.12560271281E+04  0.12560271281E+04  0.00000000000E+00 0. -1.
         36    2    1    2    0    0  0.28421709430E-13 -0.71054273576E-14 -0.10546749056E+04  0.14573793507E+04  0.10057909402E+04 0.  0.
         25    2    3    3    0    0 -0.11665070861E+03  0.47937460833E+02 -0.33547147637E+03  0.37954816635E+03  0.12494123081E+03 0.  0.
         35    2    3    3    0    0  0.11665070861E+03 -0.47937460833E+02 -0.71920342919E+03  0.10778311843E+04  0.79281845421E+03 0.  0.
         22    1    5    5    0    0  0.24484206606E+03 -0.10409595394E+03  0.70973643733E+02  0.27535588435E+03  0.00000000000E+00 0.  1.
         22    1    5    5    0    0 -0.12819135745E+03  0.56158493108E+02 -0.79017707292E+03  0.80247529996E+03  0.00000000000E+00 0.  1.
          5    1    4    4  502    0 -0.13217554366E+03  0.66592416404E+02 -0.31247227961E+03  0.34578308199E+03  0.47000000000E+01 0.  1.
         -5    1    4    4    0  502  0.15524835050E+02 -0.18654955570E+02 -0.22999196754E+02  0.33765084362E+02  0.47000000000E+01 0.  1.
<mgrwt>
<rscale>  0 0.10057909E+04</rscale>
<asrwt>0</asrwt>
<pdfrwt beam="1">  1        1 0.19323494E+00 0.10057909E+04</pdfrwt>
<pdfrwt beam="2">  1       -1 0.30977266E-01 0.10057909E+04</pdfrwt>
<totfact> 0.10301105E+02</totfact>
</mgrwt>
</event>
<event>
 9    1  0.4370149E-036  0.1001308E+04  0.7818608E-02  0.8679793E-01
          2   -1    0    0  501    0  0.00000000000E+00  0.00000000000E+00  0.15474866726E+04  0.15474866726E+04  0.00000000000E+00 0. -1.
         -2   -1    0    0    0  501 -0.00000000000E+00 -0.00000000000E+00 -0.16197526798E+03  0.16197526798E+03  0.00000000000E+00 0. -1.
         36    2    1    2    0    0  0.00000000000E+00  0.71054273576E-14  0.13855114047E+04  0.17094619406E+04  0.10013082812E+04 0.  0.
         25    2    3    3    0    0 -0.87786566895E+02 -0.62727505094E+02  0.10482158986E+03  0.19642181359E+03  0.12630416434E+03 0.  0.
         35    2    3    3    0    0  0.87786566895E+02  0.62727505094E+02  0.12806898148E+04  0.15130401270E+04  0.79842520193E+03 0.  0.
         22    1    5    5    0    0  0.36727749940E+03  0.55491653028E+02  0.25656907583E+03  0.45144188528E+03  0.00000000000E+00 0.  1.
         22    1    5    5    0    0 -0.27949093250E+03  0.72358520667E+01  0.10241207390E+04  0.10615982418E+04  0.00000000000E+00 0.  1.
          5    1    4    4  502    0 -0.20634197950E+02 -0.29819589577E+02  0.11511994888E+03  0.12078770913E+03  0.47000000000E+01 0.  1.
         -5    1    4    4    0  502 -0.67152368946E+02 -0.32907915518E+02 -0.10298359013E+02  0.75634104458E+02  0.47000000000E+01 0.  1.
<mgrwt>
<rscale>  0 0.10013083E+04</rscale>
<asrwt>0</asrwt>
<pdfrwt beam="1">  1        2 0.23807486E+00 0.10013083E+04</pdfrwt>
<pdfrwt beam="2">  1       -2 0.24919273E-01 0.10013083E+04</pdfrwt>
<totfact> 0.20547948E+02</totfact>
</mgrwt>
</event>
<event>
 9    1  0.4370149E-036  0.1000107E+04  0.7818608E-02  0.8680936E-01
          2   -1    0    0  501    0  0.00000000000E+00  0.00000000000E+00  0.43488911776E+03  0.43488911776E+03  0.00000000000E+00 0. -1.
         -2   -1    0    0    0  501 -0.00000000000E+00 -0.00000000000E+00 -0.57498205597E+03  0.57498205597E+03  0.00000000000E+00 0. -1.
         36    2    1    2    0    0  0.35527136788E-14 -0.14210854715E-13 -0.14009293822E+03  0.10098711737E+04  0.10001068724E+04 0.  0.
         25    2    3    3    0    0 -0.15019610860E+02 -0.40330394869E+02  0.98840938113E+02  0.16726180936E+03  0.12788609136E+03 0.  0.
         35    2    3    3    0    0  0.15019610860E+02  0.40330394869E+02 -0.23893387633E+03  0.84260936437E+03  0.80687608355E+03 0.  0.
         22    1    5    5    0    0 -0.46679743028E+02 -0.10159744301E+03  0.27978404018E+03  0.30129744103E+03  0.00000000000E+00 0. -1.
         22    1    5    5    0    0  0.61699353887E+02  0.14192783788E+03 -0.51871791651E+03  0.54131192333E+03  0.00000000000E+00 0. -1.
          5    1    4    4  502    0  0.20759810461E+02 -0.53643876785E+02 -0.36130385945E+01  0.57825420835E+02  0.47000000000E+01 0. -1.
         -5    1    4    4    0  502 -0.35779421321E+02  0.13313481916E+02  0.10245397671E+03  0.10943638853E+03  0.47000000000E+01 0. -1.
<mgrwt>
<rscale>  0 0.10001069E+04</rscale>
<asrwt>0</asrwt>
<pdfrwt beam="1">  1        2 0.66906019E-01 0.10001069E+04</pdfrwt>
<pdfrwt beam="2">  1       -2 0.88458777E-01 0.10001069E+04</pdfrwt>
<totfact> 0.95140984E+01</totfact>
</mgrwt>
</event>
<event>
 9    1  0.4370149E-036  0.9978521E+03  0.7818608E-02  0.8683086E-01
          2   -1    0    0  501    0  0.00000000000E+00  0.00000000000E+00  0.12184394684E+04  0.12184394684E+04  0.00000000000E+00 0. -1.
         -2   -1    0    0    0  501 -0.00000000000E+00 -0.00000000000E+00 -0.20430001859E+03  0.20430001859E+03  0.00000000000E+00 0. -1.
         36    2    1    2    0    0  0.14210854715E-13 -0.17763568394E-13  0.10141394498E+04  0.14227394870E+04  0.99785210535E+03 0.  0.
         25    2    3    3    0    0 -0.83789761381E+02  0.13044615399E+02  0.33740256340E+03  0.36932474048E+03  0.12397333601E+03 0.  0.
         35    2    3    3    0    0  0.83789761381E+02 -0.13044615399E+02  0.67673688641E+03  0.10534147465E+04  0.80281936238E+03 0.  0.
         22    1    5    5    0    0 -0.60899959040E+02  0.30305246988E+03  0.63117595421E+03  0.70280345025E+03  0.00000000000E+00 0. -1.
         22    1    5    5    0    0  0.14468972042E+03 -0.31609708528E+03  0.45560932204E+02  0.35061129625E+03  0.00000000000E+00 0. -1.
          5    1    4    4  502    0 -0.31320667041E+01  0.21794216584E+02  0.24596260815E+03  0.24699087498E+03  0.47000000000E+01 0. -1.
         -5    1    4    4    0  502 -0.80657694677E+02 -0.87496011844E+01  0.91439955249E+02  0.12233386550E+03  0.47000000000E+01 0. -1.
<mgrwt>
<rscale>  0 0.99785211E+03</rscale>
<asrwt>0</asrwt>
<pdfrwt beam="1">  1        2 0.18745222E+00 0.99785211E+03</pdfrwt>
<pdfrwt beam="2">  1       -2 0.31430773E-01 0.99785211E+03</pdfrwt>
<totfact> 0.20883860E+02</totfact>
</mgrwt>
</event>
<event>
 9    1  0.4370149E-036  0.1001179E+04  0.7818608E-02  0.8679916E-01
         -2   -1    0    0    0  501 -0.00000000000E+00  0.00000000000E+00  0.77681609546E+02  0.77681609546E+02  0.00000000000E+00 0. -1.
          2   -1    0    0  501    0  0.00000000000E+00 -0.00000000000E+00 -0.32258586464E+04  0.32258586464E+04  0.00000000000E+00 0. -1.
         36    2    1    2    0    0 -0.18651746814E-13 -0.56843418861E-13 -0.31481770369E+04  0.33035402560E+04  0.10011790885E+04 0.  0.
         25    2    3    3    0    0 -0.61734691970E+01  0.14009701560E+03 -0.56174381623E+03  0.59231240542E+03  0.12495033026E+03 0.  0.
         35    2    3    3    0    0  0.61734691970E+01 -0.14009701560E+03 -0.25864332207E+04  0.27112278506E+04  0.80090846372E+03 0.  0.
         22    1    5    5    0    0 -0.32529123949E+03 -0.30102199912E+03 -0.13319691048E+04  0.14037700419E+04  0.00000000000E+00 0.  1.
         22    1    5    5    0    0  0.33146470868E+03  0.16092498352E+03 -0.12544641158E+04  0.13074578086E+04  0.00000000000E+00 0.  1.
          5    1    4    4  502    0 -0.10714877336E+02  0.14460493602E+03 -0.56529526485E+03  0.58361478955E+03  0.47000000000E+01 0. -1.
         -5    1    4    4    0  502  0.45414081393E+01 -0.45079204237E+01  0.35514486202E+01  0.86976158650E+01  0.47000000000E+01 0. -1.
<mgrwt>
<rscale>  0 0.10011791E+04</rscale>
<asrwt>0</asrwt>
<pdfrwt beam="1">  1        2 0.49628588E+00 0.10011791E+04</pdfrwt>
<pdfrwt beam="2">  1       -2 0.11951019E-01 0.10011791E+04</pdfrwt>
<totfact> 0.68333492E+01</totfact>
</mgrwt>
</event>
<event>
 9    1  0.4370149E-036  0.9995897E+03  0.7818608E-02  0.8681429E-01
          2   -1    0    0  501    0  0.00000000000E+00  0.00000000000E+00  0.59651247758E+03  0.59651247758E+03  0.00000000000E+00 0.  1.
         -2   -1    0    0    0  501 -0.00000000000E+00 -0.00000000000E+00 -0.41875886624E+03  0.41875886624E+03  0.00000000000E+00 0.  1.
         36    2    1    2    0    0  0.14210854715E-13  0.10658141036E-13  0.17775361133E+03  0.10152713438E+04  0.99958969344E+03 0.  0.
         25    2    3    3    0    0  0.10142373135E+03 -0.89305646849E+01  0.12920935321E+03  0.20730621672E+03  0.12615182229E+03 0.  0.
         35    2    3    3    0    0 -0.10142373135E+03  0.89305646849E+01  0.48544258126E+02  0.80796512710E+03  0.80005285659E+03 0.  0.
         22    1    5    5    0    0  0.27318077336E+03 -0.20465322348E+03  0.13694245444E+03  0.36778242568E+03  0.00000000000E+00 0. -1.
         22    1    5    5    0    0 -0.37460450471E+03  0.21358378817E+03 -0.88398196310E+02  0.44018270142E+03  0.00000000000E+00 0. -1.
          5    1    4    4  502    0  0.11028115178E+03  0.18698166493E+02  0.13697446696E+03  0.17690576154E+03  0.47000000000E+01 0. -1.
         -5    1    4    4    0  502 -0.88574204319E+01 -0.27628731178E+02 -0.77651137531E+01  0.30400455175E+02  0.47000000000E+01 0. -1.
<mgrwt>
<rscale>  0 0.99958969E+03</rscale>
<asrwt>0</asrwt>
<pdfrwt beam="1">  1        2 0.91771150E-01 0.99958969E+03</pdfrwt>
<pdfrwt beam="2">  1       -2 0.64424441E-01 0.99958969E+03</pdfrwt>
<totfact> 0.13448072E+02</totfact>
</mgrwt>
</event>
<event>
 9    1  0.4370149E-036  0.1001773E+04  0.7818608E-02  0.8679352E-01
          1   -1    0    0  501    0  0.00000000000E+00  0.00000000000E+00  0.94157692100E+03  0.94157692100E+03  0.00000000000E+00 0. -1.
         -1   -1    0    0    0  501 -0.00000000000E+00 -0.00000000000E+00 -0.26645427503E+03  0.26645427503E+03  0.00000000000E+00 0. -1.
         36    2    1    2    0    0 -0.14210854715E-13  0.14210854715E-13  0.67512264597E+03  0.12080311960E+04  0.10017728203E+04 0.  0.
         25    2    3    3    0    0  0.63987376080E+02  0.44058402891E+02 -0.10615144353E+02  0.14835721413E+03  0.12594306067E+03 0.  0.
         35    2    3    3    0    0 -0.63987376080E+02 -0.44058402891E+02  0.68573779032E+03  0.10596739819E+04  0.80413749054E+03 0.  0.
         22    1    5    5    0    0  0.32103252519E+03  0.11668883393E+03  0.49375854032E+03  0.60039625443E+03  0.00000000000E+00 0. -1.
         22    1    5    5    0    0 -0.38501990127E+03 -0.16074723682E+03  0.19197925000E+03  0.45927772747E+03  0.00000000000E+00 0. -1.
          5    1    4    4  502    0  0.38974243297E+02 -0.20762246041E+02  0.41963583124E+02  0.61099057357E+02  0.47000000000E+01 0.  1.
         -5    1    4    4    0  502  0.25013132783E+02  0.64820648932E+02 -0.52578727477E+02  0.87258156769E+02  0.47000000000E+01 0.  1.
<mgrwt>
<rscale>  0 0.10017728E+04</rscale>
<asrwt>0</asrwt>
<pdfrwt beam="1">  1        1 0.14485799E+00 0.10017728E+04</pdfrwt>
<pdfrwt beam="2">  1       -1 0.40992966E-01 0.10017728E+04</pdfrwt>
<totfact> 0.11023880E+02</totfact>
</mgrwt>
</event>
<event>
 9    1  0.4370149E-036  0.9996753E+03  0.7818608E-02  0.8681347E-01
          1   -1    0    0  501    0  0.00000000000E+00  0.00000000000E+00  0.38606262836E+03  0.38606262836E+03  0.00000000000E+00 0.  1.
         -1   -1    0    0    0  501 -0.00000000000E+00 -0.00000000000E+00 -0.64714287183E+03  0.64714287183E+03  0.00000000000E+00 0.  1.
         36    2    1    2    0    0  0.00000000000E+00 -0.28421709430E-13 -0.26108024347E+03  0.10332055002E+04  0.99967530334E+03 0.  0.
         25    2    3    3    0    0  0.69321662044E+02  0.93686994399E+02 -0.12932260016E+03  0.21423383990E+03  0.12485614721E+03 0.  0.
         35    2    3    3    0    0 -0.69321662044E+02 -0.93686994399E+02 -0.13175764331E+03  0.81897166030E+03  0.79985733606E+03 0.  0.
         22    1    5    5    0    0 -0.38338830575E+02 -0.43117550812E+03 -0.19405926945E+03  0.47438505962E+03  0.00000000000E+00 0. -1.
         22    1    5    5    0    0 -0.30982831469E+02  0.33748851372E+03  0.62301626146E+02  0.34458660067E+03  0.00000000000E+00 0. -1.
          5    1    4    4  502    0 -0.33384776411E+02  0.12242048870E+02 -0.10815376382E+02  0.37462960679E+02  0.47000000000E+01 0. -1.
         -5    1    4    4    0  502  0.10270643845E+03  0.81444945529E+02 -0.11850722378E+03  0.17677087922E+03  0.47000000000E+01 0. -1.
<mgrwt>
<rscale>  0 0.99967530E+03</rscale>
<asrwt>0</asrwt>
<pdfrwt beam="1">  1        1 0.59394251E-01 0.99967530E+03</pdfrwt>
<pdfrwt beam="2">  1       -1 0.99560441E-01 0.99967530E+03</pdfrwt>
<totfact> 0.72538406E+01</totfact>
</mgrwt>
</event>
<event>
 9    1  0.4370149E-036  0.9987786E+03  0.7818608E-02  0.8682202E-01
          2   -1    0    0  501    0  0.00000000000E+00  0.00000000000E+00  0.73727326706E+03  0.73727326706E+03  0.00000000000E+00 0. -1.
         -2   -1    0    0    0  501 -0.00000000000E+00 -0.00000000000E+00 -0.33825947016E+03  0.33825947016E+03  0.00000000000E+00 0. -1.
         36    2    1    2    0    0  0.14210854715E-13  0.14210854715E-13  0.39901379690E+03  0.10755327372E+04  0.99877858343E+03 0.  0.
         25    2    3    3    0    0  0.51642974005E+02 -0.65287374019E+02 -0.52147081111E+02  0.15934697513E+03  0.12546992646E+03 0.  0.
         35    2    3    3    0    0 -0.51642974005E+02  0.65287374019E+02  0.45116087801E+03  0.91618576208E+03  0.79304525396E+03 0.  0.
         22    1    5    5    0    0  0.15813118418E+03 -0.17285287829E+03  0.53831076944E+03  0.58707927356E+03  0.00000000000E+00 0. -1.
         22    1    5    5    0    0 -0.20977415818E+03  0.23814025231E+03 -0.87149891433E+02  0.32910648853E+03  0.00000000000E+00 0. -1.
          5    1    4    4  502    0  0.59986870358E+02 -0.59485615083E+02 -0.87825808983E+02  0.12195255529E+03  0.47000000000E+01 0. -1.
         -5    1    4    4    0  502 -0.83438963529E+01 -0.58017589366E+01  0.35678727872E+02  0.37394419847E+02  0.47000000000E+01 0. -1.
<mgrwt>
<rscale>  0 0.99877858E+03</rscale>
<asrwt>0</asrwt>
<pdfrwt beam="1">  1        2 0.11342666E+00 0.99877858E+03</pdfrwt>
<pdfrwt beam="2">  1       -2 0.52039919E-01 0.99877858E+03</pdfrwt>
<totfact> 0.16177728E+02</totfact>
</mgrwt>
</event>
<event>
 9    1  0.4370149E-036  0.1001383E+04  0.7818608E-02  0.8679722E-01
         -2   -1    0    0    0  501 -0.00000000000E+00  0.00000000000E+00  0.77717630437E+02  0.77717630437E+02  0.00000000000E+00 0.  1.
          2   -1    0    0  501    0  0.00000000000E+00 -0.00000000000E+00 -0.32256751248E+04  0.32256751248E+04  0.00000000000E+00 0.  1.
         36    2    1    2    0    0  0.21316282073E-13 -0.56843418861E-13 -0.31479574944E+04  0.33033927552E+04  0.10013826986E+04 0.  0.
         25    2    3    3    0    0 -0.43087051784E+02 -0.12434664408E+03 -0.78422059296E+03  0.80492960030E+03  0.12486449086E+03 0.  0.
         35    2    3    3    0    0  0.43087051784E+02  0.12434664408E+03 -0.23637369014E+04  0.24984631549E+04  0.79859089379E+03 0.  0.
         22    1    5    5    0    0 -0.19915128705E+03  0.39083224800E+03 -0.14954399306E+04  0.15584452725E+04  0.00000000000E+00 0.  1.
         22    1    5    5    0    0  0.24223833883E+03 -0.26648560391E+03 -0.86829697077E+03  0.94001788245E+03  0.00000000000E+00 0.  1.
          5    1    4    4  502    0 -0.48624677094E+02 -0.46384470204E+02 -0.61258065215E+03  0.61627349747E+03  0.47000000000E+01 0. -1.
         -5    1    4    4    0  502  0.55376253100E+01 -0.77962173878E+02 -0.17163994082E+03  0.18865610283E+03  0.47000000000E+01 0. -1.
<mgrwt>
<rscale>  0 0.10013827E+04</rscale>
<asrwt>0</asrwt>
<pdfrwt beam="1">  1        2 0.49625782E+00 0.10013827E+04</pdfrwt>
<pdfrwt beam="2">  1       -2 0.11956556E-01 0.10013827E+04</pdfrwt>
<totfact> 0.68300995E+01</totfact>
</mgrwt>
</event>
<event>
 9    1  0.4370149E-036  0.1001277E+04  0.7818608E-02  0.8679823E-01
          1   -1    0    0  501    0  0.00000000000E+00  0.00000000000E+00  0.21040226413E+03  0.21040226413E+03  0.00000000000E+00 0.  1.
         -1   -1    0    0    0  501 -0.00000000000E+00 -0.00000000000E+00 -0.11912359500E+04  0.11912359500E+04  0.00000000000E+00 0.  1.
         36    2    1    2    0    0  0.14210854715E-13  0.28421709430E-13 -0.98083368589E+03  0.14016382141E+04  0.10012766671E+04 0.  0.
         25    2    3    3    0    0 -0.11343057506E+03  0.61227057781E+02 -0.26568157748E+03  0.32080370550E+03  0.12535178056E+03 0.  0.
         35    2    3    3    0    0  0.11343057506E+03 -0.61227057781E+02 -0.71515210841E+03  0.10808345086E+04  0.80009090043E+03 0.  0.
         22    1    5    5    0    0 -0.27373525188E+03  0.71707990839E+02 -0.58740814082E+03  0.65201330353E+03  0.00000000000E+00 0.  1.
         22    1    5    5    0    0  0.38716582694E+03 -0.13293504862E+03 -0.12774396759E+03  0.42882120512E+03  0.00000000000E+00 0.  1.
          5    1    4    4  502    0 -0.10750068168E+03  0.71754520856E+02 -0.12614039596E+03  0.18066155462E+03  0.47000000000E+01 0.  1.
         -5    1    4    4    0  502 -0.59298933786E+01 -0.10527463074E+02 -0.13954118152E+03  0.14014215088E+03  0.47000000000E+01 0.  1.
<mgrwt>
<rscale>  0 0.10012767E+04</rscale>
<asrwt>0</asrwt>
<pdfrwt beam="1">  1        1 0.32369579E-01 0.10012767E+04</pdfrwt>
<pdfrwt beam="2">  1       -1 0.18326707E+00 0.10012767E+04</pdfrwt>
<totfact> 0.30017889E+01</totfact>
</mgrwt>
</event>
<event>
 9    1  0.4370149E-036  0.1000236E+04  0.7818608E-02  0.8680813E-01
         -2   -1    0    0    0  501 -0.00000000000E+00  0.00000000000E+00  0.11632521209E+03  0.11632521209E+03  0.00000000000E+00 0. -1.
          2   -1    0    0  501    0  0.00000000000E+00 -0.00000000000E+00 -0.21501623081E+04  0.21501623081E+04  0.00000000000E+00 0. -1.
         36    2    1    2    0    0  0.00000000000E+00  0.00000000000E+00 -0.20338370960E+04  0.22664875202E+04  0.10002361451E+04 0.  0.
         25    2    3    3    0    0 -0.70291598368E+02 -0.96176062351E+02 -0.54872798937E+03  0.57530170125E+03  0.12521540388E+03 0.  0.
         35    2    3    3    0    0  0.70291598368E+02  0.96176062351E+02 -0.14851091066E+04  0.16911858189E+04  0.80023101149E+03 0.  0.
         22    1    5    5    0    0 -0.45810774544E+02  0.39101184423E+03 -0.40195661633E+03  0.56263488232E+03  0.00000000000E+00 0. -1.
         22    1    5    5    0    0  0.11610237291E+03 -0.29483578187E+03 -0.10831524903E+04  0.11285509366E+04  0.00000000000E+00 0. -1.
          5    1    4    4  502    0 -0.66760559091E+02 -0.47958259403E+02 -0.13077377009E+03  0.15453425458E+03  0.47000000000E+01 0. -1.
         -5    1    4    4    0  502 -0.35310392774E+01 -0.48217802948E+02 -0.41795421929E+03  0.42076744667E+03  0.47000000000E+01 0. -1.
<mgrwt>
<rscale>  0 0.10002361E+04</rscale>
<asrwt>0</asrwt>
<pdfrwt beam="1">  1        2 0.33079414E+00 0.10002361E+04</pdfrwt>
<pdfrwt beam="2">  1       -2 0.17896190E-01 0.10002361E+04</pdfrwt>
<totfact> 0.16642864E+02</totfact>
</mgrwt>
</event>
<event>
 9    1  0.4370149E-036  0.1000817E+04  0.7818608E-02  0.8680260E-01
         -2   -1    0    0    0  501 -0.00000000000E+00  0.00000000000E+00  0.23776654189E+03  0.23776654189E+03  0.00000000000E+00 0. -1.
          2   -1    0    0  501    0  0.00000000000E+00 -0.00000000000E+00 -0.10531713687E+04  0.10531713687E+04  0.00000000000E+00 0. -1.
         36    2    1    2    0    0 -0.14210854715E-13  0.14210854715E-13 -0.81540482683E+03  0.12909379106E+04  0.10008174946E+04 0.  0.
         25    2    3    3    0    0  0.22268253916E+02  0.11773478775E+03 -0.25179250825E+03  0.30555166785E+03  0.12491997092E+03 0.  0.
         35    2    3    3    0    0 -0.22268253916E+02 -0.11773478775E+03 -0.56361231858E+03  0.98538624277E+03  0.79935589470E+03 0.  0.
         22    1    5    5    0    0  0.87622401166E+02 -0.39604474534E+03 -0.55321581155E+03  0.68598604916E+03  0.00000000000E+00 0. -1.
         22    1    5    5    0    0 -0.10989065508E+03  0.27830995759E+03 -0.10396507030E+02  0.29940019360E+03  0.00000000000E+00 0. -1.
          5    1    4    4  502    0  0.53962234126E+02  0.99359136298E+02 -0.10565957530E+03  0.15482311368E+03  0.47000000000E+01 0.  1.
         -5    1    4    4    0  502 -0.31693980210E+02  0.18375651448E+02 -0.14613293295E+03  0.15072855416E+03  0.47000000000E+01 0.  1.
<mgrwt>
<rscale>  0 0.10008175E+04</rscale>
<asrwt>0</asrwt>
<pdfrwt beam="1">  1        2 0.16202637E+00 0.10008175E+04</pdfrwt>
<pdfrwt beam="2">  1       -2 0.36579468E-01 0.10008175E+04</pdfrwt>
<totfact> 0.19806169E+02</totfact>
</mgrwt>
</event>
<event>
 9    1  0.4370149E-036  0.9992610E+03  0.7818608E-02  0.8681742E-01
          2   -1    0    0  501    0  0.00000000000E+00  0.00000000000E+00  0.92487317319E+03  0.92487317319E+03  0.00000000000E+00 0. -1.
         -2   -1    0    0    0  501 -0.00000000000E+00 -0.00000000000E+00 -0.26990799122E+03  0.26990799122E+03  0.00000000000E+00 0. -1.
         36    2    1    2    0    0  0.00000000000E+00 -0.28421709430E-13  0.65496518198E+03  0.11947811644E+04  0.99926104759E+03 0.  0.
         25    2    3    3    0    0  0.59567321309E+02  0.13454269102E+03  0.15312913698E+03  0.24679335784E+03  0.12573156885E+03 0.  0.
         35    2    3    3    0    0 -0.59567321309E+02 -0.13454269102E+03  0.50183604499E+03  0.94798780657E+03  0.79069049816E+03 0.  0.
         22    1    5    5    0    0  0.12243684293E+03 -0.35504842399E+03  0.59900764533E+01  0.37561422351E+03  0.00000000000E+00 0. -1.
         22    1    5    5    0    0 -0.18200416424E+03  0.22050573297E+03  0.49584596854E+03  0.57237358306E+03  0.00000000000E+00 0. -1.
          5    1    4    4  502    0  0.98449263315E+02  0.95023219682E+02  0.97207288201E+02  0.16790776220E+03  0.47000000000E+01 0.  1.
         -5    1    4    4    0  502 -0.38881942006E+02  0.39519471340E+02  0.55921848783E+02  0.78885595647E+02  0.47000000000E+01 0.  1.
<mgrwt>
<rscale>  0 0.99926105E+03</rscale>
<asrwt>0</asrwt>
<pdfrwt beam="1">  1        2 0.14228818E+00 0.99926105E+03</pdfrwt>
<pdfrwt beam="2">  1       -2 0.41524307E-01 0.99926105E+03</pdfrwt>
<totfact> 0.18749672E+02</totfact>
</mgrwt>
</event>
<event>
 9    1  0.4370149E-036  0.1004950E+04  0.7818608E-02  0.8676339E-01
          2   -1    0    0  501    0  0.00000000000E+00  0.00000000000E+00  0.31734472791E+04  0.31734472791E+04  0.00000000000E+00 0. -1.
         -2   -1    0    0    0  501 -0.00000000000E+00 -0.00000000000E+00 -0.79560471026E+02  0.79560471026E+02  0.00000000000E+00 0. -1.
         36    2    1    2    0    0  0.00000000000E+00  0.00000000000E+00  0.30938868080E+04  0.32530077501E+04  0.10049496710E+04 0.  0.
         25    2    3    3    0    0 -0.11788193652E+03 -0.63147383117E+02  0.77869529816E+03  0.79992881564E+03  0.12504399130E+03 0.  0.
         35    2    3    3    0    0  0.11788193652E+03  0.63147383117E+02  0.23151915099E+04  0.24530789345E+04  0.79975045376E+03 0.  0.
         22    1    5    5    0    0 -0.81235605542E+02  0.13639797603E+03  0.22110354828E+04  0.22167276643E+04  0.00000000000E+00 0. -1.
         22    1    5    5    0    0  0.19911754206E+03 -0.73250592917E+02  0.10415602705E+03  0.23635127012E+03  0.00000000000E+00 0. -1.
          5    1    4    4  502    0 -0.10066047521E+03 -0.95309443371E+02  0.69181459581E+03  0.70558199116E+03  0.47000000000E+01 0.  1.
         -5    1    4    4    0  502 -0.17221461307E+02  0.32162060255E+02  0.86880702353E+02  0.94346824486E+02  0.47000000000E+01 0.  1.
<mgrwt>
<rscale>  0 0.10049497E+04</rscale>
<asrwt>0</asrwt>
<pdfrwt beam="1">  1        2 0.48822256E+00 0.10049497E+04</pdfrwt>
<pdfrwt beam="2">  1       -2 0.12240075E-01 0.10049497E+04</pdfrwt>
<totfact> 0.71468984E+01</totfact>
</mgrwt>
</event>
<event>
 9    1  0.4370149E-036  0.9989984E+03  0.7818608E-02  0.8681992E-01
          2   -1    0    0  501    0  0.00000000000E+00  0.00000000000E+00  0.25045482905E+04  0.25045482905E+04  0.00000000000E+00 0. -1.
         -2   -1    0    0    0  501 -0.00000000000E+00 -0.00000000000E+00 -0.99618548734E+02  0.99618548734E+02  0.00000000000E+00 0. -1.
         36    2    1    2    0    0  0.14210854715E-13  0.21316282073E-13  0.24049297418E+04  0.26041668392E+04  0.99899843030E+03 0.  0.
         25    2    3    3    0    0 -0.10832322201E+03 -0.34690215426E+02  0.20415196517E+03  0.25971843476E+03  0.11330626197E+03 0.  0.
         35    2    3    3    0    0  0.10832322201E+03  0.34690215426E+02  0.22007777766E+04  0.23444484045E+04  0.80004885338E+03 0.  0.
         22    1    5    5    0    0  0.39836698500E+03  0.22583606759E+03  0.13470223291E+04  0.14227323498E+04  0.00000000000E+00 0.  1.
         22    1    5    5    0    0 -0.29004376299E+03 -0.19114585216E+03  0.85375544755E+03  0.92171605469E+03  0.00000000000E+00 0.  1.
          5    1    4    4  502    0 -0.87880511060E+02  0.24268607605E+02  0.83105968499E+02  0.12345299324E+03  0.47000000000E+01 0. -1.
         -5    1    4    4    0  502 -0.20442710947E+02 -0.58958823031E+02  0.12104599667E+03  0.13626544152E+03  0.47000000000E+01 0. -1.
<mgrwt>
<rscale>  0 0.99899843E+03</rscale>
<asrwt>0</asrwt>
<pdfrwt beam="1">  1        2 0.38531507E+00 0.99899843E+03</pdfrwt>
<pdfrwt beam="2">  1       -2 0.15325932E-01 0.99899843E+03</pdfrwt>
<totfact> 0.13347007E+02</totfact>
</mgrwt>
</event>
<event>
 9    1  0.4370149E-036  0.9998735E+03  0.7818608E-02  0.8681158E-01
          2   -1    0    0  501    0  0.00000000000E+00  0.00000000000E+00  0.99250064716E+03  0.99250064716E+03  0.00000000000E+00 0.  1.
         -2   -1    0    0    0  501 -0.00000000000E+00 -0.00000000000E+00 -0.25182529219E+03  0.25182529219E+03  0.00000000000E+00 0.  1.
         36    2    1    2    0    0 -0.71054273576E-14  0.14210854715E-13  0.74067535497E+03  0.12443259393E+04  0.99987352294E+03 0.  0.
         25    2    3    3    0    0  0.41664371366E+02  0.43569198278E+02 -0.16344714819E+02  0.14123321666E+03  0.12667074211E+03 0.  0.
         35    2    3    3    0    0 -0.41664371366E+02 -0.43569198278E+02  0.75702006979E+03  0.11030927227E+04  0.80006248125E+03 0.  0.
         22    1    5    5    0    0 -0.18631718407E+02  0.37725111548E+03  0.30905445755E+03  0.48803709161E+03  0.00000000000E+00 0.  1.
         22    1    5    5    0    0 -0.23032652959E+02 -0.42082031375E+03  0.44796561224E+03  0.61505563107E+03  0.00000000000E+00 0.  1.
          5    1    4    4  502    0  0.86890991611E+02  0.22374206418E+02 -0.14667907048E+02  0.91037832977E+02  0.47000000000E+01 0.  1.
         -5    1    4    4    0  502 -0.45226620245E+02  0.21194991860E+02 -0.16768077711E+01  0.50195383683E+02  0.47000000000E+01 0.  1.
<mgrwt>
<rscale>  0 0.99987352E+03</rscale>
<asrwt>0</asrwt>
<pdfrwt beam="1">  1        2 0.15269241E+00 0.99987352E+03</pdfrwt>
<pdfrwt beam="2">  1       -2 0.38742353E-01 0.99987352E+03</pdfrwt>
<totfact> 0.19381984E+02</totfact>
</mgrwt>
</event>
<event>
 9    1  0.4370149E-036  0.9992008E+03  0.7818608E-02  0.8681799E-01
         -1   -1    0    0    0  501 -0.00000000000E+00  0.00000000000E+00  0.23922695218E+03  0.23922695218E+03  0.00000000000E+00 0.  1.
          1   -1    0    0  501    0  0.00000000000E+00 -0.00000000000E+00 -0.10433630073E+04  0.10433630073E+04  0.00000000000E+00 0.  1.
         36    2    1    2    0    0  0.71054273576E-14  0.28421709430E-13 -0.80413605510E+03  0.12825899595E+04  0.99920078512E+03 0.  0.
         25    2    3    3    0    0 -0.55205187421E+02  0.10694995613E+03 -0.24059479697E+03  0.29684036087E+03  0.12546887137E+03 0.  0.
         35    2    3    3    0    0  0.55205187421E+02 -0.10694995613E+03 -0.56354125814E+03  0.98574959858E+03  0.79977347771E+03 0.  0.
         22    1    5    5    0    0  0.20761010479E+03  0.19608402623E+03 -0.57963915392E+03  0.64616750902E+03  0.00000000000E+00 0. -1.
         22    1    5    5    0    0 -0.15240491737E+03 -0.30303398236E+03  0.16097895786E+02  0.33958208956E+03  0.00000000000E+00 0. -1.
          5    1    4    4  502    0 -0.19296601714E+01 -0.78137896755E+01  0.11460074024E+02  0.14771668630E+02  0.47000000000E+01 0.  1.
         -5    1    4    4    0  502 -0.53275527250E+02  0.11476374580E+03 -0.25205487099E+03  0.28206869224E+03  0.47000000000E+01 0.  1.
<mgrwt>
<rscale>  0 0.99920079E+03</rscale>
<asrwt>0</asrwt>
<pdfrwt beam="1">  1        1 0.16051739E+00 0.99920079E+03</pdfrwt>
<pdfrwt beam="2">  1       -1 0.36804147E-01 0.99920079E+03</pdfrwt>
<totfact> 0.11071992E+02</totfact>
</mgrwt>
</event>
<event>
 9    1  0.4370149E-036  0.9994766E+03  0.7818608E-02  0.8681537E-01
         -2   -1    0    0    0  501 -0.00000000000E+00  0.00000000000E+00  0.12033188685E+04  0.12033188685E+04  0.00000000000E+00 0.  1.
          2   -1    0    0  501    0  0.00000000000E+00 -0.00000000000E+00 -0.20754131213E+03  0.20754131213E+03  0.00000000000E+00 0.  1.
         36    2    1    2    0    0  0.00000000000E+00  0.00000000000E+00  0.99577755640E+03  0.14108601807E+04  0.99947661681E+03 0.  0.
         25    2    3    3    0    0  0.17611857994E+02 -0.64961403225E+02  0.35869670023E+03  0.38598079675E+03  0.12564907978E+03 0.  0.
         35    2    3    3    0    0 -0.17611857994E+02  0.64961403225E+02  0.63708085617E+03  0.10248793839E+04  0.79998473287E+03 0.  0.
         22    1    5    5    0    0 -0.41820708065E+02  0.34910038040E+03  0.65045276575E+03  0.73939762489E+03  0.00000000000E+00 0.  1.
         22    1    5    5    0    0  0.24208850071E+02 -0.28413897717E+03 -0.13371909586E+02  0.28548175902E+03  0.00000000000E+00 0.  1.
          5    1    4    4  502    0 -0.24296073346E+00 -0.21746481512E+02 -0.19036558784E+01  0.22331197768E+02  0.47000000000E+01 0.  1.
         -5    1    4    4    0  502  0.17854818728E+02 -0.43214921713E+02  0.36060035611E+03  0.36364959898E+03  0.47000000000E+01 0.  1.
<mgrwt>
<rscale>  0 0.99947662E+03</rscale>
<asrwt>0</asrwt>
<pdfrwt beam="1">  1        2 0.31929433E-01 0.99947662E+03</pdfrwt>
<pdfrwt beam="2">  1       -2 0.18512597E+00 0.99947662E+03</pdfrwt>
<totfact> 0.30517957E+01</totfact>
</mgrwt>
</event>
<event>
 9    1  0.4370149E-036  0.1000479E+04  0.7818608E-02  0.8680582E-01
          3   -1    0    0  501    0  0.00000000000E+00  0.00000000000E+00  0.16454108867E+03  0.16454108867E+03  0.00000000000E+00 0.  1.
         -3   -1    0    0    0  501 -0.00000000000E+00 -0.00000000000E+00 -0.15208322445E+04  0.15208322445E+04  0.00000000000E+00 0.  1.
         36    2    1    2    0    0  0.14210854715E-13 -0.28421709430E-13 -0.13562911558E+04  0.16853733332E+04  0.10004786718E+04 0.  0.
         25    2    3    3    0    0 -0.65985287768E+02  0.72434369730E+02 -0.10695772537E+03  0.19600138562E+03  0.13181726757E+03 0.  0.
         35    2    3    3    0    0  0.65985287768E+02 -0.72434369730E+02 -0.12493334305E+04  0.14893719475E+04  0.80485649748E+03 0.  0.
         22    1    5    5    0    0 -0.12130356364E+03  0.33827465643E+03 -0.54683463761E+03  0.65434885087E+03  0.00000000000E+00 0.  1.
         22    1    5    5    0    0  0.18728885140E+03 -0.41070902616E+03 -0.70249879284E+03  0.83502309667E+03  0.00000000000E+00 0.  1.
          5    1    4    4  502    0 -0.31626218960E+02 -0.15299437677E+02  0.17741171665E+02  0.39637478363E+02  0.47000000000E+01 0.  1.
         -5    1    4    4    0  502 -0.34359068807E+02  0.87733807407E+02 -0.12469889703E+03  0.15636390726E+03  0.47000000000E+01 0.  1.
<mgrwt>
<rscale>  0 0.10004787E+04</rscale>
<asrwt>0</asrwt>
<pdfrwt beam="1">  1        3 0.25314013E-01 0.10004787E+04</pdfrwt>
<pdfrwt beam="2">  1       -3 0.23397419E+00 0.10004787E+04</pdfrwt>
<totfact> 0.33078803E+00</totfact>
</mgrwt>
</event>
<event>
 9    1  0.4370149E-036  0.9993820E+03  0.7818608E-02  0.8681627E-01
          3   -1    0    0  501    0  0.00000000000E+00  0.00000000000E+00  0.53097532924E+03  0.53097532924E+03  0.00000000000E+00 0.  1.
         -3   -1    0    0    0  501 -0.00000000000E+00 -0.00000000000E+00 -0.47024989759E+03  0.47024989759E+03  0.00000000000E+00 0.  1.
         36    2    1    2    0    0  0.00000000000E+00  0.00000000000E+00  0.60725431647E+02  0.10012252268E+04  0.99938199744E+03 0.  0.
         25    2    3    3    0    0  0.12152474432E+02 -0.89636133265E+02  0.12305698331E+03  0.19355054365E+03  0.11889689981E+03 0.  0.
         35    2    3    3    0    0 -0.12152474432E+02  0.89636133265E+02 -0.62331551665E+02  0.80767468319E+03  0.80016926491E+03 0.  0.
         22    1    5    5    0    0 -0.31248513814E+03  0.84962018323E+01  0.22423196929E+03  0.38470654148E+03  0.00000000000E+00 0.  1.
         22    1    5    5    0    0  0.30033266371E+03  0.81139931433E+02 -0.28656352095E+03  0.42296814171E+03  0.00000000000E+00 0.  1.
          5    1    4    4  502    0 -0.35737431671E+02 -0.28405120146E+02 -0.23256088285E+01  0.45951205962E+02  0.47000000000E+01 0.  1.
         -5    1    4    4    0  502  0.47889906104E+02 -0.61231013119E+02  0.12538259214E+03  0.14759933769E+03  0.47000000000E+01 0.  1.
<mgrwt>
<rscale>  0 0.99938200E+03</rscale>
<asrwt>0</asrwt>
<pdfrwt beam="1">  1        3 0.81688512E-01 0.99938200E+03</pdfrwt>
<pdfrwt beam="2">  1       -3 0.72346138E-01 0.99938200E+03</pdfrwt>
<totfact> 0.10150052E+01</totfact>
</mgrwt>
</event>
<event>
 9    1  0.4370149E-036  0.1000538E+04  0.7818608E-02  0.8680526E-01
          1   -1    0    0  501    0  0.00000000000E+00  0.00000000000E+00  0.42074109704E+03  0.42074109704E+03  0.00000000000E+00 0. -1.
         -1   -1    0    0    0  501 -0.00000000000E+00 -0.00000000000E+00 -0.59482892691E+03  0.59482892691E+03  0.00000000000E+00 0. -1.
         36    2    1    2    0    0  0.00000000000E+00  0.42632564146E-13 -0.17408782987E+03  0.10155700239E+04  0.10005378059E+04 0.  0.
         25    2    3    3    0    0  0.18021118117E+02 -0.15053054871E+02 -0.17365012619E+03  0.21522528751E+03  0.12496480663E+03 0.  0.
         35    2    3    3    0    0 -0.18021118117E+02  0.15053054871E+02 -0.43770367648E+00  0.80034473644E+03  0.80000009400E+03 0.  0.
         22    1    5    5    0    0 -0.18063670564E+03 -0.34653025952E+03 -0.72301351137E+02  0.39741706753E+03  0.00000000000E+00 0. -1.
         22    1    5    5    0    0  0.16261558752E+03  0.36158331439E+03  0.71863647460E+02  0.40292766891E+03  0.00000000000E+00 0. -1.
          5    1    4    4  502    0 -0.31759321122E+02 -0.70287211015E+01  0.15012033017E+01  0.32899863370E+02  0.47000000000E+01 0.  1.
         -5    1    4    4    0  502  0.49780439239E+02 -0.80243337698E+01 -0.17515132950E+03  0.18232542414E+03  0.47000000000E+01 0.  1.
<mgrwt>
<rscale>  0 0.10005378E+04</rscale>
<asrwt>0</asrwt>
<pdfrwt beam="1">  1        1 0.64729399E-01 0.10005378E+04</pdfrwt>
<pdfrwt beam="2">  1       -1 0.91512143E-01 0.10005378E+04</pdfrwt>
<totfact> 0.77768803E+01</totfact>
</mgrwt>
</event>
<event>
 9    1  0.4370149E-036  0.9995806E+03  0.7818608E-02  0.8681437E-01
         -2   -1    0    0    0  501 -0.00000000000E+00  0.00000000000E+00  0.70404339715E+02  0.70404339715E+02  0.00000000000E+00 0. -1.
          2   -1    0    0  501    0  0.00000000000E+00 -0.00000000000E+00 -0.35479392980E+04  0.35479392980E+04  0.00000000000E+00 0. -1.
         36    2    1    2    0    0 -0.28421709430E-13 -0.28421709430E-13 -0.34775349583E+04  0.36183436377E+04  0.99958055928E+03 0.  0.
         25    2    3    3    0    0 -0.52110430076E+02 -0.12114082391E+03 -0.49716644204E+03  0.52933259091E+03  0.12501169775E+03 0.  0.
         35    2    3    3    0    0  0.52110430076E+02  0.12114082391E+03 -0.29803685163E+04  0.30890110468E+04  0.80125037191E+03 0.  0.
         22    1    5    5    0    0 -0.34319888717E+03 -0.87709734033E+02 -0.10736169454E+04  0.11305449213E+04  0.00000000000E+00 0. -1.
         22    1    5    5    0    0  0.39530931725E+03  0.20885055794E+03 -0.19067515709E+04  0.19584661255E+04  0.00000000000E+00 0. -1.
          5    1    4    4  502    0  0.63783234247E+01  0.40085638222E+01  0.37919614735E+01  0.96550797741E+01  0.47000000000E+01 0. -1.
         -5    1    4    4    0  502 -0.58488753500E+02 -0.12514938773E+03 -0.50095840351E+03  0.51967751114E+03  0.47000000000E+01 0. -1.
<mgrwt>
<rscale>  0 0.99958056E+03</rscale>
<asrwt>0</asrwt>
<pdfrwt beam="1">  1        2 0.54583682E+00 0.99958056E+03</pdfrwt>
<pdfrwt beam="2">  1       -2 0.10831437E-01 0.99958056E+03</pdfrwt>
<totfact> 0.46590467E+01</totfact>
</mgrwt>
</event>
<event>
 9    1  0.4370149E-036  0.9995303E+03  0.7818608E-02  0.8681485E-01
         -2   -1    0    0    0  501 -0.00000000000E+00  0.00000000000E+00  0.15970195997E+03  0.15970195997E+03  0.00000000000E+00 0.  1.
          2   -1    0    0  501    0  0.00000000000E+00 -0.00000000000E+00 -0.15639457541E+04  0.15639457541E+04  0.00000000000E+00 0.  1.
         36    2    1    2    0    0  0.31974423109E-13  0.14210854715E-13 -0.14042437941E+04  0.17236477141E+04  0.99953029414E+03 0.  0.
         25    2    3    3    0    0  0.96480732875E+01  0.12752920516E+03 -0.36469916252E+03  0.40613371683E+03  0.12482921659E+03 0.  0.
         35    2    3    3    0    0 -0.96480732875E+01 -0.12752920516E+03 -0.10395446316E+04  0.13175139973E+04  0.79927048511E+03 0.  0.
         22    1    5    5    0    0  0.27897157857E+03 -0.29414751013E+03 -0.83036845314E+03  0.92404527343E+03  0.00000000000E+00 0. -1.
         22    1    5    5    0    0 -0.28861965186E+03  0.16661830497E+03 -0.20917617847E+03  0.39346872383E+03  0.00000000000E+00 0. -1.
          5    1    4    4  502    0 -0.21799530438E+02  0.13156228182E+03 -0.34127476315E+03  0.36643472473E+03  0.47000000000E+01 0. -1.
         -5    1    4    4    0  502  0.31447603726E+02 -0.40330766630E+01 -0.23424399366E+02  0.39698992092E+02  0.47000000000E+01 0. -1.
<mgrwt>
<rscale>  0 0.99953029E+03</rscale>
<asrwt>0</asrwt>
<pdfrwt beam="1">  1        2 0.24060705E+00 0.99953029E+03</pdfrwt>
<pdfrwt beam="2">  1       -2 0.24569531E-01 0.99953029E+03</pdfrwt>
<totfact> 0.20622828E+02</totfact>
</mgrwt>
</event>
<event>
 9    1  0.4370149E-036  0.1000214E+04  0.7818608E-02  0.8680834E-01
          2   -1    0    0  501    0  0.00000000000E+00  0.00000000000E+00  0.13081510334E+04  0.13081510334E+04  0.00000000000E+00 0.  1.
         -2   -1    0    0    0  501 -0.00000000000E+00 -0.00000000000E+00 -0.19119125324E+03  0.19119125324E+03  0.00000000000E+00 0.  1.
         36    2    1    2    0    0  0.28421709430E-13  0.14210854715E-13  0.11169597801E+04  0.14993422866E+04  0.10002140481E+04 0.  0.
         25    2    3    3    0    0 -0.11677318460E+03 -0.43786976831E+02  0.30730665358E+03  0.35444343190E+03  0.12505795097E+03 0.  0.
         35    2    3    3    0    0  0.11677318460E+03  0.43786976831E+02  0.80965312657E+03  0.11448988547E+04  0.79981368217E+03 0.  0.
         22    1    5    5    0    0 -0.31732819714E+03  0.15028124850E+03  0.26254110309E+03  0.43841700374E+03  0.00000000000E+00 0.  1.
         22    1    5    5    0    0  0.43410138175E+03 -0.10649427167E+03  0.54711202348E+03  0.70648185098E+03  0.00000000000E+00 0.  1.
          5    1    4    4  502    0 -0.43771251297E+02 -0.16568022040E+02  0.11377336731E+02  0.48393755646E+02  0.47000000000E+01 0.  1.
         -5    1    4    4    0  502 -0.73001933306E+02 -0.27218954791E+02  0.29592931684E+03  0.30604967625E+03  0.47000000000E+01 0.  1.
<mgrwt>
<rscale>  0 0.10002140E+04</rscale>
<asrwt>0</asrwt>
<pdfrwt beam="1">  1        2 0.20125400E+00 0.10002140E+04</pdfrwt>
<pdfrwt beam="2">  1       -2 0.29414040E-01 0.10002140E+04</pdfrwt>
<totfact> 0.20894965E+02</totfact>
</mgrwt>
</event>
<event>
 9    1  0.4370149E-036  0.9991121E+03  0.7818608E-02  0.8681884E-01
         -1   -1    0    0    0  501 -0.00000000000E+00  0.00000000000E+00  0.18884838995E+03  0.18884838995E+03  0.00000000000E+00 0. -1.
          1   -1    0    0  501    0  0.00000000000E+00 -0.00000000000E+00 -0.13214633820E+04  0.13214633820E+04  0.00000000000E+00 0. -1.
         36    2    1    2    0    0  0.28421709430E-13 -0.71054273576E-14 -0.11326149921E+04  0.15103117720E+04  0.99911206992E+03 0.  0.
         25    2    3    3    0    0 -0.85093523594E+02 -0.51325468231E+02 -0.35662072322E+03  0.39101414695E+03  0.12585114794E+03 0.  0.
         35    2    3    3    0    0  0.85093523594E+02  0.51325468231E+02 -0.77599426884E+03  0.11192976250E+04  0.80049038509E+03 0.  0.
         22    1    5    5    0    0  0.26268513354E+03 -0.26036534392E+03 -0.63296469389E+03  0.73310155872E+03  0.00000000000E+00 0. -1.
         22    1    5    5    0    0 -0.17759160994E+03  0.31169081215E+03 -0.14302957495E+03  0.38619606628E+03  0.00000000000E+00 0. -1.
          5    1    4    4  502    0 -0.38924135115E+01 -0.72128672744E+02 -0.20912146989E+03  0.22129522246E+03  0.47000000000E+01 0.  1.
         -5    1    4    4    0  502 -0.81201110082E+02  0.20803204513E+02 -0.14749925333E+03  0.16971892449E+03  0.47000000000E+01 0.  1.
<mgrwt>
<rscale>  0 0.99911207E+03</rscale>
<asrwt>0</asrwt>
<pdfrwt beam="1">  1        1 0.20330205E+00 0.99911207E+03</pdfrwt>
<pdfrwt beam="2">  1       -1 0.29053600E-01 0.99911207E+03</pdfrwt>
<totfact> 0.10300417E+02</totfact>
</mgrwt>
</event>
<event>
 9    1  0.4370149E-036  0.9982701E+03  0.7818608E-02  0.8682687E-01
          2   -1    0    0  501    0  0.00000000000E+00  0.00000000000E+00  0.25665981523E+04  0.25665981523E+04  0.00000000000E+00 0.  1.
         -2   -1    0    0    0  501 -0.00000000000E+00 -0.00000000000E+00 -0.97068491896E+02  0.97068491896E+02  0.00000000000E+00 0.  1.
         36    2    1    2    0    0  0.00000000000E+00  0.00000000000E+00  0.24695296604E+04  0.26636666442E+04  0.99827012766E+03 0.  0.
         25    2    3    3    0    0 -0.57737044686E+01  0.57403901341E+02  0.12567065767E+03  0.18640006533E+03  0.12499330623E+03 0.  0.
         35    2    3    3    0    0  0.57737044686E+01 -0.57403901341E+02  0.23438590027E+04  0.24772665789E+04  0.79990382830E+03 0.  0.
         22    1    5    5    0    0  0.10565811832E+03  0.28715764221E+03  0.41654748480E+03  0.51685100033E+03  0.00000000000E+00 0. -1.
         22    1    5    5    0    0 -0.99884413855E+02 -0.34456154355E+03  0.19273115179E+04  0.19604155785E+04  0.00000000000E+00 0. -1.
          5    1    4    4  502    0  0.47311269850E+02 -0.85691700226E+01  0.69630874026E+02  0.84748661036E+02  0.47000000000E+01 0.  1.
         -5    1    4    4    0  502 -0.53084974319E+02  0.65973071364E+02  0.56039783644E+02  0.10165140429E+03  0.47000000000E+01 0.  1.
<mgrwt>
<rscale>  0 0.99827013E+03</rscale>
<asrwt>0</asrwt>
<pdfrwt beam="1">  1        2 0.39486120E+00 0.99827013E+03</pdfrwt>
<pdfrwt beam="2">  1       -2 0.14933616E-01 0.99827013E+03</pdfrwt>
<totfact> 0.12773550E+02</totfact>
</mgrwt>
</event>
<event>
 9    1  0.4370149E-036  0.1000110E+04  0.7818608E-02  0.8680934E-01
         -2   -1    0    0    0  501 -0.00000000000E+00  0.00000000000E+00  0.33822369920E+03  0.33822369920E+03  0.00000000000E+00 0. -1.
          2   -1    0    0  501    0  0.00000000000E+00 -0.00000000000E+00 -0.73931785553E+03  0.73931785553E+03  0.00000000000E+00 0. -1.
         36    2    1    2    0    0 -0.71054273576E-14  0.14210854715E-13 -0.40109415633E+03  0.10775415547E+04  0.10001096340E+04 0.  0.
         25    2    3    3    0    0  0.29344588061E+02  0.11934132025E+03  0.36748309380E-01  0.17444415020E+03  0.12380349196E+03 0.  0.
         35    2    3    3    0    0 -0.29344588061E+02 -0.11934132025E+03 -0.40113090464E+03  0.90309740454E+03  0.79973462090E+03 0.  0.
         22    1    5    5    0    0 -0.12333370778E+03 -0.18963199310E+03 -0.61712371335E+03  0.65727709063E+03  0.00000000000E+00 0.  1.
         22    1    5    5    0    0  0.93989119723E+02  0.70290672857E+02  0.21599280871E+03  0.24582031391E+03  0.00000000000E+00 0.  1.
          5    1    4    4  502    0  0.35925962005E+01  0.70985027950E+02  0.59965390836E+02  0.93111326049E+02  0.47000000000E+01 0. -1.
         -5    1    4    4    0  502  0.25751991860E+02  0.48356292296E+02 -0.59928642527E+02  0.81332824152E+02  0.47000000000E+01 0. -1.
<mgrwt>
<rscale>  0 0.10001096E+04</rscale>
<asrwt>0</asrwt>
<pdfrwt beam="1">  1        2 0.11374121E+00 0.10001096E+04</pdfrwt>
<pdfrwt beam="2">  1       -2 0.52034416E-01 0.10001096E+04</pdfrwt>
<totfact> 0.16124662E+02</totfact>
</mgrwt>
</event>
<event>
 9    1  0.4370149E-036  0.1000666E+04  0.7818608E-02  0.8680404E-01
         -2   -1    0    0    0  501 -0.00000000000E+00  0.00000000000E+00  0.15786178919E+03  0.15786178919E+03  0.00000000000E+00 0. -1.
          2   -1    0    0  501    0  0.00000000000E+00 -0.00000000000E+00 -0.15857736937E+04  0.15857736937E+04  0.00000000000E+00 0. -1.
         36    2    1    2    0    0 -0.10658141036E-13 -0.28421709430E-13 -0.14279119045E+04  0.17436354828E+04  0.10006659233E+04 0.  0.
         25    2    3    3    0    0  0.48906024233E+01  0.11988358665E+03 -0.39832108032E+03  0.43432738301E+03  0.12483829645E+03 0.  0.
         35    2    3    3    0    0 -0.48906024233E+01 -0.11988358665E+03 -0.10295908241E+04  0.13093080998E+04  0.79989652006E+03 0.  0.
         22    1    5    5    0    0  0.11186397281E+03  0.29964609706E+03 -0.21428740770E+03  0.38499405839E+03  0.00000000000E+00 0. -1.
         22    1    5    5    0    0 -0.11675457524E+03 -0.41952968371E+03 -0.81530341644E+03  0.92431404145E+03  0.00000000000E+00 0. -1.
          5    1    4    4  502    0  0.36571004269E+02  0.10353598945E+03 -0.37661908337E+03  0.39232787745E+03  0.47000000000E+01 0.  1.
         -5    1    4    4    0  502 -0.31680401846E+02  0.16347597196E+02 -0.21701996948E+02  0.41999505553E+02  0.47000000000E+01 0.  1.
<mgrwt>
<rscale>  0 0.10006659E+04</rscale>
<asrwt>0</asrwt>
<pdfrwt beam="1">  1        2 0.24396518E+00 0.10006659E+04</pdfrwt>
<pdfrwt beam="2">  1       -2 0.24286430E-01 0.10006659E+04</pdfrwt>
<totfact> 0.20461255E+02</totfact>
</mgrwt>
</event>
<event>
 9    1  0.4370149E-036  0.1000320E+04  0.7818608E-02  0.8680733E-01
         -2   -1    0    0    0  501 -0.00000000000E+00  0.00000000000E+00  0.16174535103E+03  0.16174535103E+03  0.00000000000E+00 0. -1.
          2   -1    0    0  501    0  0.00000000000E+00 -0.00000000000E+00 -0.15466288820E+04  0.15466288820E+04  0.00000000000E+00 0. -1.
         36    2    1    2    0    0  0.14210854715E-13  0.14210854715E-13 -0.13848835309E+04  0.17083742330E+04  0.10003200117E+04 0.  0.
         25    2    3    3    0    0 -0.21110071895E+02 -0.78159482249E+02 -0.64631269812E+02  0.16241905514E+03  0.12509280009E+03 0.  0.
         35    2    3    3    0    0  0.21110071895E+02  0.78159482249E+02 -0.13202522611E+04  0.15459551779E+04  0.80022299338E+03 0.  0.
         22    1    5    5    0    0 -0.38507619852E+03  0.95814765145E+02 -0.68910321453E+03  0.79519015849E+03  0.00000000000E+00 0. -1.
         22    1    5    5    0    0  0.40618627041E+03 -0.17655282896E+02 -0.63114904660E+03  0.75076501937E+03  0.00000000000E+00 0. -1.
          5    1    4    4  502    0  0.11273987864E+02 -0.59566915809E+02 -0.95856461490E+02  0.11351595249E+03  0.47000000000E+01 0.  1.
         -5    1    4    4    0  502 -0.32384059758E+02 -0.18592566440E+02  0.31225191679E+02  0.48903102648E+02  0.47000000000E+01 0.  1.
<mgrwt>
<rscale>  0 0.10003200E+04</rscale>
<asrwt>0</asrwt>
<pdfrwt beam="1">  1        2 0.23794291E+00 0.10003200E+04</pdfrwt>
<pdfrwt beam="2">  1       -2 0.24883899E-01 0.10003200E+04</pdfrwt>
<totfact> 0.20622847E+02</totfact>
</mgrwt>
</event>
<event>
 9    1  0.4370149E-036  0.1000646E+04  0.7818608E-02  0.8680423E-01
          2   -1    0    0  501    0  0.00000000000E+00  0.00000000000E+00  0.20540955547E+04  0.20540955547E+04  0.00000000000E+00 0.  1.
         -2   -1    0    0    0  501 -0.00000000000E+00 -0.00000000000E+00 -0.12186545443E+03  0.12186545443E+03  0.00000000000E+00 0.  1.
         36    2    1    2    0    0 -0.14210854715E-13  0.00000000000E+00  0.19322301003E+04  0.21759610092E+04  0.10006463676E+04 0.  0.
         25    2    3    3    0    0  0.10526296140E+03  0.74186205635E+02  0.24149553471E+03  0.30084667966E+03  0.12491896264E+03 0.  0.
         35    2    3    3    0    0 -0.10526296140E+03 -0.74186205635E+02  0.16907345656E+04  0.18751143295E+04  0.80055386659E+03 0.  0.
         22    1    5    5    0    0  0.12788480104E+03  0.29638946992E+02 -0.30738279013E+02  0.13482518797E+03  0.00000000000E+00 0. -1.
         22    1    5    5    0    0 -0.23314776243E+03 -0.10382515263E+03  0.17214728446E+04  0.17402891415E+04  0.00000000000E+00 0. -1.
          5    1    4    4  502    0  0.99804668329E+02  0.10640338257E+03  0.18841839754E+03  0.23834058441E+03  0.47000000000E+01 0. -1.
         -5    1    4    4    0  502  0.54582930664E+01 -0.32217176938E+02  0.53077137171E+02  0.62506095249E+02  0.47000000000E+01 0. -1.
<mgrwt>
<rscale>  0 0.10006464E+04</rscale>
<asrwt>0</asrwt>
<pdfrwt beam="1">  1        2 0.31601467E+00 0.10006464E+04</pdfrwt>
<pdfrwt beam="2">  1       -2 0.18748533E-01 0.10006464E+04</pdfrwt>
<totfact> 0.17451823E+02</totfact>
</mgrwt>
</event>
<event>
 9    1  0.4370149E-036  0.1000538E+04  0.7818608E-02  0.8680525E-01
          2   -1    0    0  501    0  0.00000000000E+00  0.00000000000E+00  0.29555954437E+04  0.29555954437E+04  0.00000000000E+00 0.  1.
         -2   -1    0    0    0  501 -0.00000000000E+00 -0.00000000000E+00 -0.84676423057E+02  0.84676423057E+02  0.00000000000E+00 0.  1.
         36    2    1    2    0    0  0.14210854715E-13 -0.35527136788E-14  0.28709190207E+04  0.30402718668E+04  0.10005383554E+04 0.  0.
         25    2    3    3    0    0 -0.12040037606E+03  0.23166384479E+02  0.74259863731E+03  0.76300063233E+03  0.12523696287E+03 0.  0.
         35    2    3    3    0    0  0.12040037606E+03 -0.23166384479E+02  0.21283203833E+04  0.22772712344E+04  0.80073946395E+03 0.  0.
         22    1    5    5    0    0 -0.13042990109E+03  0.30200155484E+02  0.32649359167E+00  0.13388097358E+03  0.00000000000E+00 0.  1.
         22    1    5    5    0    0  0.25083027715E+03 -0.53366539963E+02  0.21279938897E+04  0.21433902609E+04  0.00000000000E+00 0.  1.
          5    1    4    4  502    0 -0.63914102100E+02 -0.31884197176E+02  0.16278216415E+03  0.17782501917E+03  0.47000000000E+01 0.  1.
         -5    1    4    4    0  502 -0.56486273962E+02  0.55050581655E+02  0.57981647316E+03  0.58517561315E+03  0.47000000000E+01 0.  1.
<mgrwt>
<rscale>  0 0.10005384E+04</rscale>
<asrwt>0</asrwt>
<pdfrwt beam="1">  1        2 0.45470691E+00 0.10005384E+04</pdfrwt>
<pdfrwt beam="2">  1       -2 0.13027144E-01 0.10005384E+04</pdfrwt>
<totfact> 0.90595233E+01</totfact>
</mgrwt>
</event>
<event>
 9    1  0.4370149E-036  0.1000140E+04  0.7818608E-02  0.8680905E-01
          1   -1    0    0  501    0  0.00000000000E+00  0.00000000000E+00  0.18179515807E+03  0.18179515807E+03  0.00000000000E+00 0.  1.
         -1   -1    0    0    0  501 -0.00000000000E+00 -0.00000000000E+00 -0.13755591579E+04  0.13755591579E+04  0.00000000000E+00 0.  1.
         36    2    1    2    0    0  0.28421709430E-13  0.00000000000E+00 -0.11937639998E+04  0.15573543159E+04  0.10001399793E+04 0.  0.
         25    2    3    3    0    0 -0.11853399844E+03  0.72601923225E+02 -0.22479838115E+03  0.29274678612E+03  0.12587700573E+03 0.  0.
         35    2    3    3    0    0  0.11853399844E+03 -0.72601923225E+02 -0.96896561863E+03  0.12646075298E+04  0.80063505187E+03 0.  0.
         22    1    5    5    0    0  0.39478877514E+03  0.41944250129E+01 -0.87981181148E+03  0.96433634890E+03  0.00000000000E+00 0. -1.
         22    1    5    5    0    0 -0.27625477670E+03 -0.76796348238E+02 -0.89153807148E+02  0.30027118090E+03  0.00000000000E+00 0. -1.
          5    1    4    4  502    0 -0.13490484270E+03  0.56990892062E+02 -0.22629967384E+03  0.26959397386E+03  0.47000000000E+01 0.  1.
         -5    1    4    4    0  502  0.16370844258E+02  0.15611031163E+02  0.15012926870E+01  0.23152812257E+02  0.47000000000E+01 0.  1.
<mgrwt>
<rscale>  0 0.10001400E+04</rscale>
<asrwt>0</asrwt>
<pdfrwt beam="1">  1        1 0.27968485E-01 0.10001400E+04</pdfrwt>
<pdfrwt beam="2">  1       -1 0.21162449E+00 0.10001400E+04</pdfrwt>
<totfact> 0.20872470E+01</totfact>
</mgrwt>
</event>
<event>
 9    1  0.4370149E-036  0.1000659E+04  0.7818608E-02  0.8680410E-01
         -2   -1    0    0    0  501 -0.00000000000E+00  0.00000000000E+00  0.17892904313E+03  0.17892904313E+03  0.00000000000E+00 0. -1.
          2   -1    0    0  501    0  0.00000000000E+00 -0.00000000000E+00 -0.13990454176E+04  0.13990454176E+04  0.00000000000E+00 0. -1.
         36    2    1    2    0    0  0.14210854715E-13  0.00000000000E+00 -0.12201163745E+04  0.15779744608E+04  0.10006594983E+04 0.  0.
         25    2    3    3    0    0 -0.46533110439E+01 -0.79754083836E+02 -0.41496150615E+03  0.44017723742E+03  0.12320950273E+03 0.  0.
         35    2    3    3    0    0  0.46533110439E+01  0.79754083836E+02 -0.80515486835E+03  0.11377972233E+04  0.79995361878E+03 0.  0.
         22    1    5    5    0    0 -0.33113244827E+03 -0.13434030475E+03 -0.18925993331E+03  0.40437029828E+03  0.00000000000E+00 0.  1.
         22    1    5    5    0    0  0.33578575931E+03  0.21409438859E+03 -0.61589493504E+03  0.73342692505E+03  0.00000000000E+00 0.  1.
          5    1    4    4  502    0  0.55240795288E+02 -0.35511398162E+02 -0.25974764684E+03  0.26796181613E+03  0.47000000000E+01 0. -1.
         -5    1    4    4    0  502 -0.59894106332E+02 -0.44242685674E+02 -0.15521385931E+03  0.17221542129E+03  0.47000000000E+01 0. -1.
<mgrwt>
<rscale>  0 0.10006595E+04</rscale>
<asrwt>0</asrwt>
<pdfrwt beam="1">  1        2 0.21523775E+00 0.10006595E+04</pdfrwt>
<pdfrwt beam="2">  1       -2 0.27527546E-01 0.10006595E+04</pdfrwt>
<totfact> 0.20884898E+02</totfact>
</mgrwt>
</event>
<event>
 9    1  0.4370149E-036  0.1000076E+04  0.7818608E-02  0.8680966E-01
          1   -1    0    0  501    0  0.00000000000E+00  0.00000000000E+00  0.38812673879E+03  0.38812673879E+03  0.00000000000E+00 0. -1.
         -1   -1    0    0    0  501 -0.00000000000E+00 -0.00000000000E+00 -0.64421713881E+03  0.64421713881E+03  0.00000000000E+00 0. -1.
         36    2    1    2    0    0  0.14210854715E-13  0.28421709430E-13 -0.25609040002E+03  0.10323438776E+04  0.10000757914E+04 0.  0.
         25    2    3    3    0    0  0.11804247959E+03  0.75517500310E+02 -0.57010122226E+02  0.19603449270E+03  0.12466935651E+03 0.  0.
         35    2    3    3    0    0 -0.11804247959E+03 -0.75517500310E+02 -0.19908027779E+03  0.83630938489E+03  0.80008968898E+03 0.  0.
         22    1    5    5    0    0  0.25398791813E+02 -0.41353012813E+03  0.87146410276E+01  0.41440102613E+03  0.00000000000E+00 0. -1.
         22    1    5    5    0    0 -0.14344127140E+03  0.33801262782E+03 -0.20779491882E+03  0.42190835876E+03  0.00000000000E+00 0. -1.
          5    1    4    4  502    0  0.70811653311E+02  0.28191900183E+02 -0.92697062683E+02  0.12009957914E+03  0.47000000000E+01 0.  1.
         -5    1    4    4    0  502  0.47230826278E+02  0.47325600127E+02  0.35686940456E+02  0.75934913560E+02  0.47000000000E+01 0.  1.
<mgrwt>
<rscale>  0 0.10000758E+04</rscale>
<asrwt>0</asrwt>
<pdfrwt beam="1">  1        1 0.59711807E-01 0.10000758E+04</pdfrwt>
<pdfrwt beam="2">  1       -1 0.99110328E-01 0.10000758E+04</pdfrwt>
<totfact> 0.72755205E+01</totfact>
</mgrwt>
</event>
<event>
 9    1  0.4370149E-036  0.1000346E+04  0.7818608E-02  0.8680709E-01
         -2   -1    0    0    0  501 -0.00000000000E+00  0.00000000000E+00  0.99534259210E+03  0.99534259210E+03  0.00000000000E+00 0.  1.
          2   -1    0    0  501    0  0.00000000000E+00 -0.00000000000E+00 -0.25134354000E+03  0.25134354000E+03  0.00000000000E+00 0.  1.
         36    2    1    2    0    0 -0.71054273576E-14  0.14210854715E-13  0.74399905210E+03  0.12466861321E+04  0.10003458014E+04 0.  0.
         25    2    3    3    0    0  0.38574279892E+02 -0.58809534887E+02  0.29198230499E+03  0.32514973440E+03  0.12458790829E+03 0.  0.
         35    2    3    3    0    0 -0.38574279892E+02  0.58809534887E+02  0.45201674711E+03  0.92153639771E+03  0.79997728478E+03 0.  0.
         22    1    5    5    0    0  0.76052264942E+02  0.25373190986E+03 -0.13150475849E+03  0.29573185590E+03  0.00000000000E+00 0. -1.
         22    1    5    5    0    0 -0.11462654483E+03 -0.19492237498E+03  0.58352150560E+03  0.62580454181E+03  0.00000000000E+00 0. -1.
          5    1    4    4  502    0 -0.41240661879E+01  0.31806419749E+01 -0.10931127575E+02  0.12988608677E+02  0.47000000000E+01 0. -1.
         -5    1    4    4    0  502  0.42698346080E+02 -0.61990176862E+02  0.30291343256E+03  0.31216112572E+03  0.47000000000E+01 0. -1.
<mgrwt>
<rscale>  0 0.10003458E+04</rscale>
<asrwt>0</asrwt>
<pdfrwt beam="1">  1        2 0.38668237E-01 0.10003458E+04</pdfrwt>
<pdfrwt beam="2">  1       -2 0.15312963E+00 0.10003458E+04</pdfrwt>
<totfact> 0.42835871E+01</totfact>
</mgrwt>
</event>
<event>
 9    1  0.4370149E-036  0.9963469E+03  0.7818608E-02  0.8684525E-01
          2   -1    0    0  501    0  0.00000000000E+00  0.00000000000E+00  0.18188040466E+04  0.18188040466E+04  0.00000000000E+00 0. -1.
         -2   -1    0    0    0  501 -0.00000000000E+00 -0.00000000000E+00 -0.13645052474E+03  0.13645052474E+03  0.00000000000E+00 0. -1.
         36    2    1    2    0    0 -0.10658141036E-13 -0.71054273576E-14  0.16823535219E+04  0.19552545714E+04  0.99634686042E+03 0.  0.
         25    2    3    3    0    0 -0.80737384638E+01  0.14203227183E+00  0.41362055914E+02  0.12940261719E+03  0.12234791474E+03 0.  0.
         35    2    3    3    0    0  0.80737384638E+01 -0.14203227183E+00  0.16409914660E+04  0.18258519542E+04  0.80051056318E+03 0.  0.
         22    1    5    5    0    0  0.28767096729E+03  0.49607492123E+02  0.19224469043E+03  0.34953327409E+03  0.00000000000E+00 0. -1.
         22    1    5    5    0    0 -0.27959722883E+03 -0.49749524394E+02  0.14487467755E+04  0.14763186801E+04  0.00000000000E+00 0. -1.
          5    1    4    4  502    0 -0.23503454770E+02 -0.36282473550E+02  0.68545777403E+02  0.81175389576E+02  0.47000000000E+01 0. -1.
         -5    1    4    4    0  502  0.15429716307E+02  0.36424505822E+02 -0.27183721489E+02  0.48227227617E+02  0.47000000000E+01 0. -1.
<mgrwt>
<rscale>  0 0.99634686E+03</rscale>
<asrwt>0</asrwt>
<pdfrwt beam="1">  1        2 0.27981599E+00 0.99634686E+03</pdfrwt>
<pdfrwt beam="2">  1       -2 0.20992390E-01 0.99634686E+03</pdfrwt>
<totfact> 0.19524020E+02</totfact>
</mgrwt>
</event>
<event>
 9    1  0.4370149E-036  0.1000794E+04  0.7818608E-02  0.8680282E-01
         -1   -1    0    0    0  501 -0.00000000000E+00  0.00000000000E+00  0.22805274758E+03  0.22805274758E+03  0.00000000000E+00 0.  1.
          1   -1    0    0  501    0  0.00000000000E+00 -0.00000000000E+00 -0.10979801923E+04  0.10979801923E+04  0.00000000000E+00 0.  1.
         36    2    1    2    0    0  0.00000000000E+00 -0.71054273576E-14 -0.86992744471E+03  0.13260329399E+04  0.10007944837E+04 0.  0.
         25    2    3    3    0    0 -0.12732637291E+03  0.36882693935E+02 -0.99254151863E+02  0.20712699967E+03  0.12441008392E+03 0.  0.
         35    2    3    3    0    0  0.12732637291E+03 -0.36882693935E+02 -0.77067329285E+03  0.11189059402E+04  0.80027547781E+03 0.  0.
         22    1    5    5    0    0 -0.11528230525E+03  0.24715047506E+03 -0.11671865951E+02  0.27296446597E+03  0.00000000000E+00 0. -1.
         22    1    5    5    0    0  0.24260867816E+03 -0.28403316899E+03 -0.75900142690E+03  0.84594147424E+03  0.00000000000E+00 0. -1.
          5    1    4    4  502    0 -0.41854470288E+02  0.18594507751E+02 -0.10970350015E+03  0.11897268740E+03  0.47000000000E+01 0. -1.
         -5    1    4    4    0  502 -0.85471902623E+02  0.18288186184E+02  0.10449348291E+02  0.88154312268E+02  0.47000000000E+01 0. -1.
<mgrwt>
<rscale>  0 0.10007945E+04</rscale>
<asrwt>0</asrwt>
<pdfrwt beam="1">  1        1 0.16892003E+00 0.10007945E+04</pdfrwt>
<pdfrwt beam="2">  1       -1 0.35085038E-01 0.10007945E+04</pdfrwt>
<totfact> 0.10919864E+02</totfact>
</mgrwt>
</event>
<event>
 9    1  0.4370149E-036  0.9984858E+03  0.7818608E-02  0.8682481E-01
         -2   -1    0    0    0  501 -0.00000000000E+00  0.00000000000E+00  0.19641861857E+03  0.19641861857E+03  0.00000000000E+00 0. -1.
          2   -1    0    0  501    0  0.00000000000E+00 -0.00000000000E+00 -0.12689400497E+04  0.12689400497E+04  0.00000000000E+00 0. -1.
         36    2    1    2    0    0  0.00000000000E+00  0.71054273576E-14 -0.10725214311E+04  0.14653586683E+04  0.99848575676E+03 0.  0.
         25    2    3    3    0    0 -0.73834552781E+02 -0.50704035484E+02 -0.35416320278E+03  0.38592891240E+03  0.12444722103E+03 0.  0.
         35    2    3    3    0    0  0.73834552781E+02  0.50704035484E+02 -0.71835822835E+03  0.10794297559E+04  0.80069195901E+03 0.  0.
         22    1    5    5    0    0  0.32358157997E+03  0.52325683420E+02 -0.75866342121E+03  0.82644612814E+03  0.00000000000E+00 0. -1.
         22    1    5    5    0    0 -0.24974702718E+03 -0.16216479352E+01  0.40305192858E+02  0.25298362773E+03  0.00000000000E+00 0. -1.
          5    1    4    4  502    0 -0.73391529724E+01  0.25185560538E+02 -0.12110063536E+02  0.29273183373E+02  0.47000000000E+01 0.  1.
         -5    1    4    4    0  502 -0.66495399808E+02 -0.75889596022E+02 -0.34205313924E+03  0.35665572902E+03  0.47000000000E+01 0.  1.
<mgrwt>
<rscale>  0 0.99848576E+03</rscale>
<asrwt>0</asrwt>
<pdfrwt beam="1">  1        2 0.19522154E+00 0.99848576E+03</pdfrwt>
<pdfrwt beam="2">  1       -2 0.30218250E-01 0.99848576E+03</pdfrwt>
<totfact> 0.20965381E+02</totfact>
</mgrwt>
</event>
<event>
 9    1  0.4370149E-036  0.1000472E+04  0.7818608E-02  0.8680589E-01
         -1   -1    0    0    0  501 -0.00000000000E+00  0.00000000000E+00  0.34367031447E+03  0.34367031447E+03  0.00000000000E+00 0.  1.
          1   -1    0    0  501    0  0.00000000000E+00 -0.00000000000E+00 -0.72812783426E+03  0.72812783426E+03  0.00000000000E+00 0.  1.
         36    2    1    2    0    0 -0.71054273576E-14  0.00000000000E+00 -0.38445751979E+03  0.10717981487E+04  0.10004717323E+04 0.  0.
         25    2    3    3    0    0  0.14377843486E+02 -0.13575214967E+03 -0.11445804355E+03  0.21714190831E+03  0.12415553185E+03 0.  0.
         35    2    3    3    0    0 -0.14377843486E+02  0.13575214967E+03 -0.26999947624E+03  0.85465624042E+03  0.79931358277E+03 0.  0.
         22    1    5    5    0    0 -0.34560881541E+03  0.20279560204E+03 -0.32028797396E+03  0.51298722768E+03  0.00000000000E+00 0. -1.
         22    1    5    5    0    0  0.33123097193E+03 -0.67043452372E+02  0.50288497711E+02  0.34166901275E+03  0.00000000000E+00 0. -1.
          5    1    4    4  502    0 -0.48897848782E+02 -0.31283554280E+02 -0.59064226781E+02  0.82947774347E+02  0.47000000000E+01 0.  1.
         -5    1    4    4    0  502  0.63275692268E+02 -0.10446859539E+03 -0.55393816764E+02  0.13419413396E+03  0.47000000000E+01 0.  1.
<mgrwt>
<rscale>  0 0.10004717E+04</rscale>
<asrwt>0</asrwt>
<pdfrwt beam="1">  1        1 0.11201967E+00 0.10004717E+04</pdfrwt>
<pdfrwt beam="2">  1       -1 0.52872356E-01 0.10004717E+04</pdfrwt>
<totfact> 0.10607267E+02</totfact>
</mgrwt>
</event>
<event>
 9    1  0.4370149E-036  0.1000653E+04  0.7818608E-02  0.8680416E-01
          4   -1    0    0  501    0  0.00000000000E+00  0.00000000000E+00  0.57890102710E+03  0.57890102710E+03  0.00000000000E+00 0. -1.
         -4   -1    0    0    0  501 -0.00000000000E+00 -0.00000000000E+00 -0.43241712412E+03  0.43241712412E+03  0.00000000000E+00 0. -1.
         36    2    1    2    0    0 -0.28421709430E-13  0.00000000000E+00  0.14648390298E+03  0.10113181512E+04  0.10006532212E+04 0.  0.
         25    2    3    3    0    0 -0.11727185576E+03  0.63397986887E+02  0.67678957701E+02  0.19568277942E+03  0.12625100376E+03 0.  0.
         35    2    3    3    0    0  0.11727185576E+03 -0.63397986887E+02  0.78804945278E+02  0.81563537180E+03  0.80079888076E+03 0.  0.
         22    1    5    5    0    0 -0.33267459911E+03 -0.96182532585E+02 -0.41375901312E+02  0.34876271830E+03  0.00000000000E+00 0. -1.
         22    1    5    5    0    0  0.44994645488E+03  0.32784545698E+02  0.12018084659E+03  0.46687265349E+03  0.00000000000E+00 0. -1.
          5    1    4    4  502    0 -0.96978435413E+02  0.90639560248E+02  0.16174411013E+02  0.13380601029E+03  0.47000000000E+01 0. -1.
         -5    1    4    4    0  502 -0.20293420350E+02 -0.27241573361E+02  0.51504546689E+02  0.61876769132E+02  0.47000000000E+01 0. -1.
<mgrwt>
<rscale>  0 0.10006532E+04</rscale>
<asrwt>0</asrwt>
<pdfrwt beam="1">  1        4 0.89061696E-01 0.10006532E+04</pdfrwt>
<pdfrwt beam="2">  1       -4 0.66525712E-01 0.10006532E+04</pdfrwt>
<totfact> 0.51645798E+00</totfact>
</mgrwt>
</event>
<event>
 9    1  0.4370149E-036  0.9990889E+03  0.7818608E-02  0.8681906E-01
          1   -1    0    0  501    0  0.00000000000E+00  0.00000000000E+00  0.16740516112E+04  0.16740516112E+04  0.00000000000E+00 0. -1.
         -1   -1    0    0    0  501 -0.00000000000E+00 -0.00000000000E+00 -0.14906629695E+03  0.14906629695E+03  0.00000000000E+00 0. -1.
         36    2    1    2    0    0 -0.14210854715E-13 -0.28421709430E-13  0.15249853142E+04  0.18231179081E+04  0.99908893413E+03 0.  0.
         25    2    3    3    0    0  0.43213944777E+02 -0.10479682755E+03  0.13778907799E+03  0.21767347427E+03  0.12468396569E+03 0.  0.
         35    2    3    3    0    0 -0.43213944777E+02  0.10479682755E+03  0.13871962362E+04  0.16054444338E+04  0.80018036233E+03 0.  0.
         22    1    5    5    0    0 -0.28425624353E+03  0.35622727752E+03  0.70508813036E+03  0.83955271235E+03  0.00000000000E+00 0.  1.
         22    1    5    5    0    0  0.24104229876E+03 -0.25143044997E+03  0.68210810588E+03  0.76589172150E+03  0.00000000000E+00 0.  1.
          5    1    4    4  502    0  0.22530085238E+02 -0.10150129471E+03  0.30781822674E+02  0.10853445617E+03  0.47000000000E+01 0.  1.
         -5    1    4    4    0  502  0.20683859539E+02 -0.32955328407E+01  0.10700725532E+03  0.10913901810E+03  0.47000000000E+01 0.  1.
<mgrwt>
<rscale>  0 0.99908893E+03</rscale>
<asrwt>0</asrwt>
<pdfrwt beam="1">  1        1 0.25754639E+00 0.99908893E+03</pdfrwt>
<pdfrwt beam="2">  1       -1 0.22933278E-01 0.99908893E+03</pdfrwt>
<totfact> 0.85966191E+01</totfact>
</mgrwt>
</event>
<event>
 9    1  0.4370149E-036  0.1001735E+04  0.7818608E-02  0.8679387E-01
         -1   -1    0    0    0  501 -0.00000000000E+00  0.00000000000E+00  0.46338178422E+03  0.46338178422E+03  0.00000000000E+00 0.  1.
          1   -1    0    0  501    0  0.00000000000E+00 -0.00000000000E+00 -0.54138575056E+03  0.54138575056E+03  0.00000000000E+00 0.  1.
         36    2    1    2    0    0  0.00000000000E+00 -0.28421709430E-13 -0.78003966337E+02  0.10047675348E+04  0.10017350848E+04 0.  0.
         25    2    3    3    0    0 -0.75407469582E+02 -0.98755134446E+02 -0.82030902026E+02  0.19493407012E+03  0.12582273148E+03 0.  0.
         35    2    3    3    0    0  0.75407469582E+02  0.98755134446E+02  0.40269356881E+01  0.80983346467E+03  0.80023444142E+03 0.  0.
         22    1    5    5    0    0 -0.14671379810E+02 -0.30657633622E+03  0.18337635466E+03  0.35753487490E+03  0.00000000000E+00 0. -1.
         22    1    5    5    0    0  0.90078849392E+02  0.40533147067E+03 -0.17934941898E+03  0.45229858977E+03  0.00000000000E+00 0. -1.
          5    1    4    4  502    0 -0.68200192382E+02  0.50877853948E+01 -0.12539264430E+02  0.69688413339E+02  0.47000000000E+01 0. -1.
         -5    1    4    4    0  502 -0.72072771997E+01 -0.10384291984E+03 -0.69491637596E+02  0.12524565678E+03  0.47000000000E+01 0. -1.
<mgrwt>
<rscale>  0 0.10017351E+04</rscale>
<asrwt>0</asrwt>
<pdfrwt beam="1">  1        1 0.83290115E-01 0.10017351E+04</pdfrwt>
<pdfrwt beam="2">  1       -1 0.71289506E-01 0.10017351E+04</pdfrwt>
<totfact> 0.92501947E+01</totfact>
</mgrwt>
</event>
<event>
 9    1  0.4370149E-036  0.1001522E+04  0.7818608E-02  0.8679589E-01
          2   -1    0    0  501    0  0.00000000000E+00  0.00000000000E+00  0.12844062202E+04  0.12844062202E+04  0.00000000000E+00 0. -1.
         -2   -1    0    0    0  501 -0.00000000000E+00 -0.00000000000E+00 -0.19523560565E+03  0.19523560565E+03  0.00000000000E+00 0. -1.
         36    2    1    2    0    0  0.00000000000E+00 -0.71054273576E-14  0.10891706146E+04  0.14796418259E+04  0.10015224936E+04 0.  0.
         25    2    3    3    0    0  0.14137249635E+03 -0.23930889614E+01  0.21260893210E+03  0.28436577333E+03  0.12517757561E+03 0.  0.
         35    2    3    3    0    0 -0.14137249635E+03  0.23930889614E+01  0.87656168247E+03  0.11952760525E+04  0.80020781612E+03 0.  0.
         22    1    5    5    0    0  0.17391817664E+03  0.11538846935E+03  0.83154357895E+03  0.85733701350E+03  0.00000000000E+00 0. -1.
         22    1    5    5    0    0 -0.31529067298E+03 -0.11299538039E+03  0.45018103525E+02  0.33793903904E+03  0.00000000000E+00 0. -1.
          5    1    4    4  502    0  0.10822598054E+03  0.25902003953E+01  0.51928578964E+02  0.12015922484E+03  0.47000000000E+01 0.  1.
         -5    1    4    4    0  502  0.33146515809E+02 -0.49832893568E+01  0.16068035314E+03  0.16420654849E+03  0.47000000000E+01 0.  1.
<mgrwt>
<rscale>  0 0.10015225E+04</rscale>
<asrwt>0</asrwt>
<pdfrwt beam="1">  1        2 0.19760095E+00 0.10015225E+04</pdfrwt>
<pdfrwt beam="2">  1       -2 0.30036248E-01 0.10015225E+04</pdfrwt>
<totfact> 0.20762433E+02</totfact>
</mgrwt>
</event>
<event>
 9    1  0.4370149E-036  0.1013426E+04  0.7818608E-02  0.8668356E-01
         -2   -1    0    0    0  501 -0.00000000000E+00  0.00000000000E+00  0.29494896013E+03  0.29494896013E+03  0.00000000000E+00 0. -1.
          2   -1    0    0  501    0  0.00000000000E+00 -0.00000000000E+00 -0.87051746132E+03  0.87051746132E+03  0.00000000000E+00 0. -1.
         36    2    1    2    0    0  0.00000000000E+00 -0.14210854715E-13 -0.57556850118E+03  0.11654664214E+04  0.10134263071E+04 0.  0.
         25    2    3    3    0    0 -0.11002041851E+03  0.89705518016E+02 -0.42014531296E+02  0.19321111486E+03  0.12415209065E+03 0.  0.
         35    2    3    3    0    0  0.11002041851E+03 -0.89705518016E+02 -0.53355396989E+03  0.97225530659E+03  0.80028055703E+03 0.  0.
         22    1    5    5    0    0  0.35605051048E+02  0.34080101711E+03 -0.10046339934E+03  0.35707974954E+03  0.00000000000E+00 0.  1.
         22    1    5    5    0    0  0.74415367461E+02 -0.43050653513E+03 -0.43309057055E+03  0.61517555705E+03  0.00000000000E+00 0.  1.
          5    1    4    4  502    0  0.26964032341E+02  0.93851079052E+01 -0.20258479138E+00  0.28935623910E+02  0.47000000000E+01 0. -1.
         -5    1    4    4    0  502 -0.13698445085E+03  0.80320410111E+02 -0.41811946504E+02  0.16427549095E+03  0.47000000000E+01 0. -1.
<mgrwt>
<rscale>  0 0.10134263E+04</rscale>
<asrwt>0</asrwt>
<pdfrwt beam="1">  1        2 0.13392576E+00 0.10134263E+04</pdfrwt>
<pdfrwt beam="2">  1       -2 0.45376763E-01 0.10134263E+04</pdfrwt>
<totfact> 0.17132765E+02</totfact>
</mgrwt>
</event>
<event>
 9    1  0.4370149E-036  0.9981168E+03  0.7818608E-02  0.8682833E-01
         -2   -1    0    0    0  501 -0.00000000000E+00  0.00000000000E+00  0.15440149262E+03  0.15440149262E+03  0.00000000000E+00 0.  1.
          2   -1    0    0  501    0  0.00000000000E+00 -0.00000000000E+00 -0.16130627883E+04  0.16130627883E+04  0.00000000000E+00 0.  1.
         36    2    1    2    0    0 -0.28421709430E-13 -0.71054273576E-14 -0.14586612957E+04  0.17674642810E+04  0.99811683127E+03 0.  0.
         25    2    3    3    0    0 -0.10779479351E+03  0.61030474779E+00 -0.43020900091E+03  0.46071347772E+03  0.12472784017E+03 0.  0.
         35    2    3    3    0    0  0.10779479351E+03 -0.61030474779E+00 -0.10284522948E+04  0.13067508032E+04  0.79891391845E+03 0.  0.
         22    1    5    5    0    0  0.19294957665E+02 -0.38101498172E+03 -0.69666342923E+03  0.79428247199E+03  0.00000000000E+00 0.  1.
         22    1    5    5    0    0  0.88499835848E+02  0.38040467698E+03 -0.33178886559E+03  0.51246833126E+03  0.00000000000E+00 0.  1.
          5    1    4    4  502    0 -0.10390868805E+03  0.62238224804E+01 -0.16353798765E+03  0.19391367880E+03  0.47000000000E+01 0. -1.
         -5    1    4    4    0  502 -0.38861054602E+01 -0.56135177326E+01 -0.26667101325E+03  0.26679979892E+03  0.47000000000E+01 0. -1.
<mgrwt>
<rscale>  0 0.99811683E+03</rscale>
<asrwt>0</asrwt>
<pdfrwt beam="1">  1        2 0.24816351E+00 0.99811683E+03</pdfrwt>
<pdfrwt beam="2">  1       -2 0.23754076E-01 0.99811683E+03</pdfrwt>
<totfact> 0.20537635E+02</totfact>
</mgrwt>
</event>
<event>
 9    1  0.4370149E-036  0.1000365E+04  0.7818608E-02  0.8680691E-01
         -1   -1    0    0    0  501 -0.00000000000E+00  0.00000000000E+00  0.28059480300E+03  0.28059480300E+03  0.00000000000E+00 0. -1.
          1   -1    0    0  501    0  0.00000000000E+00 -0.00000000000E+00 -0.89161471784E+03  0.89161471784E+03  0.00000000000E+00 0. -1.
         36    2    1    2    0    0  0.00000000000E+00 -0.35527136788E-13 -0.61101991484E+03  0.11722095208E+04  0.10003648456E+04 0.  0.
         25    2    3    3    0    0 -0.84462183959E+02  0.45977090507E+02  0.47555972428E+01  0.15789248908E+03  0.12513859928E+03 0.  0.
         35    2    3    3    0    0  0.84462183959E+02 -0.45977090507E+02 -0.61577551209E+03  0.10143170318E+04  0.80025733752E+03 0.  0.
         22    1    5    5    0    0 -0.20053520733E+03 -0.26037217650E+03 -0.56562755260E+03  0.65417319414E+03  0.00000000000E+00 0.  1.
         22    1    5    5    0    0  0.28499739128E+03  0.21439508599E+03 -0.50147959488E+02  0.36014383762E+03  0.00000000000E+00 0.  1.
          5    1    4    4  502    0 -0.66552546879E+02  0.39084121922E+01 -0.52129356675E+02  0.84758934687E+02  0.47000000000E+01 0. -1.
         -5    1    4    4    0  502 -0.17909637081E+02  0.42068678315E+02  0.56884953917E+02  0.73133554390E+02  0.47000000000E+01 0. -1.
<mgrwt>
<rscale>  0 0.10003648E+04</rscale>
<asrwt>0</asrwt>
<pdfrwt beam="1">  1        1 0.13717149E+00 0.10003648E+04</pdfrwt>
<pdfrwt beam="2">  1       -1 0.43168432E-01 0.10003648E+04</pdfrwt>
<totfact> 0.11049307E+02</totfact>
</mgrwt>
</event>
<event>
 9    1  0.4370149E-036  0.9996384E+03  0.7818608E-02  0.8681382E-01
         -1   -1    0    0    0  501 -0.00000000000E+00  0.00000000000E+00  0.10296823501E+03  0.10296823501E+03  0.00000000000E+00 0.  1.
          1   -1    0    0  501    0  0.00000000000E+00 -0.00000000000E+00 -0.24261776425E+04  0.24261776425E+04  0.00000000000E+00 0.  1.
         36    2    1    2    0    0 -0.14210854715E-13  0.00000000000E+00 -0.23232094075E+04  0.25291458776E+04  0.99963839398E+03 0.  0.
         25    2    3    3    0    0  0.10444118941E+03  0.70892638005E+02 -0.54829891892E+03  0.57787493298E+03  0.13181049088E+03 0.  0.
         35    2    3    3    0    0 -0.10444118941E+03 -0.70892638005E+02 -0.17749104886E+04  0.19512709446E+04  0.80076046881E+03 0.  0.
         22    1    5    5    0    0 -0.14647109229E+03  0.35183721000E+03 -0.73483774756E+03  0.82778603423E+03  0.00000000000E+00 0. -1.
         22    1    5    5    0    0  0.42029902880E+02 -0.42272984800E+03 -0.10400727410E+04  0.11234849104E+04  0.00000000000E+00 0. -1.
          5    1    4    4  502    0  0.61132323350E+02  0.42734449634E+02 -0.50444143779E+03  0.50994769173E+03  0.47000000000E+01 0.  1.
         -5    1    4    4    0  502  0.43308866063E+02  0.28158188371E+02 -0.43857481129E+02  0.67927241243E+02  0.47000000000E+01 0.  1.
<mgrwt>
<rscale>  0 0.99963839E+03</rscale>
<asrwt>0</asrwt>
<pdfrwt beam="1">  1        1 0.37325811E+00 0.99963839E+03</pdfrwt>
<pdfrwt beam="2">  1       -1 0.15841267E-01 0.99963839E+03</pdfrwt>
<totfact> 0.46837515E+01</totfact>
</mgrwt>
</event>
<event>
 9    1  0.4370149E-036  0.9978003E+03  0.7818608E-02  0.8683136E-01
         -2   -1    0    0    0  501 -0.00000000000E+00  0.00000000000E+00  0.63128646357E+03  0.63128646357E+03  0.00000000000E+00 0. -1.
          2   -1    0    0  501    0  0.00000000000E+00 -0.00000000000E+00 -0.39427643988E+03  0.39427643988E+03  0.00000000000E+00 0. -1.
         36    2    1    2    0    0  0.71054273576E-14  0.00000000000E+00  0.23701002369E+03  0.10255629035E+04  0.99780033955E+03 0.  0.
         25    2    3    3    0    0 -0.48986830146E+02 -0.10302237861E+03  0.12571071580E+03  0.21100690596E+03  0.12532920759E+03 0.  0.
         35    2    3    3    0    0  0.48986830146E+02  0.10302237861E+03  0.11129930789E+03  0.81455599749E+03  0.79881200359E+03 0.  0.
         22    1    5    5    0    0  0.37474565927E+03  0.22523038943E+03 -0.31740450802E+02  0.43837255124E+03  0.00000000000E+00 0.  1.
         22    1    5    5    0    0 -0.32575882913E+03 -0.12220801082E+03  0.14303975869E+03  0.37618344625E+03  0.00000000000E+00 0.  1.
          5    1    4    4  502    0 -0.34121889631E+01  0.28562740606E+02  0.13570067651E+02  0.32151359544E+02  0.47000000000E+01 0.  1.
         -5    1    4    4    0  502 -0.45574641183E+02 -0.13158511921E+03  0.11214064815E+03  0.17885554642E+03  0.47000000000E+01 0.  1.
<mgrwt>
<rscale>  0 0.99780034E+03</rscale>
<asrwt>0</asrwt>
<pdfrwt beam="1">  1        2 0.60657914E-01 0.99780034E+03</pdfrwt>
<pdfrwt beam="2">  1       -2 0.97120995E-01 0.99780034E+03</pdfrwt>
<totfact> 0.85153176E+01</totfact>
</mgrwt>
</event>
<event>
 9    1  0.4370149E-036  0.1000383E+04  0.7818608E-02  0.8680673E-01
         -1   -1    0    0    0  501 -0.00000000000E+00  0.00000000000E+00  0.37465395860E+03  0.37465395860E+03  0.00000000000E+00 0. -1.
          1   -1    0    0  501    0  0.00000000000E+00 -0.00000000000E+00 -0.66779361407E+03  0.66779361407E+03  0.00000000000E+00 0. -1.
         36    2    1    2    0    0 -0.28421709430E-13 -0.19539925233E-13 -0.29313965547E+03  0.10424475727E+04  0.10003829687E+04 0.  0.
         25    2    3    3    0    0  0.14055592205E+03  0.90685621893E+01 -0.46276771819E+02  0.19313242641E+03  0.12377555687E+03 0.  0.
         35    2    3    3    0    0 -0.14055592205E+03 -0.90685621893E+01 -0.24686288365E+03  0.84931514626E+03  0.80034787955E+03 0.  0.
         22    1    5    5    0    0 -0.15641591203E+03  0.36118613455E+03  0.17664632236E+02  0.39399670121E+03  0.00000000000E+00 0.  1.
         22    1    5    5    0    0  0.15859989984E+02 -0.37025469674E+03 -0.26452751588E+03  0.45531844505E+03  0.00000000000E+00 0.  1.
          5    1    4    4  502    0  0.14897587599E+03  0.21643864175E+02 -0.69961074544E+01  0.15077567444E+03  0.47000000000E+01 0. -1.
         -5    1    4    4    0  502 -0.84199539464E+01 -0.12575301986E+02 -0.39280664364E+02  0.42356751969E+02  0.47000000000E+01 0. -1.
<mgrwt>
<rscale>  0 0.10003830E+04</rscale>
<asrwt>0</asrwt>
<pdfrwt beam="1">  1        1 0.10273748E+00 0.10003830E+04</pdfrwt>
<pdfrwt beam="2">  1       -1 0.57639071E-01 0.10003830E+04</pdfrwt>
<totfact> 0.10293225E+02</totfact>
</mgrwt>
</event>
<event>
 9    1  0.4370149E-036  0.9982261E+03  0.7818608E-02  0.8682729E-01
         -2   -1    0    0    0  501 -0.00000000000E+00  0.00000000000E+00  0.17823084941E+03  0.17823084941E+03  0.00000000000E+00 0.  1.
          2   -1    0    0  501    0  0.00000000000E+00 -0.00000000000E+00 -0.13977033827E+04  0.13977033827E+04  0.00000000000E+00 0.  1.
         36    2    1    2    0    0  0.28421709430E-13 -0.14210854715E-13 -0.12194725333E+04  0.15759342322E+04  0.99822614900E+03 0.  0.
         25    2    3    3    0    0  0.13736460369E+03 -0.67523870103E+00 -0.17528237878E+03  0.25507338088E+03  0.12437454332E+03 0.  0.
         35    2    3    3    0    0 -0.13736460369E+03  0.67523870103E+00 -0.10441901545E+04  0.13208608513E+04  0.79716423608E+03 0.  0.
         22    1    5    5    0    0  0.64736898330E+02  0.19673371890E+03  0.30994653284E+02  0.20941750330E+03  0.00000000000E+00 0.  1.
         22    1    5    5    0    0 -0.20210150202E+03 -0.19605848020E+03 -0.10751848078E+04  0.11114433480E+04  0.00000000000E+00 0.  1.
          5    1    4    4  502    0  0.14371543448E+03  0.14003114669E+02 -0.18580291924E+03  0.23536148395E+03  0.47000000000E+01 0.  1.
         -5    1    4    4    0  502 -0.63508307899E+01 -0.14678353370E+02  0.10520540452E+02  0.19711896935E+02  0.47000000000E+01 0.  1.
<mgrwt>
<rscale>  0 0.99822615E+03</rscale>
<asrwt>0</asrwt>
<pdfrwt beam="1">  1        2 0.21503128E+00 0.99822615E+03</pdfrwt>
<pdfrwt beam="2">  1       -2 0.27420132E-01 0.99822615E+03</pdfrwt>
<totfact> 0.21069757E+02</totfact>
</mgrwt>
</event>
<event>
 9    1  0.4370149E-036  0.1000247E+04  0.7818608E-02  0.8680802E-01
          2   -1    0    0  501    0  0.00000000000E+00  0.00000000000E+00  0.17049973161E+04  0.17049973161E+04  0.00000000000E+00 0.  1.
         -2   -1    0    0    0  501 -0.00000000000E+00 -0.00000000000E+00 -0.14670034975E+03  0.14670034975E+03  0.00000000000E+00 0.  1.
         36    2    1    2    0    0 -0.71054273576E-14 -0.14210854715E-13  0.15582969663E+04  0.18516976658E+04  0.10002473746E+04 0.  0.
         25    2    3    3    0    0  0.56552456925E+02  0.94038478450E+02  0.13175425853E+03  0.21212710931E+03  0.12488919107E+03 0.  0.
         35    2    3    3    0    0 -0.56552456925E+02 -0.94038478450E+02  0.14265427078E+04  0.16395705565E+04  0.80070350122E+03 0.  0.
         22    1    5    5    0    0  0.26617610231E+03  0.16169214927E+03  0.27093952856E+03  0.41279813071E+03  0.00000000000E+00 0.  1.
         22    1    5    5    0    0 -0.32272855924E+03 -0.25573062772E+03  0.11556031793E+04  0.12267724258E+04  0.00000000000E+00 0.  1.
          5    1    4    4  502    0  0.82473549701E+02  0.40229324894E+02  0.34994542772E+02  0.98320867599E+02  0.47000000000E+01 0.  1.
         -5    1    4    4    0  502 -0.25921092776E+02  0.53809153556E+02  0.96759715762E+02  0.11380624171E+03  0.47000000000E+01 0.  1.
<mgrwt>
<rscale>  0 0.10002474E+04</rscale>
<asrwt>0</asrwt>
<pdfrwt beam="1">  1        2 0.26230727E+00 0.10002474E+04</pdfrwt>
<pdfrwt beam="2">  1       -2 0.22569286E-01 0.10002474E+04</pdfrwt>
<totfact> 0.19943643E+02</totfact>
</mgrwt>
</event>
<event>
 9    1  0.4370149E-036  0.9999240E+03  0.7818608E-02  0.8681110E-01
          2   -1    0    0  501    0  0.00000000000E+00  0.00000000000E+00  0.11239796205E+04  0.11239796205E+04  0.00000000000E+00 0. -1.
         -2   -1    0    0    0  501 -0.00000000000E+00 -0.00000000000E+00 -0.22239017572E+03  0.22239017572E+03  0.00000000000E+00 0. -1.
         36    2    1    2    0    0  0.71054273576E-14  0.00000000000E+00  0.90158944482E+03  0.13463697963E+04  0.99992404776E+03 0.  0.
         25    2    3    3    0    0  0.40096226662E+02  0.65966369355E+02  0.98200495031E+01  0.14614865479E+03  0.12370823192E+03 0.  0.
         35    2    3    3    0    0 -0.40096226662E+02 -0.65966369355E+02  0.89176939532E+03  0.12002211415E+04  0.79957417714E+03 0.  0.
         22    1    5    5    0    0 -0.37373352567E+03  0.47967325454E+02  0.70947472689E+03  0.80332558817E+03  0.00000000000E+00 0. -1.
         22    1    5    5    0    0  0.33363729900E+03 -0.11393369481E+03  0.18229466843E+03  0.39689555331E+03  0.00000000000E+00 0. -1.
          5    1    4    4  502    0  0.46041171190E+02  0.58236950956E+01  0.53838036556E+02  0.71234324937E+02  0.47000000000E+01 0.  1.
         -5    1    4    4    0  502 -0.59449445280E+01  0.60142674259E+02 -0.44017987053E+02  0.74914329849E+02  0.47000000000E+01 0.  1.
<mgrwt>
<rscale>  0 0.99992405E+03</rscale>
<asrwt>0</asrwt>
<pdfrwt beam="1">  1        2 0.17291994E+00 0.99992405E+03</pdfrwt>
<pdfrwt beam="2">  1       -2 0.34213874E-01 0.99992405E+03</pdfrwt>
<totfact> 0.20322909E+02</totfact>
</mgrwt>
</event>
<event>
 9    1  0.4370149E-036  0.9992210E+03  0.7818608E-02  0.8681780E-01
         -1   -1    0    0    0  501 -0.00000000000E+00  0.00000000000E+00  0.42512336276E+03  0.42512336276E+03  0.00000000000E+00 0. -1.
          1   -1    0    0  501    0  0.00000000000E+00 -0.00000000000E+00 -0.58714878560E+03  0.58714878560E+03  0.00000000000E+00 0. -1.
         36    2    1    2    0    0 -0.28421709430E-13  0.14210854715E-13 -0.16202542283E+03  0.10122721484E+04  0.99922102895E+03 0.  0.
         25    2    3    3    0    0  0.13669650332E+03 -0.10926588936E+02 -0.58355076095E+02  0.19407908105E+03  0.12432236497E+03 0.  0.
         35    2    3    3    0    0 -0.13669650332E+03  0.10926588936E+02 -0.10367034674E+03  0.81819306731E+03  0.79992939078E+03 0.  0.
         22    1    5    5    0    0  0.22505619717E+03 -0.12149444621E+03  0.20241819871E+03  0.32616609192E+03  0.00000000000E+00 0. -1.
         22    1    5    5    0    0 -0.36175270049E+03  0.13242103515E+03 -0.30608854545E+03  0.49202697539E+03  0.00000000000E+00 0. -1.
          5    1    4    4  502    0  0.13355154351E+03 -0.49432764448E+02 -0.61167026090E+02  0.15505840208E+03  0.47000000000E+01 0.  1.
         -5    1    4    4    0  502  0.31449598070E+01  0.38506175513E+02  0.28119499949E+01  0.39020678974E+02  0.47000000000E+01 0.  1.
<mgrwt>
<rscale>  0 0.99922103E+03</rscale>
<asrwt>0</asrwt>
<pdfrwt beam="1">  1        1 0.90330583E-01 0.99922103E+03</pdfrwt>
<pdfrwt beam="2">  1       -1 0.65403594E-01 0.99922103E+03</pdfrwt>
<totfact> 0.97629757E+01</totfact>
</mgrwt>
</event>
<event>
 9    1  0.4370149E-036  0.9989356E+03  0.7818608E-02  0.8682052E-01
         -1   -1    0    0    0  501 -0.00000000000E+00  0.00000000000E+00  0.33747964840E+03  0.33747964840E+03  0.00000000000E+00 0.  1.
          1   -1    0    0  501    0  0.00000000000E+00 -0.00000000000E+00 -0.73920924455E+03  0.73920924455E+03  0.00000000000E+00 0.  1.
         36    2    1    2    0    0 -0.14210854715E-13  0.00000000000E+00 -0.40172959615E+03  0.10766888930E+04  0.99893558540E+03 0.  0.
         25    2    3    3    0    0  0.39487526391E+02  0.27046916666E+02 -0.21704233086E+03  0.25490609812E+03  0.12481564417E+03 0.  0.
         35    2    3    3    0    0 -0.39487526391E+02 -0.27046916666E+02 -0.18468726529E+03  0.82178279484E+03  0.79932895324E+03 0.  0.
         22    1    5    5    0    0 -0.39637132745E+03  0.47533055059E+02  0.27118720844E+02  0.40013128541E+03  0.00000000000E+00 0. -1.
         22    1    5    5    0    0  0.35688380106E+03 -0.74579971725E+02 -0.21180598613E+03  0.42165150942E+03  0.00000000000E+00 0. -1.
          5    1    4    4  502    0 -0.22267845605E+02  0.15169266549E+02  0.15544207367E+01  0.27394704220E+02  0.47000000000E+01 0. -1.
         -5    1    4    4    0  502  0.61755371996E+02  0.11877650117E+02 -0.21859675160E+03  0.22751139390E+03  0.47000000000E+01 0. -1.
<mgrwt>
<rscale>  0 0.99893559E+03</rscale>
<asrwt>0</asrwt>
<pdfrwt beam="1">  1        1 0.11372450E+00 0.99893559E+03</pdfrwt>
<pdfrwt beam="2">  1       -1 0.51919946E-01 0.99893559E+03</pdfrwt>
<totfact> 0.10718149E+02</totfact>
</mgrwt>
</event>
<event>
 9    1  0.4370149E-036  0.9989963E+03  0.7818608E-02  0.8681994E-01
         -2   -1    0    0    0  501 -0.00000000000E+00  0.00000000000E+00  0.32557591248E+03  0.32557591248E+03  0.00000000000E+00 0.  1.
          2   -1    0    0  501    0  0.00000000000E+00 -0.00000000000E+00 -0.76632945369E+03  0.76632945369E+03  0.00000000000E+00 0.  1.
         36    2    1    2    0    0  0.21316282073E-13  0.00000000000E+00 -0.44075354121E+03  0.10919053662E+04  0.99899631861E+03 0.  0.
         25    2    3    3    0    0 -0.53835878151E+02  0.59221018055E+02 -0.20202813869E+03  0.25176302143E+03  0.12713701027E+03 0.  0.
         35    2    3    3    0    0  0.53835878151E+02 -0.59221018055E+02 -0.23872540252E+03  0.84014234475E+03  0.80152598890E+03 0.  0.
         22    1    5    5    0    0  0.35292935123E+03 -0.16418811686E+03 -0.32997202206E+03  0.51029246518E+03  0.00000000000E+00 0. -1.
         22    1    5    5    0    0 -0.29909347308E+03  0.10496709880E+03  0.91246619536E+02  0.32984987957E+03  0.00000000000E+00 0. -1.
          5    1    4    4  502    0 -0.58058771608E+02  0.44356791804E+02 -0.30235023380E+02  0.79212325926E+02  0.47000000000E+01 0. -1.
         -5    1    4    4    0  502  0.42228934570E+01  0.14864226251E+02 -0.17179311531E+03  0.17255069550E+03  0.47000000000E+01 0. -1.
<mgrwt>
<rscale>  0 0.99899632E+03</rscale>
<asrwt>0</asrwt>
<pdfrwt beam="1">  1        2 0.11789684E+00 0.99899632E+03</pdfrwt>
<pdfrwt beam="2">  1       -2 0.50088603E-01 0.99899632E+03</pdfrwt>
<totfact> 0.16639241E+02</totfact>
</mgrwt>
</event>
<event>
 9    1  0.4370149E-036  0.9997339E+03  0.7818608E-02  0.8681291E-01
         -1   -1    0    0    0  501 -0.00000000000E+00  0.00000000000E+00  0.88625683136E+02  0.88625683136E+02  0.00000000000E+00 0.  1.
          1   -1    0    0  501    0  0.00000000000E+00 -0.00000000000E+00 -0.28193519032E+04  0.28193519032E+04  0.00000000000E+00 0.  1.
         36    2    1    2    0    0  0.00000000000E+00 -0.49737991503E-13 -0.27307262201E+04  0.29079775864E+04  0.99973394146E+03 0.  0.
         25    2    3    3    0    0  0.13440663775E+03 -0.26359606790E+02 -0.42374867015E+03  0.46213335656E+03  0.12346793369E+03 0.  0.
         35    2    3    3    0    0 -0.13440663775E+03  0.26359606790E+02 -0.23069775500E+04  0.24458442298E+04  0.80077999937E+03 0.  0.
         22    1    5    5    0    0 -0.21417507757E+03  0.29702131280E+03 -0.19816298094E+04  0.20151797254E+04  0.00000000000E+00 0. -1.
         22    1    5    5    0    0  0.79768439819E+02 -0.27066170601E+03 -0.32534774058E+03  0.43066450445E+03  0.00000000000E+00 0. -1.
          5    1    4    4  502    0  0.10852436358E+02 -0.55751365810E+02 -0.14409283112E+03  0.15495426469E+03  0.47000000000E+01 0. -1.
         -5    1    4    4    0  502  0.12355420139E+03  0.29391759020E+02 -0.27965583903E+03  0.30717909187E+03  0.47000000000E+01 0. -1.
<mgrwt>
<rscale>  0 0.99973394E+03</rscale>
<asrwt>0</asrwt>
<pdfrwt beam="1">  1        1 0.43374640E+00 0.99973394E+03</pdfrwt>
<pdfrwt beam="2">  1       -1 0.13634722E-01 0.99973394E+03</pdfrwt>
<totfact> 0.31506870E+01</totfact>
</mgrwt>
</event>
<event>
 9    1  0.4370149E-036  0.9998607E+03  0.7818608E-02  0.8681171E-01
         -2   -1    0    0    0  501 -0.00000000000E+00  0.00000000000E+00  0.21400561309E+03  0.21400561309E+03  0.00000000000E+00 0. -1.
          2   -1    0    0  501    0  0.00000000000E+00 -0.00000000000E+00 -0.11678681642E+04  0.11678681642E+04  0.00000000000E+00 0. -1.
         36    2    1    2    0    0 -0.14210854715E-13  0.00000000000E+00 -0.95386255114E+03  0.13818737773E+04  0.99986067529E+03 0.  0.
         25    2    3    3    0    0  0.41353567912E+02 -0.67597772180E+02 -0.20091373258E+02  0.14957695582E+03  0.12525983415E+03 0.  0.
         35    2    3    3    0    0 -0.41353567912E+02  0.67597772180E+02 -0.93377117788E+03  0.12322968215E+04  0.80021701261E+03 0.  0.
         22    1    5    5    0    0  0.88070754359E+02 -0.31171087759E+03 -0.16086567633E+03  0.36165991595E+03  0.00000000000E+00 0. -1.
         22    1    5    5    0    0 -0.12942432227E+03  0.37930864977E+03 -0.77290550155E+03  0.87063690555E+03  0.00000000000E+00 0. -1.
          5    1    4    4  502    0  0.39487646974E+02 -0.96164799821E+00 -0.59815269372E+02  0.71834222209E+02  0.47000000000E+01 0. -1.
         -5    1    4    4    0  502  0.18659209379E+01 -0.66636124182E+02  0.39723896114E+02  0.77742733612E+02  0.47000000000E+01 0. -1.
<mgrwt>
<rscale>  0 0.99986068E+03</rscale>
<asrwt>0</asrwt>
<pdfrwt beam="1">  1        2 0.17967202E+00 0.99986068E+03</pdfrwt>
<pdfrwt beam="2">  1       -2 0.32923941E-01 0.99986068E+03</pdfrwt>
<totfact> 0.20542060E+02</totfact>
</mgrwt>
</event>
<event>
 9    1  0.4370149E-036  0.9986921E+03  0.7818608E-02  0.8682284E-01
          2   -1    0    0  501    0  0.00000000000E+00  0.00000000000E+00  0.32695084275E+03  0.32695084275E+03  0.00000000000E+00 0. -1.
         -2   -1    0    0    0  501 -0.00000000000E+00 -0.00000000000E+00 -0.76264207095E+03  0.76264207095E+03  0.00000000000E+00 0. -1.
         36    2    1    2    0    0 -0.71054273576E-14  0.28421709430E-13 -0.43569122820E+03  0.10895929137E+04  0.99869208031E+03 0.  0.
         25    2    3    3    0    0 -0.45588870418E+02 -0.53384101850E+02  0.48585813511E+02  0.15083840699E+03  0.12435206597E+03 0.  0.
         35    2    3    3    0    0  0.45588870418E+02  0.53384101850E+02 -0.48427704171E+03  0.93875450672E+03  0.80112893052E+03 0.  0.
         22    1    5    5    0    0 -0.13620440356E+03  0.33286318971E+03 -0.48691746600E+03  0.60534135932E+03  0.00000000000E+00 0. -1.
         22    1    5    5    0    0  0.18179327398E+03 -0.27947908786E+03  0.26404242825E+01  0.33341314740E+03  0.00000000000E+00 0. -1.
          5    1    4    4  502    0 -0.40227825396E+02  0.10042235431E+02 -0.28669834951E+02  0.50627797351E+02  0.47000000000E+01 0. -1.
         -5    1    4    4    0  502 -0.53610450221E+01 -0.63426337280E+02  0.77255648461E+02  0.10021060964E+03  0.47000000000E+01 0. -1.
<mgrwt>
<rscale>  0 0.99869208E+03</rscale>
<asrwt>0</asrwt>
<pdfrwt beam="1">  1        2 0.50300130E-01 0.99869208E+03</pdfrwt>
<pdfrwt beam="2">  1       -2 0.11732955E+00 0.99869208E+03</pdfrwt>
<totfact> 0.65479436E+01</totfact>
</mgrwt>
</event>
<event>
 9    1  0.4370149E-036  0.1000396E+04  0.7818608E-02  0.8680661E-01
          1   -1    0    0  501    0  0.00000000000E+00  0.00000000000E+00  0.58083722529E+03  0.58083722529E+03  0.00000000000E+00 0.  1.
         -1   -1    0    0    0  501 -0.00000000000E+00 -0.00000000000E+00 -0.43075432181E+03  0.43075432181E+03  0.00000000000E+00 0.  1.
         36    2    1    2    0    0  0.00000000000E+00  0.30198066270E-13  0.15008290348E+03  0.10115915471E+04  0.10003962116E+04 0.  0.
         25    2    3    3    0    0 -0.77021109988E+02 -0.12842534731E+02 -0.90332750595E+02  0.17246490078E+03  0.12444659132E+03 0.  0.
         35    2    3    3    0    0  0.77021109988E+02  0.12842534731E+02  0.24041565408E+03  0.83912664632E+03  0.80014789867E+03 0.  0.
         22    1    5    5    0    0  0.21044109135E+03 -0.35047709423E+03  0.64029679274E+02  0.41378671600E+03  0.00000000000E+00 0. -1.
         22    1    5    5    0    0 -0.13341998136E+03  0.36331962896E+03  0.17638597480E+03  0.42533993032E+03  0.00000000000E+00 0. -1.
          5    1    4    4  502    0 -0.48971649247E+02 -0.15353002939E+02 -0.12042143660E+03  0.13098606613E+03  0.47000000000E+01 0. -1.
         -5    1    4    4    0  502 -0.28049460741E+02  0.25104682086E+01  0.30088686003E+02  0.41478834649E+02  0.47000000000E+01 0. -1.
<mgrwt>
<rscale>  0 0.10003962E+04</rscale>
<asrwt>0</asrwt>
<pdfrwt beam="1">  1        1 0.89359574E-01 0.10003962E+04</pdfrwt>
<pdfrwt beam="2">  1       -1 0.66269895E-01 0.10003962E+04</pdfrwt>
<totfact> 0.96641359E+01</totfact>
</mgrwt>
</event>
<event>
 9    1  0.4370149E-036  0.9995408E+03  0.7818608E-02  0.8681475E-01
         -1   -1    0    0    0  501 -0.00000000000E+00  0.00000000000E+00  0.16810492419E+03  0.16810492419E+03  0.00000000000E+00 0. -1.
          1   -1    0    0  501    0  0.00000000000E+00 -0.00000000000E+00 -0.14858008910E+04  0.14858008910E+04  0.00000000000E+00 0. -1.
         36    2    1    2    0    0  0.00000000000E+00  0.00000000000E+00 -0.13176959668E+04  0.16539058152E+04  0.99954078685E+03 0.  0.
         25    2    3    3    0    0 -0.79289022704E+02 -0.10270991238E+03 -0.16691447223E+03  0.24600737768E+03  0.12578995830E+03 0.  0.
         35    2    3    3    0    0  0.79289022704E+02  0.10270991238E+03 -0.11507814946E+04  0.14078984375E+04  0.80065216347E+03 0.  0.
         22    1    5    5    0    0 -0.11571442720E+03 -0.38420180205E+02  0.85167781489E+02  0.14872622470E+03  0.00000000000E+00 0.  1.
         22    1    5    5    0    0  0.19500344990E+03  0.14113009258E+03 -0.12359492761E+04  0.12591722128E+04  0.00000000000E+00 0.  1.
          5    1    4    4  502    0 -0.83569959476E+02 -0.51866342819E+02 -0.35022413207E+02  0.10451179393E+03  0.47000000000E+01 0.  1.
         -5    1    4    4    0  502  0.42809367724E+01 -0.50843569559E+02 -0.13189205902E+03  0.14149558374E+03  0.47000000000E+01 0.  1.
<mgrwt>
<rscale>  0 0.99954079E+03</rscale>
<asrwt>0</asrwt>
<pdfrwt beam="1">  1        1 0.22858476E+00 0.99954079E+03</pdfrwt>
<pdfrwt beam="2">  1       -1 0.25862295E-01 0.99954079E+03</pdfrwt>
<totfact> 0.95554398E+01</totfact>
</mgrwt>
</event>
<event>
 9    1  0.4370149E-036  0.9994718E+03  0.7818608E-02  0.8681541E-01
          1   -1    0    0  501    0  0.00000000000E+00  0.00000000000E+00  0.89824056454E+03  0.89824056454E+03  0.00000000000E+00 0. -1.
         -1   -1    0    0    0  501 -0.00000000000E+00 -0.00000000000E+00 -0.27802792051E+03  0.27802792051E+03  0.00000000000E+00 0. -1.
         36    2    1    2    0    0  0.00000000000E+00  0.00000000000E+00  0.62021264403E+03  0.11762684851E+04  0.99947177305E+03 0.  0.
         25    2    3    3    0    0 -0.12166917975E+03  0.68299716835E+02  0.97049118363E+02  0.21128425047E+03  0.12551598504E+03 0.  0.
         35    2    3    3    0    0  0.12166917975E+03 -0.68299716835E+02  0.52316352566E+03  0.96498423459E+03  0.79876545857E+03 0.  0.
         22    1    5    5    0    0  0.88627470470E+02 -0.43269894110E+03  0.32912182590E+03  0.55082154863E+03  0.00000000000E+00 0.  1.
         22    1    5    5    0    0  0.33041709278E+02  0.36439922426E+03  0.19404169976E+03  0.41416268596E+03  0.00000000000E+00 0.  1.
          5    1    4    4  502    0 -0.13191085786E+03  0.49799042228E+02  0.34702727204E+02  0.14528175489E+03  0.47000000000E+01 0.  1.
         -5    1    4    4    0  502  0.10241678117E+02  0.18500674607E+02  0.62346391159E+02  0.66002495575E+02  0.47000000000E+01 0.  1.
<mgrwt>
<rscale>  0 0.99947177E+03</rscale>
<asrwt>0</asrwt>
<pdfrwt beam="1">  1        1 0.13819085E+00 0.99947177E+03</pdfrwt>
<pdfrwt beam="2">  1       -1 0.42773527E-01 0.99947177E+03</pdfrwt>
<totfact> 0.11092512E+02</totfact>
</mgrwt>
</event>
<event>
 9    1  0.4370149E-036  0.1000487E+04  0.7818608E-02  0.8680574E-01
         -3   -1    0    0    0  501 -0.00000000000E+00  0.00000000000E+00  0.30698159674E+03  0.30698159674E+03  0.00000000000E+00 0. -1.
          3   -1    0    0  501    0  0.00000000000E+00 -0.00000000000E+00 -0.81517465507E+03  0.81517465507E+03  0.00000000000E+00 0. -1.
         36    2    1    2    0    0 -0.14210854715E-13  0.14210854715E-13 -0.50819305833E+03  0.11221562518E+04  0.10004871158E+04 0.  0.
         25    2    3    3    0    0  0.10735989668E+03 -0.78570947131E+02 -0.14341089374E+03  0.23231332759E+03  0.12531263538E+03 0.  0.
         35    2    3    3    0    0 -0.10735989668E+03  0.78570947131E+02 -0.36478216460E+03  0.88984292422E+03  0.80065901670E+03 0.  0.
         22    1    5    5    0    0 -0.30733981359E+03 -0.12593191602E+03 -0.47812989712E+03  0.58217248905E+03  0.00000000000E+00 0.  1.
         22    1    5    5    0    0  0.19997991691E+03  0.20450286315E+03  0.11334773253E+03  0.30767043516E+03  0.00000000000E+00 0.  1.
          5    1    4    4  502    0  0.31342531579E+02 -0.94450597047E+02 -0.52350005915E+02  0.11254280380E+03  0.47000000000E+01 0. -1.
         -5    1    4    4    0  502  0.76017365100E+02  0.15879649916E+02 -0.91060887820E+02  0.11977052379E+03  0.47000000000E+01 0. -1.
<mgrwt>
<rscale>  0 0.10004871E+04</rscale>
<asrwt>0</asrwt>
<pdfrwt beam="1">  1        3 0.12541149E+00 0.10004871E+04</pdfrwt>
<pdfrwt beam="2">  1       -3 0.47227938E-01 0.10004871E+04</pdfrwt>
<totfact> 0.94974808E+00</totfact>
</mgrwt>
</event>
<event>
 9    1  0.4370149E-036  0.1000060E+04  0.7818608E-02  0.8680981E-01
          2   -1    0    0  501    0  0.00000000000E+00  0.00000000000E+00  0.25356510495E+04  0.25356510495E+04  0.00000000000E+00 0.  1.
         -2   -1    0    0    0  501 -0.00000000000E+00 -0.00000000000E+00 -0.98605891436E+02  0.98605891436E+02  0.00000000000E+00 0.  1.
         36    2    1    2    0    0  0.00000000000E+00  0.71054273576E-14  0.24370451581E+04  0.26342569410E+04  0.10000602624E+04 0.  0.
         25    2    3    3    0    0  0.15288567582E+02 -0.37789595554E+02  0.82135265576E+03  0.83116156529E+03  0.12061330218E+03 0.  0.
         35    2    3    3    0    0 -0.15288567582E+02  0.37789595554E+02  0.16156925023E+04  0.18030953757E+04  0.79939281824E+03 0.  0.
         22    1    5    5    0    0 -0.19674225526E+02  0.15629332078E+03 -0.23804630883E+02  0.15931521497E+03  0.00000000000E+00 0.  1.
         22    1    5    5    0    0  0.43856579434E+01 -0.11850372523E+03  0.16394971332E+04  0.16437801607E+04  0.00000000000E+00 0.  1.
          5    1    4    4  502    0  0.55740241196E+02  0.17398805669E+02  0.35850272400E+03  0.36325746523E+03  0.47000000000E+01 0. -1.
         -5    1    4    4    0  502 -0.40451673614E+02 -0.55188401223E+02  0.46284993176E+03  0.46790410006E+03  0.47000000000E+01 0. -1.
<mgrwt>
<rscale>  0 0.10000603E+04</rscale>
<asrwt>0</asrwt>
<pdfrwt beam="1">  1        2 0.39010011E+00 0.10000603E+04</pdfrwt>
<pdfrwt beam="2">  1       -2 0.15170139E-01 0.10000603E+04</pdfrwt>
<totfact> 0.12996662E+02</totfact>
</mgrwt>
</event>
<event>
 9    1  0.4370149E-036  0.1001778E+04  0.7818608E-02  0.8679346E-01
          2   -1    0    0  501    0  0.00000000000E+00  0.00000000000E+00  0.31563600444E+03  0.31563600444E+03  0.00000000000E+00 0. -1.
         -2   -1    0    0    0  501 -0.00000000000E+00 -0.00000000000E+00 -0.79487128516E+03  0.79487128516E+03  0.00000000000E+00 0. -1.
         36    2    1    2    0    0 -0.14210854715E-13  0.00000000000E+00 -0.47923528073E+03  0.11105072896E+04  0.10017784116E+04 0.  0.
         25    2    3    3    0    0  0.11681053160E+03  0.81898230571E+02 -0.94927087888E+02  0.21076699176E+03  0.12271736771E+03 0.  0.
         35    2    3    3    0    0 -0.11681053160E+03 -0.81898230571E+02 -0.38430819284E+03  0.89974029784E+03  0.80092933272E+03 0.  0.
         22    1    5    5    0    0  0.84278142192E+02 -0.15124226087E+03  0.20786266245E+03  0.27052525421E+03  0.00000000000E+00 0.  1.
         22    1    5    5    0    0 -0.20108867379E+03  0.69344030300E+02 -0.59217085529E+03  0.62921504363E+03  0.00000000000E+00 0.  1.
          5    1    4    4  502    0 -0.10998324435E+01  0.64308489834E+02 -0.12328772192E+02  0.65657292968E+02  0.47000000000E+01 0.  1.
         -5    1    4    4    0  502  0.11791036405E+03  0.17589740738E+02 -0.82598315696E+02  0.14510969880E+03  0.47000000000E+01 0.  1.
<mgrwt>
<rscale>  0 0.10017784E+04</rscale>
<asrwt>0</asrwt>
<pdfrwt beam="1">  1        2 0.48559385E-01 0.10017784E+04</pdfrwt>
<pdfrwt beam="2">  1       -2 0.12228789E+00 0.10017784E+04</pdfrwt>
<totfact> 0.61129176E+01</totfact>
</mgrwt>
</event>
<event>
 9    1  0.4370149E-036  0.1000240E+04  0.7818608E-02  0.8680809E-01
         -2   -1    0    0    0  501 -0.00000000000E+00  0.00000000000E+00  0.31526185854E+03  0.31526185854E+03  0.00000000000E+00 0. -1.
          2   -1    0    0  501    0  0.00000000000E+00 -0.00000000000E+00 -0.79337241409E+03  0.79337241409E+03  0.00000000000E+00 0. -1.
         36    2    1    2    0    0 -0.14210854715E-13  0.28421709430E-13 -0.47811055555E+03  0.11086342726E+04  0.10002400947E+04 0.  0.
         25    2    3    3    0    0  0.12072315341E+02  0.10017770909E+03  0.19390081451E+02  0.16161506587E+03  0.12474830685E+03 0.  0.
         35    2    3    3    0    0 -0.12072315341E+02 -0.10017770909E+03 -0.49750063700E+03  0.94701920676E+03  0.79947306393E+03 0.  0.
         22    1    5    5    0    0 -0.24049787369E+03  0.22913444518E+03 -0.42552530504E+03  0.53982738578E+03  0.00000000000E+00 0. -1.
         22    1    5    5    0    0  0.22842555835E+03 -0.32931215427E+03 -0.71975331969E+02  0.40719182097E+03  0.00000000000E+00 0. -1.
          5    1    4    4  502    0 -0.38079020398E+02  0.94922385995E+02 -0.10315031950E+02  0.10290170573E+03  0.47000000000E+01 0. -1.
         -5    1    4    4    0  502  0.50151335739E+02  0.52553230915E+01  0.29705113401E+02  0.58713360143E+02  0.47000000000E+01 0. -1.
<mgrwt>
<rscale>  0 0.10002401E+04</rscale>
<asrwt>0</asrwt>
<pdfrwt beam="1">  1        2 0.12205729E+00 0.10002401E+04</pdfrwt>
<pdfrwt beam="2">  1       -2 0.48501824E-01 0.10002401E+04</pdfrwt>
<totfact> 0.16972896E+02</totfact>
</mgrwt>
</event>
<event>
 9    1  0.4370149E-036  0.1000564E+04  0.7818608E-02  0.8680501E-01
          2   -1    0    0  501    0  0.00000000000E+00  0.00000000000E+00  0.20468493335E+04  0.20468493335E+04  0.00000000000E+00 0. -1.
         -2   -1    0    0    0  501 -0.00000000000E+00 -0.00000000000E+00 -0.12227674323E+03  0.12227674323E+03  0.00000000000E+00 0. -1.
         36    2    1    2    0    0  0.00000000000E+00  0.00000000000E+00  0.19245725903E+04  0.21691260768E+04  0.10005639817E+04 0.  0.
         25    2    3    3    0    0  0.70363116916E+02  0.10401021334E+03  0.22329258610E+03  0.28485480359E+03  0.12455355242E+03 0.  0.
         35    2    3    3    0    0 -0.70363116916E+02 -0.10401021334E+03  0.17012800042E+04  0.18842712732E+04  0.80022214758E+03 0.  0.
         22    1    5    5    0    0  0.23579163741E+03 -0.46903175568E+02  0.11281687536E+03  0.26556590805E+03  0.00000000000E+00 0.  1.
         22    1    5    5    0    0 -0.30615475433E+03 -0.57107037773E+02  0.15884631289E+04  0.16187053651E+04  0.00000000000E+00 0.  1.
          5    1    4    4  502    0 -0.46663482458E+01  0.92153962229E+02  0.16455615279E+03  0.18871922261E+03  0.47000000000E+01 0.  1.
         -5    1    4    4    0  502  0.75029465162E+02  0.11856251112E+02  0.58736433305E+02  0.96135580980E+02  0.47000000000E+01 0.  1.
<mgrwt>
<rscale>  0 0.10005640E+04</rscale>
<asrwt>0</asrwt>
<pdfrwt beam="1">  1        2 0.31489987E+00 0.10005640E+04</pdfrwt>
<pdfrwt beam="2">  1       -2 0.18811808E-01 0.10005640E+04</pdfrwt>
<totfact> 0.17517508E+02</totfact>
</mgrwt>
</event>
<event>
 9    1  0.4370149E-036  0.9997539E+03  0.7818608E-02  0.8681272E-01
          2   -1    0    0  501    0  0.00000000000E+00  0.00000000000E+00  0.20653143921E+04  0.20653143921E+04  0.00000000000E+00 0. -1.
         -2   -1    0    0    0  501 -0.00000000000E+00 -0.00000000000E+00 -0.12098738293E+03  0.12098738293E+03  0.00000000000E+00 0. -1.
         36    2    1    2    0    0  0.00000000000E+00 -0.14210854715E-13  0.19443270091E+04  0.21863017750E+04  0.99975393618E+03 0.  0.
         25    2    3    3    0    0  0.64654499124E+02 -0.75945466793E+02  0.14967890648E+03  0.21930628687E+03  0.12547332080E+03 0.  0.
         35    2    3    3    0    0 -0.64654499124E+02  0.75945466793E+02  0.17946481027E+04  0.19669954881E+04  0.79897529359E+03 0.  0.
         22    1    5    5    0    0 -0.23726059806E+03 -0.28520305585E+03  0.11482894233E+04  0.12067319396E+04  0.00000000000E+00 0. -1.
         22    1    5    5    0    0  0.17260609893E+03  0.36114852264E+03  0.64635867935E+03  0.76026354849E+03  0.00000000000E+00 0. -1.
          5    1    4    4  502    0 -0.30896555431E+02 -0.52852568048E+02  0.49441217234E+02  0.78832195506E+02  0.47000000000E+01 0.  1.
         -5    1    4    4    0  502  0.95551054555E+02 -0.23092898746E+02  0.10023768925E+03  0.14047409136E+03  0.47000000000E+01 0.  1.
<mgrwt>
<rscale>  0 0.99975394E+03</rscale>
<asrwt>0</asrwt>
<pdfrwt beam="1">  1        2 0.31774065E+00 0.99975394E+03</pdfrwt>
<pdfrwt beam="2">  1       -2 0.18613445E-01 0.99975394E+03</pdfrwt>
<totfact> 0.17410680E+02</totfact>
</mgrwt>
</event>
<event>
 9    1  0.4370149E-036  0.9996195E+03  0.7818608E-02  0.8681400E-01
         -2   -1    0    0    0  501 -0.00000000000E+00  0.00000000000E+00  0.16291141416E+03  0.16291141416E+03  0.00000000000E+00 0. -1.
          2   -1    0    0  501    0  0.00000000000E+00 -0.00000000000E+00 -0.15334086927E+04  0.15334086927E+04  0.00000000000E+00 0. -1.
         36    2    1    2    0    0  0.17763568394E-13 -0.14210854715E-13 -0.13704972786E+04  0.16963201069E+04  0.99961948484E+03 0.  0.
         25    2    3    3    0    0 -0.64846382675E+01  0.11937872389E+03 -0.13598523061E+03  0.22017555806E+03  0.12526756631E+03 0.  0.
         35    2    3    3    0    0  0.64846382675E+01 -0.11937872389E+03 -0.12345120480E+04  0.14761445488E+04  0.80043076044E+03 0.  0.
         22    1    5    5    0    0 -0.21147505650E+03  0.53661333155E+02 -0.78593472126E+01  0.21831859182E+03  0.00000000000E+00 0.  1.
         22    1    5    5    0    0  0.21795969477E+03 -0.17304005704E+03 -0.12266527008E+04  0.12578259570E+04  0.00000000000E+00 0.  1.
          5    1    4    4  502    0  0.17556410155E+02  0.53102831004E+02 -0.13853350150E+03  0.14947160010E+03  0.47000000000E+01 0.  1.
         -5    1    4    4    0  502 -0.24041048422E+02  0.66275892884E+02  0.25482708830E+01  0.70703957960E+02  0.47000000000E+01 0.  1.
<mgrwt>
<rscale>  0 0.99961948E+03</rscale>
<asrwt>0</asrwt>
<pdfrwt beam="1">  1        2 0.23590903E+00 0.99961948E+03</pdfrwt>
<pdfrwt beam="2">  1       -2 0.25063295E-01 0.99961948E+03</pdfrwt>
<totfact> 0.20715250E+02</totfact>
</mgrwt>
</event>
<event>
 9    1  0.4370149E-036  0.1000553E+04  0.7818608E-02  0.8680512E-01
          2   -1    0    0  501    0  0.00000000000E+00  0.00000000000E+00  0.38998042906E+03  0.38998042906E+03  0.00000000000E+00 0. -1.
         -2   -1    0    0    0  501 -0.00000000000E+00 -0.00000000000E+00 -0.64176680331E+03  0.64176680331E+03  0.00000000000E+00 0. -1.
         36    2    1    2    0    0  0.42632564146E-13  0.00000000000E+00 -0.25178637424E+03  0.10317472324E+04  0.10005528338E+04 0.  0.
         25    2    3    3    0    0  0.32630727430E+02  0.10686597710E+03 -0.13422560185E+03  0.21473804613E+03  0.12494324644E+03 0.  0.
         35    2    3    3    0    0 -0.32630727430E+02 -0.10686597710E+03 -0.11756077239E+03  0.81700918624E+03  0.80074863332E+03 0.  0.
         22    1    5    5    0    0  0.36906980547E+03 -0.69947977422E+02  0.52392609894E+02  0.37927592387E+03  0.00000000000E+00 0.  1.
         22    1    5    5    0    0 -0.40170053290E+03 -0.36917999680E+02 -0.16995338229E+03  0.43773326237E+03  0.00000000000E+00 0.  1.
          5    1    4    4  502    0  0.66519642780E+01  0.72055291170E+01 -0.10774665475E+03  0.10829404364E+03  0.47000000000E+01 0. -1.
         -5    1    4    4    0  502  0.25978763152E+02  0.99660447985E+02 -0.26478947106E+02  0.10644400250E+03  0.47000000000E+01 0. -1.
<mgrwt>
<rscale>  0 0.10005528E+04</rscale>
<asrwt>0</asrwt>
<pdfrwt beam="1">  1        2 0.59996990E-01 0.10005528E+04</pdfrwt>
<pdfrwt beam="2">  1       -2 0.98733353E-01 0.10005528E+04</pdfrwt>
<totfact> 0.82828470E+01</totfact>
</mgrwt>
</event>
<event>
 9    1  0.4370149E-036  0.1001623E+04  0.7818608E-02  0.8679494E-01
          2   -1    0    0  501    0  0.00000000000E+00  0.00000000000E+00  0.23665396163E+04  0.23665396163E+04  0.00000000000E+00 0. -1.
         -2   -1    0    0    0  501 -0.00000000000E+00 -0.00000000000E+00 -0.10598260492E+03  0.10598260492E+03  0.00000000000E+00 0. -1.
         36    2    1    2    0    0  0.28421709430E-13  0.00000000000E+00  0.22605570113E+04  0.24725222212E+04  0.10016227497E+04 0.  0.
         25    2    3    3    0    0 -0.99022016414E+02 -0.54074796254E+01  0.62302809355E+03  0.64318366846E+03  0.12524625921E+03 0.  0.
         35    2    3    3    0    0  0.99022016414E+02  0.54074796254E+01  0.16375289178E+04  0.18293385527E+04  0.80940965112E+03 0.  0.
         22    1    5    5    0    0 -0.32876030018E+03 -0.22602876663E+02  0.39207918009E+03  0.51217214730E+03  0.00000000000E+00 0.  1.
         22    1    5    5    0    0  0.42778231660E+03  0.28010356288E+02  0.12454497377E+04  0.13171664054E+04  0.00000000000E+00 0.  1.
          5    1    4    4  502    0 -0.44187257479E+02 -0.52617596691E+02  0.15553959171E+03  0.17010520214E+03  0.47000000000E+01 0. -1.
         -5    1    4    4    0  502 -0.54834758935E+02  0.47210117066E+02  0.46748850185E+03  0.47307846632E+03  0.47000000000E+01 0. -1.
<mgrwt>
<rscale>  0 0.10016227E+04</rscale>
<asrwt>0</asrwt>
<pdfrwt beam="1">  1        2 0.36408298E+00 0.10016227E+04</pdfrwt>
<pdfrwt beam="2">  1       -2 0.16305018E-01 0.10016227E+04</pdfrwt>
<totfact> 0.14558388E+02</totfact>
</mgrwt>
</event>
<event>
 9    1  0.4370149E-036  0.1000559E+04  0.7818608E-02  0.8680505E-01
          2   -1    0    0  501    0  0.00000000000E+00  0.00000000000E+00  0.33951505945E+04  0.33951505945E+04  0.00000000000E+00 0.  1.
         -2   -1    0    0    0  501 -0.00000000000E+00 -0.00000000000E+00 -0.73716841673E+02  0.73716841673E+02  0.00000000000E+00 0.  1.
         36    2    1    2    0    0  0.21316282073E-13 -0.71054273576E-14  0.33214337528E+04  0.34688674361E+04  0.10005594012E+04 0.  0.
         25    2    3    3    0    0  0.38554226997E+02  0.38289565104E+02  0.17339328875E+03  0.22054569797E+03  0.12499061203E+03 0.  0.
         35    2    3    3    0    0 -0.38554226997E+02 -0.38289565104E+02  0.31480404640E+04  0.32483217382E+04  0.79905120748E+03 0.  0.
         22    1    5    5    0    0  0.36616362563E+03  0.31361206452E+02  0.18751922969E+04  0.19108651120E+04  0.00000000000E+00 0. -1.
         22    1    5    5    0    0 -0.40471785263E+03 -0.69650771556E+02  0.12728481672E+04  0.13374566262E+04  0.00000000000E+00 0. -1.
          5    1    4    4  502    0  0.34981383086E+01  0.80300729998E+02  0.11501651469E+03  0.14039705432E+03  0.47000000000E+01 0. -1.
         -5    1    4    4    0  502  0.35056088688E+02 -0.42011164894E+02  0.58376774064E+02  0.80148643657E+02  0.47000000000E+01 0. -1.
<mgrwt>
<rscale>  0 0.10005594E+04</rscale>
<asrwt>0</asrwt>
<pdfrwt beam="1">  1        2 0.52233074E+00 0.10005594E+04</pdfrwt>
<pdfrwt beam="2">  1       -2 0.11341055E-01 0.10005594E+04</pdfrwt>
<totfact> 0.56269966E+01</totfact>
</mgrwt>
</event>
<event>
 9    1  0.4370149E-036  0.9999902E+03  0.7818608E-02  0.8681047E-01
         -2   -1    0    0    0  501 -0.00000000000E+00  0.00000000000E+00  0.41458632280E+03  0.41458632280E+03  0.00000000000E+00 0. -1.
          2   -1    0    0  501    0  0.00000000000E+00 -0.00000000000E+00 -0.60299885678E+03  0.60299885678E+03  0.00000000000E+00 0. -1.
         36    2    1    2    0    0  0.00000000000E+00 -0.28421709430E-13 -0.18841253398E+03  0.10175851796E+04  0.99999015732E+03 0.  0.
         25    2    3    3    0    0 -0.78018965247E+02  0.10340142673E+03 -0.93353871872E+02  0.20253864373E+03  0.12461196902E+03 0.  0.
         35    2    3    3    0    0  0.78018965247E+02 -0.10340142673E+03 -0.95058662108E+02  0.81504653584E+03  0.79905312237E+03 0.  0.
         22    1    5    5    0    0 -0.12632376454E+03  0.20507496998E+03 -0.30576748531E+03  0.38923924760E+03  0.00000000000E+00 0.  1.
         22    1    5    5    0    0  0.20434272979E+03 -0.30847639671E+03  0.21070882320E+03  0.42580728824E+03  0.00000000000E+00 0.  1.
          5    1    4    4  502    0  0.17867125675E+02 -0.15739989562E+02 -0.25366719168E+02  0.35107576000E+02  0.47000000000E+01 0.  1.
         -5    1    4    4    0  502 -0.95886090922E+02  0.11914141629E+03 -0.67987152704E+02  0.16743106773E+03  0.47000000000E+01 0.  1.
<mgrwt>
<rscale>  0 0.99999016E+03</rscale>
<asrwt>0</asrwt>
<pdfrwt beam="1">  1        2 0.92769054E-01 0.99999016E+03</pdfrwt>
<pdfrwt beam="2">  1       -2 0.63782512E-01 0.99999016E+03</pdfrwt>
<totfact> 0.13561560E+02</totfact>
</mgrwt>
</event>
<event>
 9    1  0.4370149E-036  0.1000080E+04  0.7818608E-02  0.8680961E-01
          2   -1    0    0  501    0  0.00000000000E+00  0.00000000000E+00  0.11799635199E+04  0.11799635199E+04  0.00000000000E+00 0.  1.
         -2   -1    0    0    0  501 -0.00000000000E+00 -0.00000000000E+00 -0.21190505377E+03  0.21190505377E+03  0.00000000000E+00 0.  1.
         36    2    1    2    0    0  0.00000000000E+00  0.00000000000E+00  0.96805846613E+03  0.13918685737E+04  0.10000804630E+04 0.  0.
         25    2    3    3    0    0 -0.68270792356E+02 -0.89634305306E+02  0.65937658676E+02  0.18093555822E+03  0.12527845633E+03 0.  0.
         35    2    3    3    0    0  0.68270792356E+02  0.89634305306E+02  0.90212080745E+03  0.12109330154E+04  0.79990099818E+03 0.  0.
         22    1    5    5    0    0  0.12293488304E+03  0.41646433612E+03  0.31393660660E+03  0.53582807102E+03  0.00000000000E+00 0.  1.
         22    1    5    5    0    0 -0.54664090688E+02 -0.32683003082E+03  0.58818420085E+03  0.67510494442E+03  0.00000000000E+00 0.  1.
          5    1    4    4  502    0 -0.96093729684E+02 -0.94610427598E+02  0.36342088807E+02  0.13974253223E+03  0.47000000000E+01 0. -1.
         -5    1    4    4    0  502  0.27822937328E+02  0.49761222920E+01  0.29595569870E+02  0.41193025994E+02  0.47000000000E+01 0. -1.
<mgrwt>
<rscale>  0 0.10000805E+04</rscale>
<asrwt>0</asrwt>
<pdfrwt beam="1">  1        2 0.18153284E+00 0.10000805E+04</pdfrwt>
<pdfrwt beam="2">  1       -2 0.32600778E-01 0.10000805E+04</pdfrwt>
<totfact> 0.20575845E+02</totfact>
</mgrwt>
</event>
<event>
 9    1  0.4370149E-036  0.9976034E+03  0.7818608E-02  0.8683324E-01
          1   -1    0    0  501    0  0.00000000000E+00  0.00000000000E+00  0.11040596495E+04  0.11040596495E+04  0.00000000000E+00 0. -1.
         -1   -1    0    0    0  501 -0.00000000000E+00 -0.00000000000E+00 -0.22535299961E+03  0.22535299961E+03  0.00000000000E+00 0. -1.
         36    2    1    2    0    0  0.00000000000E+00  0.00000000000E+00  0.87870664984E+03  0.13294126491E+04  0.99760343576E+03 0.  0.
         25    2    3    3    0    0  0.56169966325E+02 -0.93920251475E+02  0.54789247646E+02  0.17593995132E+03  0.12639986573E+03 0.  0.
         35    2    3    3    0    0 -0.56169966325E+02  0.93920251475E+02  0.82391740219E+03  0.11534726978E+04  0.79980203805E+03 0.  0.
         22    1    5    5    0    0 -0.10980427088E+03 -0.33802347758E+03  0.48777388206E+03  0.60352316386E+03  0.00000000000E+00 0.  1.
         22    1    5    5    0    0  0.53634304556E+02  0.43194372906E+03  0.33614352014E+03  0.54994953389E+03  0.00000000000E+00 0.  1.
          5    1    4    4  502    0  0.32460124955E+02 -0.10684538305E+02 -0.36387909347E+02  0.50139695028E+02  0.47000000000E+01 0. -1.
         -5    1    4    4    0  502  0.23709841370E+02 -0.83235713170E+02  0.91177156993E+02  0.12580025629E+03  0.47000000000E+01 0. -1.
<mgrwt>
<rscale>  0 0.99760344E+03</rscale>
<asrwt>0</asrwt>
<pdfrwt beam="1">  1        1 0.16985533E+00 0.99760344E+03</pdfrwt>
<pdfrwt beam="2">  1       -1 0.34669693E-01 0.99760344E+03</pdfrwt>
<totfact> 0.11033065E+02</totfact>
</mgrwt>
</event>
<event>
 9    1  0.4370149E-036  0.9994917E+03  0.7818608E-02  0.8681522E-01
          1   -1    0    0  501    0  0.00000000000E+00  0.00000000000E+00  0.13612225994E+04  0.13612225994E+04  0.00000000000E+00 0. -1.
         -1   -1    0    0    0  501 -0.00000000000E+00 -0.00000000000E+00 -0.18347176203E+03  0.18347176203E+03  0.00000000000E+00 0. -1.
         36    2    1    2    0    0  0.00000000000E+00  0.14210854715E-13  0.11777508373E+04  0.15446943614E+04  0.99949168844E+03 0.  0.
         25    2    3    3    0    0 -0.99876218544E+02  0.44613891110E+02  0.88618195702E+02  0.18832157642E+03  0.12508466423E+03 0.  0.
         35    2    3    3    0    0  0.99876218544E+02 -0.44613891110E+02  0.10891326416E+04  0.13563727850E+04  0.80098162427E+03 0.  0.
         22    1    5    5    0    0 -0.30305285014E+03  0.14841809456E+03  0.30996816825E+03  0.45820216728E+03  0.00000000000E+00 0. -1.
         22    1    5    5    0    0  0.40292906869E+03 -0.19303198567E+03  0.77916447337E+03  0.89817061767E+03  0.00000000000E+00 0. -1.
          5    1    4    4  502    0 -0.23642660852E+02 -0.29648873557E+02 -0.13719855739E+02  0.40599945281E+02  0.47000000000E+01 0. -1.
         -5    1    4    4    0  502 -0.76233557692E+02  0.74262764666E+02  0.10233805144E+03  0.14772163114E+03  0.47000000000E+01 0. -1.
<mgrwt>
<rscale>  0 0.99949169E+03</rscale>
<asrwt>0</asrwt>
<pdfrwt beam="1">  1        1 0.20941886E+00 0.99949169E+03</pdfrwt>
<pdfrwt beam="2">  1       -1 0.28226426E-01 0.99949169E+03</pdfrwt>
<totfact> 0.10124055E+02</totfact>
</mgrwt>
</event>
<event>
 9    1  0.4370149E-036  0.1001099E+04  0.7818608E-02  0.8679992E-01
          2   -1    0    0  501    0  0.00000000000E+00  0.00000000000E+00  0.15901991582E+04  0.15901991582E+04  0.00000000000E+00 0.  1.
         -2   -1    0    0    0  501 -0.00000000000E+00 -0.00000000000E+00 -0.15755880354E+03  0.15755880354E+03  0.00000000000E+00 0.  1.
         36    2    1    2    0    0  0.00000000000E+00  0.14210854715E-13  0.14326403547E+04  0.17477579618E+04  0.10010991495E+04 0.  0.
         25    2    3    3    0    0  0.12911513600E+03 -0.32621258080E+02  0.34423737155E+03  0.38960965027E+03  0.12474552814E+03 0.  0.
         35    2    3    3    0    0 -0.12911513600E+03  0.32621258080E+02  0.10884029831E+04  0.13581483115E+04  0.80138063210E+03 0.  0.
         22    1    5    5    0    0  0.23769298824E+03 -0.21631087068E+03  0.24068829817E+03  0.40152111565E+03  0.00000000000E+00 0.  1.
         22    1    5    5    0    0 -0.36680812424E+03  0.24893212876E+03  0.84771468497E+03  0.95662719586E+03  0.00000000000E+00 0.  1.
          5    1    4    4  502    0  0.82068430385E+02  0.40315144222E+02  0.13586689575E+03  0.16383663046E+03  0.47000000000E+01 0. -1.
         -5    1    4    4    0  502  0.47046705610E+02 -0.72936402302E+02  0.20837047580E+03  0.22577301981E+03  0.47000000000E+01 0. -1.
<mgrwt>
<rscale>  0 0.10010991E+04</rscale>
<asrwt>0</asrwt>
<pdfrwt beam="1">  1        2 0.24464601E+00 0.10010991E+04</pdfrwt>
<pdfrwt beam="2">  1       -2 0.24239817E-01 0.10010991E+04</pdfrwt>
<totfact> 0.20413209E+02</totfact>
</mgrwt>
</event>
<event>
 9    1  0.4370149E-036  0.1003693E+04  0.7818608E-02  0.8677529E-01
         -2   -1    0    0    0  501 -0.00000000000E+00  0.00000000000E+00  0.10467806810E+03  0.10467806810E+03  0.00000000000E+00 0. -1.
          2   -1    0    0  501    0  0.00000000000E+00 -0.00000000000E+00 -0.24059467619E+04  0.24059467619E+04  0.00000000000E+00 0. -1.
         36    2    1    2    0    0 -0.14210854715E-13  0.00000000000E+00 -0.23012686938E+04  0.25106248300E+04  0.10036928992E+04 0.  0.
         25    2    3    3    0    0  0.11678504434E+03 -0.73921604051E+02 -0.53883555847E+03  0.57020636752E+03  0.12525331276E+03 0.  0.
         35    2    3    3    0    0 -0.11678504434E+03  0.73921604051E+02 -0.17624331353E+04  0.19404184625E+04  0.79996881371E+03 0.  0.
         22    1    5    5    0    0  0.16541383840E+03 -0.10142656515E+03 -0.56014575359E+02  0.20195721998E+03  0.00000000000E+00 0. -1.
         22    1    5    5    0    0 -0.28219888274E+03  0.17534816920E+03 -0.17064185600E+04  0.17384612425E+04  0.00000000000E+00 0. -1.
          5    1    4    4  502    0  0.68730652541E+02  0.11556409243E+02 -0.35492348544E+03  0.36173225417E+03  0.47000000000E+01 0. -1.
         -5    1    4    4    0  502  0.48054391802E+02 -0.85478013294E+02 -0.18391207303E+03  0.20847411335E+03  0.47000000000E+01 0. -1.
<mgrwt>
<rscale>  0 0.10036929E+04</rscale>
<asrwt>0</asrwt>
<pdfrwt beam="1">  1        2 0.37014563E+00 0.10036929E+04</pdfrwt>
<pdfrwt beam="2">  1       -2 0.16104319E-01 0.10036929E+04</pdfrwt>
<totfact> 0.14081389E+02</totfact>
</mgrwt>
</event>
<event>
 9    1  0.4370149E-036  0.1000000E+04  0.7818608E-02  0.8681038E-01
          1   -1    0    0  501    0  0.00000000000E+00  0.00000000000E+00  0.91065439632E+03  0.91065439632E+03  0.00000000000E+00 0. -1.
         -1   -1    0    0    0  501 -0.00000000000E+00 -0.00000000000E+00 -0.27452802853E+03  0.27452802853E+03  0.00000000000E+00 0. -1.
         36    2    1    2    0    0 -0.56843418861E-13  0.14210854715E-13  0.63612636778E+03  0.11851824249E+04  0.10000003122E+04 0.  0.
         25    2    3    3    0    0  0.11416888866E+03  0.72457073344E+02  0.15582516552E+03  0.24231829961E+03  0.12709096547E+03 0.  0.
         35    2    3    3    0    0 -0.11416888866E+03 -0.72457073344E+02  0.48030120226E+03  0.94286412524E+03  0.80001184438E+03 0.  0.
         22    1    5    5    0    0 -0.42334778809E+03  0.10918762698E+03  0.17149733348E+03  0.46963456320E+03  0.00000000000E+00 0. -1.
         22    1    5    5    0    0  0.30917889943E+03 -0.18164470032E+03  0.30880386878E+03  0.47322956203E+03  0.00000000000E+00 0. -1.
          5    1    4    4  502    0  0.69041968217E+02  0.97227366557E+02  0.14786597492E+03  0.19001681695E+03  0.47000000000E+01 0.  1.
         -5    1    4    4    0  502  0.45126920440E+02 -0.24770293212E+02  0.79591905991E+01  0.52301482667E+02  0.47000000000E+01 0.  1.
<mgrwt>
<rscale>  0 0.10000003E+04</rscale>
<asrwt>0</asrwt>
<pdfrwt beam="1">  1        1 0.14010067E+00 0.10000003E+04</pdfrwt>
<pdfrwt beam="2">  1       -1 0.42235082E-01 0.10000003E+04</pdfrwt>
<totfact> 0.11081325E+02</totfact>
</mgrwt>
</event>
<event>
 9    1  0.4370149E-036  0.9993816E+03  0.7818608E-02  0.8681627E-01
          3   -1    0    0  501    0  0.00000000000E+00  0.00000000000E+00  0.12675457793E+04  0.12675457793E+04  0.00000000000E+00 0.  1.
         -3   -1    0    0    0  501 -0.00000000000E+00 -0.00000000000E+00 -0.19698768797E+03  0.19698768797E+03  0.00000000000E+00 0.  1.
         36    2    1    2    0    0  0.00000000000E+00 -0.28421709430E-13  0.10705580913E+04  0.14645334672E+04  0.99938163371E+03 0.  0.
         25    2    3    3    0    0  0.42517118990E+02  0.13239598647E+03  0.19834470591E+03  0.27239219539E+03  0.12458123094E+03 0.  0.
         35    2    3    3    0    0 -0.42517118990E+02 -0.13239598647E+03  0.87221338540E+03  0.11921412719E+04  0.80069233776E+03 0.  0.
         22    1    5    5    0    0 -0.15396461215E+03 -0.38330156167E+03  0.81206761351E+03  0.91108671261E+03  0.00000000000E+00 0. -1.
         22    1    5    5    0    0  0.11144749316E+03  0.25090557520E+03  0.60145771886E+02  0.28105455925E+03  0.00000000000E+00 0. -1.
          5    1    4    4  502    0 -0.16291127255E+02  0.39048497654E+02 -0.30812805097E+01  0.42682201043E+02  0.47000000000E+01 0.  1.
         -5    1    4    4    0  502  0.58808246246E+02  0.93347488820E+02  0.20142598642E+03  0.22970999434E+03  0.47000000000E+01 0.  1.
<mgrwt>
<rscale>  0 0.99938163E+03</rscale>
<asrwt>0</asrwt>
<pdfrwt beam="1">  1        3 0.19500704E+00 0.99938163E+03</pdfrwt>
<pdfrwt beam="2">  1       -3 0.30305799E-01 0.99938163E+03</pdfrwt>
<totfact> 0.67749502E+00</totfact>
</mgrwt>
</event>
<event>
 9    1  0.4370149E-036  0.1001855E+04  0.7818608E-02  0.8679274E-01
         -2   -1    0    0    0  501 -0.00000000000E+00  0.00000000000E+00  0.12152653875E+03  0.12152653875E+03  0.00000000000E+00 0.  1.
          2   -1    0    0  501    0  0.00000000000E+00 -0.00000000000E+00 -0.20648022179E+04  0.20648022179E+04  0.00000000000E+00 0.  1.
         36    2    1    2    0    0 -0.14210854715E-13  0.71054273576E-14 -0.19432756791E+04  0.21863287567E+04  0.10018548133E+04 0.  0.
         25    2    3    3    0    0 -0.33533914194E+02  0.38015599810E+02 -0.65926382732E+03  0.67261959908E+03  0.12336377843E+03 0.  0.
         35    2    3    3    0    0  0.33533914194E+02 -0.38015599810E+02 -0.12840118518E+04  0.15137091576E+04  0.80003704217E+03 0.  0.
         22    1    5    5    0    0 -0.18779301839E+03  0.41618012789E+02 -0.12629914701E+04  0.12775545900E+04  0.00000000000E+00 0. -1.
         22    1    5    5    0    0  0.22132693258E+03 -0.79633612599E+02 -0.21020381681E+02  0.23615456758E+03  0.00000000000E+00 0. -1.
          5    1    4    4  502    0 -0.78462392294E+02  0.17561862114E+02 -0.33256676156E+03  0.34218051800E+03  0.47000000000E+01 0.  1.
         -5    1    4    4    0  502  0.44928478101E+02  0.20453737696E+02 -0.32669706576E+03  0.33043908109E+03  0.47000000000E+01 0.  1.
<mgrwt>
<rscale>  0 0.10018548E+04</rscale>
<asrwt>0</asrwt>
<pdfrwt beam="1">  1        2 0.31766187E+00 0.10018548E+04</pdfrwt>
<pdfrwt beam="2">  1       -2 0.18696391E-01 0.10018548E+04</pdfrwt>
<totfact> 0.17289579E+02</totfact>
</mgrwt>
</event>
<event>
 9    1  0.4370149E-036  0.9993852E+03  0.7818608E-02  0.8681624E-01
         -1   -1    0    0    0  501 -0.00000000000E+00  0.00000000000E+00  0.52825385003E+03  0.52825385003E+03  0.00000000000E+00 0.  1.
          1   -1    0    0  501    0  0.00000000000E+00 -0.00000000000E+00 -0.47267559104E+03  0.47267559104E+03  0.00000000000E+00 0.  1.
         36    2    1    2    0    0  0.28421709430E-13  0.28421709430E-13  0.55578258990E+02  0.10009294411E+04  0.99938521259E+03 0.  0.
         25    2    3    3    0    0  0.80921386395E+02  0.10934149284E+03 -0.21300533267E+02  0.18602454058E+03  0.12509030397E+03 0.  0.
         35    2    3    3    0    0 -0.80921386395E+02 -0.10934149284E+03  0.76878792257E+02  0.81490490050E+03  0.79978485565E+03 0.  0.
         22    1    5    5    0    0  0.24349420389E+03 -0.28305882777E+03 -0.12677285612E+03  0.39431343415E+03  0.00000000000E+00 0. -1.
         22    1    5    5    0    0 -0.32441559029E+03  0.17371733493E+03  0.20365164837E+03  0.42059146634E+03  0.00000000000E+00 0. -1.
          5    1    4    4  502    0  0.34209724916E+02 -0.24756940246E+02 -0.88522490065E+01  0.43401194473E+02  0.47000000000E+01 0.  1.
         -5    1    4    4    0  502  0.46711661479E+02  0.13409843309E+03 -0.12448284260E+02  0.14262334611E+03  0.47000000000E+01 0.  1.
<mgrwt>
<rscale>  0 0.99938521E+03</rscale>
<asrwt>0</asrwt>
<pdfrwt beam="1">  1        1 0.72719322E-01 0.99938521E+03</pdfrwt>
<pdfrwt beam="2">  1       -1 0.81269823E-01 0.99938521E+03</pdfrwt>
<totfact> 0.85511214E+01</totfact>
</mgrwt>
</event>
<event>
 9    1  0.4370149E-036  0.1000118E+04  0.7818608E-02  0.8680926E-01
          2   -1    0    0  501    0  0.00000000000E+00  0.00000000000E+00  0.12586830572E+04  0.12586830572E+04  0.00000000000E+00 0.  1.
         -2   -1    0    0    0  501 -0.00000000000E+00 -0.00000000000E+00 -0.19866717043E+03  0.19866717043E+03  0.00000000000E+00 0.  1.
         36    2    1    2    0    0 -0.26645352591E-13  0.00000000000E+00  0.10600158868E+04  0.14573502276E+04  0.10001179959E+04 0.  0.
         25    2    3    3    0    0  0.14371185955E+02 -0.91691225077E+02  0.45857637281E+02  0.16248793290E+03  0.12524214026E+03 0.  0.
         35    2    3    3    0    0 -0.14371185955E+02  0.91691225077E+02  0.10141582495E+04  0.12948622947E+04  0.79971094501E+03 0.  0.
         22    1    5    5    0    0 -0.29709891556E+03  0.23496185352E+03  0.86553852809E+03  0.94479192516E+03  0.00000000000E+00 0. -1.
         22    1    5    5    0    0  0.28272772961E+03 -0.14327062844E+03  0.14861972141E+03  0.35007036958E+03  0.00000000000E+00 0. -1.
          5    1    4    4  502    0  0.17682813713E+02 -0.61848710586E+02 -0.36912965647E+02  0.74314210854E+02  0.47000000000E+01 0. -1.
         -5    1    4    4    0  502 -0.33116277576E+01 -0.29842514490E+02  0.82770602928E+02  0.88173722041E+02  0.47000000000E+01 0. -1.
<mgrwt>
<rscale>  0 0.10001180E+04</rscale>
<asrwt>0</asrwt>
<pdfrwt beam="1">  1        2 0.19364354E+00 0.10001180E+04</pdfrwt>
<pdfrwt beam="2">  1       -2 0.30564181E-01 0.10001180E+04</pdfrwt>
<totfact> 0.20818931E+02</totfact>
</mgrwt>
</event>
<event>
 9    1  0.4370149E-036  0.1000160E+04  0.7818608E-02  0.8680886E-01
         -2   -1    0    0    0  501 -0.00000000000E+00  0.00000000000E+00  0.14133934290E+03  0.14133934290E+03  0.00000000000E+00 0. -1.
          2   -1    0    0  501    0  0.00000000000E+00 -0.00000000000E+00 -0.17693589488E+04  0.17693589488E+04  0.00000000000E+00 0. -1.
         36    2    1    2    0    0  0.00000000000E+00 -0.35527136788E-14 -0.16280196059E+04  0.19106982917E+04  0.10001600495E+04 0.  0.
         25    2    3    3    0    0 -0.13722449654E+03  0.28823631124E+02 -0.30032499456E+03  0.35413763842E+03  0.12472770514E+03 0.  0.
         35    2    3    3    0    0  0.13722449654E+03 -0.28823631124E+02 -0.13276946113E+04  0.15565606532E+04  0.80027915265E+03 0.  0.
         22    1    5    5    0    0 -0.17610785548E+03  0.27471304654E+03 -0.84564393012E+03  0.90641871740E+03  0.00000000000E+00 0. -1.
         22    1    5    5    0    0  0.31333235202E+03 -0.30353667767E+03 -0.48205068118E+03  0.65014193584E+03  0.00000000000E+00 0. -1.
          5    1    4    4  502    0 -0.14315465007E+03  0.19676843286E+02 -0.30783160404E+03  0.34009236752E+03  0.47000000000E+01 0.  1.
         -5    1    4    4    0  502  0.59301535364E+01  0.91467878383E+01  0.75066094843E+01  0.14045270901E+02  0.47000000000E+01 0.  1.
<mgrwt>
<rscale>  0 0.10001600E+04</rscale>
<asrwt>0</asrwt>
<pdfrwt beam="1">  1        2 0.27220907E+00 0.10001600E+04</pdfrwt>
<pdfrwt beam="2">  1       -2 0.21744514E-01 0.10001600E+04</pdfrwt>
<totfact> 0.19580939E+02</totfact>
</mgrwt>
</event>
<event>
 9    1  0.4370149E-036  0.1000272E+04  0.7818608E-02  0.8680779E-01
         -1   -1    0    0    0  501 -0.00000000000E+00  0.00000000000E+00  0.12725253398E+03  0.12725253398E+03  0.00000000000E+00 0. -1.
          1   -1    0    0  501    0  0.00000000000E+00 -0.00000000000E+00 -0.19656667426E+04  0.19656667426E+04  0.00000000000E+00 0. -1.
         36    2    1    2    0    0  0.21316282073E-13  0.00000000000E+00 -0.18384142086E+04  0.20929192766E+04  0.10002721109E+04 0.  0.
         25    2    3    3    0    0  0.62941591929E+02  0.35745703700E+02 -0.60007152613E+03  0.61717398777E+03  0.12481384290E+03 0.  0.
         35    2    3    3    0    0 -0.62941591929E+02 -0.35745703700E+02 -0.12383426825E+04  0.14757452888E+04  0.79943239792E+03 0.  0.
         22    1    5    5    0    0 -0.39009350899E+03 -0.39486244536E+02 -0.33752706745E+03  0.51735541992E+03  0.00000000000E+00 0. -1.
         22    1    5    5    0    0  0.32715191706E+03  0.37405408361E+01 -0.90081561506E+03  0.95838986890E+03  0.00000000000E+00 0. -1.
          5    1    4    4  502    0 -0.27222694080E+02  0.31512754815E+02 -0.91597005788E+02  0.10072849775E+03  0.47000000000E+01 0.  1.
         -5    1    4    4    0  502  0.90164286009E+02  0.42329488851E+01 -0.50847452034E+03  0.51644549002E+03  0.47000000000E+01 0.  1.
<mgrwt>
<rscale>  0 0.10002721E+04</rscale>
<asrwt>0</asrwt>
<pdfrwt beam="1">  1        1 0.30241026E+00 0.10002721E+04</pdfrwt>
<pdfrwt beam="2">  1       -1 0.19577313E-01 0.10002721E+04</pdfrwt>
<totfact> 0.69739353E+01</totfact>
</mgrwt>
</event>
<event>
 9    1  0.4370149E-036  0.9998218E+03  0.7818608E-02  0.8681208E-01
          2   -1    0    0  501    0  0.00000000000E+00  0.00000000000E+00  0.64000188865E+03  0.64000188865E+03  0.00000000000E+00 0. -1.
         -2   -1    0    0    0  501 -0.00000000000E+00 -0.00000000000E+00 -0.39048464617E+03  0.39048464617E+03  0.00000000000E+00 0. -1.
         36    2    1    2    0    0  0.00000000000E+00  0.28421709430E-13  0.24951724248E+03  0.10304865348E+04  0.99982180620E+03 0.  0.
         25    2    3    3    0    0  0.11383393004E+02  0.14969555288E+03  0.62841368059E+02  0.20494026239E+03  0.12455172990E+03 0.  0.
         35    2    3    3    0    0 -0.11383393004E+02 -0.14969555288E+03  0.18667587442E+03  0.82554627243E+03  0.79002558543E+03 0.  0.
         22    1    5    5    0    0  0.90343383503E+02  0.25615463341E+03 -0.12969585283E+03  0.30099524481E+03  0.00000000000E+00 0. -1.
         22    1    5    5    0    0 -0.10172677651E+03 -0.40585018629E+03  0.31637172725E+03  0.52455102761E+03  0.00000000000E+00 0. -1.
          5    1    4    4  502    0  0.58545853466E+02  0.13056502882E+03  0.38071073419E+02  0.14814297263E+03  0.47000000000E+01 0.  1.
         -5    1    4    4    0  502 -0.47162460463E+02  0.19130524062E+02  0.24770294640E+02  0.56797289762E+02  0.47000000000E+01 0.  1.
<mgrwt>
<rscale>  0 0.99982181E+03</rscale>
<asrwt>0</asrwt>
<pdfrwt beam="1">  1        2 0.98461829E-01 0.99982181E+03</pdfrwt>
<pdfrwt beam="2">  1       -2 0.60074561E-01 0.99982181E+03</pdfrwt>
<totfact> 0.14324678E+02</totfact>
</mgrwt>
</event>
<event>
 9    1  0.4370149E-036  0.1000223E+04  0.7818608E-02  0.8680826E-01
         -2   -1    0    0    0  501 -0.00000000000E+00  0.00000000000E+00  0.12607634139E+03  0.12607634139E+03  0.00000000000E+00 0.  1.
          2   -1    0    0  501    0  0.00000000000E+00 -0.00000000000E+00 -0.19838087404E+04  0.19838087404E+04  0.00000000000E+00 0.  1.
         36    2    1    2    0    0  0.14210854715E-13  0.00000000000E+00 -0.18577323990E+04  0.21098850818E+04  0.10002226712E+04 0.  0.
         25    2    3    3    0    0  0.24006834944E+02 -0.10790573853E+03 -0.16579733692E+03  0.23520584213E+03  0.12495220971E+03 0.  0.
         35    2    3    3    0    0 -0.24006834944E+02  0.10790573853E+03 -0.16919350621E+04  0.18746792397E+04  0.79972371526E+03 0.  0.
         22    1    5    5    0    0  0.24735759461E+03  0.35742624025E+03 -0.82180088103E+03  0.92967520398E+03  0.00000000000E+00 0.  1.
         22    1    5    5    0    0 -0.27136442956E+03 -0.24952050172E+03 -0.87013418108E+03  0.94500403570E+03  0.00000000000E+00 0.  1.
          5    1    4    4  502    0 -0.28532383532E+02 -0.56333314485E+02 -0.11745933505E+02  0.64401833707E+02  0.47000000000E+01 0. -1.
         -5    1    4    4    0  502  0.52539218476E+02 -0.51572424046E+02 -0.15405140342E+03  0.17080400843E+03  0.47000000000E+01 0. -1.
<mgrwt>
<rscale>  0 0.10002227E+04</rscale>
<asrwt>0</asrwt>
<pdfrwt beam="1">  1        2 0.30520134E+00 0.10002227E+04</pdfrwt>
<pdfrwt beam="2">  1       -2 0.19396361E-01 0.10002227E+04</pdfrwt>
<totfact> 0.18053741E+02</totfact>
</mgrwt>
</event>
<event>
 9    1  0.4370149E-036  0.9995538E+03  0.7818608E-02  0.8681463E-01
          2   -1    0    0  501    0  0.00000000000E+00  0.00000000000E+00  0.22707908878E+04  0.22707908878E+04  0.00000000000E+00 0.  1.
         -2   -1    0    0    0  501 -0.00000000000E+00 -0.00000000000E+00 -0.10999557255E+03  0.10999557255E+03  0.00000000000E+00 0.  1.
         36    2    1    2    0    0  0.00000000000E+00 -0.71054273576E-14  0.21607953152E+04  0.23807864603E+04  0.99955378812E+03 0.  0.
         25    2    3    3    0    0  0.11674193557E+03  0.59356918895E+02  0.55744826355E+03  0.58584735155E+03  0.12376037105E+03 0.  0.
         35    2    3    3    0    0 -0.11674193557E+03 -0.59356918895E+02  0.16033470517E+04  0.17949391088E+04  0.79619891530E+03 0.  0.
         22    1    5    5    0    0 -0.40257097132E+03  0.75120910382E+02  0.12756928741E+04  0.13398129896E+04  0.00000000000E+00 0.  1.
         22    1    5    5    0    0  0.28582903575E+03 -0.13447782928E+03  0.32765417755E+03  0.45512611912E+03  0.00000000000E+00 0.  1.
          5    1    4    4  502    0  0.96134679687E+02  0.95255989122E+02  0.37493703692E+03  0.39864200952E+03  0.47000000000E+01 0. -1.
         -5    1    4    4    0  502  0.20607255886E+02 -0.35899070227E+02  0.18251122662E+03  0.18720534202E+03  0.47000000000E+01 0. -1.
<mgrwt>
<rscale>  0 0.99955379E+03</rscale>
<asrwt>0</asrwt>
<pdfrwt beam="1">  1        2 0.34935241E+00 0.99955379E+03</pdfrwt>
<pdfrwt beam="2">  1       -2 0.16922397E-01 0.99955379E+03</pdfrwt>
<totfact> 0.15572727E+02</totfact>
</mgrwt>
</event>
<event>
 9    1  0.4370149E-036  0.1000426E+04  0.7818608E-02  0.8680632E-01
         -2   -1    0    0    0  501 -0.00000000000E+00  0.00000000000E+00  0.25305960829E+03  0.25305960829E+03  0.00000000000E+00 0. -1.
          2   -1    0    0  501    0  0.00000000000E+00 -0.00000000000E+00 -0.98875159495E+03  0.98875159495E+03  0.00000000000E+00 0. -1.
         36    2    1    2    0    0  0.35527136788E-13  0.00000000000E+00 -0.73569198666E+03  0.12418112032E+04  0.10004260919E+04 0.  0.
         25    2    3    3    0    0  0.39635543862E+02 -0.12308235181E+03 -0.57050880456E+02  0.18386855415E+03  0.11761207668E+03 0.  0.
         35    2    3    3    0    0 -0.39635543862E+02  0.12308235181E+03 -0.67864110620E+03  0.10579426491E+04  0.80122946531E+03 0.  0.
         22    1    5    5    0    0 -0.41783071207E+03  0.81855612721E+02 -0.29739549251E+03  0.51935240853E+03  0.00000000000E+00 0. -1.
         22    1    5    5    0    0  0.37819516820E+03  0.41226739088E+02 -0.38124561369E+03  0.53859024056E+03  0.00000000000E+00 0. -1.
          5    1    4    4  502    0  0.49592711607E+01 -0.89547191182E+02  0.20779819882E+02  0.92180175382E+02  0.47000000000E+01 0. -1.
         -5    1    4    4    0  502  0.34676272701E+02 -0.33535160626E+02 -0.77830700337E+02  0.91688378771E+02  0.47000000000E+01 0. -1.
<mgrwt>
<rscale>  0 0.10004261E+04</rscale>
<asrwt>0</asrwt>
<pdfrwt beam="1">  1        2 0.15211563E+00 0.10004261E+04</pdfrwt>
<pdfrwt beam="2">  1       -2 0.38932248E-01 0.10004261E+04</pdfrwt>
<totfact> 0.19307172E+02</totfact>
</mgrwt>
</event>
<event>
 9    1  0.4370149E-036  0.9999752E+03  0.7818608E-02  0.8681062E-01
          1   -1    0    0  501    0  0.00000000000E+00  0.00000000000E+00  0.13816541361E+04  0.13816541361E+04  0.00000000000E+00 0.  1.
         -1   -1    0    0    0  501 -0.00000000000E+00 -0.00000000000E+00 -0.18093355528E+03  0.18093355528E+03  0.00000000000E+00 0.  1.
         36    2    1    2    0    0  0.00000000000E+00  0.71054273576E-14  0.12007205809E+04  0.15625876914E+04  0.99997518973E+03 0.  0.
         25    2    3    3    0    0  0.12749252718E+03  0.52242018288E+02  0.26472398235E+03  0.32351387040E+03  0.12489541443E+03 0.  0.
         35    2    3    3    0    0 -0.12749252718E+03 -0.52242018288E+02  0.93599659850E+03  0.12390738210E+04  0.80014419236E+03 0.  0.
         22    1    5    5    0    0 -0.41942620275E+03 -0.30973408725E+02  0.82502478585E+03  0.92603649435E+03  0.00000000000E+00 0.  1.
         22    1    5    5    0    0  0.29193367557E+03 -0.21268609563E+02  0.11097181265E+03  0.31303732667E+03  0.00000000000E+00 0.  1.
          5    1    4    4  502    0  0.14899057764E+03  0.50506338847E+02  0.19622558305E+03  0.25154652041E+03  0.47000000000E+01 0.  1.
         -5    1    4    4    0  502 -0.21498050459E+02  0.17356794409E+01  0.68498399305E+02  0.71967349986E+02  0.47000000000E+01 0.  1.
<mgrwt>
<rscale>  0 0.99997519E+03</rscale>
<asrwt>0</asrwt>
<pdfrwt beam="1">  1        1 0.21256217E+00 0.99997519E+03</pdfrwt>
<pdfrwt beam="2">  1       -1 0.27835932E-01 0.99997519E+03</pdfrwt>
<totfact> 0.10020053E+02</totfact>
</mgrwt>
</event>
<event>
 9    1  0.4370149E-036  0.9871599E+03  0.7818608E-02  0.8693363E-01
          2   -1    0    0  501    0  0.00000000000E+00  0.00000000000E+00  0.65500554530E+03  0.65500554530E+03  0.00000000000E+00 0. -1.
         -2   -1    0    0    0  501 -0.00000000000E+00 -0.00000000000E+00 -0.37193758060E+03  0.37193758060E+03  0.00000000000E+00 0. -1.
         36    2    1    2    0    0  0.21316282073E-13  0.00000000000E+00  0.28306796470E+03  0.10269431259E+04  0.98715992180E+03 0.  0.
         25    2    3    3    0    0  0.63365881251E+02 -0.92520928741E+02  0.10598325039E+03  0.19838814837E+03  0.12469984317E+03 0.  0.
         35    2    3    3    0    0 -0.63365881251E+02  0.92520928741E+02  0.17708471431E+03  0.82855497754E+03  0.80160401546E+03 0.  0.
         22    1    5    5    0    0 -0.31855576615E+03  0.16560488654E+03 -0.16535545228E+03  0.39527861084E+03  0.00000000000E+00 0. -1.
         22    1    5    5    0    0  0.25518988490E+03 -0.73083957797E+02  0.34244016658E+03  0.43327636669E+03  0.00000000000E+00 0. -1.
          5    1    4    4  502    0  0.47221477908E+01 -0.82047632569E+02  0.68047099668E+01  0.82598467103E+02  0.47000000000E+01 0. -1.
         -5    1    4    4    0  502  0.58643733460E+02 -0.10473296172E+02  0.99178540422E+02  0.11578968126E+03  0.47000000000E+01 0. -1.
<mgrwt>
<rscale>  0 0.98715992E+03</rscale>
<asrwt>0</asrwt>
<pdfrwt beam="1">  1        2 0.10077008E+00 0.98715992E+03</pdfrwt>
<pdfrwt beam="2">  1       -2 0.57221166E-01 0.98715992E+03</pdfrwt>
<totfact> 0.15415913E+02</totfact>
</mgrwt>
</event>
<event>
 9    1  0.4370149E-036  0.1000539E+04  0.7818608E-02  0.8680525E-01
          1   -1    0    0  501    0  0.00000000000E+00  0.00000000000E+00  0.45781896277E+03  0.45781896277E+03  0.00000000000E+00 0. -1.
         -1   -1    0    0    0  501 -0.00000000000E+00 -0.00000000000E+00 -0.54665625808E+03  0.54665625808E+03  0.00000000000E+00 0. -1.
         36    2    1    2    0    0 -0.28421709430E-13 -0.35527136788E-14 -0.88837295303E+02  0.10044752208E+04  0.10005390568E+04 0.  0.
         25    2    3    3    0    0 -0.13806535333E+03  0.46352599488E+01  0.12132289164E+02  0.18591424973E+03  0.12382805978E+03 0.  0.
         35    2    3    3    0    0  0.13806535333E+03 -0.46352599488E+01 -0.10096958447E+03  0.81856097112E+03  0.80047715709E+03 0.  0.
         22    1    5    5    0    0  0.30604586652E+03 -0.39908683127E+02  0.26983230140E+03  0.40995883486E+03  0.00000000000E+00 0.  1.
         22    1    5    5    0    0 -0.16798051319E+03  0.35273423178E+02 -0.37080188586E+03  0.40860213626E+03  0.00000000000E+00 0.  1.
          5    1    4    4  502    0  0.80397983159E+01 -0.31095987934E+02 -0.96430837034E+01  0.33862632589E+02  0.47000000000E+01 0.  1.
         -5    1    4    4    0  502 -0.14610515164E+03  0.35731247883E+02  0.21775372867E+02  0.15205161714E+03  0.47000000000E+01 0.  1.
<mgrwt>
<rscale>  0 0.10005391E+04</rscale>
<asrwt>0</asrwt>
<pdfrwt beam="1">  1        1 0.70433687E-01 0.10005391E+04</pdfrwt>
<pdfrwt beam="2">  1       -1 0.84100963E-01 0.10005391E+04</pdfrwt>
<totfact> 0.83077716E+01</totfact>
</mgrwt>
</event>
<event>
 9    1  0.4370149E-036  0.9993588E+03  0.7818608E-02  0.8681649E-01
         -2   -1    0    0    0  501 -0.00000000000E+00  0.00000000000E+00  0.11367770796E+03  0.11367770796E+03  0.00000000000E+00 0.  1.
          2   -1    0    0  501    0  0.00000000000E+00 -0.00000000000E+00 -0.21963806285E+04  0.21963806285E+04  0.00000000000E+00 0.  1.
         36    2    1    2    0    0  0.42632564146E-13  0.35527136788E-13 -0.20827029205E+04  0.23100583364E+04  0.99935882577E+03 0.  0.
         25    2    3    3    0    0 -0.44982049086E+01 -0.51040913310E+02 -0.69265489659E+03  0.70575119676E+03  0.12525389127E+03 0.  0.
         35    2    3    3    0    0  0.44982049086E+01  0.51040913310E+02 -0.13900480239E+04  0.16043071397E+04  0.79933877733E+03 0.  0.
         22    1    5    5    0    0  0.26727634827E+03  0.26019447010E+03 -0.35048286232E+03  0.51183595555E+03  0.00000000000E+00 0. -1.
         22    1    5    5    0    0 -0.26277814336E+03 -0.20915355679E+03 -0.10395651616E+04  0.10924711841E+04  0.00000000000E+00 0. -1.
          5    1    4    4  502    0  0.37871624689E+02 -0.18217822245E+02 -0.57298365092E+03  0.57454199431E+03  0.47000000000E+01 0. -1.
         -5    1    4    4    0  502 -0.42369829598E+02 -0.32823091065E+02 -0.11967124567E+03  0.13120920245E+03  0.47000000000E+01 0. -1.
<mgrwt>
<rscale>  0 0.99935883E+03</rscale>
<asrwt>0</asrwt>
<pdfrwt beam="1">  1        2 0.33790469E+00 0.99935883E+03</pdfrwt>
<pdfrwt beam="2">  1       -2 0.17488879E-01 0.99935883E+03</pdfrwt>
<totfact> 0.16274319E+02</totfact>
</mgrwt>
</event>
<event>
 9    1  0.4370149E-036  0.1000014E+04  0.7818608E-02  0.8681025E-01
          2   -1    0    0  501    0  0.00000000000E+00  0.00000000000E+00  0.13156112842E+04  0.13156112842E+04  0.00000000000E+00 0.  1.
         -2   -1    0    0    0  501 -0.00000000000E+00 -0.00000000000E+00 -0.19003091969E+03  0.19003091969E+03  0.00000000000E+00 0.  1.
         36    2    1    2    0    0 -0.71054273576E-14 -0.14210854715E-13  0.11255803645E+04  0.15056422039E+04  0.10000136445E+04 0.  0.
         25    2    3    3    0    0 -0.14023223799E+02 -0.12431665208E+03  0.30577359627E+03  0.35332749584E+03  0.12526590258E+03 0.  0.
         35    2    3    3    0    0  0.14023223799E+02  0.12431665208E+03  0.81980676821E+03  0.11523147080E+04  0.80005922802E+03 0.  0.
         22    1    5    5    0    0  0.12254568195E+03 -0.50898751168E+01 -0.13516823648E+03  0.18252069238E+03  0.00000000000E+00 0. -1.
         22    1    5    5    0    0 -0.10852245815E+03  0.12940652720E+03  0.95497500469E+03  0.96979401564E+03  0.00000000000E+00 0. -1.
          5    1    4    4  502    0 -0.62175870829E+02 -0.26357813163E+02  0.11158628208E+03  0.13051498602E+03  0.47000000000E+01 0.  1.
         -5    1    4    4    0  502  0.48152647029E+02 -0.97958838918E+02  0.19418731419E+03  0.22281250982E+03  0.47000000000E+01 0.  1.
<mgrwt>
<rscale>  0 0.10000136E+04</rscale>
<asrwt>0</asrwt>
<pdfrwt beam="1">  1        2 0.20240173E+00 0.10000136E+04</pdfrwt>
<pdfrwt beam="2">  1       -2 0.29235527E-01 0.10000136E+04</pdfrwt>
<totfact> 0.20918207E+02</totfact>
</mgrwt>
</event>
<event>
 9    1  0.4370149E-036  0.9997077E+03  0.7818608E-02  0.8681316E-01
          1   -1    0    0  501    0  0.00000000000E+00  0.00000000000E+00  0.98351644712E+03  0.98351644712E+03  0.00000000000E+00 0.  1.
         -1   -1    0    0    0  501 -0.00000000000E+00 -0.00000000000E+00 -0.25404135863E+03  0.25404135863E+03  0.00000000000E+00 0.  1.
         36    2    1    2    0    0 -0.14210854715E-13 -0.28421709430E-13  0.72947508849E+03  0.12375578058E+04  0.99970766620E+03 0.  0.
         25    2    3    3    0    0 -0.37805129989E+02 -0.13593929248E+03  0.12958823474E+03  0.22846787271E+03  0.12448188294E+03 0.  0.
         35    2    3    3    0    0  0.37805129989E+02  0.13593929248E+03  0.59988685375E+03  0.10090899331E+04  0.79905540270E+03 0.  0.
         22    1    5    5    0    0  0.27006602110E+03 -0.19984247293E+03  0.47562622434E+03  0.58231690257E+03  0.00000000000E+00 0.  1.
         22    1    5    5    0    0 -0.23226089111E+03  0.33578176542E+03  0.12426062941E+03  0.42677303048E+03  0.00000000000E+00 0.  1.
          5    1    4    4  502    0 -0.20480352910E+02 -0.75068248568E+02 -0.65861785956E+01  0.78231416624E+02  0.47000000000E+01 0.  1.
         -5    1    4    4    0  502 -0.17324777079E+02 -0.60871043912E+02  0.13617441334E+03  0.15023645608E+03  0.47000000000E+01 0.  1.
<mgrwt>
<rscale>  0 0.99970767E+03</rscale>
<asrwt>0</asrwt>
<pdfrwt beam="1">  1        1 0.15131022E+00 0.99970767E+03</pdfrwt>
<pdfrwt beam="2">  1       -1 0.39083287E-01 0.99970767E+03</pdfrwt>
<totfact> 0.11102775E+02</totfact>
</mgrwt>
</event>
<event>
 9    1  0.4370149E-036  0.1000828E+04  0.7818608E-02  0.8680249E-01
          2   -1    0    0  501    0  0.00000000000E+00  0.00000000000E+00  0.10965282923E+04  0.10965282923E+04  0.00000000000E+00 0. -1.
         -2   -1    0    0    0  501 -0.00000000000E+00 -0.00000000000E+00 -0.22837017858E+03  0.22837017858E+03  0.00000000000E+00 0. -1.
         36    2    1    2    0    0 -0.71054273576E-14  0.56843418861E-13  0.86815811367E+03  0.13248984708E+04  0.10008283807E+04 0.  0.
         25    2    3    3    0    0  0.17293523022E+02 -0.14308915148E+03  0.10666033909E+03  0.21843533088E+03  0.12475573988E+03 0.  0.
         35    2    3    3    0    0 -0.17293523022E+02  0.14308915148E+03  0.76149777458E+03  0.11064631399E+04  0.78968870333E+03 0.  0.
         22    1    5    5    0    0 -0.24789038920E+03 -0.15510291194E+03  0.43640816839E+02  0.29565364743E+03  0.00000000000E+00 0. -1.
         22    1    5    5    0    0  0.23059686617E+03  0.29819206342E+03  0.71785695774E+03  0.81080949251E+03  0.00000000000E+00 0. -1.
          5    1    4    4  502    0 -0.31421835306E+02 -0.13757232184E+03  0.74879834489E+02  0.15982038382E+03  0.47000000000E+01 0.  1.
         -5    1    4    4    0  502  0.48715358328E+02 -0.55168296373E+01  0.31780504605E+02  0.58614947064E+02  0.47000000000E+01 0.  1.
<mgrwt>
<rscale>  0 0.10008284E+04</rscale>
<asrwt>0</asrwt>
<pdfrwt beam="1">  1        2 0.16869666E+00 0.10008284E+04</pdfrwt>
<pdfrwt beam="2">  1       -2 0.35133874E-01 0.10008284E+04</pdfrwt>
<totfact> 0.20095771E+02</totfact>
</mgrwt>
</event>
<event>
 9    1  0.4370149E-036  0.1000959E+04  0.7818608E-02  0.8680125E-01
         -2   -1    0    0    0  501 -0.00000000000E+00  0.00000000000E+00  0.50724488965E+03  0.50724488965E+03  0.00000000000E+00 0.  1.
          2   -1    0    0  501    0  0.00000000000E+00 -0.00000000000E+00 -0.49380474773E+03  0.49380474773E+03  0.00000000000E+00 0.  1.
         36    2    1    2    0    0  0.28421709430E-13  0.00000000000E+00  0.13440141922E+02  0.10010496374E+04  0.10009594093E+04 0.  0.
         25    2    3    3    0    0  0.10354654001E+03  0.74977422410E+02  0.62049169863E+02  0.18963760143E+03  0.12557396456E+03 0.  0.
         35    2    3    3    0    0 -0.10354654001E+03 -0.74977422410E+02 -0.48609027941E+02  0.81141203595E+03  0.79980194715E+03 0.  0.
         22    1    5    5    0    0  0.34706990562E+03 -0.51384872768E+02  0.34655236112E+02  0.35256050534E+03  0.00000000000E+00 0.  1.
         22    1    5    5    0    0 -0.45061644563E+03 -0.23592549642E+02 -0.83264264052E+02  0.45885153061E+03  0.00000000000E+00 0.  1.
          5    1    4    4  502    0  0.48279105386E+02 -0.23282292850E+02 -0.11404851729E+02  0.55000889267E+02  0.47000000000E+01 0. -1.
         -5    1    4    4    0  502  0.55267434628E+02  0.98259715260E+02  0.73454021592E+02  0.13463671216E+03  0.47000000000E+01 0. -1.
<mgrwt>
<rscale>  0 0.10009594E+04</rscale>
<asrwt>0</asrwt>
<pdfrwt beam="1">  1        2 0.75969962E-01 0.10009594E+04</pdfrwt>
<pdfrwt beam="2">  1       -2 0.78037675E-01 0.10009594E+04</pdfrwt>
<totfact> 0.11015728E+02</totfact>
</mgrwt>
</event>
<event>
 9    1  0.4370149E-036  0.9988393E+03  0.7818608E-02  0.8682144E-01
         -2   -1    0    0    0  501 -0.00000000000E+00  0.00000000000E+00  0.43322244720E+03  0.43322244720E+03  0.00000000000E+00 0. -1.
          2   -1    0    0  501    0  0.00000000000E+00 -0.00000000000E+00 -0.57573187921E+03  0.57573187921E+03  0.00000000000E+00 0. -1.
         36    2    1    2    0    0 -0.28421709430E-13  0.00000000000E+00 -0.14250943201E+03  0.10089543264E+04  0.99883927365E+03 0.  0.
         25    2    3    3    0    0 -0.71822674803E+02  0.57445478104E+02  0.77530426027E+02  0.17398455497E+03  0.12570273998E+03 0.  0.
         35    2    3    3    0    0  0.71822674803E+02 -0.57445478104E+02 -0.22003985804E+03  0.83496977145E+03  0.80018654108E+03 0.  0.
         22    1    5    5    0    0  0.39384038446E+03  0.15107075045E+03 -0.11579675165E+03  0.43742600262E+03  0.00000000000E+00 0. -1.
         22    1    5    5    0    0 -0.32201770966E+03 -0.20851622855E+03 -0.10424310638E+03  0.39754376883E+03  0.00000000000E+00 0. -1.
          5    1    4    4  502    0 -0.53230385735E+02  0.79130043699E+02  0.46855013950E+01  0.95598544469E+02  0.47000000000E+01 0.  1.
         -5    1    4    4    0  502 -0.18592289068E+02 -0.21684565594E+02  0.72844924632E+02  0.78386010502E+02  0.47000000000E+01 0.  1.
<mgrwt>
<rscale>  0 0.99883927E+03</rscale>
<asrwt>0</asrwt>
<pdfrwt beam="1">  1        2 0.88574135E-01 0.99883927E+03</pdfrwt>
<pdfrwt beam="2">  1       -2 0.66649607E-01 0.99883927E+03</pdfrwt>
<totfact> 0.13043177E+02</totfact>
</mgrwt>
</event>
<event>
 9    1  0.4370149E-036  0.1000646E+04  0.7818608E-02  0.8680423E-01
         -3   -1    0    0    0  501 -0.00000000000E+00  0.00000000000E+00  0.10617827513E+04  0.10617827513E+04  0.00000000000E+00 0. -1.
          3   -1    0    0  501    0  0.00000000000E+00 -0.00000000000E+00 -0.23575727668E+03  0.23575727668E+03  0.00000000000E+00 0. -1.
         36    2    1    2    0    0 -0.28421709430E-13  0.14210854715E-13  0.82602547461E+03  0.12975400280E+04  0.10006458112E+04 0.  0.
         25    2    3    3    0    0 -0.79979896326E+02  0.11385464356E+03  0.18769287544E+03  0.26482262074E+03  0.12467053095E+03 0.  0.
         35    2    3    3    0    0  0.79979896326E+02 -0.11385464356E+03  0.63833259917E+03  0.10327174072E+04  0.79979814477E+03 0.  0.
         22    1    5    5    0    0  0.78797604006E+02 -0.31124852348E+03 -0.42479112839E+02  0.32386599203E+03  0.00000000000E+00 0. -1.
         22    1    5    5    0    0  0.11822923206E+01  0.19739387992E+03  0.68081171201E+03  0.70885141521E+03  0.00000000000E+00 0. -1.
          5    1    4    4  502    0 -0.31509505365E+01  0.14858576095E+02  0.12242792171E+03  0.12345603180E+03  0.47000000000E+01 0. -1.
         -5    1    4    4    0  502 -0.76828945790E+02  0.98996067462E+02  0.65264953735E+02  0.14136658895E+03  0.47000000000E+01 0. -1.
<mgrwt>
<rscale>  0 0.10006458E+04</rscale>
<asrwt>0</asrwt>
<pdfrwt beam="1">  1        3 0.36270351E-01 0.10006458E+04</pdfrwt>
<pdfrwt beam="2">  1       -3 0.16335119E+00 0.10006458E+04</pdfrwt>
<totfact> 0.59843484E+00</totfact>
</mgrwt>
</event>
<event>
 9    1  0.4370149E-036  0.1000320E+04  0.7818608E-02  0.8680733E-01
          2   -1    0    0  501    0  0.00000000000E+00  0.00000000000E+00  0.93728178048E+03  0.93728178048E+03  0.00000000000E+00 0. -1.
         -2   -1    0    0    0  501 -0.00000000000E+00 -0.00000000000E+00 -0.26689963272E+03  0.26689963272E+03  0.00000000000E+00 0. -1.
         36    2    1    2    0    0  0.00000000000E+00  0.00000000000E+00  0.67038214775E+03  0.12041814132E+04  0.10003202746E+04 0.  0.
         25    2    3    3    0    0 -0.35408047413E+01 -0.98483568571E+02  0.24724070460E+03  0.29392151485E+03  0.12470100362E+03 0.  0.
         35    2    3    3    0    0  0.35408047413E+01  0.98483568571E+02  0.42314144316E+03  0.91025989835E+03  0.79988302336E+03 0.  0.
         22    1    5    5    0    0  0.30852061972E+02  0.36944652845E+03  0.50446491103E+03  0.62604107979E+03  0.00000000000E+00 0.  1.
         22    1    5    5    0    0 -0.27311257230E+02 -0.27096295988E+03 -0.81323467879E+02  0.28421881857E+03  0.00000000000E+00 0.  1.
          5    1    4    4  502    0 -0.28796424249E+02 -0.55948641396E+02  0.23419542418E+03  0.24254704952E+03  0.47000000000E+01 0.  1.
         -5    1    4    4    0  502  0.25255619508E+02 -0.42534927175E+02  0.13045280416E+02  0.51374465327E+02  0.47000000000E+01 0.  1.
<mgrwt>
<rscale>  0 0.10003203E+04</rscale>
<asrwt>0</asrwt>
<pdfrwt beam="1">  1        2 0.14419720E+00 0.10003203E+04</pdfrwt>
<pdfrwt beam="2">  1       -2 0.41061482E-01 0.10003203E+04</pdfrwt>
<totfact> 0.18806968E+02</totfact>
</mgrwt>
</event>
<event>
 9    1  0.4370149E-036  0.1000244E+04  0.7818608E-02  0.8680805E-01
         -1   -1    0    0    0  501 -0.00000000000E+00  0.00000000000E+00  0.66482735887E+03  0.66482735887E+03  0.00000000000E+00 0. -1.
          1   -1    0    0  501    0  0.00000000000E+00 -0.00000000000E+00 -0.37622112849E+03  0.37622112849E+03  0.00000000000E+00 0. -1.
         36    2    1    2    0    0  0.14210854715E-13  0.56843418861E-13  0.28860623038E+03  0.10410484874E+04  0.10002441686E+04 0.  0.
         25    2    3    3    0    0 -0.72974953873E+02 -0.11796456302E+03  0.67303468948E+02  0.19880821226E+03  0.12551480514E+03 0.  0.
         35    2    3    3    0    0  0.72974953873E+02  0.11796456302E+03  0.22130276143E+03  0.84224027509E+03  0.80072016757E+03 0.  0.
         22    1    5    5    0    0  0.52777442424E+02 -0.33248009975E+03  0.19841035942E+03  0.39076226261E+03  0.00000000000E+00 0.  1.
         22    1    5    5    0    0  0.20197511449E+02  0.45044466276E+03  0.22892402006E+02  0.45147801248E+03  0.00000000000E+00 0.  1.
          5    1    4    4  502    0 -0.32068500829E+02 -0.39936544224E+01 -0.29269052184E+02  0.43853226071E+02  0.47000000000E+01 0.  1.
         -5    1    4    4    0  502 -0.40906453044E+02 -0.11397090860E+03  0.96572521132E+02  0.15495498619E+03  0.47000000000E+01 0.  1.
<mgrwt>
<rscale>  0 0.10002442E+04</rscale>
<asrwt>0</asrwt>
<pdfrwt beam="1">  1        1 0.57880174E-01 0.10002442E+04</pdfrwt>
<pdfrwt beam="2">  1       -1 0.10228113E+00 0.10002442E+04</pdfrwt>
<totfact> 0.70642701E+01</totfact>
</mgrwt>
</event>
<event>
 9    1  0.4370149E-036  0.1000529E+04  0.7818608E-02  0.8680535E-01
         -2   -1    0    0    0  501 -0.00000000000E+00  0.00000000000E+00  0.28389890838E+03  0.28389890838E+03  0.00000000000E+00 0.  1.
          2   -1    0    0  501    0  0.00000000000E+00 -0.00000000000E+00 -0.88152625399E+03  0.88152625399E+03  0.00000000000E+00 0.  1.
         36    2    1    2    0    0  0.00000000000E+00  0.28421709430E-13 -0.59762734561E+03  0.11654251624E+04  0.10005285427E+04 0.  0.
         25    2    3    3    0    0  0.98355182990E+02  0.97975386770E+02 -0.99331731710E+02  0.21172393986E+03  0.12524901338E+03 0.  0.
         35    2    3    3    0    0 -0.98355182990E+02 -0.97975386770E+02 -0.49829561390E+03  0.95370122250E+03  0.80123316490E+03 0.  0.
         22    1    5    5    0    0 -0.16413907951E+03  0.19416904608E+03  0.10896644557E+03  0.27661695924E+03  0.00000000000E+00 0. -1.
         22    1    5    5    0    0  0.65783896518E+02 -0.29214443285E+03 -0.60726205947E+03  0.67708426326E+03  0.00000000000E+00 0. -1.
          5    1    4    4  502    0  0.48866358347E+02  0.10577830951E+03 -0.20802795031E+02  0.11845597503E+03  0.47000000000E+01 0.  1.
         -5    1    4    4    0  502  0.49488824643E+02 -0.78029227352E+01 -0.78528936679E+02  0.93267964831E+02  0.47000000000E+01 0.  1.
<mgrwt>
<rscale>  0 0.10005285E+04</rscale>
<asrwt>0</asrwt>
<pdfrwt beam="1">  1        2 0.13561942E+00 0.10005285E+04</pdfrwt>
<pdfrwt beam="2">  1       -2 0.43676755E-01 0.10005285E+04</pdfrwt>
<totfact> 0.18154252E+02</totfact>
</mgrwt>
</event>
<event>
 9    1  0.4370149E-036  0.1000753E+04  0.7818608E-02  0.8680322E-01
         -2   -1    0    0    0  501 -0.00000000000E+00  0.00000000000E+00  0.30734155221E+03  0.30734155221E+03  0.00000000000E+00 0.  1.
          2   -1    0    0  501    0  0.00000000000E+00 -0.00000000000E+00 -0.81465223315E+03  0.81465223315E+03  0.00000000000E+00 0.  1.
         36    2    1    2    0    0  0.00000000000E+00  0.00000000000E+00 -0.50731068094E+03  0.11219937854E+04  0.10007526804E+04 0.  0.
         25    2    3    3    0    0  0.10399581149E+03  0.83957917011E+02 -0.14345525199E+03  0.23247590160E+03  0.12490626431E+03 0.  0.
         35    2    3    3    0    0 -0.10399581149E+03 -0.83957917011E+02 -0.36385542895E+03  0.88951788375E+03  0.80061678205E+03 0.  0.
         22    1    5    5    0    0  0.31354451184E+03  0.86526726520E+02 -0.28337037661E+03  0.43138823077E+03  0.00000000000E+00 0.  1.
         22    1    5    5    0    0 -0.41754032333E+03 -0.17048464353E+03 -0.80485052336E+02  0.45812965298E+03  0.00000000000E+00 0.  1.
          5    1    4    4  502    0  0.13250013222E+03  0.60569499748E+02 -0.11380976675E+03  0.18493161532E+03  0.47000000000E+01 0.  1.
         -5    1    4    4    0  502 -0.28504320732E+02  0.23388417263E+02 -0.29645485247E+02  0.47544286281E+02  0.47000000000E+01 0.  1.
<mgrwt>
<rscale>  0 0.10007527E+04</rscale>
<asrwt>0</asrwt>
<pdfrwt beam="1">  1        2 0.12533111E+00 0.10007527E+04</pdfrwt>
<pdfrwt beam="2">  1       -2 0.47283316E-01 0.10007527E+04</pdfrwt>
<totfact> 0.17249778E+02</totfact>
</mgrwt>
</event>
<event>
 9    1  0.4370149E-036  0.1000802E+04  0.7818608E-02  0.8680274E-01
         -2   -1    0    0    0  501 -0.00000000000E+00  0.00000000000E+00  0.34652222882E+03  0.34652222882E+03  0.00000000000E+00 0. -1.
          2   -1    0    0  501    0  0.00000000000E+00 -0.00000000000E+00 -0.72261235989E+03  0.72261235989E+03  0.00000000000E+00 0. -1.
         36    2    1    2    0    0  0.00000000000E+00  0.71054273576E-14 -0.37609013107E+03  0.10691345887E+04  0.10008021693E+04 0.  0.
         25    2    3    3    0    0  0.10644257679E+03 -0.12762405682E+02 -0.17374086782E+03  0.23948997668E+03  0.12520646401E+03 0.  0.
         35    2    3    3    0    0 -0.10644257679E+03  0.12762405682E+02 -0.20234926325E+03  0.82964461203E+03  0.79741586188E+03 0.  0.
         22    1    5    5    0    0 -0.26025969961E+03 -0.20870061310E+03  0.16642199068E+03  0.37281005369E+03  0.00000000000E+00 0.  1.
         22    1    5    5    0    0  0.15381712282E+03  0.22146301878E+03 -0.36877125394E+03  0.45683455834E+03  0.00000000000E+00 0.  1.
          5    1    4    4  502    0  0.36899640328E+02  0.50703237961E+02 -0.35636157525E+02  0.72280201433E+02  0.47000000000E+01 0.  1.
         -5    1    4    4    0  502  0.69542936459E+02 -0.63465643643E+02 -0.13810471029E+03  0.16720977525E+03  0.47000000000E+01 0.  1.
<mgrwt>
<rscale>  0 0.10008022E+04</rscale>
<asrwt>0</asrwt>
<pdfrwt beam="1">  1        2 0.11117113E+00 0.10008022E+04</pdfrwt>
<pdfrwt beam="2">  1       -2 0.53311112E-01 0.10008022E+04</pdfrwt>
<totfact> 0.15795791E+02</totfact>
</mgrwt>
</event>
<event>
 9    1  0.4370149E-036  0.9994992E+03  0.7818608E-02  0.8681515E-01
          2   -1    0    0  501    0  0.00000000000E+00  0.00000000000E+00  0.11112866512E+04  0.11112866512E+04  0.00000000000E+00 0.  1.
         -2   -1    0    0    0  501 -0.00000000000E+00 -0.00000000000E+00 -0.22473920773E+03  0.22473920773E+03  0.00000000000E+00 0.  1.
         36    2    1    2    0    0 -0.35527136788E-13 -0.28421709430E-13  0.88654744343E+03  0.13360258589E+04  0.99949923772E+03 0.  0.
         25    2    3    3    0    0 -0.24378922138E+02  0.66957061849E+02  0.32734762965E+03  0.35783329468E+03  0.12574027266E+03 0.  0.
         35    2    3    3    0    0  0.24378922138E+02 -0.66957061849E+02  0.55919981378E+03  0.97819256422E+03  0.79942396823E+03 0.  0.
         22    1    5    5    0    0 -0.29180195111E+03  0.20643131889E+03  0.13339857417E+03  0.38151991780E+03  0.00000000000E+00 0.  1.
         22    1    5    5    0    0  0.31618087325E+03 -0.27338838074E+03  0.42580123960E+03  0.59667264641E+03  0.00000000000E+00 0.  1.
          5    1    4    4  502    0 -0.34167267348E+02  0.10206549857E+03  0.24023119629E+03  0.26328290075E+03  0.47000000000E+01 0.  1.
         -5    1    4    4    0  502  0.97883452097E+01 -0.35108436722E+02  0.87116433367E+02  0.94550393936E+02  0.47000000000E+01 0.  1.
<mgrwt>
<rscale>  0 0.99949924E+03</rscale>
<asrwt>0</asrwt>
<pdfrwt beam="1">  1        2 0.17096717E+00 0.99949924E+03</pdfrwt>
<pdfrwt beam="2">  1       -2 0.34575263E-01 0.99949924E+03</pdfrwt>
<totfact> 0.20283858E+02</totfact>
</mgrwt>
</event>
<event>
 9    1  0.4370149E-036  0.1002671E+04  0.7818608E-02  0.8678499E-01
          2   -1    0    0  501    0  0.00000000000E+00  0.00000000000E+00  0.33505133405E+03  0.33505133405E+03  0.00000000000E+00 0. -1.
         -2   -1    0    0    0  501 -0.00000000000E+00 -0.00000000000E+00 -0.75014548508E+03  0.75014548508E+03  0.00000000000E+00 0. -1.
         36    2    1    2    0    0  0.14210854715E-13  0.71054273576E-14 -0.41509415104E+03  0.10851968191E+04  0.10026709241E+04 0.  0.
         25    2    3    3    0    0  0.12729370954E+03 -0.26335134341E+02 -0.13945733864E+03  0.22940184577E+03  0.12759165236E+03 0.  0.
         35    2    3    3    0    0 -0.12729370954E+03  0.26335134341E+02 -0.27563681239E+03  0.85579497336E+03  0.79969503956E+03 0.  0.
         22    1    5    5    0    0 -0.12925170314E+03 -0.21292966079E+03 -0.48022464494E+03  0.54098128694E+03  0.00000000000E+00 0. -1.
         22    1    5    5    0    0  0.19579935955E+01  0.23926479513E+03  0.20458783255E+03  0.31481368642E+03  0.00000000000E+00 0. -1.
          5    1    4    4  502    0  0.89107928178E+02 -0.55413774417E+02 -0.14691515734E+03  0.18060194549E+03  0.47000000000E+01 0. -1.
         -5    1    4    4    0  502  0.38185781366E+02  0.29078640077E+02  0.74578186989E+01  0.48799900277E+02  0.47000000000E+01 0. -1.
<mgrwt>
<rscale>  0 0.10026709E+04</rscale>
<asrwt>0</asrwt>
<pdfrwt beam="1">  1        2 0.51546360E-01 0.10026709E+04</pdfrwt>
<pdfrwt beam="2">  1       -2 0.11540700E+00 0.10026709E+04</pdfrwt>
<totfact> 0.66471733E+01</totfact>
</mgrwt>
</event>
<event>
 9    1  0.4370149E-036  0.9957629E+03  0.7818608E-02  0.8685083E-01
         -1   -1    0    0    0  501 -0.00000000000E+00  0.00000000000E+00  0.33874671211E+03  0.33874671211E+03  0.00000000000E+00 0. -1.
          1   -1    0    0  501    0  0.00000000000E+00 -0.00000000000E+00 -0.73177367246E+03  0.73177367246E+03  0.00000000000E+00 0. -1.
         36    2    1    2    0    0  0.14210854715E-13  0.14210854715E-13 -0.39302696035E+03  0.10705203846E+04  0.99576287449E+03 0.  0.
         25    2    3    3    0    0 -0.36981838789E+02  0.12127798527E+03 -0.12736616591E+03  0.21908607276E+03  0.12530187927E+03 0.  0.
         35    2    3    3    0    0  0.36981838789E+02 -0.12127798527E+03 -0.26566079444E+03  0.85143431180E+03  0.79892973627E+03 0.  0.
         22    1    5    5    0    0 -0.21772570436E+03 -0.37664789060E+03 -0.22110902714E+03  0.48801364501E+03  0.00000000000E+00 0. -1.
         22    1    5    5    0    0  0.25470754315E+03  0.25536990533E+03 -0.44551767301E+02  0.36342066679E+03  0.00000000000E+00 0. -1.
          5    1    4    4  502    0  0.29980773390E+02  0.99188664461E+02 -0.52945705101E+02  0.11645847165E+03  0.47000000000E+01 0.  1.
         -5    1    4    4    0  502 -0.66962612179E+02  0.22089320809E+02 -0.74420460805E+02  0.10262760111E+03  0.47000000000E+01 0.  1.
<mgrwt>
<rscale>  0 0.99576287E+03</rscale>
<asrwt>0</asrwt>
<pdfrwt beam="1">  1        1 0.11258056E+00 0.99576287E+03</pdfrwt>
<pdfrwt beam="2">  1       -1 0.52114879E-01 0.99576287E+03</pdfrwt>
<totfact> 0.10816687E+02</totfact>
</mgrwt>
</event>
<event>
 9    1  0.4370149E-036  0.1002848E+04  0.7818608E-02  0.8678331E-01
          2   -1    0    0  501    0  0.00000000000E+00  0.00000000000E+00  0.12507858912E+04  0.12507858912E+04  0.00000000000E+00 0.  1.
         -2   -1    0    0    0  501 -0.00000000000E+00 -0.00000000000E+00 -0.20101435534E+03  0.20101435534E+03  0.00000000000E+00 0.  1.
         36    2    1    2    0    0 -0.14210854715E-13  0.00000000000E+00  0.10497715359E+04  0.14518002466E+04  0.10028477843E+04 0.  0.
         25    2    3    3    0    0 -0.10438424573E+03 -0.99688464507E+02  0.26826478063E+03  0.32905525449E+03  0.12440863020E+03 0.  0.
         35    2    3    3    0    0  0.10438424573E+03  0.99688464507E+02  0.78150675524E+03  0.11227449921E+04  0.79307606698E+03 0.  0.
         22    1    5    5    0    0  0.16210588702E+03  0.38843789560E+02  0.93397399670E+03  0.94873314747E+03  0.00000000000E+00 0.  1.
         22    1    5    5    0    0 -0.57721641286E+02  0.60844674946E+02 -0.15246724146E+03  0.17401184460E+03  0.00000000000E+00 0.  1.
          5    1    4    4  502    0 -0.10552802884E+00 -0.50996503836E+02  0.19285128456E+02  0.54723493303E+02  0.47000000000E+01 0.  1.
         -5    1    4    4    0  502 -0.10427871770E+03 -0.48691960670E+02  0.24897965217E+03  0.27433176118E+03  0.47000000000E+01 0.  1.
<mgrwt>
<rscale>  0 0.10028478E+04</rscale>
<asrwt>0</asrwt>
<pdfrwt beam="1">  1        2 0.19242859E+00 0.10028478E+04</pdfrwt>
<pdfrwt beam="2">  1       -2 0.30925286E-01 0.10028478E+04</pdfrwt>
<totfact> 0.20593869E+02</totfact>
</mgrwt>
</event>
<event>
 9    1  0.4370149E-036  0.9997466E+03  0.7818608E-02  0.8681279E-01
          1   -1    0    0  501    0  0.00000000000E+00  0.00000000000E+00  0.26692863499E+04  0.26692863499E+04  0.00000000000E+00 0.  1.
         -1   -1    0    0    0  501 -0.00000000000E+00 -0.00000000000E+00 -0.93610531443E+02  0.93610531443E+02  0.00000000000E+00 0.  1.
         36    2    1    2    0    0  0.00000000000E+00  0.28421709430E-13  0.25756758185E+04  0.27628968814E+04  0.99974659547E+03 0.  0.
         25    2    3    3    0    0  0.50089918966E+02 -0.11278323553E+03  0.69594123933E+03  0.71776529082E+03  0.12499498349E+03 0.  0.
         35    2    3    3    0    0 -0.50089918966E+02  0.11278323553E+03  0.18797345791E+04  0.20451315905E+04  0.79619851571E+03 0.  0.
         22    1    5    5    0    0 -0.16196914212E+03  0.30182533928E+03  0.31597301326E+03  0.46601661294E+03  0.00000000000E+00 0.  1.
         22    1    5    5    0    0  0.11187922315E+03 -0.18904210375E+03  0.15637615659E+04  0.15791149776E+04  0.00000000000E+00 0.  1.
          5    1    4    4  502    0  0.62347711399E+02 -0.11425446580E+02  0.39151133341E+03  0.39663710383E+03  0.47000000000E+01 0. -1.
         -5    1    4    4    0  502 -0.12257792432E+02 -0.10135778895E+03  0.30442990592E+03  0.32112818699E+03  0.47000000000E+01 0. -1.
<mgrwt>
<rscale>  0 0.99974660E+03</rscale>
<asrwt>0</asrwt>
<pdfrwt beam="1">  1        1 0.41065938E+00 0.99974660E+03</pdfrwt>
<pdfrwt beam="2">  1       -1 0.14401622E-01 0.99974660E+03</pdfrwt>
<totfact> 0.36868728E+01</totfact>
</mgrwt>
</event>
<event>
 9    1  0.4370149E-036  0.9963939E+03  0.7818608E-02  0.8684480E-01
          2   -1    0    0  501    0  0.00000000000E+00  0.00000000000E+00  0.20977209193E+04  0.20977209193E+04  0.00000000000E+00 0. -1.
         -2   -1    0    0    0  501 -0.00000000000E+00 -0.00000000000E+00 -0.11831897685E+03  0.11831897685E+03  0.00000000000E+00 0. -1.
         36    2    1    2    0    0  0.71054273576E-14 -0.35527136788E-13  0.19794019424E+04  0.22160398961E+04  0.99639388373E+03 0.  0.
         25    2    3    3    0    0  0.12543258891E+02  0.31501900611E+02  0.77430517512E+02  0.15224636749E+03  0.12662451692E+03 0.  0.
         35    2    3    3    0    0 -0.12543258891E+02 -0.31501900611E+02  0.19019714249E+04  0.20637935286E+04  0.80037411538E+03 0.  0.
         22    1    5    5    0    0  0.11993255541E+03 -0.39512378102E+03  0.92610392574E+03  0.10139896949E+04  0.00000000000E+00 0. -1.
         22    1    5    5    0    0 -0.13247581431E+03  0.36362188041E+03  0.97586749918E+03  0.10498038337E+04  0.00000000000E+00 0. -1.
          5    1    4    4  502    0 -0.50552444287E+02  0.31128271989E+01  0.63760401567E+02  0.81564196340E+02  0.47000000000E+01 0. -1.
         -5    1    4    4    0  502  0.63095703178E+02  0.28389073412E+02  0.13670115945E+02  0.70682171151E+02  0.47000000000E+01 0. -1.
<mgrwt>
<rscale>  0 0.99639388E+03</rscale>
<asrwt>0</asrwt>
<pdfrwt beam="1">  1        2 0.32272627E+00 0.99639388E+03</pdfrwt>
<pdfrwt beam="2">  1       -2 0.18202921E-01 0.99639388E+03</pdfrwt>
<totfact> 0.17332128E+02</totfact>
</mgrwt>
</event>
<event>
 9    1  0.4370149E-036  0.9995578E+03  0.7818608E-02  0.8681459E-01
         -1   -1    0    0    0  501 -0.00000000000E+00  0.00000000000E+00  0.40698533029E+03  0.40698533029E+03  0.00000000000E+00 0.  1.
          1   -1    0    0  501    0  0.00000000000E+00 -0.00000000000E+00 -0.61372959986E+03  0.61372959986E+03  0.00000000000E+00 0.  1.
         36    2    1    2    0    0 -0.71054273576E-14  0.00000000000E+00 -0.20674426958E+03  0.10207149302E+04  0.99955779004E+03 0.  0.
         25    2    3    3    0    0  0.17889405277E+02  0.27859308007E+02  0.95388173286E+02  0.16542141190E+03  0.13103117205E+03 0.  0.
         35    2    3    3    0    0 -0.17889405277E+02 -0.27859308007E+02 -0.30213244286E+03  0.85529351825E+03  0.79946658308E+03 0.  0.
         22    1    5    5    0    0  0.31380527841E+03 -0.22511337442E+03 -0.38904337018E+02  0.38815374729E+03  0.00000000000E+00 0.  1.
         22    1    5    5    0    0 -0.33169468368E+03  0.19725406641E+03 -0.26322810585E+03  0.46713977095E+03  0.00000000000E+00 0.  1.
          5    1    4    4  502    0 -0.49063852059E+02  0.39236723950E+02  0.25813806200E+02  0.68082484353E+02  0.47000000000E+01 0. -1.
         -5    1    4    4    0  502  0.66953257336E+02 -0.11377415943E+02  0.69574367086E+02  0.97338927551E+02  0.47000000000E+01 0. -1.
<mgrwt>
<rscale>  0 0.99955779E+03</rscale>
<asrwt>0</asrwt>
<pdfrwt beam="1">  1        1 0.94419938E-01 0.99955779E+03</pdfrwt>
<pdfrwt beam="2">  1       -1 0.62613128E-01 0.99955779E+03</pdfrwt>
<totfact> 0.99602184E+01</totfact>
</mgrwt>
</event>
<event>
 9    1  0.4370149E-036  0.9998825E+03  0.7818608E-02  0.8681150E-01
         -1   -1    0    0    0  501 -0.00000000000E+00  0.00000000000E+00  0.15945896740E+04  0.15945896740E+04  0.00000000000E+00 0.  1.
          1   -1    0    0  501    0  0.00000000000E+00 -0.00000000000E+00 -0.15674329897E+03  0.15674329897E+03  0.00000000000E+00 0.  1.
         36    2    1    2    0    0  0.00000000000E+00 -0.42632564146E-13  0.14378463750E+04  0.17513329730E+04  0.99988248511E+03 0.  0.
         25    2    3    3    0    0 -0.64598809477E+02  0.12251626020E+03  0.23846049974E+03  0.30258633702E+03  0.12454654236E+03 0.  0.
         35    2    3    3    0    0  0.64598809477E+02 -0.12251626020E+03  0.11993858753E+04  0.14487466359E+04  0.80072285913E+03 0.  0.
         22    1    5    5    0    0  0.24028670500E+03 -0.41022522321E+03  0.71212413365E+03  0.85623782682E+03  0.00000000000E+00 0. -1.
         22    1    5    5    0    0 -0.17568789552E+03  0.28770896301E+03  0.48726174163E+03  0.59250880912E+03  0.00000000000E+00 0. -1.
          5    1    4    4  502    0  0.97965820238E+01  0.92156073643E+02  0.71185265041E+02  0.11695360998E+03  0.47000000000E+01 0. -1.
         -5    1    4    4    0  502 -0.74395391500E+02  0.30360186560E+02  0.16727523470E+03  0.18563272704E+03  0.47000000000E+01 0. -1.
<mgrwt>
<rscale>  0 0.99988249E+03</rscale>
<asrwt>0</asrwt>
<pdfrwt beam="1">  1        1 0.24114355E-01 0.99988249E+03</pdfrwt>
<pdfrwt beam="2">  1       -1 0.24532148E+00 0.99988249E+03</pdfrwt>
<totfact> 0.12711023E+01</totfact>
</mgrwt>
</event>
<event>
 9    1  0.4370149E-036  0.1000482E+04  0.7818608E-02  0.8680579E-01
          1   -1    0    0  501    0  0.00000000000E+00  0.00000000000E+00  0.45392085779E+03  0.45392085779E+03  0.00000000000E+00 0. -1.
         -1   -1    0    0    0  501 -0.00000000000E+00 -0.00000000000E+00 -0.55128772597E+03  0.55128772597E+03  0.00000000000E+00 0. -1.
         36    2    1    2    0    0 -0.14210854715E-13 -0.71054273576E-14 -0.97366868190E+02  0.10052085838E+04  0.10004818788E+04 0.  0.
         25    2    3    3    0    0  0.11431913624E+03  0.41752533896E+02 -0.90537646005E+02  0.19628526873E+03  0.12457408390E+03 0.  0.
         35    2    3    3    0    0 -0.11431913624E+03 -0.41752533896E+02 -0.68292221842E+01  0.80892331503E+03  0.79968628369E+03 0.  0.
         22    1    5    5    0    0 -0.32106241996E+00  0.21367302262E+03 -0.32268694841E+03  0.38701825583E+03  0.00000000000E+00 0.  1.
         22    1    5    5    0    0 -0.11399807382E+03 -0.25542555651E+03  0.31585772623E+03  0.42190505919E+03  0.00000000000E+00 0.  1.
          5    1    4    4  502    0  0.17561585028E+02 -0.22347390840E+02  0.20684343585E+02  0.35464731997E+02  0.47000000000E+01 0.  1.
         -5    1    4    4    0  502  0.96757551212E+02  0.64099924736E+02 -0.11122198959E+03  0.16082053674E+03  0.47000000000E+01 0.  1.
<mgrwt>
<rscale>  0 0.10004819E+04</rscale>
<asrwt>0</asrwt>
<pdfrwt beam="1">  1        1 0.69833978E-01 0.10004819E+04</pdfrwt>
<pdfrwt beam="2">  1       -1 0.84813496E-01 0.10004819E+04</pdfrwt>
<totfact> 0.82559065E+01</totfact>
</mgrwt>
</event>
<event>
 9    1  0.4370149E-036  0.1000761E+04  0.7818608E-02  0.8680313E-01
         -2   -1    0    0    0  501 -0.00000000000E+00  0.00000000000E+00  0.37174286302E+03  0.37174286302E+03  0.00000000000E+00 0.  1.
          2   -1    0    0  501    0  0.00000000000E+00 -0.00000000000E+00 -0.67353197097E+03  0.67353197097E+03  0.00000000000E+00 0.  1.
         36    2    1    2    0    0  0.35527136788E-13  0.14210854715E-13 -0.30178910795E+03  0.10452748340E+04  0.10007611168E+04 0.  0.
         25    2    3    3    0    0  0.41954410618E+02  0.52596573280E+02  0.72888887793E+02  0.15965580478E+03  0.12510241382E+03 0.  0.
         35    2    3    3    0    0 -0.41954410618E+02 -0.52596573280E+02 -0.37467799574E+03  0.88561902921E+03  0.79963172294E+03 0.  0.
         22    1    5    5    0    0  0.30921140948E+03 -0.21203872493E+03 -0.32610126287E+03  0.49690456858E+03  0.00000000000E+00 0. -1.
         22    1    5    5    0    0 -0.35116582010E+03  0.15944215165E+03 -0.48576732864E+02  0.38871446064E+03  0.00000000000E+00 0. -1.
          5    1    4    4  502    0  0.30941699519E+02 -0.38169210224E+02  0.16090278837E+02  0.51915936391E+02  0.47000000000E+01 0.  1.
         -5    1    4    4    0  502  0.11012711099E+02  0.90765783504E+02  0.56798608956E+02  0.10773986839E+03  0.47000000000E+01 0.  1.
<mgrwt>
<rscale>  0 0.10007611E+04</rscale>
<asrwt>0</asrwt>
<pdfrwt beam="1">  1        2 0.10362030E+00 0.10007611E+04</pdfrwt>
<pdfrwt beam="2">  1       -2 0.57191210E-01 0.10007611E+04</pdfrwt>
<totfact> 0.14913598E+02</totfact>
</mgrwt>
</event>
<event>
 9    1  0.4370149E-036  0.1000637E+04  0.7818608E-02  0.8680431E-01
         -2   -1    0    0    0  501 -0.00000000000E+00  0.00000000000E+00  0.42251528142E+03  0.42251528142E+03  0.00000000000E+00 0.  1.
          2   -1    0    0  501    0  0.00000000000E+00 -0.00000000000E+00 -0.59244904545E+03  0.59244904545E+03  0.00000000000E+00 0.  1.
         36    2    1    2    0    0  0.26645352591E-13  0.71054273576E-14 -0.16993376402E+03  0.10149643269E+04  0.10006373472E+04 0.  0.
         25    2    3    3    0    0  0.54833592628E+00 -0.17131974233E+01  0.11025541998E+03  0.16716456364E+03  0.12563637206E+03 0.  0.
         35    2    3    3    0    0 -0.54833592628E+00  0.17131974233E+01 -0.28018918400E+03  0.84779976323E+03  0.80015949909E+03 0.  0.
         22    1    5    5    0    0  0.30202376825E+03 -0.10005731445E+03 -0.39620586161E+03  0.50814260551E+03  0.00000000000E+00 0. -1.
         22    1    5    5    0    0 -0.30257210417E+03  0.10177051187E+03  0.11601667761E+03  0.33965715773E+03  0.00000000000E+00 0. -1.
          5    1    4    4  502    0  0.81955234881E+01  0.37929705306E+02 -0.98979372878E+01  0.40322305395E+02  0.47000000000E+01 0. -1.
         -5    1    4    4    0  502 -0.76471875618E+01 -0.39642902729E+02  0.12015335726E+03  0.12684225824E+03  0.47000000000E+01 0. -1.
<mgrwt>
<rscale>  0 0.10006373E+04</rscale>
<asrwt>0</asrwt>
<pdfrwt beam="1">  1        2 0.91146007E-01 0.10006373E+04</pdfrwt>
<pdfrwt beam="2">  1       -2 0.65002351E-01 0.10006373E+04</pdfrwt>
<totfact> 0.13301998E+02</totfact>
</mgrwt>
</event>
<event>
 9    1  0.4370149E-036  0.1000088E+04  0.7818608E-02  0.8680954E-01
         -1   -1    0    0    0  501 -0.00000000000E+00  0.00000000000E+00  0.46162005745E+03  0.46162005745E+03  0.00000000000E+00 0. -1.
          1   -1    0    0  501    0  0.00000000000E+00 -0.00000000000E+00 -0.54166626746E+03  0.54166626746E+03  0.00000000000E+00 0. -1.
         36    2    1    2    0    0  0.00000000000E+00  0.35527136788E-14 -0.80046210009E+02  0.10032863249E+04  0.10000880231E+04 0.  0.
         25    2    3    3    0    0  0.65889693694E+02  0.22835757307E+02 -0.14070552917E+03  0.19694284455E+03  0.11885080788E+03 0.  0.
         35    2    3    3    0    0 -0.65889693694E+02 -0.22835757307E+02  0.60659319165E+02  0.80634348035E+03  0.80102892068E+03 0.  0.
         22    1    5    5    0    0  0.11430987410E+03 -0.91558922776E+02  0.39449470949E+03  0.42080382540E+03  0.00000000000E+00 0. -1.
         22    1    5    5    0    0 -0.18019956779E+03  0.68723165469E+02 -0.33383539033E+03  0.38553965495E+03  0.00000000000E+00 0. -1.
          5    1    4    4  502    0  0.14973599498E+02 -0.31361401359E+02  0.28680498262E+01  0.35186103605E+02  0.47000000000E+01 0. -1.
         -5    1    4    4    0  502  0.50916094196E+02  0.54197158666E+02 -0.14357357900E+03  0.16175674095E+03  0.47000000000E+01 0. -1.
<mgrwt>
<rscale>  0 0.10000880E+04</rscale>
<asrwt>0</asrwt>
<pdfrwt beam="1">  1        1 0.83333272E-01 0.10000880E+04</pdfrwt>
<pdfrwt beam="2">  1       -1 0.71018470E-01 0.10000880E+04</pdfrwt>
<totfact> 0.93153763E+01</totfact>
</mgrwt>
</event>
<event>
 9    1  0.4370149E-036  0.9999441E+03  0.7818608E-02  0.8681091E-01
         -1   -1    0    0    0  501 -0.00000000000E+00  0.00000000000E+00  0.47333525663E+03  0.47333525663E+03  0.00000000000E+00 0.  1.
          1   -1    0    0  501    0  0.00000000000E+00 -0.00000000000E+00 -0.52810786561E+03  0.52810786561E+03  0.00000000000E+00 0.  1.
         36    2    1    2    0    0 -0.71054273576E-14 -0.28421709430E-13 -0.54772608973E+02  0.10014431222E+04  0.99994414263E+03 0.  0.
         25    2    3    3    0    0 -0.47920464268E+01 -0.13273531754E+03  0.11104817177E+01  0.18951882440E+03  0.13518329556E+03 0.  0.
         35    2    3    3    0    0  0.47920464268E+01  0.13273531754E+03 -0.55883090691E+02  0.81192429784E+03  0.79903474103E+03 0.  0.
         22    1    5    5    0    0 -0.23510300180E+03 -0.24608513970E+03 -0.11590266220E+03  0.35953406590E+03  0.00000000000E+00 0. -1.
         22    1    5    5    0    0  0.23989504823E+03  0.37882045724E+03  0.60019571512E+02  0.45239023194E+03  0.00000000000E+00 0. -1.
          5    1    4    4  502    0  0.49319491244E+02 -0.25544503431E+02  0.33539631239E+02  0.65053291506E+02  0.47000000000E+01 0.  1.
         -5    1    4    4    0  502 -0.54111537671E+02 -0.10719081411E+03 -0.32429149521E+02  0.12446553289E+03  0.47000000000E+01 0.  1.
<mgrwt>
<rscale>  0 0.99994414E+03</rscale>
<asrwt>0</asrwt>
<pdfrwt beam="1">  1        1 0.81247363E-01 0.99994414E+03</pdfrwt>
<pdfrwt beam="2">  1       -1 0.72820809E-01 0.99994414E+03</pdfrwt>
<totfact> 0.91824384E+01</totfact>
</mgrwt>
</event>
<event>
 9    1  0.4370149E-036  0.9998135E+03  0.7818608E-02  0.8681216E-01
         -1   -1    0    0    0  501 -0.00000000000E+00  0.00000000000E+00  0.19872162516E+03  0.19872162516E+03  0.00000000000E+00 0.  1.
          1   -1    0    0  501    0  0.00000000000E+00 -0.00000000000E+00 -0.12575721047E+04  0.12575721047E+04  0.00000000000E+00 0.  1.
         36    2    1    2    0    0 -0.28421709430E-13  0.14210854715E-13 -0.10588504795E+04  0.14562937299E+04  0.99981352741E+03 0.  0.
         25    2    3    3    0    0  0.72209898384E+02 -0.75599357174E+02 -0.66048496143E+02  0.17572591387E+03  0.12485055360E+03 0.  0.
         35    2    3    3    0    0 -0.72209898384E+02  0.75599357174E+02 -0.99280198340E+03  0.12805678160E+04  0.80204028631E+03 0.  0.
         22    1    5    5    0    0 -0.42619288381E+03  0.96430091743E+02 -0.67677441385E+03  0.80558223916E+03  0.00000000000E+00 0. -1.
         22    1    5    5    0    0  0.35398298543E+03 -0.20830734569E+02 -0.31602756955E+03  0.47498557682E+03  0.00000000000E+00 0. -1.
          5    1    4    4  502    0  0.89692180086E+02 -0.75491049638E+02 -0.88443926082E+02  0.14692856701E+03  0.47000000000E+01 0.  1.
         -5    1    4    4    0  502 -0.17482281701E+02 -0.10830753624E+00  0.22395429939E+02  0.28797346860E+02  0.47000000000E+01 0.  1.
<mgrwt>
<rscale>  0 0.99981353E+03</rscale>
<asrwt>0</asrwt>
<pdfrwt beam="1">  1        1 0.19347263E+00 0.99981353E+03</pdfrwt>
<pdfrwt beam="2">  1       -1 0.30572557E-01 0.99981353E+03</pdfrwt>
<totfact> 0.10514165E+02</totfact>
</mgrwt>
</event>
<event>
 9    1  0.4370149E-036  0.1000316E+04  0.7818608E-02  0.8680737E-01
          2   -1    0    0  501    0  0.00000000000E+00  0.00000000000E+00  0.16372549352E+04  0.16372549352E+04  0.00000000000E+00 0.  1.
         -2   -1    0    0    0  501 -0.00000000000E+00 -0.00000000000E+00 -0.15279109345E+03  0.15279109345E+03  0.00000000000E+00 0.  1.
         36    2    1    2    0    0  0.00000000000E+00 -0.14210854715E-13  0.14844638418E+04  0.17900460287E+04  0.10003158937E+04 0.  0.
         25    2    3    3    0    0 -0.95208439045E+02 -0.83091197966E+02  0.16652500371E+03  0.24315604632E+03  0.12419940401E+03 0.  0.
         35    2    3    3    0    0  0.95208439045E+02  0.83091197966E+02  0.13179388381E+04  0.15468899823E+04  0.79996065064E+03 0.  0.
         22    1    5    5    0    0 -0.32672331699E+03 -0.72929903894E+02  0.37852138138E+03  0.50531706177E+03  0.00000000000E+00 0.  1.
         22    1    5    5    0    0  0.42193175604E+03  0.15602110186E+03  0.93941745667E+03  0.10415729206E+04  0.00000000000E+00 0.  1.
          5    1    4    4  502    0 -0.65040784886E+02 -0.10891343151E+03  0.15727378930E+03  0.20211277560E+03  0.47000000000E+01 0.  1.
         -5    1    4    4    0  502 -0.30167654159E+02  0.25822233549E+02  0.92512144177E+01  0.41043270716E+02  0.47000000000E+01 0.  1.
<mgrwt>
<rscale>  0 0.10003159E+04</rscale>
<asrwt>0</asrwt>
<pdfrwt beam="1">  1        2 0.25188536E+00 0.10003159E+04</pdfrwt>
<pdfrwt beam="2">  1       -2 0.23506323E-01 0.10003159E+04</pdfrwt>
<totfact> 0.20274076E+02</totfact>
</mgrwt>
</event>
<event>
 9    1  0.4370149E-036  0.1000273E+04  0.7818608E-02  0.8680778E-01
          1   -1    0    0  501    0  0.00000000000E+00  0.00000000000E+00  0.21374522247E+04  0.21374522247E+04  0.00000000000E+00 0. -1.
         -1   -1    0    0    0  501 -0.00000000000E+00 -0.00000000000E+00 -0.11702543468E+03  0.11702543468E+03  0.00000000000E+00 0. -1.
         36    2    1    2    0    0  0.14210854715E-13  0.14210854715E-13  0.20204267901E+04  0.22544776594E+04  0.10002725143E+04 0.  0.
         25    2    3    3    0    0 -0.90450042027E+02 -0.81372044275E+02  0.53852567685E+03  0.56588024843E+03  0.12412868824E+03 0.  0.
         35    2    3    3    0    0  0.90450042027E+02  0.81372044275E+02  0.14819011132E+04  0.16885974110E+04  0.80032973666E+03 0.  0.
         22    1    5    5    0    0  0.14137498595E+03  0.16670435706E+03  0.15517903045E+04  0.15671089236E+04  0.00000000000E+00 0.  1.
         22    1    5    5    0    0 -0.50924943924E+02 -0.85332312785E+02 -0.69889191259E+02  0.12148848741E+03  0.00000000000E+00 0.  1.
          5    1    4    4  502    0 -0.11573304210E+03 -0.47072653846E+02  0.45669885445E+03  0.47350385999E+03  0.47000000000E+01 0. -1.
         -5    1    4    4    0  502  0.25283000071E+02 -0.34299390429E+02  0.81826822406E+02  0.92376388441E+02  0.47000000000E+01 0. -1.
<mgrwt>
<rscale>  0 0.10002725E+04</rscale>
<asrwt>0</asrwt>
<pdfrwt beam="1">  1        1 0.32883877E+00 0.10002725E+04</pdfrwt>
<pdfrwt beam="2">  1       -1 0.18003915E-01 0.10002725E+04</pdfrwt>
<totfact> 0.60653476E+01</totfact>
</mgrwt>
</event>
<event>
 9    1  0.4370149E-036  0.9995908E+03  0.7818608E-02  0.8681428E-01
          3   -1    0    0  501    0  0.00000000000E+00  0.00000000000E+00  0.35176382793E+03  0.35176382793E+03  0.00000000000E+00 0.  1.
         -3   -1    0    0    0  501 -0.00000000000E+00 -0.00000000000E+00 -0.71012255212E+03  0.71012255212E+03  0.00000000000E+00 0.  1.
         36    2    1    2    0    0 -0.28421709430E-13  0.71054273576E-14 -0.35835872420E+03  0.10618863801E+04  0.99959077073E+03 0.  0.
         25    2    3    3    0    0 -0.12079302233E+03 -0.51690569476E+02 -0.13572877737E+02  0.18146951283E+03  0.12443509095E+03 0.  0.
         35    2    3    3    0    0  0.12079302233E+03  0.51690569476E+02 -0.34478584646E+03  0.88041686722E+03  0.79937082193E+03 0.  0.
         22    1    5    5    0    0  0.44083281857E+03  0.97672609172E+02 -0.32530539346E+03  0.55650436793E+03  0.00000000000E+00 0. -1.
         22    1    5    5    0    0 -0.32003979624E+03 -0.45982039696E+02 -0.19480453002E+02  0.32391249930E+03  0.00000000000E+00 0. -1.
          5    1    4    4  502    0  0.14018424059E+02 -0.13618377515E+02 -0.34325656412E+02  0.39778349731E+02  0.47000000000E+01 0.  1.
         -5    1    4    4    0  502 -0.13481144638E+03 -0.38072191960E+02  0.20752778675E+02  0.14169116310E+03  0.47000000000E+01 0.  1.
<mgrwt>
<rscale>  0 0.99959077E+03</rscale>
<asrwt>0</asrwt>
<pdfrwt beam="1">  1        3 0.54117512E-01 0.99959077E+03</pdfrwt>
<pdfrwt beam="2">  1       -3 0.10924962E+00 0.99959077E+03</pdfrwt>
<totfact> 0.86371987E+00</totfact>
</mgrwt>
</event>
<event>
 9    1  0.4370149E-036  0.1004075E+04  0.7818608E-02  0.8677167E-01
          2   -1    0    0  501    0  0.00000000000E+00  0.00000000000E+00  0.19590687103E+03  0.19590687103E+03  0.00000000000E+00 0.  1.
         -2   -1    0    0    0  501 -0.00000000000E+00 -0.00000000000E+00 -0.12865391168E+04  0.12865391168E+04  0.00000000000E+00 0.  1.
         36    2    1    2    0    0  0.14210854715E-13  0.00000000000E+00 -0.10906322458E+04  0.14824459878E+04  0.10040754012E+04 0.  0.
         25    2    3    3    0    0  0.37959509308E+02  0.21625778395E+02 -0.29533070851E+01  0.13156468339E+03  0.12406427872E+03 0.  0.
         35    2    3    3    0    0 -0.37959509308E+02 -0.21625778395E+02 -0.10876789387E+04  0.13508813044E+04  0.79995389018E+03 0.  0.
         22    1    5    5    0    0  0.36016118561E+03  0.42101309632E+02 -0.71566383560E+03  0.80228631141E+03  0.00000000000E+00 0.  1.
         22    1    5    5    0    0 -0.39812069491E+03 -0.63727088027E+02 -0.37201510308E+03  0.54859499304E+03  0.00000000000E+00 0.  1.
          5    1    4    4  502    0  0.40096410275E+02 -0.32853166554E+02 -0.39860355784E+02  0.65559062171E+02  0.47000000000E+01 0.  1.
         -5    1    4    4    0  502 -0.21369009671E+01  0.54478944949E+02  0.36907048699E+02  0.66005621216E+02  0.47000000000E+01 0.  1.
<mgrwt>
<rscale>  0 0.10040754E+04</rscale>
<asrwt>0</asrwt>
<pdfrwt beam="1">  1        2 0.30139521E-01 0.10040754E+04</pdfrwt>
<pdfrwt beam="2">  1       -2 0.19792908E+00 0.10040754E+04</pdfrwt>
<totfact> 0.26497103E+01</totfact>
</mgrwt>
</event>
<event>
 9    1  0.4370149E-036  0.1000617E+04  0.7818608E-02  0.8680450E-01
         -2   -1    0    0    0  501 -0.00000000000E+00  0.00000000000E+00  0.84856565053E+02  0.84856565053E+02  0.00000000000E+00 0. -1.
          2   -1    0    0  501    0  0.00000000000E+00 -0.00000000000E+00 -0.29497867190E+04  0.29497867190E+04  0.00000000000E+00 0. -1.
         36    2    1    2    0    0 -0.21316282073E-13  0.00000000000E+00 -0.28649301539E+04  0.30346432840E+04  0.10006173467E+04 0.  0.
         25    2    3    3    0    0  0.38066430828E+02  0.13408328717E+03 -0.55068101150E+03  0.58170718184E+03  0.12532472991E+03 0.  0.
         35    2    3    3    0    0 -0.38066430828E+02 -0.13408328717E+03 -0.23142491424E+04  0.24529361022E+04  0.80107368397E+03 0.  0.
         22    1    5    5    0    0  0.35935046081E+03 -0.19091471911E+03 -0.10327141281E+04  0.11099908351E+04  0.00000000000E+00 0.  1.
         22    1    5    5    0    0 -0.39741689164E+03  0.56831431946E+02 -0.12815350143E+04  0.13429452670E+04  0.00000000000E+00 0.  1.
          5    1    4    4  502    0  0.11393243400E+02 -0.20308990454E+02 -0.14243629142E+03  0.14440376797E+03  0.47000000000E+01 0.  1.
         -5    1    4    4    0  502  0.26673187428E+02  0.15439227762E+03 -0.40824472008E+03  0.43730341388E+03  0.47000000000E+01 0.  1.
<mgrwt>
<rscale>  0 0.10006173E+04</rscale>
<asrwt>0</asrwt>
<pdfrwt beam="1">  1        2 0.45381327E+00 0.10006173E+04</pdfrwt>
<pdfrwt beam="2">  1       -2 0.13054858E-01 0.10006173E+04</pdfrwt>
<totfact> 0.91078388E+01</totfact>
</mgrwt>
</event>
<event>
 9    1  0.4370149E-036  0.1005668E+04  0.7818608E-02  0.8675659E-01
          1   -1    0    0  501    0  0.00000000000E+00  0.00000000000E+00  0.88897484717E+03  0.88897484717E+03  0.00000000000E+00 0. -1.
         -1   -1    0    0    0  501 -0.00000000000E+00 -0.00000000000E+00 -0.28441989237E+03  0.28441989237E+03  0.00000000000E+00 0. -1.
         36    2    1    2    0    0  0.00000000000E+00  0.28421709430E-13  0.60455495480E+03  0.11733947395E+04  0.10056681965E+04 0.  0.
         25    2    3    3    0    0 -0.11888320824E+03  0.84971766623E+02  0.93545513622E+02  0.21321093515E+03  0.12391416959E+03 0.  0.
         35    2    3    3    0    0  0.11888320824E+03 -0.84971766623E+02  0.51100944118E+03  0.96018380438E+03  0.79966797541E+03 0.  0.
         22    1    5    5    0    0 -0.56219770897E+02 -0.38310165307E+03  0.47461408005E+03  0.61252433765E+03  0.00000000000E+00 0.  1.
         22    1    5    5    0    0  0.17510297914E+03  0.29812988645E+03  0.36395361129E+02  0.34765946673E+03  0.00000000000E+00 0.  1.
          5    1    4    4  502    0 -0.48893158863E+02 -0.26025489913E+02  0.50301318141E+02  0.74967857883E+02  0.47000000000E+01 0.  1.
         -5    1    4    4    0  502 -0.69990049379E+02  0.11099725654E+03  0.43244195481E+02  0.13824307727E+03  0.47000000000E+01 0.  1.
<mgrwt>
<rscale>  0 0.10056682E+04</rscale>
<asrwt>0</asrwt>
<pdfrwt beam="1">  1        1 0.13676536E+00 0.10056682E+04</pdfrwt>
<pdfrwt beam="2">  1       -1 0.43756907E-01 0.10056682E+04</pdfrwt>
<totfact> 0.10832511E+02</totfact>
</mgrwt>
</event>
<event>
 9    1  0.4370149E-036  0.1000688E+04  0.7818608E-02  0.8680383E-01
         -2   -1    0    0    0  501 -0.00000000000E+00  0.00000000000E+00  0.27262297291E+03  0.27262297291E+03  0.00000000000E+00 0. -1.
          2   -1    0    0  501    0  0.00000000000E+00 -0.00000000000E+00 -0.91827987449E+03  0.91827987449E+03  0.00000000000E+00 0. -1.
         36    2    1    2    0    0 -0.14210854715E-13  0.00000000000E+00 -0.64565690159E+03  0.11909028474E+04  0.10006881419E+04 0.  0.
         25    2    3    3    0    0 -0.51601784012E+02 -0.12061044699E+03 -0.48856181352E+02  0.19054545714E+03  0.12927111334E+03 0.  0.
         35    2    3    3    0    0  0.51601784012E+02  0.12061044699E+03 -0.59680072023E+03  0.10003573903E+04  0.79204430718E+03 0.  0.
         22    1    5    5    0    0  0.32659827982E+03 -0.19344473785E+03 -0.22443824631E+03  0.44097599638E+03  0.00000000000E+00 0. -1.
         22    1    5    5    0    0 -0.27499649580E+03  0.31405518484E+03 -0.37236247392E+03  0.55938139387E+03  0.00000000000E+00 0. -1.
          5    1    4    4  502    0  0.34156741338E+02 -0.26633722281E+02  0.17533524747E+02  0.46963311547E+02  0.47000000000E+01 0.  1.
         -5    1    4    4    0  502 -0.85758525350E+02 -0.93976724711E+02 -0.66389706098E+02  0.14358214559E+03  0.47000000000E+01 0.  1.
<mgrwt>
<rscale>  0 0.10006881E+04</rscale>
<asrwt>0</asrwt>
<pdfrwt beam="1">  1        2 0.14127382E+00 0.10006881E+04</pdfrwt>
<pdfrwt beam="2">  1       -2 0.41941997E-01 0.10006881E+04</pdfrwt>
<totfact> 0.18573466E+02</totfact>
</mgrwt>
</event>
<event>
 9    1  0.4370149E-036  0.1000573E+04  0.7818608E-02  0.8680493E-01
         -1   -1    0    0    0  501 -0.00000000000E+00  0.00000000000E+00  0.94864147936E+03  0.94864147936E+03  0.00000000000E+00 0.  1.
          1   -1    0    0  501    0  0.00000000000E+00 -0.00000000000E+00 -0.26383677135E+03  0.26383677135E+03  0.00000000000E+00 0.  1.
         36    2    1    2    0    0  0.00000000000E+00 -0.28421709430E-13  0.68480470801E+03  0.12124782507E+04  0.10005728461E+04 0.  0.
         25    2    3    3    0    0 -0.93207149934E+02  0.99967250322E+02  0.91936430418E+02  0.20688177409E+03  0.12516683777E+03 0.  0.
         35    2    3    3    0    0  0.93207149934E+02 -0.99967250322E+02  0.59286827759E+03  0.10055964766E+04  0.80065626538E+03 0.  0.
         22    1    5    5    0    0  0.69162786136E+02  0.34450471530E+03  0.16504468851E+03  0.38820965863E+03  0.00000000000E+00 0. -1.
         22    1    5    5    0    0  0.24044363798E+02 -0.44447196562E+03  0.42782358908E+03  0.61738681799E+03  0.00000000000E+00 0. -1.
          5    1    4    4  502    0 -0.58079364063E+02  0.47384328481E+02  0.11672321495E+03  0.13879800439E+03  0.47000000000E+01 0.  1.
         -5    1    4    4    0  502 -0.35127785871E+02  0.52582921841E+02 -0.24786784528E+02  0.68083769702E+02  0.47000000000E+01 0.  1.
<mgrwt>
<rscale>  0 0.10005728E+04</rscale>
<asrwt>0</asrwt>
<pdfrwt beam="1">  1        1 0.40590273E-01 0.10005728E+04</pdfrwt>
<pdfrwt beam="2">  1       -1 0.14594484E+00 0.10005728E+04</pdfrwt>
<totfact> 0.45965139E+01</totfact>
</mgrwt>
</event>
<event>
 9    1  0.4370149E-036  0.9998072E+03  0.7818608E-02  0.8681222E-01
         -2   -1    0    0    0  501 -0.00000000000E+00  0.00000000000E+00  0.12695002502E+03  0.12695002502E+03  0.00000000000E+00 0.  1.
          2   -1    0    0  501    0  0.00000000000E+00 -0.00000000000E+00 -0.19685194381E+04  0.19685194381E+04  0.00000000000E+00 0.  1.
         36    2    1    2    0    0  0.00000000000E+00  0.00000000000E+00 -0.18415694130E+04  0.20954694631E+04  0.99980716525E+03 0.  0.
         25    2    3    3    0    0  0.86309774911E+02 -0.98222479371E+02 -0.25392320817E+03  0.31210562582E+03  0.12584074586E+03 0.  0.
         35    2    3    3    0    0 -0.86309774911E+02  0.98222479371E+02 -0.15876462049E+04  0.17833638373E+04  0.80166643410E+03 0.  0.
         22    1    5    5    0    0  0.22109469943E+03  0.17210376800E+03 -0.16318850386E+03  0.32424228729E+03  0.00000000000E+00 0. -1.
         22    1    5    5    0    0 -0.30740447434E+03 -0.73881288627E+02 -0.14244577010E+04  0.14591215500E+04  0.00000000000E+00 0. -1.
          5    1    4    4  502    0  0.96559357411E+02 -0.17112641433E+02 -0.15758990924E+03  0.18566965690E+03  0.47000000000E+01 0.  1.
         -5    1    4    4    0  502 -0.10249582500E+02 -0.81109837938E+02 -0.96333298936E+02  0.12643596892E+03  0.47000000000E+01 0.  1.
<mgrwt>
<rscale>  0 0.99980717E+03</rscale>
<asrwt>0</asrwt>
<pdfrwt beam="1">  1        2 0.30284914E+00 0.99980717E+03</pdfrwt>
<pdfrwt beam="2">  1       -2 0.19530773E-01 0.99980717E+03</pdfrwt>
<totfact> 0.18200686E+02</totfact>
</mgrwt>
</event>
<event>
 9    1  0.4370149E-036  0.1000000E+04  0.7818608E-02  0.8681038E-01
         -2   -1    0    0    0  501 -0.00000000000E+00  0.00000000000E+00  0.12833778237E+03  0.12833778237E+03  0.00000000000E+00 0.  1.
          2   -1    0    0  501    0  0.00000000000E+00 -0.00000000000E+00 -0.19479860839E+04  0.19479860839E+04  0.00000000000E+00 0.  1.
         36    2    1    2    0    0 -0.42632564146E-13 -0.35527136788E-14 -0.18196483015E+04  0.20763238663E+04  0.10000004282E+04 0.  0.
         25    2    3    3    0    0 -0.58104667379E+02  0.77051434088E+01 -0.78134990792E+02  0.15915508976E+03  0.12565724891E+03 0.  0.
         35    2    3    3    0    0  0.58104667379E+02 -0.77051434088E+01 -0.17415133107E+04  0.19171687765E+04  0.79951984627E+03 0.  0.
         22    1    5    5    0    0 -0.20951020480E+03  0.31557737865E+03 -0.74113181408E+03  0.83232203724E+03  0.00000000000E+00 0.  1.
         22    1    5    5    0    0  0.26761487218E+03 -0.32328252206E+03 -0.10003814967E+04  0.10848467393E+04  0.00000000000E+00 0.  1.
          5    1    4    4  502    0 -0.85041618887E+02  0.39487470223E+02 -0.68285124368E+02  0.11608740439E+03  0.47000000000E+01 0.  1.
         -5    1    4    4    0  502  0.26936951509E+02 -0.31782326814E+02 -0.98498664232E+01  0.43067685367E+02  0.47000000000E+01 0.  1.
<mgrwt>
<rscale>  0 0.10000004E+04</rscale>
<asrwt>0</asrwt>
<pdfrwt beam="1">  1        2 0.29969018E+00 0.10000004E+04</pdfrwt>
<pdfrwt beam="2">  1       -2 0.19744273E-01 0.10000004E+04</pdfrwt>
<totfact> 0.18348178E+02</totfact>
</mgrwt>
</event>
<event>
 9    1  0.4370149E-036  0.9988238E+03  0.7818608E-02  0.8682159E-01
         -1   -1    0    0    0  501 -0.00000000000E+00  0.00000000000E+00  0.59469957300E+03  0.59469957300E+03  0.00000000000E+00 0. -1.
          1   -1    0    0  501    0  0.00000000000E+00 -0.00000000000E+00 -0.41939202890E+03  0.41939202890E+03  0.00000000000E+00 0. -1.
         36    2    1    2    0    0  0.00000000000E+00 -0.14210854715E-13  0.17530754410E+03  0.10140916019E+04  0.99882382933E+03 0.  0.
         25    2    3    3    0    0 -0.96291895982E+02 -0.57151497003E+02  0.11590503939E+03  0.20395789175E+03  0.12500568231E+03 0.  0.
         35    2    3    3    0    0  0.96291895982E+02  0.57151497003E+02  0.59402504708E+02  0.81013371015E+03  0.80015595225E+03 0.  0.
         22    1    5    5    0    0  0.15626378940E+03 -0.90282686490E+02  0.39744226148E+03  0.43649706364E+03  0.00000000000E+00 0. -1.
         22    1    5    5    0    0 -0.59971893422E+02  0.14743418349E+03 -0.33803975677E+03  0.37363664651E+03  0.00000000000E+00 0. -1.
          5    1    4    4  502    0 -0.28314487450E+02 -0.57867999919E+01  0.11495141967E+03  0.11862173552E+03  0.47000000000E+01 0.  1.
         -5    1    4    4    0  502 -0.67977408532E+02 -0.51364697011E+02  0.95361972162E+00  0.85336156231E+02  0.47000000000E+01 0.  1.
<mgrwt>
<rscale>  0 0.99882383E+03</rscale>
<asrwt>0</asrwt>
<pdfrwt beam="1">  1        1 0.64521851E-01 0.99882383E+03</pdfrwt>
<pdfrwt beam="2">  1       -1 0.91492242E-01 0.99882383E+03</pdfrwt>
<totfact> 0.78157103E+01</totfact>
</mgrwt>
</event>
<event>
 9    1  0.4370149E-036  0.9983675E+03  0.7818608E-02  0.8682594E-01
         -2   -1    0    0    0  501 -0.00000000000E+00  0.00000000000E+00  0.39495537159E+03  0.39495537159E+03  0.00000000000E+00 0.  1.
          2   -1    0    0  501    0  0.00000000000E+00 -0.00000000000E+00 -0.63091788523E+03  0.63091788523E+03  0.00000000000E+00 0.  1.
         36    2    1    2    0    0  0.14210854715E-13 -0.14210854715E-13 -0.23596251365E+03  0.10258732568E+04  0.99836748305E+03 0.  0.
         25    2    3    3    0    0 -0.62458992657E+02 -0.84897061270E+02  0.52048264650E+02  0.17234903079E+03  0.12604177794E+03 0.  0.
         35    2    3    3    0    0  0.62458992657E+02  0.84897061270E+02 -0.28801077830E+03  0.85352422603E+03  0.79652040729E+03 0.  0.
         22    1    5    5    0    0  0.34881256353E+03 -0.57388988538E+02 -0.38177582664E+03  0.52030422091E+03  0.00000000000E+00 0.  1.
         22    1    5    5    0    0 -0.28635357087E+03  0.14228604981E+03  0.93765048348E+02  0.33322000512E+03  0.00000000000E+00 0.  1.
          5    1    4    4  502    0 -0.56500311553E+02 -0.11768480040E+03  0.42408859171E+02  0.13734117659E+03  0.47000000000E+01 0. -1.
         -5    1    4    4    0  502 -0.59586811042E+01  0.32787739132E+02  0.96394054781E+01  0.35007854203E+02  0.47000000000E+01 0. -1.
<mgrwt>
<rscale>  0 0.99836748E+03</rscale>
<asrwt>0</asrwt>
<pdfrwt beam="1">  1        2 0.97064289E-01 0.99836748E+03</pdfrwt>
<pdfrwt beam="2">  1       -2 0.60762365E-01 0.99836748E+03</pdfrwt>
<totfact> 0.14230695E+02</totfact>
</mgrwt>
</event>
<event>
 9    1  0.4370149E-036  0.1001905E+04  0.7818608E-02  0.8679226E-01
          2   -1    0    0  501    0  0.00000000000E+00  0.00000000000E+00  0.62210686790E+03  0.62210686790E+03  0.00000000000E+00 0. -1.
         -2   -1    0    0    0  501 -0.00000000000E+00 -0.00000000000E+00 -0.40339288804E+03  0.40339288804E+03  0.00000000000E+00 0. -1.
         36    2    1    2    0    0  0.42632564146E-13 -0.71054273576E-14  0.21871397986E+03  0.10254997559E+04  0.10019051574E+04 0.  0.
         25    2    3    3    0    0 -0.11027531348E+03 -0.56541671486E+02 -0.31953175543E+02  0.17843410766E+03  0.12433873078E+03 0.  0.
         35    2    3    3    0    0  0.11027531348E+03  0.56541671486E+02  0.25066715540E+03  0.84706564828E+03  0.79958025508E+03 0.  0.
         22    1    5    5    0    0 -0.33209324188E+03  0.54708797386E+02 -0.40641741546E+01  0.33659395616E+03  0.00000000000E+00 0.  1.
         22    1    5    5    0    0  0.44236855536E+03  0.18328741005E+01  0.25473132955E+03  0.51047169212E+03  0.00000000000E+00 0.  1.
          5    1    4    4  502    0 -0.11028135099E+03 -0.59537159941E+02 -0.67518894472E+02  0.14243433891E+03  0.47000000000E+01 0. -1.
         -5    1    4    4    0  502  0.60375020544E-02  0.29954884549E+01  0.35565718929E+02  0.35999768756E+02  0.47000000000E+01 0. -1.
<mgrwt>
<rscale>  0 0.10019052E+04</rscale>
<asrwt>0</asrwt>
<pdfrwt beam="1">  1        2 0.95708750E-01 0.10019052E+04</pdfrwt>
<pdfrwt beam="2">  1       -2 0.62060444E-01 0.10019052E+04</pdfrwt>
<totfact> 0.13843293E+02</totfact>
</mgrwt>
</event>
<event>
 9    1  0.4370149E-036  0.9995566E+03  0.7818608E-02  0.8681460E-01
         -2   -1    0    0    0  501 -0.00000000000E+00  0.00000000000E+00  0.18720406730E+03  0.18720406730E+03  0.00000000000E+00 0.  1.
          2   -1    0    0  501    0  0.00000000000E+00 -0.00000000000E+00 -0.13342569914E+04  0.13342569914E+04  0.00000000000E+00 0.  1.
         36    2    1    2    0    0  0.00000000000E+00  0.00000000000E+00 -0.11470529241E+04  0.15214610587E+04  0.99955657293E+03 0.  0.
         25    2    3    3    0    0  0.64239191911E+02 -0.11577288532E+03 -0.28210908864E+03  0.33616662428E+03  0.12606516822E+03 0.  0.
         35    2    3    3    0    0 -0.64239191911E+02  0.11577288532E+03 -0.86494383546E+03  0.11852944344E+04  0.79954050742E+03 0.  0.
         22    1    5    5    0    0 -0.28762430247E+02  0.34286768877E+02  0.15507886021E+03  0.16140728855E+03  0.00000000000E+00 0.  1.
         22    1    5    5    0    0 -0.35476761664E+02  0.81486116445E+02 -0.10200226957E+04  0.10238871459E+04  0.00000000000E+00 0.  1.
          5    1    4    4  502    0 -0.31185399262E+02  0.44120575654E+00 -0.37559933367E+02  0.49046532846E+02  0.47000000000E+01 0.  1.
         -5    1    4    4    0  502  0.95424591173E+02 -0.11621409108E+03 -0.24454915527E+03  0.28712009144E+03  0.47000000000E+01 0.  1.
<mgrwt>
<rscale>  0 0.99955657E+03</rscale>
<asrwt>0</asrwt>
<pdfrwt beam="1">  1        2 0.20527030E+00 0.99955657E+03</pdfrwt>
<pdfrwt beam="2">  1       -2 0.28800627E-01 0.99955657E+03</pdfrwt>
<totfact> 0.20968050E+02</totfact>
</mgrwt>
</event>
<event>
 9    1  0.4370149E-036  0.9982183E+03  0.7818608E-02  0.8682737E-01
          4   -1    0    0  501    0  0.00000000000E+00  0.00000000000E+00  0.96603525844E+03  0.96603525844E+03  0.00000000000E+00 0.  1.
         -4   -1    0    0    0  501 -0.00000000000E+00 -0.00000000000E+00 -0.25786836246E+03  0.25786836246E+03  0.00000000000E+00 0.  1.
         36    2    1    2    0    0 -0.28421709430E-13  0.21316282073E-13  0.70816689598E+03  0.12239036209E+04  0.99821827307E+03 0.  0.
         25    2    3    3    0    0  0.12978970684E+03  0.29067949482E+02  0.93853326495E+02  0.20505841716E+03  0.12470041646E+03 0.  0.
         35    2    3    3    0    0 -0.12978970684E+03 -0.29067949482E+02  0.61431356948E+03  0.10188452037E+04  0.80185664171E+03 0.  0.
         22    1    5    5    0    0  0.18179944286E+03 -0.23084162639E+03  0.57477963982E+03  0.64553119851E+03  0.00000000000E+00 0.  1.
         22    1    5    5    0    0 -0.31158914970E+03  0.20177367691E+03  0.39533929661E+02  0.37331400523E+03  0.00000000000E+00 0.  1.
          5    1    4    4  502    0 -0.24487896432E+02 -0.13696224758E+01  0.14049596422E+02  0.28653343557E+02  0.47000000000E+01 0. -1.
         -5    1    4    4    0  502  0.15427760327E+03  0.30437571958E+02  0.79803730073E+02  0.17640507360E+03  0.47000000000E+01 0. -1.
<mgrwt>
<rscale>  0 0.99821827E+03</rscale>
<asrwt>0</asrwt>
<pdfrwt beam="1">  1        4 0.14862081E+00 0.99821827E+03</pdfrwt>
<pdfrwt beam="2">  1       -4 0.39672056E-01 0.99821827E+03</pdfrwt>
<totfact> 0.37924439E+00</totfact>
</mgrwt>
</event>
<event>
 9    1  0.4370149E-036  0.9999665E+03  0.7818608E-02  0.8681070E-01
         -3   -1    0    0    0  501 -0.00000000000E+00  0.00000000000E+00  0.64294686219E+03  0.64294686219E+03  0.00000000000E+00 0. -1.
          3   -1    0    0  501    0  0.00000000000E+00 -0.00000000000E+00 -0.38880858528E+03  0.38880858528E+03  0.00000000000E+00 0. -1.
         36    2    1    2    0    0  0.00000000000E+00 -0.42632564146E-13  0.25413827691E+03  0.10317554475E+04  0.99996651923E+03 0.  0.
         25    2    3    3    0    0  0.59301774438E+02 -0.10607109019E+02 -0.82187000266E+02  0.16224191555E+03  0.12624787102E+03 0.  0.
         35    2    3    3    0    0 -0.59301774438E+02  0.10607109019E+02  0.33632527718E+03  0.86951353191E+03  0.79956855797E+03 0.  0.
         22    1    5    5    0    0  0.25607875962E+02  0.32509840876E+03 -0.84946072690E+02  0.33698749822E+03  0.00000000000E+00 0. -1.
         22    1    5    5    0    0 -0.84909650400E+02 -0.31449129974E+03  0.42127134987E+03  0.53252603369E+03  0.00000000000E+00 0. -1.
          5    1    4    4  502    0  0.54710523942E+02  0.35906882036E+02 -0.93214307364E+02  0.11398922188E+03  0.47000000000E+01 0.  1.
         -5    1    4    4    0  502  0.45912504962E+01 -0.46513991054E+02  0.11027307098E+02  0.48252693674E+02  0.47000000000E+01 0.  1.
<mgrwt>
<rscale>  0 0.99996652E+03</rscale>
<asrwt>0</asrwt>
<pdfrwt beam="1">  1        3 0.59816706E-01 0.99996652E+03</pdfrwt>
<pdfrwt beam="2">  1       -3 0.98914901E-01 0.99996652E+03</pdfrwt>
<totfact> 0.91051382E+00</totfact>
</mgrwt>
</event>
<event>
 9    1  0.4370149E-036  0.9996975E+03  0.7818608E-02  0.8681326E-01
         -2   -1    0    0    0  501 -0.00000000000E+00  0.00000000000E+00  0.23917973946E+03  0.23917973946E+03  0.00000000000E+00 0.  1.
          2   -1    0    0  501    0  0.00000000000E+00 -0.00000000000E+00 -0.10446066937E+04  0.10446066937E+04  0.00000000000E+00 0.  1.
         36    2    1    2    0    0  0.00000000000E+00 -0.28421709430E-13 -0.80542695427E+03  0.12837864332E+04  0.99969746793E+03 0.  0.
         25    2    3    3    0    0  0.12910498299E+03 -0.25624786095E+02 -0.20791221680E+03  0.27646978225E+03  0.12602906135E+03 0.  0.
         35    2    3    3    0    0 -0.12910498299E+03  0.25624786095E+02 -0.59751473747E+03  0.10073166509E+04  0.80021137676E+03 0.  0.
         22    1    5    5    0    0 -0.18458328016E+03  0.37813828270E+03 -0.46380054409E+03  0.62623517376E+03  0.00000000000E+00 0.  1.
         22    1    5    5    0    0  0.55478297167E+02 -0.35251349660E+03 -0.13371419337E+03  0.38108147719E+03  0.00000000000E+00 0.  1.
          5    1    4    4  502    0  0.11872489191E+03  0.28143268951E+02 -0.11079982635E+03  0.16488279190E+03  0.47000000000E+01 0.  1.
         -5    1    4    4    0  502  0.10380091080E+02 -0.53768055046E+02 -0.97112390457E+02  0.11158699035E+03  0.47000000000E+01 0.  1.
<mgrwt>
<rscale>  0 0.99969747E+03</rscale>
<asrwt>0</asrwt>
<pdfrwt beam="1">  1        2 0.16070872E+00 0.99969747E+03</pdfrwt>
<pdfrwt beam="2">  1       -2 0.36796883E-01 0.99969747E+03</pdfrwt>
<totfact> 0.19826455E+02</totfact>
</mgrwt>
</event>
<event>
 9    1  0.4370149E-036  0.1001946E+04  0.7818608E-02  0.8679187E-01
         -2   -1    0    0    0  501 -0.00000000000E+00  0.00000000000E+00  0.21161475631E+03  0.21161475631E+03  0.00000000000E+00 0. -1.
          2   -1    0    0  501    0  0.00000000000E+00 -0.00000000000E+00 -0.11859945067E+04  0.11859945067E+04  0.00000000000E+00 0. -1.
         36    2    1    2    0    0 -0.21316282073E-13  0.00000000000E+00 -0.97437975036E+03  0.13976092630E+04  0.10019459836E+04 0.  0.
         25    2    3    3    0    0  0.16421930311E+02 -0.11663867442E+03 -0.74662929449E+02  0.18809061210E+03  0.12621119269E+03 0.  0.
         35    2    3    3    0    0 -0.16421930311E+02  0.11663867442E+03 -0.89971682091E+03  0.12095186509E+04  0.79973167302E+03 0.  0.
         22    1    5    5    0    0 -0.20584339849E+03 -0.26610623618E+03 -0.20477665955E+03  0.39384960827E+03  0.00000000000E+00 0. -1.
         22    1    5    5    0    0  0.18942146818E+03  0.38274491060E+03 -0.69494016136E+03  0.81566904261E+03  0.00000000000E+00 0. -1.
          5    1    4    4  502    0  0.19360942931E+02 -0.60471606402E+02 -0.10591271728E+03  0.12357691926E+03  0.47000000000E+01 0.  1.
         -5    1    4    4    0  502 -0.29390126197E+01 -0.56167068018E+02  0.31249787827E+02  0.64513692842E+02  0.47000000000E+01 0.  1.
<mgrwt>
<rscale>  0 0.10019460E+04</rscale>
<asrwt>0</asrwt>
<pdfrwt beam="1">  1        2 0.18246070E+00 0.10019460E+04</pdfrwt>
<pdfrwt beam="2">  1       -2 0.32556116E-01 0.10019460E+04</pdfrwt>
<totfact> 0.20458407E+02</totfact>
</mgrwt>
</event>
<event>
 9    1  0.4370149E-036  0.9996168E+03  0.7818608E-02  0.8681403E-01
         -1   -1    0    0    0  501 -0.00000000000E+00  0.00000000000E+00  0.26523785657E+03  0.26523785657E+03  0.00000000000E+00 0. -1.
          1   -1    0    0  501    0  0.00000000000E+00 -0.00000000000E+00 -0.94182794297E+03  0.94182794297E+03  0.00000000000E+00 0. -1.
         36    2    1    2    0    0  0.00000000000E+00 -0.35527136788E-13 -0.67659008640E+03  0.12070657995E+04  0.99961677628E+03 0.  0.
         25    2    3    3    0    0  0.41495284496E+01 -0.37443503348E+02  0.37295981061E+02  0.13444449372E+03  0.12355200184E+03 0.  0.
         35    2    3    3    0    0 -0.41495284496E+01  0.37443503348E+02 -0.71388606746E+03  0.10726213058E+04  0.79966487598E+03 0.  0.
         22    1    5    5    0    0 -0.59735965641E+02 -0.37172412366E+03 -0.25188881687E+03  0.45298475224E+03  0.00000000000E+00 0.  1.
         22    1    5    5    0    0  0.55586437192E+02  0.40916762701E+03 -0.46199725059E+03  0.61963655359E+03  0.00000000000E+00 0.  1.
          5    1    4    4  502    0  0.53494836381E+02 -0.38986380468E+02  0.50189901293E+02  0.83203074301E+02  0.47000000000E+01 0. -1.
         -5    1    4    4    0  502 -0.49345307931E+02  0.15428771200E+01 -0.12893920232E+02  0.51241419414E+02  0.47000000000E+01 0. -1.
<mgrwt>
<rscale>  0 0.99961678E+03</rscale>
<asrwt>0</asrwt>
<pdfrwt beam="1">  1        1 0.14489660E+00 0.99961678E+03</pdfrwt>
<pdfrwt beam="2">  1       -1 0.40805825E-01 0.99961678E+03</pdfrwt>
<totfact> 0.11111296E+02</totfact>
</mgrwt>
</event>
<event>
 9    1  0.4370149E-036  0.1000009E+04  0.7818608E-02  0.8681030E-01
          2   -1    0    0  501    0  0.00000000000E+00  0.00000000000E+00  0.89389374146E+03  0.89389374146E+03  0.00000000000E+00 0. -1.
         -2   -1    0    0    0  501 -0.00000000000E+00 -0.00000000000E+00 -0.27968013874E+03  0.27968013874E+03  0.00000000000E+00 0. -1.
         36    2    1    2    0    0 -0.14210854715E-13  0.14210854715E-13  0.61421360272E+03  0.11735738802E+04  0.10000086512E+04 0.  0.
         25    2    3    3    0    0  0.11641561698E+03 -0.68766559425E+02  0.71711351733E+02  0.19711199361E+03  0.12421426845E+03 0.  0.
         35    2    3    3    0    0 -0.11641561698E+03  0.68766559425E+02  0.54250225099E+03  0.97646188658E+03  0.80055461279E+03 0.  0.
         22    1    5    5    0    0 -0.16651037163E+03 -0.17407288346E+01 -0.18207611471E+03  0.24673963108E+03  0.00000000000E+00 0. -1.
         22    1    5    5    0    0  0.50094754650E+02  0.70507288260E+02  0.72457836570E+03  0.72972225551E+03  0.00000000000E+00 0. -1.
          5    1    4    4  502    0  0.11024655708E+03 -0.94160909181E+01  0.10090427459E+02  0.11120644245E+03  0.47000000000E+01 0. -1.
         -5    1    4    4    0  502  0.61690599008E+01 -0.59350468507E+02  0.61620924274E+02  0.85905551162E+02  0.47000000000E+01 0. -1.
<mgrwt>
<rscale>  0 0.10000087E+04</rscale>
<asrwt>0</asrwt>
<pdfrwt beam="1">  1        2 0.13752211E+00 0.10000087E+04</pdfrwt>
<pdfrwt beam="2">  1       -2 0.43027714E-01 0.10000087E+04</pdfrwt>
<totfact> 0.18340817E+02</totfact>
</mgrwt>
</event>
<event>
 9    1  0.4370149E-036  0.9996612E+03  0.7818608E-02  0.8681361E-01
          2   -1    0    0  501    0  0.00000000000E+00  0.00000000000E+00  0.41707700851E+04  0.41707700851E+04  0.00000000000E+00 0. -1.
         -2   -1    0    0    0  501 -0.00000000000E+00 -0.00000000000E+00 -0.59900362761E+02  0.59900362761E+02  0.00000000000E+00 0. -1.
         36    2    1    2    0    0  0.00000000000E+00 -0.28421709430E-13  0.41108697223E+04  0.42306704479E+04  0.99966122480E+03 0.  0.
         25    2    3    3    0    0 -0.10014305291E+02  0.49292086611E+02  0.13215328302E+04  0.13283087818E+04  0.12419823749E+03 0.  0.
         35    2    3    3    0    0  0.10014305291E+02 -0.49292086611E+02  0.27893368921E+04  0.29023616661E+04  0.80048294617E+03 0.  0.
         22    1    5    5    0    0  0.11018872810E+03 -0.39267545830E+03  0.19099695741E+04  0.19530282500E+04  0.00000000000E+00 0.  1.
         22    1    5    5    0    0 -0.10017442281E+03  0.34338337169E+03  0.87936731803E+03  0.94933341612E+03  0.00000000000E+00 0.  1.
          5    1    4    4  502    0 -0.29177712511E+02  0.10494924083E+02  0.78767186208E+02  0.84781141547E+02  0.47000000000E+01 0.  1.
         -5    1    4    4    0  502  0.19163407220E+02  0.38797162528E+02  0.12427656440E+04  0.12435276402E+04  0.47000000000E+01 0.  1.
<mgrwt>
<rscale>  0 0.99966122E+03</rscale>
<asrwt>0</asrwt>
<pdfrwt beam="1">  1        2 0.64165671E+00 0.99966122E+03</pdfrwt>
<pdfrwt beam="2">  1       -2 0.92154437E-02 0.99966122E+03</pdfrwt>
<totfact> 0.18249700E+01</totfact>
</mgrwt>
</event>
<event>
 9    1  0.4370149E-036  0.9993704E+03  0.7818608E-02  0.8681638E-01
          2   -1    0    0  501    0  0.00000000000E+00  0.00000000000E+00  0.62850734617E+03  0.62850734617E+03  0.00000000000E+00 0. -1.
         -2   -1    0    0    0  501 -0.00000000000E+00 -0.00000000000E+00 -0.39726711239E+03  0.39726711239E+03  0.00000000000E+00 0. -1.
         36    2    1    2    0    0 -0.28421709430E-13  0.00000000000E+00  0.23124023378E+03  0.10257744586E+04  0.99937039885E+03 0.  0.
         25    2    3    3    0    0 -0.10087104877E+03 -0.83224567336E+02  0.81939071544E+02  0.19911848100E+03  0.12582869682E+03 0.  0.
         35    2    3    3    0    0  0.10087104877E+03  0.83224567336E+02  0.14930116224E+03  0.82665597755E+03  0.80247614986E+03 0.  0.
         22    1    5    5    0    0  0.27843587894E+03  0.26627910106E+03 -0.16737815774E+03  0.42005540828E+03  0.00000000000E+00 0.  1.
         22    1    5    5    0    0 -0.17756483016E+03 -0.18305453372E+03  0.31667931998E+03  0.40660056927E+03  0.00000000000E+00 0.  1.
          5    1    4    4  502    0 -0.29351022738E+02 -0.81666490065E+02 -0.42484924522E+01  0.87011710841E+02  0.47000000000E+01 0. -1.
         -5    1    4    4    0  502 -0.71520026036E+02 -0.15580772706E+01  0.86187563996E+02  0.11210677016E+03  0.47000000000E+01 0. -1.
<mgrwt>
<rscale>  0 0.99937040E+03</rscale>
<asrwt>0</asrwt>
<pdfrwt beam="1">  1        2 0.96693438E-01 0.99937040E+03</pdfrwt>
<pdfrwt beam="2">  1       -2 0.61118017E-01 0.99937040E+03</pdfrwt>
<totfact> 0.14122116E+02</totfact>
</mgrwt>
</event>
<event>
 9    1  0.4370149E-036  0.9990690E+03  0.7818608E-02  0.8681925E-01
         -2   -1    0    0    0  501 -0.00000000000E+00  0.00000000000E+00  0.22037021640E+03  0.22037021640E+03  0.00000000000E+00 0.  1.
          2   -1    0    0  501    0  0.00000000000E+00 -0.00000000000E+00 -0.11323431312E+04  0.11323431312E+04  0.00000000000E+00 0.  1.
         36    2    1    2    0    0  0.00000000000E+00  0.00000000000E+00 -0.91197291484E+03  0.13527133476E+04  0.99906896834E+03 0.  0.
         25    2    3    3    0    0  0.64643683961E+02  0.10986915916E+03 -0.91157077394E+02  0.20003942530E+03  0.12432264841E+03 0.  0.
         35    2    3    3    0    0 -0.64643683961E+02 -0.10986915916E+03 -0.82081583744E+03  0.11526739223E+04  0.79916737561E+03 0.  0.
         22    1    5    5    0    0 -0.10253111040E+03 -0.82295388730E+02 -0.97895210981E+03  0.98774105559E+03  0.00000000000E+00 0.  1.
         22    1    5    5    0    0  0.37887426442E+02 -0.27573770427E+02  0.15813627236E+03  0.16493286675E+03  0.00000000000E+00 0.  1.
          5    1    4    4  502    0 -0.36373438537E+02  0.34470150158E+02 -0.14282412294E+02  0.52319170329E+02  0.47000000000E+01 0.  1.
         -5    1    4    4    0  502  0.10101712250E+03  0.75399008999E+02 -0.76874665099E+02  0.14772025498E+03  0.47000000000E+01 0.  1.
<mgrwt>
<rscale>  0 0.99906897E+03</rscale>
<asrwt>0</asrwt>
<pdfrwt beam="1">  1        2 0.17420664E+00 0.99906897E+03</pdfrwt>
<pdfrwt beam="2">  1       -2 0.33903110E-01 0.99906897E+03</pdfrwt>
<totfact> 0.20432544E+02</totfact>
</mgrwt>
</event>
<event>
 9    1  0.4370149E-036  0.1000082E+04  0.7818608E-02  0.8680960E-01
          2   -1    0    0  501    0  0.00000000000E+00  0.00000000000E+00  0.38141779730E+03  0.38141779730E+03  0.00000000000E+00 0. -1.
         -2   -1    0    0    0  501 -0.00000000000E+00 -0.00000000000E+00 -0.65555611423E+03  0.65555611423E+03  0.00000000000E+00 0. -1.
         36    2    1    2    0    0  0.00000000000E+00  0.00000000000E+00 -0.27413831693E+03  0.10369739115E+04  0.10000815349E+04 0.  0.
         25    2    3    3    0    0  0.50174136476E+02 -0.66814350277E+02  0.66999073476E+02  0.16348407783E+03  0.12351747440E+03 0.  0.
         35    2    3    3    0    0 -0.50174136476E+02  0.66814350277E+02 -0.34113739041E+03  0.87348983371E+03  0.79976757192E+03 0.  0.
         22    1    5    5    0    0 -0.41787875713E+03 -0.42779006013E+02 -0.16507221651E+03  0.45133306513E+03  0.00000000000E+00 0.  1.
         22    1    5    5    0    0  0.36770462066E+03  0.10959335629E+03 -0.17606517389E+03  0.42215676858E+03  0.00000000000E+00 0.  1.
          5    1    4    4  502    0  0.73716116984E+02 -0.87356235458E+02  0.37856172380E+02  0.12050044632E+03  0.47000000000E+01 0. -1.
         -5    1    4    4    0  502 -0.23541980508E+02  0.20541885181E+02  0.29142901096E+02  0.42983631505E+02  0.47000000000E+01 0. -1.
<mgrwt>
<rscale>  0 0.10000815E+04</rscale>
<asrwt>0</asrwt>
<pdfrwt beam="1">  1        2 0.58679662E-01 0.10000815E+04</pdfrwt>
<pdfrwt beam="2">  1       -2 0.10085479E+00 0.10000815E+04</pdfrwt>
<totfact> 0.80626249E+01</totfact>
</mgrwt>
</event>
<event>
 9    1  0.4370149E-036  0.9980253E+03  0.7818608E-02  0.8682921E-01
         -1   -1    0    0    0  501 -0.00000000000E+00  0.00000000000E+00  0.24073909676E+03  0.24073909676E+03  0.00000000000E+00 0. -1.
          1   -1    0    0  501    0  0.00000000000E+00 -0.00000000000E+00 -0.10343713081E+04  0.10343713081E+04  0.00000000000E+00 0. -1.
         36    2    1    2    0    0  0.28421709430E-13  0.00000000000E+00 -0.79363221136E+03  0.12751104049E+04  0.99802527909E+03 0.  0.
         25    2    3    3    0    0 -0.10916690226E+03  0.84115566281E+02 -0.13384605209E+03  0.22965098797E+03  0.12582515478E+03 0.  0.
         35    2    3    3    0    0  0.10916690226E+03 -0.84115566281E+02 -0.65978615928E+03  0.10454594169E+04  0.79917130540E+03 0.  0.
         22    1    5    5    0    0 -0.34480958966E+03 -0.31190319987E+02 -0.21405346922E+03  0.40704468658E+03  0.00000000000E+00 0. -1.
         22    1    5    5    0    0  0.45397649193E+03 -0.52925246294E+02 -0.44573269005E+03  0.63841473033E+03  0.00000000000E+00 0. -1.
          5    1    4    4  502    0  0.13135413835E+02  0.52846014217E+02 -0.16143909109E+02  0.56990842392E+02  0.47000000000E+01 0.  1.
         -5    1    4    4    0  502 -0.12230231610E+03  0.31269552064E+02 -0.11770214298E+03  0.17266014558E+03  0.47000000000E+01 0.  1.
<mgrwt>
<rscale>  0 0.99802528E+03</rscale>
<asrwt>0</asrwt>
<pdfrwt beam="1">  1        1 0.15913405E+00 0.99802528E+03</pdfrwt>
<pdfrwt beam="2">  1       -1 0.37036785E-01 0.99802528E+03</pdfrwt>
<totfact> 0.11130211E+02</totfact>
</mgrwt>
</event>
<event>
 9    1  0.4370149E-036  0.9987321E+03  0.7818608E-02  0.8682246E-01
          2   -1    0    0  501    0  0.00000000000E+00  0.00000000000E+00  0.30339856239E+03  0.30339856239E+03  0.00000000000E+00 0.  1.
         -2   -1    0    0    0  501 -0.00000000000E+00 -0.00000000000E+00 -0.82191052670E+03  0.82191052670E+03  0.00000000000E+00 0.  1.
         36    2    1    2    0    0 -0.14210854715E-13  0.00000000000E+00 -0.51851196431E+03  0.11253090891E+04  0.99873214069E+03 0.  0.
         25    2    3    3    0    0 -0.12434667641E+03 -0.52203052875E+02 -0.64586906386E+02  0.19498193814E+03  0.12513685733E+03 0.  0.
         35    2    3    3    0    0  0.12434667641E+03  0.52203052875E+02 -0.45392505793E+03  0.93032715095E+03  0.80079547633E+03 0.  0.
         22    1    5    5    0    0  0.19317620814E+03  0.16395982982E+02  0.19606048510E+03  0.27572738251E+03  0.00000000000E+00 0. -1.
         22    1    5    5    0    0 -0.68829531737E+02  0.35807069893E+02 -0.64998554302E+03  0.65459976843E+03  0.00000000000E+00 0. -1.
          5    1    4    4  502    0 -0.14141197641E+03 -0.14462672538E+02 -0.52050398715E+02  0.15145246771E+03  0.47000000000E+01 0. -1.
         -5    1    4    4    0  502  0.17065299999E+02 -0.37740380336E+02 -0.12536507671E+02  0.43529470438E+02  0.47000000000E+01 0. -1.
<mgrwt>
<rscale>  0 0.99873214E+03</rscale>
<asrwt>0</asrwt>
<pdfrwt beam="1">  1        2 0.46676703E-01 0.99873214E+03</pdfrwt>
<pdfrwt beam="2">  1       -2 0.12644777E+00 0.99873214E+03</pdfrwt>
<totfact> 0.58522966E+01</totfact>
</mgrwt>
</event>
<event>
 9    1  0.4370149E-036  0.1000136E+04  0.7818608E-02  0.8680908E-01
         -2   -1    0    0    0  501 -0.00000000000E+00  0.00000000000E+00  0.20543954981E+04  0.20543954981E+04  0.00000000000E+00 0. -1.
          2   -1    0    0  501    0  0.00000000000E+00 -0.00000000000E+00 -0.12172342017E+03  0.12172342017E+03  0.00000000000E+00 0. -1.
         36    2    1    2    0    0  0.71054273576E-14  0.00000000000E+00  0.19326720779E+04  0.21761189183E+04  0.10001360836E+04 0.  0.
         25    2    3    3    0    0  0.15265455952E+02 -0.13725606233E+03  0.30848967361E+03  0.36010299389E+03  0.12424180734E+03 0.  0.
         35    2    3    3    0    0 -0.15265455952E+02  0.13725606233E+03  0.16241824043E+04  0.18160159244E+04  0.80054549798E+03 0.  0.
         22    1    5    5    0    0 -0.65981010296E+02  0.67605901633E+02 -0.71294697951E+02  0.11835111158E+03  0.00000000000E+00 0. -1.
         22    1    5    5    0    0  0.50715554344E+02  0.69650160698E+02  0.16954771023E+04  0.16976648128E+04  0.00000000000E+00 0. -1.
          5    1    4    4  502    0  0.62193171678E+02 -0.11983995549E+03  0.21415683298E+03  0.25320909274E+03  0.47000000000E+01 0.  1.
         -5    1    4    4    0  502 -0.46927715726E+02 -0.17416106837E+02  0.94332840629E+02  0.10689390114E+03  0.47000000000E+01 0.  1.
<mgrwt>
<rscale>  0 0.10001361E+04</rscale>
<asrwt>0</asrwt>
<pdfrwt beam="1">  1        2 0.18726682E-01 0.10001361E+04</pdfrwt>
<pdfrwt beam="2">  1       -2 0.31606082E+00 0.10001361E+04</pdfrwt>
<totfact> 0.87534091E+00</totfact>
</mgrwt>
</event>
<event>
 9    1  0.4370149E-036  0.1000306E+04  0.7818608E-02  0.8680747E-01
          1   -1    0    0  501    0  0.00000000000E+00  0.00000000000E+00  0.36669703547E+04  0.36669703547E+04  0.00000000000E+00 0. -1.
         -1   -1    0    0    0  501 -0.00000000000E+00 -0.00000000000E+00 -0.68217900540E+02  0.68217900540E+02  0.00000000000E+00 0. -1.
         36    2    1    2    0    0  0.28421709430E-13 -0.56843418861E-13  0.35987524542E+04  0.37351882553E+04  0.10003059911E+04 0.  0.
         25    2    3    3    0    0  0.25789609501E+01 -0.11856905700E+03  0.40560636415E+03  0.44110162253E+03  0.12644701041E+03 0.  0.
         35    2    3    3    0    0 -0.25789609501E+01  0.11856905700E+03  0.31931460900E+04  0.32940866327E+04  0.80047455885E+03 0.  0.
         22    1    5    5    0    0  0.29977453549E+03  0.32380554046E+03  0.18749541137E+04  0.19261795682E+04  0.00000000000E+00 0.  1.
         22    1    5    5    0    0 -0.30235349644E+03 -0.20523648346E+03  0.13181919763E+04  0.13679070646E+04  0.00000000000E+00 0.  1.
          5    1    4    4  502    0 -0.14883794666E+02 -0.13707336370E+03  0.38172992309E+03  0.40589463973E+03  0.47000000000E+01 0.  1.
         -5    1    4    4    0  502  0.17462755616E+02  0.18504306701E+02  0.23876441068E+02  0.35206982805E+02  0.47000000000E+01 0.  1.
<mgrwt>
<rscale>  0 0.10003060E+04</rscale>
<asrwt>0</asrwt>
<pdfrwt beam="1">  1        1 0.56414913E+00 0.10003060E+04</pdfrwt>
<pdfrwt beam="2">  1       -1 0.10495064E-01 0.10003060E+04</pdfrwt>
<totfact> 0.11459985E+01</totfact>
</mgrwt>
</event>
<event>
 9    1  0.4370149E-036  0.9961675E+03  0.7818608E-02  0.8684696E-01
          1   -1    0    0  501    0  0.00000000000E+00  0.00000000000E+00  0.11445517145E+04  0.11445517145E+04  0.00000000000E+00 0. -1.
         -1   -1    0    0    0  501 -0.00000000000E+00 -0.00000000000E+00 -0.21675511321E+03  0.21675511321E+03  0.00000000000E+00 0. -1.
         36    2    1    2    0    0  0.00000000000E+00  0.00000000000E+00  0.92779660131E+03  0.13613068277E+04  0.99616752898E+03 0.  0.
         25    2    3    3    0    0 -0.73112048837E+02  0.10568911411E+01  0.15583419423E+02  0.14576387515E+03  0.12513103385E+03 0.  0.
         35    2    3    3    0    0  0.73112048837E+02 -0.10568911411E+01  0.91221318189E+03  0.12155429526E+04  0.80004080624E+03 0.  0.
         22    1    5    5    0    0  0.10569592654E+03 -0.23139098806E+03  0.94678121764E+03  0.98036120502E+03  0.00000000000E+00 0.  1.
         22    1    5    5    0    0 -0.32583877706E+02  0.23033409691E+03 -0.34568035748E+02  0.23518174756E+03  0.00000000000E+00 0.  1.
          5    1    4    4  502    0  0.27981716549E+02  0.23745225612E+02 -0.11180882233E+02  0.38651187924E+02  0.47000000000E+01 0. -1.
         -5    1    4    4    0  502 -0.10109376539E+03 -0.22688334471E+02  0.26764301655E+02  0.10711268722E+03  0.47000000000E+01 0. -1.
<mgrwt>
<rscale>  0 0.99616753E+03</rscale>
<asrwt>0</asrwt>
<pdfrwt beam="1">  1        1 0.17608488E+00 0.99616753E+03</pdfrwt>
<pdfrwt beam="2">  1       -1 0.33346941E-01 0.99616753E+03</pdfrwt>
<totfact> 0.10997223E+02</totfact>
</mgrwt>
</event>
<event>
 9    1  0.4370149E-036  0.9998264E+03  0.7818608E-02  0.8681203E-01
         -2   -1    0    0    0  501 -0.00000000000E+00  0.00000000000E+00  0.53267851980E+03  0.53267851980E+03  0.00000000000E+00 0. -1.
          2   -1    0    0  501    0  0.00000000000E+00 -0.00000000000E+00 -0.46916328966E+03  0.46916328966E+03  0.00000000000E+00 0. -1.
         36    2    1    2    0    0  0.14210854715E-13  0.00000000000E+00  0.63515230134E+02  0.10018418095E+04  0.99982639829E+03 0.  0.
         25    2    3    3    0    0  0.10451768063E+03  0.25892501519E+02  0.10000755175E+03  0.19338886344E+03  0.12571147480E+03 0.  0.
         35    2    3    3    0    0 -0.10451768063E+03 -0.25892501519E+02 -0.36492321612E+02  0.80845294602E+03  0.80041870867E+03 0.  0.
         22    1    5    5    0    0 -0.43502664539E+01  0.11832945539E+02 -0.41495452127E+03  0.41514599618E+03  0.00000000000E+00 0. -1.
         22    1    5    5    0    0 -0.10016741418E+03 -0.37725447057E+02  0.37846219966E+03  0.39330694984E+03  0.00000000000E+00 0. -1.
          5    1    4    4  502    0  0.72846294387E+02  0.74112618509E+02  0.82939883653E+02  0.13304276428E+03  0.47000000000E+01 0.  1.
         -5    1    4    4    0  502  0.31671386244E+02 -0.48220116990E+02  0.17067668092E+02  0.60346099155E+02  0.47000000000E+01 0.  1.
<mgrwt>
<rscale>  0 0.99982640E+03</rscale>
<asrwt>0</asrwt>
<pdfrwt beam="1">  1        2 0.72178968E-01 0.99982640E+03</pdfrwt>
<pdfrwt beam="2">  1       -2 0.81950541E-01 0.99982640E+03</pdfrwt>
<totfact> 0.10438985E+02</totfact>
</mgrwt>
</event>
<event>
 9    1  0.4370149E-036  0.1003390E+04  0.7818608E-02  0.8677816E-01
          2   -1    0    0  501    0  0.00000000000E+00  0.00000000000E+00  0.37640164087E+03  0.37640164087E+03  0.00000000000E+00 0.  1.
         -2   -1    0    0    0  501 -0.00000000000E+00 -0.00000000000E+00 -0.66869538920E+03  0.66869538920E+03  0.00000000000E+00 0.  1.
         36    2    1    2    0    0  0.28421709430E-13 -0.21316282073E-13 -0.29229374833E+03  0.10450970301E+04  0.10033903363E+04 0.  0.
         25    2    3    3    0    0 -0.13541773106E+03  0.41864838267E+02 -0.71737250790E+02  0.20322019568E+03  0.12673432137E+03 0.  0.
         35    2    3    3    0    0  0.13541773106E+03 -0.41864838267E+02 -0.22055649754E+03  0.84187683439E+03  0.80001300559E+03 0.  0.
         22    1    5    5    0    0 -0.21238135267E+03  0.19537982436E+03  0.10769800584E+03  0.30802268617E+03  0.00000000000E+00 0.  1.
         22    1    5    5    0    0  0.34779908373E+03 -0.23724466263E+03 -0.32825450338E+03  0.53385414823E+03  0.00000000000E+00 0.  1.
          5    1    4    4  502    0 -0.12307208742E+03 -0.21597247788E+02 -0.42040879465E+02  0.13191931383E+03  0.47000000000E+01 0. -1.
         -5    1    4    4    0  502 -0.12345643639E+02  0.63462086056E+02 -0.29696371325E+02  0.71300881855E+02  0.47000000000E+01 0. -1.
<mgrwt>
<rscale>  0 0.10033903E+04</rscale>
<asrwt>0</asrwt>
<pdfrwt beam="1">  1        2 0.57907945E-01 0.10033903E+04</pdfrwt>
<pdfrwt beam="2">  1       -2 0.10287621E+00 0.10033903E+04</pdfrwt>
<totfact> 0.77918372E+01</totfact>
</mgrwt>
</event>
<event>
 9    1  0.4370149E-036  0.9986529E+03  0.7818608E-02  0.8682322E-01
         -1   -1    0    0    0  501 -0.00000000000E+00  0.00000000000E+00  0.15448279782E+04  0.15448279782E+04  0.00000000000E+00 0. -1.
          1   -1    0    0  501    0  0.00000000000E+00 -0.00000000000E+00 -0.16139460947E+03  0.16139460947E+03  0.00000000000E+00 0. -1.
         36    2    1    2    0    0 -0.14210854715E-13  0.14210854715E-13  0.13834333687E+04  0.17062225877E+04  0.99865290915E+03 0.  0.
         25    2    3    3    0    0  0.11296744218E+00 -0.92772417729E+02  0.81207091942E+02  0.17497136670E+03  0.12415173430E+03 0.  0.
         35    2    3    3    0    0 -0.11296744218E+00  0.92772417729E+02  0.13022262768E+04  0.15312512210E+04  0.80020640557E+03 0.  0.
         22    1    5    5    0    0  0.38215315609E+03  0.13144296903E+03  0.50943998505E+03  0.65026716601E+03  0.00000000000E+00 0. -1.
         22    1    5    5    0    0 -0.38226612353E+03 -0.38670551297E+02  0.79278629172E+03  0.88098405495E+03  0.00000000000E+00 0. -1.
          5    1    4    4  502    0  0.48080914372E+02 -0.62345698674E+01  0.52988347173E+02  0.71975684258E+02  0.47000000000E+01 0.  1.
         -5    1    4    4    0  502 -0.47967946929E+02 -0.86537847862E+02  0.28218744770E+02  0.10299568244E+03  0.47000000000E+01 0.  1.
<mgrwt>
<rscale>  0 0.99865291E+03</rscale>
<asrwt>0</asrwt>
<pdfrwt beam="1">  1        1 0.24829941E-01 0.99865291E+03</pdfrwt>
<pdfrwt beam="2">  1       -1 0.23766583E+00 0.99865291E+03</pdfrwt>
<totfact> 0.14381645E+01</totfact>
</mgrwt>
</event>
<event>
 9    1  0.4370149E-036  0.1000294E+04  0.7818608E-02  0.8680758E-01
         -3   -1    0    0    0  501 -0.00000000000E+00  0.00000000000E+00  0.90425595993E+03  0.90425595993E+03  0.00000000000E+00 0.  1.
          3   -1    0    0  501    0  0.00000000000E+00 -0.00000000000E+00 -0.27663296642E+03  0.27663296642E+03  0.00000000000E+00 0.  1.
         36    2    1    2    0    0  0.00000000000E+00  0.28421709430E-13  0.62762299351E+03  0.11808889264E+04  0.10002939740E+04 0.  0.
         25    2    3    3    0    0 -0.97617879890E+02  0.98965825169E+02  0.88238182634E+02  0.20680417993E+03  0.12513395596E+03 0.  0.
         35    2    3    3    0    0  0.97617879890E+02 -0.98965825169E+02  0.53938481088E+03  0.97408474643E+03  0.79911302955E+03 0.  0.
         22    1    5    5    0    0  0.20068189577E+03 -0.36189104580E+03  0.60606012523E+02  0.41822415171E+03  0.00000000000E+00 0. -1.
         22    1    5    5    0    0 -0.10306401588E+03  0.26292522063E+03  0.47877879835E+03  0.55586059472E+03  0.00000000000E+00 0. -1.
          5    1    4    4  502    0 -0.10837894787E+03  0.76003600448E+02  0.11068401825E+03  0.17261397834E+03  0.47000000000E+01 0. -1.
         -5    1    4    4    0  502  0.10761067982E+02  0.22962224721E+02 -0.22445835613E+02  0.34190201588E+02  0.47000000000E+01 0. -1.
<mgrwt>
<rscale>  0 0.10002940E+04</rscale>
<asrwt>0</asrwt>
<pdfrwt beam="1">  1        3 0.42558918E-01 0.10002940E+04</pdfrwt>
<pdfrwt beam="2">  1       -3 0.13911630E+00 0.10002940E+04</pdfrwt>
<totfact> 0.71240799E+00</totfact>
</mgrwt>
</event>
<event>
 9    1  0.4370149E-036  0.9997166E+03  0.7818608E-02  0.8681308E-01
         -1   -1    0    0    0  501 -0.00000000000E+00  0.00000000000E+00  0.82176446304E+02  0.82176446304E+02  0.00000000000E+00 0. -1.
          1   -1    0    0  501    0  0.00000000000E+00 -0.00000000000E+00 -0.30405104306E+04  0.30405104306E+04  0.00000000000E+00 0. -1.
         36    2    1    2    0    0 -0.28421709430E-13  0.28421709430E-13 -0.29583339843E+04  0.31226868769E+04  0.99971664413E+03 0.  0.
         25    2    3    3    0    0  0.26174005808E+02  0.79623324906E+02 -0.90162638789E+03  0.91421212662E+03  0.12581222785E+03 0.  0.
         35    2    3    3    0    0 -0.26174005808E+02 -0.79623324906E+02 -0.20567075964E+04  0.22084747503E+04  0.80018100019E+03 0.  0.
         22    1    5    5    0    0 -0.13971213603E+03  0.26827851114E+03 -0.34829223528E+03  0.46130285242E+03  0.00000000000E+00 0.  1.
         22    1    5    5    0    0  0.11353813022E+03 -0.34790183605E+03 -0.17084153611E+04  0.17471718979E+04  0.00000000000E+00 0.  1.
          5    1    4    4  502    0  0.68322955171E+02  0.46526198807E+02 -0.72119033129E+03  0.72592719836E+03  0.47000000000E+01 0.  1.
         -5    1    4    4    0  502 -0.42148949362E+02  0.33097126099E+02 -0.18043605660E+03  0.18828492826E+03  0.47000000000E+01 0.  1.
<mgrwt>
<rscale>  0 0.99971664E+03</rscale>
<asrwt>0</asrwt>
<pdfrwt beam="1">  1        1 0.46777075E+00 0.99971664E+03</pdfrwt>
<pdfrwt beam="2">  1       -1 0.12642532E-01 0.99971664E+03</pdfrwt>
<totfact> 0.24629802E+01</totfact>
</mgrwt>
</event>
<event>
 9    1  0.4370149E-036  0.9978416E+03  0.7818608E-02  0.8683096E-01
          2   -1    0    0  501    0  0.00000000000E+00  0.00000000000E+00  0.82358294081E+03  0.82358294081E+03  0.00000000000E+00 0.  1.
         -2   -1    0    0    0  501 -0.00000000000E+00 -0.00000000000E+00 -0.30224276904E+03  0.30224276904E+03  0.00000000000E+00 0.  1.
         36    2    1    2    0    0 -0.14210854715E-13 -0.21316282073E-13  0.52134017177E+03  0.11258257099E+04  0.99784164789E+03 0.  0.
         25    2    3    3    0    0  0.46187460415E+02 -0.35042778710E+02 -0.44800532398E+02  0.14478836506E+03  0.12488116397E+03 0.  0.
         35    2    3    3    0    0 -0.46187460415E+02  0.35042778710E+02  0.56614070417E+03  0.98103734479E+03  0.79909805225E+03 0.  0.
         22    1    5    5    0    0  0.27036695335E+03 -0.24025857540E+03  0.37173733738E+03  0.51866281968E+03  0.00000000000E+00 0. -1.
         22    1    5    5    0    0 -0.31655441377E+03  0.27530135411E+03  0.19440336679E+03  0.46237452511E+03  0.00000000000E+00 0. -1.
          5    1    4    4  502    0  0.51717653016E+02  0.35063382492E+02 -0.27576914797E+01  0.62720421615E+02  0.47000000000E+01 0. -1.
         -5    1    4    4    0  502 -0.55301926015E+01 -0.70106161202E+02 -0.42042840919E+02  0.82067943445E+02  0.47000000000E+01 0. -1.
<mgrwt>
<rscale>  0 0.99784165E+03</rscale>
<asrwt>0</asrwt>
<pdfrwt beam="1">  1        2 0.12670507E+00 0.99784165E+03</pdfrwt>
<pdfrwt beam="2">  1       -2 0.46498888E-01 0.99784165E+03</pdfrwt>
<totfact> 0.17578168E+02</totfact>
</mgrwt>
</event>
<event>
 9    1  0.4370149E-036  0.1002921E+04  0.7818608E-02  0.8678261E-01
          3   -1    0    0  501    0  0.00000000000E+00  0.00000000000E+00  0.25370540486E+04  0.25370540486E+04  0.00000000000E+00 0.  1.
         -3   -1    0    0    0  501 -0.00000000000E+00 -0.00000000000E+00 -0.99115970083E+02  0.99115970083E+02  0.00000000000E+00 0.  1.
         36    2    1    2    0    0 -0.14210854715E-13  0.28421709430E-13  0.24379380785E+04  0.26361700186E+04  0.10029208806E+04 0.  0.
         25    2    3    3    0    0 -0.57636903678E+02 -0.12837635139E+03  0.51008613319E+03  0.54374836708E+03  0.12518755197E+03 0.  0.
         35    2    3    3    0    0  0.57636903678E+02  0.12837635139E+03  0.19278519453E+04  0.20924216516E+04  0.80113216433E+03 0.  0.
         22    1    5    5    0    0 -0.10891769133E+03 -0.28466435262E+03  0.41189888547E+03  0.51240369728E+03  0.00000000000E+00 0. -1.
         22    1    5    5    0    0  0.16655459501E+03  0.41304070401E+03  0.15159530598E+04  0.15800179543E+04  0.00000000000E+00 0. -1.
          5    1    4    4  502    0  0.23960950000E+02  0.10721825088E+02  0.84520879090E+02  0.88628176447E+02  0.47000000000E+01 0.  1.
         -5    1    4    4    0  502 -0.81597853678E+02 -0.13909817648E+03  0.42556525410E+03  0.45512019063E+03  0.47000000000E+01 0.  1.
<mgrwt>
<rscale>  0 0.10029209E+04</rscale>
<asrwt>0</asrwt>
<pdfrwt beam="1">  1        3 0.39031596E+00 0.10029209E+04</pdfrwt>
<pdfrwt beam="2">  1       -3 0.15248613E-01 0.10029209E+04</pdfrwt>
<totfact> 0.34402861E+00</totfact>
</mgrwt>
</event>
<event>
 9    1  0.4370149E-036  0.9995956E+03  0.7818608E-02  0.8681423E-01
         -1   -1    0    0    0  501 -0.00000000000E+00  0.00000000000E+00  0.23263515061E+03  0.23263515061E+03  0.00000000000E+00 0. -1.
          1   -1    0    0  501    0  0.00000000000E+00 -0.00000000000E+00 -0.10737751931E+04  0.10737751931E+04  0.00000000000E+00 0. -1.
         36    2    1    2    0    0 -0.14210854715E-13  0.14210854715E-13 -0.84114004252E+03  0.13064103438E+04  0.99959562580E+03 0.  0.
         25    2    3    3    0    0 -0.10430412137E+03  0.82482949664E+02 -0.20753128114E+03  0.27634241959E+03  0.12495244491E+03 0.  0.
         35    2    3    3    0    0  0.10430412137E+03 -0.82482949664E+02 -0.63360876138E+03  0.10300679242E+04  0.80118479714E+03 0.  0.
         22    1    5    5    0    0  0.80745089669E+02 -0.25476949694E+02 -0.82481978119E+03  0.82915409661E+03  0.00000000000E+00 0.  1.
         22    1    5    5    0    0  0.23559031699E+02 -0.57005999970E+02  0.19121101981E+03  0.20091382756E+03  0.00000000000E+00 0.  1.
          5    1    4    4  502    0 -0.12300176894E+03  0.87580561004E+02 -0.14013418550E+03  0.20605695759E+03  0.47000000000E+01 0. -1.
         -5    1    4    4    0  502  0.18697647569E+02 -0.50976113403E+01 -0.67397095646E+02  0.70285461993E+02  0.47000000000E+01 0. -1.
<mgrwt>
<rscale>  0 0.99959563E+03</rscale>
<asrwt>0</asrwt>
<pdfrwt beam="1">  1        1 0.16519618E+00 0.99959563E+03</pdfrwt>
<pdfrwt beam="2">  1       -1 0.35790024E-01 0.99959563E+03</pdfrwt>
<totfact> 0.11010988E+02</totfact>
</mgrwt>
</event>
<event>
 9    1  0.4370149E-036  0.9998604E+03  0.7818608E-02  0.8681171E-01
          1   -1    0    0  501    0  0.00000000000E+00  0.00000000000E+00  0.19140183457E+04  0.19140183457E+04  0.00000000000E+00 0. -1.
         -1   -1    0    0    0  501 -0.00000000000E+00 -0.00000000000E+00 -0.13057878155E+03  0.13057878155E+03  0.00000000000E+00 0. -1.
         36    2    1    2    0    0  0.00000000000E+00  0.00000000000E+00  0.17834395641E+04  0.20445971272E+04  0.99986035716E+03 0.  0.
         25    2    3    3    0    0  0.10839494225E+03  0.87901350896E+02  0.42489402017E+03  0.46430746498E+03  0.12478133938E+03 0.  0.
         35    2    3    3    0    0 -0.10839494225E+03 -0.87901350896E+02  0.13585455440E+04  0.15802896623E+04  0.79510584872E+03 0.  0.
         22    1    5    5    0    0 -0.84284033900E+01 -0.37847909751E+03  0.11453219142E+04  0.12062668662E+04  0.00000000000E+00 0.  1.
         22    1    5    5    0    0 -0.99966538859E+02  0.29057774662E+03  0.21322362975E+03  0.37402279610E+03  0.00000000000E+00 0.  1.
          5    1    4    4  502    0  0.59244241747E+02 -0.38071722546E+01  0.27755293386E+03  0.28386985722E+03  0.47000000000E+01 0. -1.
         -5    1    4    4    0  502  0.49150700503E+02  0.91708523151E+02  0.14734108631E+03  0.18043760776E+03  0.47000000000E+01 0. -1.
<mgrwt>
<rscale>  0 0.99986036E+03</rscale>
<asrwt>0</asrwt>
<pdfrwt beam="1">  1        1 0.29446434E+00 0.99986036E+03</pdfrwt>
<pdfrwt beam="2">  1       -1 0.20089045E-01 0.99986036E+03</pdfrwt>
<totfact> 0.72641635E+01</totfact>
</mgrwt>
</event>
<event>
 9    1  0.4370149E-036  0.9993243E+03  0.7818608E-02  0.8681682E-01
          2   -1    0    0  501    0  0.00000000000E+00  0.00000000000E+00  0.60917333080E+03  0.60917333080E+03  0.00000000000E+00 0. -1.
         -2   -1    0    0    0  501 -0.00000000000E+00 -0.00000000000E+00 -0.40983777111E+03  0.40983777111E+03  0.00000000000E+00 0. -1.
         36    2    1    2    0    0  0.00000000000E+00  0.42632564146E-13  0.19933555969E+03  0.10190111019E+04  0.99932425190E+03 0.  0.
         25    2    3    3    0    0  0.11604797896E+03  0.76642793447E+02  0.29855514990E+02  0.18918144819E+03  0.12472777299E+03 0.  0.
         35    2    3    3    0    0 -0.11604797896E+03 -0.76642793447E+02  0.16948004470E+03  0.82982965371E+03  0.80034524889E+03 0.  0.
         22    1    5    5    0    0 -0.43101726226E+02 -0.29731586450E+03 -0.22269223598E+03  0.37396031080E+03  0.00000000000E+00 0.  1.
         22    1    5    5    0    0 -0.72946252735E+02  0.22067307106E+03  0.39217228068E+03  0.45586934291E+03  0.00000000000E+00 0.  1.
          5    1    4    4  502    0  0.55795318970E+02  0.10407845697E+03  0.49404993419E+01  0.11828753679E+03  0.47000000000E+01 0. -1.
         -5    1    4    4    0  502  0.60252659991E+02 -0.27435663527E+02  0.24915015648E+02  0.70893911402E+02  0.47000000000E+01 0. -1.
<mgrwt>
<rscale>  0 0.99932425E+03</rscale>
<asrwt>0</asrwt>
<pdfrwt beam="1">  1        2 0.93718974E-01 0.99932425E+03</pdfrwt>
<pdfrwt beam="2">  1       -2 0.63051965E-01 0.99932425E+03</pdfrwt>
<totfact> 0.13729013E+02</totfact>
</mgrwt>
</event>
<event>
 9    1  0.4370149E-036  0.9991700E+03  0.7818608E-02  0.8681829E-01
         -2   -1    0    0    0  501 -0.00000000000E+00  0.00000000000E+00  0.15961558840E+03  0.15961558840E+03  0.00000000000E+00 0.  1.
          2   -1    0    0  501    0  0.00000000000E+00 -0.00000000000E+00 -0.15636641302E+04  0.15636641302E+04  0.00000000000E+00 0.  1.
         36    2    1    2    0    0  0.28421709430E-13  0.00000000000E+00 -0.14040485418E+04  0.17232797186E+04  0.99916999594E+03 0.  0.
         25    2    3    3    0    0  0.76509523698E+02  0.34526404096E+01 -0.46362043986E+03  0.48609056165E+03  0.12439651895E+03 0.  0.
         35    2    3    3    0    0 -0.76509523698E+02 -0.34526404096E+01 -0.94042810191E+03  0.12371891569E+04  0.80022894674E+03 0.  0.
         22    1    5    5    0    0 -0.40139294979E+03 -0.14751668567E+03 -0.65078944370E+03  0.77871970100E+03  0.00000000000E+00 0.  1.
         22    1    5    5    0    0  0.32488342609E+03  0.14406404526E+03 -0.28963865822E+03  0.45846945593E+03  0.00000000000E+00 0.  1.
          5    1    4    4  502    0  0.89592801947E+02 -0.41630779242E+02 -0.31405489834E+03  0.32926062794E+03  0.47000000000E+01 0.  1.
         -5    1    4    4    0  502 -0.13083278249E+02  0.45083419652E+02 -0.14956554152E+03  0.15682993371E+03  0.47000000000E+01 0.  1.
<mgrwt>
<rscale>  0 0.99917000E+03</rscale>
<asrwt>0</asrwt>
<pdfrwt beam="1">  1        2 0.24056370E+00 0.99917000E+03</pdfrwt>
<pdfrwt beam="2">  1       -2 0.24556245E-01 0.99917000E+03</pdfrwt>
<totfact> 0.20650166E+02</totfact>
</mgrwt>
</event>
<event>
 9    1  0.4370149E-036  0.9998141E+03  0.7818608E-02  0.8681215E-01
         -2   -1    0    0    0  501 -0.00000000000E+00  0.00000000000E+00  0.72848651627E+03  0.72848651627E+03  0.00000000000E+00 0. -1.
          2   -1    0    0  501    0  0.00000000000E+00 -0.00000000000E+00 -0.34304966763E+03  0.34304966763E+03  0.00000000000E+00 0. -1.
         36    2    1    2    0    0  0.00000000000E+00 -0.71054273576E-14  0.38543684864E+03  0.10715361839E+04  0.99981409727E+03 0.  0.
         25    2    3    3    0    0  0.85449963457E+02 -0.27995275151E+02  0.18620112325E+03  0.24248513525E+03  0.12665998117E+03 0.  0.
         35    2    3    3    0    0 -0.85449963457E+02  0.27995275151E+02  0.19923572539E+03  0.82905104865E+03  0.79971578408E+03 0.  0.
         22    1    5    5    0    0 -0.13011687193E+03  0.10527353033E+03 -0.28832734426E+03  0.33338502366E+03  0.00000000000E+00 0. -1.
         22    1    5    5    0    0  0.44666908474E+02 -0.77278255181E+02  0.48756306966E+03  0.49566602499E+03  0.00000000000E+00 0. -1.
          5    1    4    4  502    0 -0.12176979523E+02 -0.40119513148E+02  0.14628151844E+02  0.44653409633E+02  0.47000000000E+01 0. -1.
         -5    1    4    4    0  502  0.97626942980E+02  0.12124237996E+02  0.17157297140E+03  0.19783172561E+03  0.47000000000E+01 0. -1.
<mgrwt>
<rscale>  0 0.99981410E+03</rscale>
<asrwt>0</asrwt>
<pdfrwt beam="1">  1        2 0.52776872E-01 0.99981410E+03</pdfrwt>
<pdfrwt beam="2">  1       -2 0.11207485E+00 0.99981410E+03</pdfrwt>
<totfact> 0.69792688E+01</totfact>
</mgrwt>
</event>
<event>
 9    1  0.4370149E-036  0.1000073E+04  0.7818608E-02  0.8680968E-01
         -2   -1    0    0    0  501 -0.00000000000E+00  0.00000000000E+00  0.42916280387E+03  0.42916280387E+03  0.00000000000E+00 0. -1.
          2   -1    0    0  501    0  0.00000000000E+00 -0.00000000000E+00 -0.58261489044E+03  0.58261489044E+03  0.00000000000E+00 0. -1.
         36    2    1    2    0    0  0.00000000000E+00  0.00000000000E+00 -0.15345208657E+03  0.10117776943E+04  0.10000732772E+04 0.  0.
         25    2    3    3    0    0  0.11572280982E+03 -0.79619110137E+02 -0.30168910882E+02  0.19033600014E+03  0.12484653922E+03 0.  0.
         35    2    3    3    0    0 -0.11572280982E+03  0.79619110137E+02 -0.12328317569E+03  0.82144169417E+03  0.79989795855E+03 0.  0.
         22    1    5    5    0    0  0.22059948800E+03  0.32158528097E+03 -0.28958391033E+01  0.38998668301E+03  0.00000000000E+00 0. -1.
         22    1    5    5    0    0 -0.33632229782E+03 -0.24196617084E+03 -0.12038733658E+03  0.43145501115E+03  0.00000000000E+00 0. -1.
          5    1    4    4  502    0  0.12652732745E+03 -0.23039861983E+02 -0.98307377986E+01  0.12906871518E+03  0.47000000000E+01 0. -1.
         -5    1    4    4    0  502 -0.10804517625E+02 -0.56579248154E+02 -0.20338173083E+02  0.61267284966E+02  0.47000000000E+01 0. -1.
<mgrwt>
<rscale>  0 0.10000733E+04</rscale>
<asrwt>0</asrwt>
<pdfrwt beam="1">  1        2 0.89633060E-01 0.10000733E+04</pdfrwt>
<pdfrwt beam="2">  1       -2 0.66025047E-01 0.10000733E+04</pdfrwt>
<totfact> 0.13123352E+02</totfact>
</mgrwt>
</event>
<event>
 9    1  0.4370149E-036  0.9999863E+03  0.7818608E-02  0.8681051E-01
          2   -1    0    0  501    0  0.00000000000E+00  0.00000000000E+00  0.11975910324E+03  0.11975910324E+03  0.00000000000E+00 0. -1.
         -2   -1    0    0    0  501 -0.00000000000E+00 -0.00000000000E+00 -0.20874667015E+04  0.20874667015E+04  0.00000000000E+00 0. -1.
         36    2    1    2    0    0  0.14210854715E-13  0.00000000000E+00 -0.19677075982E+04  0.22072258047E+04  0.99998628033E+03 0.  0.
         25    2    3    3    0    0 -0.12274658830E+02  0.12802234982E+03 -0.26279199358E+03  0.31834974192E+03  0.12548520625E+03 0.  0.
         35    2    3    3    0    0  0.12274658830E+02 -0.12802234982E+03 -0.17049156046E+04  0.18888760628E+04  0.80285439048E+03 0.  0.
         22    1    5    5    0    0 -0.28505165313E+03  0.19782894352E+03 -0.52595391914E+03  0.63009385087E+03  0.00000000000E+00 0. -1.
         22    1    5    5    0    0  0.29732631196E+03 -0.32585129334E+03 -0.11789616855E+04  0.12587822119E+04  0.00000000000E+00 0. -1.
          5    1    4    4  502    0 -0.47075903419E+01 -0.57940276038E+01  0.10626478818E+02  0.13811017876E+02  0.47000000000E+01 0. -1.
         -5    1    4    4    0  502 -0.75670684882E+01  0.13381637742E+03 -0.27341847240E+03  0.30453872404E+03  0.47000000000E+01 0. -1.
<mgrwt>
<rscale>  0 0.99998628E+03</rscale>
<asrwt>0</asrwt>
<pdfrwt beam="1">  1        2 0.18424478E-01 0.99998628E+03</pdfrwt>
<pdfrwt beam="2">  1       -2 0.32114872E+00 0.99998628E+03</pdfrwt>
<totfact> 0.83883391E+00</totfact>
</mgrwt>
</event>
<event>
 9    1  0.4370149E-036  0.9997549E+03  0.7818608E-02  0.8681271E-01
         -2   -1    0    0    0  501 -0.00000000000E+00  0.00000000000E+00  0.19521661895E+03  0.19521661895E+03  0.00000000000E+00 0.  1.
          2   -1    0    0  501    0  0.00000000000E+00 -0.00000000000E+00 -0.12800009309E+04  0.12800009309E+04  0.00000000000E+00 0.  1.
         36    2    1    2    0    0  0.49737991503E-13 -0.17763568394E-13 -0.10847843120E+04  0.14752175498E+04  0.99975487791E+03 0.  0.
         25    2    3    3    0    0 -0.31406119418E+01  0.10208002321E+02  0.21640081959E+01  0.12553652666E+03  0.12506266366E+03 0.  0.
         35    2    3    3    0    0  0.31406119418E+01 -0.10208002321E+02 -0.10869483201E+04  0.13496810232E+04  0.80004259068E+03 0.  0.
         22    1    5    5    0    0  0.36035190620E+03 -0.15653355488E+03 -0.70236702323E+03  0.80478300518E+03  0.00000000000E+00 0. -1.
         22    1    5    5    0    0 -0.35721129426E+03  0.14632555256E+03 -0.38458129692E+03  0.54489801800E+03  0.00000000000E+00 0. -1.
          5    1    4    4  502    0  0.56844298075E+02  0.20883980904E+02 -0.13984366990E+02  0.62330308856E+02  0.47000000000E+01 0. -1.
         -5    1    4    4    0  502 -0.59984910016E+02 -0.10675978583E+02  0.16148375185E+02  0.63206217807E+02  0.47000000000E+01 0. -1.
<mgrwt>
<rscale>  0 0.99975488E+03</rscale>
<asrwt>0</asrwt>
<pdfrwt beam="1">  1        2 0.19692322E+00 0.99975488E+03</pdfrwt>
<pdfrwt beam="2">  1       -2 0.30033326E-01 0.99975488E+03</pdfrwt>
<totfact> 0.20889123E+02</totfact>
</mgrwt>
</event>
<event>
 9    1  0.4370149E-036  0.1000065E+04  0.7818608E-02  0.8680976E-01
         -2   -1    0    0    0  501 -0.00000000000E+00  0.00000000000E+00  0.25566232801E+03  0.25566232801E+03  0.00000000000E+00 0. -1.
          2   -1    0    0  501    0  0.00000000000E+00 -0.00000000000E+00 -0.97797901872E+03  0.97797901872E+03  0.00000000000E+00 0. -1.
         36    2    1    2    0    0  0.14210854715E-13 -0.56843418861E-13 -0.72231669071E+03  0.12336413467E+04  0.10000647832E+04 0.  0.
         25    2    3    3    0    0  0.49788524457E+02 -0.10564963628E+03 -0.22626320709E+03  0.28388002492E+03  0.12550731792E+03 0.  0.
         35    2    3    3    0    0 -0.49788524457E+02  0.10564963628E+03 -0.49605348362E+03  0.94976132181E+03  0.80145914867E+03 0.  0.
         22    1    5    5    0    0 -0.97397505417E+02 -0.29424919327E+03 -0.44716466245E+03  0.54408188460E+03  0.00000000000E+00 0. -1.
         22    1    5    5    0    0  0.47608980960E+02  0.39989882955E+03 -0.48888821169E+02  0.40567943721E+03  0.00000000000E+00 0. -1.
          5    1    4    4  502    0  0.39068350397E+02  0.86128337832E+01 -0.12299097128E+03  0.12941941866E+03  0.47000000000E+01 0.  1.
         -5    1    4    4    0  502  0.10720174060E+02 -0.11426247007E+03 -0.10327223581E+03  0.15446060626E+03  0.47000000000E+01 0.  1.
<mgrwt>
<rscale>  0 0.10000648E+04</rscale>
<asrwt>0</asrwt>
<pdfrwt beam="1">  1        2 0.15045831E+00 0.10000648E+04</pdfrwt>
<pdfrwt beam="2">  1       -2 0.39332665E-01 0.10000648E+04</pdfrwt>
<totfact> 0.19233757E+02</totfact>
</mgrwt>
</event>
<event>
 9    1  0.4370149E-036  0.1002710E+04  0.7818608E-02  0.8678461E-01
          2   -1    0    0  501    0  0.00000000000E+00  0.00000000000E+00  0.80452156425E+03  0.80452156425E+03  0.00000000000E+00 0. -1.
         -2   -1    0    0    0  501 -0.00000000000E+00 -0.00000000000E+00 -0.31243037393E+03  0.31243037393E+03  0.00000000000E+00 0. -1.
         36    2    1    2    0    0  0.56843418861E-13 -0.35527136788E-14  0.49209119032E+03  0.11169519382E+04  0.10027102735E+04 0.  0.
         25    2    3    3    0    0 -0.13161141818E+03 -0.15763934574E+02  0.15013719967E+03  0.23669530403E+03  0.12614840941E+03 0.  0.
         35    2    3    3    0    0  0.13161141818E+03  0.15763934574E+02  0.34195399065E+03  0.88025663415E+03  0.80021818475E+03 0.  0.
         22    1    5    5    0    0  0.46552016771E+03 -0.58086589371E+02  0.20033858483E+03  0.51011628770E+03  0.00000000000E+00 0.  1.
         22    1    5    5    0    0 -0.33390874953E+03  0.73850523944E+02  0.14161540583E+03  0.37014034644E+03  0.00000000000E+00 0.  1.
          5    1    4    4  502    0 -0.14277934841E+03  0.19653809925E+02  0.10689522311E+03  0.17950179192E+03  0.47000000000E+01 0. -1.
         -5    1    4    4    0  502  0.11167930229E+02 -0.35417744498E+02  0.43241976562E+02  0.57193512114E+02  0.47000000000E+01 0. -1.
<mgrwt>
<rscale>  0 0.10027103E+04</rscale>
<asrwt>0</asrwt>
<pdfrwt beam="1">  1        2 0.12377255E+00 0.10027103E+04</pdfrwt>
<pdfrwt beam="2">  1       -2 0.48066212E-01 0.10027103E+04</pdfrwt>
<totfact> 0.16970380E+02</totfact>
</mgrwt>
</event>
<event>
 9    1  0.4370149E-036  0.9999886E+03  0.7818608E-02  0.8681049E-01
         -2   -1    0    0    0  501 -0.00000000000E+00  0.00000000000E+00  0.10431633698E+03  0.10431633698E+03  0.00000000000E+00 0.  1.
          2   -1    0    0  501    0  0.00000000000E+00 -0.00000000000E+00 -0.23965018118E+04  0.23965018118E+04  0.00000000000E+00 0.  1.
         36    2    1    2    0    0  0.00000000000E+00 -0.42632564146E-13 -0.22921854748E+04  0.25008181487E+04  0.99998858106E+03 0.  0.
         25    2    3    3    0    0  0.10466108720E+03  0.78988175900E+02 -0.29847936561E+03  0.34920694595E+03  0.12514984737E+03 0.  0.
         35    2    3    3    0    0 -0.10466108720E+03 -0.78988175900E+02 -0.19937061092E+04  0.21516112028E+04  0.79835683946E+03 0.  0.
         22    1    5    5    0    0 -0.86664225160E+02 -0.43722027574E+03 -0.12178996603E+04  0.12969008598E+04  0.00000000000E+00 0. -1.
         22    1    5    5    0    0 -0.17996862041E+02  0.35823209984E+03 -0.77580644885E+03  0.85471034302E+03  0.00000000000E+00 0. -1.
          5    1    4    4  502    0  0.36928308242E+02 -0.31489266394E+02 -0.56159098000E+02  0.74372092453E+02  0.47000000000E+01 0.  1.
         -5    1    4    4    0  502  0.67732778960E+02  0.11047744229E+03 -0.24232026761E+03  0.27483485350E+03  0.47000000000E+01 0.  1.
<mgrwt>
<rscale>  0 0.99998858E+03</rscale>
<asrwt>0</asrwt>
<pdfrwt beam="1">  1        2 0.36869258E+00 0.99998858E+03</pdfrwt>
<pdfrwt beam="2">  1       -2 0.16048667E-01 0.99998858E+03</pdfrwt>
<totfact> 0.14350428E+02</totfact>
</mgrwt>
</event>
<event>
 9    1  0.4370149E-036  0.9986548E+03  0.7818608E-02  0.8682320E-01
         -2   -1    0    0    0  501 -0.00000000000E+00  0.00000000000E+00  0.14768878265E+03  0.14768878265E+03  0.00000000000E+00 0.  1.
          2   -1    0    0  501    0  0.00000000000E+00 -0.00000000000E+00 -0.16881975192E+04  0.16881975192E+04  0.00000000000E+00 0.  1.
         36    2    1    2    0    0  0.00000000000E+00  0.14210854715E-13 -0.15405087365E+04  0.18358863018E+04  0.99865476814E+03 0.  0.
         25    2    3    3    0    0  0.43177230357E+02  0.42475054761E+01 -0.46155257259E+02  0.14021621426E+03  0.12509182406E+03 0.  0.
         35    2    3    3    0    0 -0.43177230357E+02 -0.42475054761E+01 -0.14943534792E+04  0.16956700875E+04  0.80020148109E+03 0.  0.
         22    1    5    5    0    0  0.64777333266E+02 -0.38434767951E+03 -0.57124788813E+03  0.69155143796E+03  0.00000000000E+00 0.  1.
         22    1    5    5    0    0 -0.10795456362E+03  0.38010017403E+03 -0.92310559112E+03  0.10041186496E+04  0.00000000000E+00 0.  1.
          5    1    4    4  502    0 -0.36292656439E+02 -0.19532753988E+02  0.63006592728E+01  0.41957999202E+02  0.47000000000E+01 0.  1.
         -5    1    4    4    0  502  0.79469886797E+02  0.23780259464E+02 -0.52455916532E+02  0.98258215061E+02  0.47000000000E+01 0.  1.
<mgrwt>
<rscale>  0 0.99865477E+03</rscale>
<asrwt>0</asrwt>
<pdfrwt beam="1">  1        2 0.25972270E+00 0.99865477E+03</pdfrwt>
<pdfrwt beam="2">  1       -2 0.22721351E-01 0.99865477E+03</pdfrwt>
<totfact> 0.20144387E+02</totfact>
</mgrwt>
</event>
<event>
 9    1  0.4370149E-036  0.9995505E+03  0.7818608E-02  0.8681466E-01
          2   -1    0    0  501    0  0.00000000000E+00  0.00000000000E+00  0.19611413693E+04  0.19611413693E+04  0.00000000000E+00 0. -1.
         -2   -1    0    0    0  501 -0.00000000000E+00 -0.00000000000E+00 -0.12736221258E+03  0.12736221258E+03  0.00000000000E+00 0. -1.
         36    2    1    2    0    0  0.28421709430E-13 -0.14210854715E-13  0.18337791568E+04  0.20885035819E+04  0.99955050694E+03 0.  0.
         25    2    3    3    0    0 -0.75955208231E+02 -0.35051530317E+02  0.56003368865E+03  0.58019821785E+03  0.12646911138E+03 0.  0.
         35    2    3    3    0    0  0.75955208231E+02  0.35051530317E+02  0.12737454681E+04  0.15083053641E+04  0.80346732997E+03 0.  0.
         22    1    5    5    0    0  0.32743884345E+03  0.20159381737E+03  0.29647303586E+03  0.48554353501E+03  0.00000000000E+00 0.  1.
         22    1    5    5    0    0 -0.25148363521E+03 -0.16654228705E+03  0.97727243224E+03  0.10227618291E+04  0.00000000000E+00 0.  1.
          5    1    4    4  502    0 -0.82417608740E+02  0.11600081438E+02  0.19448455338E+03  0.21159762669E+03  0.47000000000E+01 0.  1.
         -5    1    4    4    0  502  0.64624005093E+01 -0.46651611755E+02  0.36554913528E+03  0.36860059116E+03  0.47000000000E+01 0.  1.
<mgrwt>
<rscale>  0 0.99955051E+03</rscale>
<asrwt>0</asrwt>
<pdfrwt beam="1">  1        2 0.30171403E+00 0.99955051E+03</pdfrwt>
<pdfrwt beam="2">  1       -2 0.19594188E-01 0.99955051E+03</pdfrwt>
<totfact> 0.18274624E+02</totfact>
</mgrwt>
</event>
<event>
 9    1  0.4370149E-036  0.1000616E+04  0.7818608E-02  0.8680452E-01
         -1   -1    0    0    0  501 -0.00000000000E+00  0.00000000000E+00  0.16876363503E+03  0.16876363503E+03  0.00000000000E+00 0. -1.
          1   -1    0    0  501    0  0.00000000000E+00 -0.00000000000E+00 -0.14831869658E+04  0.14831869658E+04  0.00000000000E+00 0. -1.
         36    2    1    2    0    0  0.00000000000E+00 -0.14210854715E-13 -0.13144233308E+04  0.16519506008E+04  0.10006158579E+04 0.  0.
         25    2    3    3    0    0 -0.11945677516E+03 -0.73518232218E+02 -0.16264001142E+03  0.24278745475E+03  0.11322156717E+03 0.  0.
         35    2    3    3    0    0  0.11945677516E+03  0.73518232218E+02 -0.11517833193E+04  0.14091631461E+04  0.79966312026E+03 0.  0.
         22    1    5    5    0    0 -0.89354524924E+02  0.13176748275E+03 -0.11798741958E+04  0.11905670995E+04  0.00000000000E+00 0.  1.
         22    1    5    5    0    0  0.20881130008E+03 -0.58249250529E+02  0.28090876411E+02  0.21859604655E+03  0.00000000000E+00 0.  1.
          5    1    4    4  502    0  0.13678239382E+02 -0.38790961073E+02 -0.26396941132E+02  0.49099097698E+02  0.47000000000E+01 0. -1.
         -5    1    4    4    0  502 -0.13313501454E+03 -0.34727271145E+02 -0.13624307029E+03  0.19368835706E+03  0.47000000000E+01 0. -1.
<mgrwt>
<rscale>  0 0.10006159E+04</rscale>
<asrwt>0</asrwt>
<pdfrwt beam="1">  1        1 0.22818260E+00 0.10006159E+04</pdfrwt>
<pdfrwt beam="2">  1       -1 0.25963637E-01 0.10006159E+04</pdfrwt>
<totfact> 0.95326251E+01</totfact>
</mgrwt>
</event>
<event>
 9    1  0.4370149E-036  0.9996834E+03  0.7818608E-02  0.8681340E-01
         -2   -1    0    0    0  501 -0.00000000000E+00  0.00000000000E+00  0.13255271175E+03  0.13255271175E+03  0.00000000000E+00 0. -1.
          2   -1    0    0  501    0  0.00000000000E+00 -0.00000000000E+00 -0.18848480519E+04  0.18848480519E+04  0.00000000000E+00 0. -1.
         36    2    1    2    0    0 -0.14210854715E-13  0.00000000000E+00 -0.17522953401E+04  0.20174007636E+04  0.99968339090E+03 0.  0.
         25    2    3    3    0    0  0.86528177050E+02 -0.92186161393E+02 -0.21082870638E+03  0.27592913714E+03  0.12531054030E+03 0.  0.
         35    2    3    3    0    0 -0.86528177050E+02  0.92186161393E+02 -0.15414666338E+04  0.17414716265E+04  0.80038654982E+03 0.  0.
         22    1    5    5    0    0 -0.19076637809E+03  0.35737608184E+02  0.13679032962E+01  0.19408982150E+03  0.00000000000E+00 0. -1.
         22    1    5    5    0    0  0.10423820104E+03  0.56448553209E+02 -0.15428345370E+04  0.15473818050E+04  0.00000000000E+00 0. -1.
          5    1    4    4  502    0  0.10342436904E+03 -0.94190742430E+02 -0.12296186106E+03  0.18630675068E+03  0.47000000000E+01 0. -1.
         -5    1    4    4    0  502 -0.16896191993E+02  0.20045810369E+01 -0.87866845315E+02  0.89622386459E+02  0.47000000000E+01 0. -1.
<mgrwt>
<rscale>  0 0.99968339E+03</rscale>
<asrwt>0</asrwt>
<pdfrwt beam="1">  1        2 0.28997660E+00 0.99968339E+03</pdfrwt>
<pdfrwt beam="2">  1       -2 0.20392726E-01 0.99968339E+03</pdfrwt>
<totfact> 0.18841257E+02</totfact>
</mgrwt>
</event>
<event>
 9    1  0.4370149E-036  0.1000627E+04  0.7818608E-02  0.8680441E-01
          2   -1    0    0  501    0  0.00000000000E+00  0.00000000000E+00  0.13440559990E+04  0.13440559990E+04  0.00000000000E+00 0.  1.
         -2   -1    0    0    0  501 -0.00000000000E+00 -0.00000000000E+00 -0.18623751586E+03  0.18623751586E+03  0.00000000000E+00 0.  1.
         36    2    1    2    0    0  0.00000000000E+00  0.00000000000E+00  0.11578184832E+04  0.15302935149E+04  0.10006271043E+04 0.  0.
         25    2    3    3    0    0  0.37479339876E+02 -0.10458788885E+03  0.35197283274E+03  0.38931630698E+03  0.12385065395E+03 0.  0.
         35    2    3    3    0    0 -0.37479339876E+02  0.10458788885E+03  0.80584565042E+03  0.11409772079E+04  0.80006152842E+03 0.  0.
         22    1    5    5    0    0  0.24951202146E+02 -0.34673686796E+03  0.40883675533E+03  0.53665306354E+03  0.00000000000E+00 0. -1.
         22    1    5    5    0    0 -0.62430542022E+02  0.45132475681E+03  0.39700889509E+03  0.60432414437E+03  0.00000000000E+00 0. -1.
          5    1    4    4  502    0  0.13732046851E+02 -0.13001354431E+03  0.26522306074E+03  0.29573206246E+03  0.47000000000E+01 0. -1.
         -5    1    4    4    0  502  0.23747293025E+02  0.25425655463E+02  0.86749771999E+02  0.93584244526E+02  0.47000000000E+01 0. -1.
<mgrwt>
<rscale>  0 0.10006271E+04</rscale>
<asrwt>0</asrwt>
<pdfrwt beam="1">  1        2 0.20677784E+00 0.10006271E+04</pdfrwt>
<pdfrwt beam="2">  1       -2 0.28651926E-01 0.10006271E+04</pdfrwt>
<totfact> 0.20892054E+02</totfact>
</mgrwt>
</event>
<event>
 9    1  0.4370149E-036  0.1000212E+04  0.7818608E-02  0.8680836E-01
         -3   -1    0    0    0  501 -0.00000000000E+00  0.00000000000E+00  0.17045694337E+03  0.17045694337E+03  0.00000000000E+00 0. -1.
          3   -1    0    0  501    0  0.00000000000E+00 -0.00000000000E+00 -0.14672682228E+04  0.14672682228E+04  0.00000000000E+00 0. -1.
         36    2    1    2    0    0  0.28421709430E-13 -0.71054273576E-14 -0.12968112794E+04  0.16377251662E+04  0.10002120902E+04 0.  0.
         25    2    3    3    0    0 -0.87587288678E+02  0.59222506255E+02 -0.95582763197E+02  0.19187274659E+03  0.12845329065E+03 0.  0.
         35    2    3    3    0    0  0.87587288678E+02 -0.59222506255E+02 -0.12012285163E+04  0.14458524196E+04  0.79772202715E+03 0.  0.
         22    1    5    5    0    0 -0.32954691572E+03 -0.11075335427E+03 -0.33382240247E+03  0.48198015678E+03  0.00000000000E+00 0. -1.
         22    1    5    5    0    0  0.41713420440E+03  0.51530848015E+02 -0.86740611378E+03  0.96387226281E+03  0.00000000000E+00 0. -1.
          5    1    4    4  502    0  0.32375108987E+02  0.13553054326E+02 -0.77005352997E+01  0.36238394106E+02  0.47000000000E+01 0. -1.
         -5    1    4    4    0  502 -0.11996239766E+03  0.45669451929E+02 -0.87882227897E+02  0.15563435248E+03  0.47000000000E+01 0. -1.
<mgrwt>
<rscale>  0 0.10002121E+04</rscale>
<asrwt>0</asrwt>
<pdfrwt beam="1">  1        3 0.22573357E+00 0.10002121E+04</pdfrwt>
<pdfrwt beam="2">  1       -3 0.26224145E-01 0.10002121E+04</pdfrwt>
<totfact> 0.56587555E+00</totfact>
</mgrwt>
</event>
<event>
 9    1  0.4370149E-036  0.9977590E+03  0.7818608E-02  0.8683175E-01
         -1   -1    0    0    0  501 -0.00000000000E+00  0.00000000000E+00  0.27852065398E+03  0.27852065398E+03  0.00000000000E+00 0. -1.
          1   -1    0    0  501    0  0.00000000000E+00 -0.00000000000E+00 -0.89358093634E+03  0.89358093634E+03  0.00000000000E+00 0. -1.
         36    2    1    2    0    0  0.00000000000E+00 -0.28421709430E-13 -0.61506028235E+03  0.11721015903E+04  0.99775898247E+03 0.  0.
         25    2    3    3    0    0 -0.43188801290E+02  0.13027450084E+03 -0.10191801212E+03  0.21158206594E+03  0.12467145346E+03 0.  0.
         35    2    3    3    0    0  0.43188801290E+02 -0.13027450084E+03 -0.51314227023E+03  0.96051952437E+03  0.80027873212E+03 0.  0.
         22    1    5    5    0    0 -0.10431048843E+03 -0.24010588553E+03  0.12951269785E+03  0.29207028806E+03  0.00000000000E+00 0. -1.
         22    1    5    5    0    0  0.14749928972E+03  0.10983138469E+03 -0.64265496808E+03  0.66844923632E+03  0.00000000000E+00 0. -1.
          5    1    4    4  502    0 -0.86115616665E+02  0.78311192003E+02 -0.51971801920E+02  0.12756057550E+03  0.47000000000E+01 0. -1.
         -5    1    4    4    0  502  0.42926815375E+02  0.51963308833E+02 -0.49946210202E+02  0.84021490446E+02  0.47000000000E+01 0. -1.
<mgrwt>
<rscale>  0 0.99775898E+03</rscale>
<asrwt>0</asrwt>
<pdfrwt beam="1">  1        1 0.13747399E+00 0.99775898E+03</pdfrwt>
<pdfrwt beam="2">  1       -1 0.42849331E-01 0.99775898E+03</pdfrwt>
<totfact> 0.11158265E+02</totfact>
</mgrwt>
</event>
<event>
 9    1  0.4370149E-036  0.1001216E+04  0.7818608E-02  0.8679881E-01
          2   -1    0    0  501    0  0.00000000000E+00  0.00000000000E+00  0.64621947749E+03  0.64621947749E+03  0.00000000000E+00 0.  1.
         -2   -1    0    0    0  501 -0.00000000000E+00 -0.00000000000E+00 -0.38780715416E+03  0.38780715416E+03  0.00000000000E+00 0.  1.
         36    2    1    2    0    0  0.14210854715E-13 -0.14210854715E-13  0.25841232333E+03  0.10340266317E+04  0.10012163333E+04 0.  0.
         25    2    3    3    0    0 -0.54068409405E+02  0.17246315531E+02  0.18208559378E+03  0.22809164909E+03  0.12509919515E+03 0.  0.
         35    2    3    3    0    0  0.54068409405E+02 -0.17246315531E+02  0.76326729550E+02  0.80593498256E+03  0.80030281655E+03 0.  0.
         22    1    5    5    0    0  0.89318186484E+02 -0.89964158058E+02 -0.34987790273E+03  0.37213684981E+03  0.00000000000E+00 0. -1.
         22    1    5    5    0    0 -0.35249777079E+02  0.72717842527E+02  0.42620463228E+03  0.43379813275E+03  0.00000000000E+00 0. -1.
          5    1    4    4  502    0  0.81935423070E+01  0.20293674557E+02  0.16035376064E+03  0.16190857270E+03  0.47000000000E+01 0.  1.
         -5    1    4    4    0  502 -0.62261951712E+02 -0.30473590261E+01  0.21731833136E+02  0.66183076383E+02  0.47000000000E+01 0.  1.
<mgrwt>
<rscale>  0 0.10012163E+04</rscale>
<asrwt>0</asrwt>
<pdfrwt beam="1">  1        2 0.99418381E-01 0.10012163E+04</pdfrwt>
<pdfrwt beam="2">  1       -2 0.59662639E-01 0.10012163E+04</pdfrwt>
<totfact> 0.14362882E+02</totfact>
</mgrwt>
</event>
<event>
 9    1  0.4370149E-036  0.1000358E+04  0.7818608E-02  0.8680697E-01
         -2   -1    0    0    0  501 -0.00000000000E+00  0.00000000000E+00  0.23664281021E+04  0.23664281021E+04  0.00000000000E+00 0. -1.
          2   -1    0    0  501    0  0.00000000000E+00 -0.00000000000E+00 -0.10572015488E+03  0.10572015488E+03  0.00000000000E+00 0. -1.
         36    2    1    2    0    0  0.31974423109E-13  0.14210854715E-13  0.22607079472E+04  0.24721482569E+04  0.10003582268E+04 0.  0.
         25    2    3    3    0    0  0.49794276678E+01  0.11235786792E+03  0.21545708866E+03  0.27324064438E+03  0.12485834976E+03 0.  0.
         35    2    3    3    0    0 -0.49794276678E+01 -0.11235786792E+03  0.20452508585E+04  0.21989076126E+04  0.79968401830E+03 0.  0.
         22    1    5    5    0    0  0.38706463585E+03 -0.72169661677E+02  0.78068908108E+03  0.87435858417E+03  0.00000000000E+00 0.  1.
         22    1    5    5    0    0 -0.39204406352E+03 -0.40188206247E+02  0.12645617774E+04  0.13245490284E+04  0.00000000000E+00 0.  1.
          5    1    4    4  502    0 -0.29255348862E+02  0.22759315981E+02  0.15573324564E+03  0.16015241397E+03  0.47000000000E+01 0.  1.
         -5    1    4    4    0  502  0.34234776530E+02  0.89598551943E+02  0.59723843016E+02  0.11308823042E+03  0.47000000000E+01 0.  1.
<mgrwt>
<rscale>  0 0.10003582E+04</rscale>
<asrwt>0</asrwt>
<pdfrwt beam="1">  1        2 0.16264641E-01 0.10003582E+04</pdfrwt>
<pdfrwt beam="2">  1       -2 0.36406582E+00 0.10003582E+04</pdfrwt>
<totfact> 0.59265541E+00</totfact>
</mgrwt>
</event>
<event>
 9    1  0.4370149E-036  0.9998185E+03  0.7818608E-02  0.8681211E-01
         -1   -1    0    0    0  501 -0.00000000000E+00  0.00000000000E+00  0.90422969911E+03  0.90422969911E+03  0.00000000000E+00 0.  1.
          1   -1    0    0  501    0  0.00000000000E+00 -0.00000000000E+00 -0.27637808326E+03  0.27637808326E+03  0.00000000000E+00 0.  1.
         36    2    1    2    0    0 -0.14210854715E-13  0.14210854715E-13  0.62785161585E+03  0.11806077824E+04  0.99981852568E+03 0.  0.
         25    2    3    3    0    0 -0.54396736210E+02  0.97253926777E+02  0.21781610392E+03  0.27449782326E+03  0.12445026582E+03 0.  0.
         35    2    3    3    0    0  0.54396736210E+02 -0.97253926777E+02  0.41003551193E+03  0.90610995912E+03  0.80030544531E+03 0.  0.
         22    1    5    5    0    0 -0.28274172627E+03 -0.49135438736E+02  0.47923971627E+03  0.55859455849E+03  0.00000000000E+00 0.  1.
         22    1    5    5    0    0  0.33713846248E+03 -0.48118488041E+02 -0.69204204346E+02  0.34751540063E+03  0.00000000000E+00 0.  1.
          5    1    4    4  502    0 -0.69525827266E+02  0.35729475972E+01  0.70430163676E+02  0.99141840647E+02  0.47000000000E+01 0.  1.
         -5    1    4    4    0  502  0.15129091057E+02  0.93680979180E+02  0.14738594025E+03  0.17535598261E+03  0.47000000000E+01 0.  1.
<mgrwt>
<rscale>  0 0.99981853E+03</rscale>
<asrwt>0</asrwt>
<pdfrwt beam="1">  1        1 0.42519706E-01 0.99981853E+03</pdfrwt>
<pdfrwt beam="2">  1       -1 0.13911226E+00 0.99981853E+03</pdfrwt>
<totfact> 0.49457200E+01</totfact>
</mgrwt>
</event>
<event>
 9    1  0.4370149E-036  0.9998370E+03  0.7818608E-02  0.8681193E-01
         -2   -1    0    0    0  501 -0.00000000000E+00  0.00000000000E+00  0.62852075135E+03  0.62852075135E+03  0.00000000000E+00 0. -1.
          2   -1    0    0  501    0  0.00000000000E+00 -0.00000000000E+00 -0.39762971135E+03  0.39762971135E+03  0.00000000000E+00 0. -1.
         36    2    1    2    0    0 -0.14210854715E-13 -0.28421709430E-13  0.23089104000E+03  0.10261504627E+04  0.99983703659E+03 0.  0.
         25    2    3    3    0    0 -0.86510744554E+02  0.10748707013E+03  0.92399108475E+02  0.20223992355E+03  0.11543748205E+03 0.  0.
         35    2    3    3    0    0  0.86510744554E+02 -0.10748707013E+03  0.13849193152E+03  0.82391053914E+03  0.80038177281E+03 0.  0.
         22    1    5    5    0    0  0.11675959529E+03 -0.31397732388E+03  0.37877356155E+03  0.50565202851E+03  0.00000000000E+00 0.  1.
         22    1    5    5    0    0 -0.30248850731E+02  0.20649025375E+03 -0.24028163003E+03  0.31825851064E+03  0.00000000000E+00 0.  1.
          5    1    4    4  502    0 -0.65087277997E+02 -0.48292284978E+01  0.31985273407E+02  0.72834215310E+02  0.47000000000E+01 0. -1.
         -5    1    4    4    0  502 -0.21423466557E+02  0.11231629863E+03  0.60413835068E+02  0.12940570824E+03  0.47000000000E+01 0. -1.
<mgrwt>
<rscale>  0 0.99983704E+03</rscale>
<asrwt>0</asrwt>
<pdfrwt beam="1">  1        2 0.61173802E-01 0.99983704E+03</pdfrwt>
<pdfrwt beam="2">  1       -2 0.96695500E-01 0.99983704E+03</pdfrwt>
<totfact> 0.85231439E+01</totfact>
</mgrwt>
</event>
<event>
 9    1  0.4370149E-036  0.9973314E+03  0.7818608E-02  0.8683583E-01
          2   -1    0    0  501    0  0.00000000000E+00  0.00000000000E+00  0.62488973399E+03  0.62488973399E+03  0.00000000000E+00 0. -1.
         -2   -1    0    0    0  501 -0.00000000000E+00 -0.00000000000E+00 -0.39793814341E+03  0.39793814341E+03  0.00000000000E+00 0. -1.
         36    2    1    2    0    0 -0.10658141036E-13  0.71054273576E-14  0.22695159058E+03  0.10228278774E+04  0.99733136035E+03 0.  0.
         25    2    3    3    0    0  0.25193220527E+02  0.25514884956E+02 -0.93288132559E+02  0.16005310181E+03  0.12501444720E+03 0.  0.
         35    2    3    3    0    0 -0.25193220527E+02 -0.25514884956E+02  0.32023972314E+03  0.86277477559E+03  0.80033813192E+03 0.  0.
         22    1    5    5    0    0  0.44559324283E+02 -0.95090809909E+02 -0.25677025787E+03  0.27741442075E+03  0.00000000000E+00 0. -1.
         22    1    5    5    0    0 -0.69752544810E+02  0.69575924953E+02  0.57700998101E+03  0.58536035485E+03  0.00000000000E+00 0. -1.
          5    1    4    4  502    0  0.32079645189E+01 -0.42194768495E+02  0.42729781975E-01  0.42576770081E+02  0.47000000000E+01 0. -1.
         -5    1    4    4    0  502  0.21985256008E+02  0.67709653451E+02 -0.93330862341E+02  0.11747633173E+03  0.47000000000E+01 0. -1.
<mgrwt>
<rscale>  0 0.99733136E+03</rscale>
<asrwt>0</asrwt>
<pdfrwt beam="1">  1        2 0.96136882E-01 0.99733136E+03</pdfrwt>
<pdfrwt beam="2">  1       -2 0.61221253E-01 0.99733136E+03</pdfrwt>
<totfact> 0.14170565E+02</totfact>
</mgrwt>
</event>
<event>
 9    1  0.4370149E-036  0.9998459E+03  0.7818608E-02  0.8681185E-01
         -1   -1    0    0    0  501 -0.00000000000E+00  0.00000000000E+00  0.44544463823E+03  0.44544463823E+03  0.00000000000E+00 0. -1.
          1   -1    0    0  501    0  0.00000000000E+00 -0.00000000000E+00 -0.56106395705E+03  0.56106395705E+03  0.00000000000E+00 0. -1.
         36    2    1    2    0    0  0.14210854715E-13  0.00000000000E+00 -0.11561931882E+03  0.10065085953E+04  0.99984585087E+03 0.  0.
         25    2    3    3    0    0  0.23840371433E+02  0.96143655022E+02  0.78145687357E+02  0.17775608968E+03  0.12521387006E+03 0.  0.
         35    2    3    3    0    0 -0.23840371433E+02 -0.96143655022E+02 -0.19376500618E+03  0.82875250561E+03  0.79967110253E+03 0.  0.
         22    1    5    5    0    0  0.21901779948E+03 -0.29376612140E+03 -0.32449363079E+03  0.48945219071E+03  0.00000000000E+00 0. -1.
         22    1    5    5    0    0 -0.24285817091E+03  0.19762246637E+03  0.13072862461E+03  0.33930031489E+03  0.00000000000E+00 0. -1.
          5    1    4    4  502    0  0.70844382726E+02  0.77829537331E+02  0.69888452796E+02  0.12642329405E+03  0.47000000000E+01 0.  1.
         -5    1    4    4    0  502 -0.47004011294E+02  0.18314117691E+02  0.82572345615E+01  0.51332795629E+02  0.47000000000E+01 0.  1.
<mgrwt>
<rscale>  0 0.99984585E+03</rscale>
<asrwt>0</asrwt>
<pdfrwt beam="1">  1        1 0.86317531E-01 0.99984585E+03</pdfrwt>
<pdfrwt beam="2">  1       -1 0.68529945E-01 0.99984585E+03</pdfrwt>
<totfact> 0.95101854E+01</totfact>
</mgrwt>
</event>
<event>
 9    1  0.4370149E-036  0.1000536E+04  0.7818608E-02  0.8680528E-01
          1   -1    0    0  501    0  0.00000000000E+00  0.00000000000E+00  0.72222791086E+03  0.72222791086E+03  0.00000000000E+00 0.  1.
         -1   -1    0    0    0  501 -0.00000000000E+00 -0.00000000000E+00 -0.34652208333E+03  0.34652208333E+03  0.00000000000E+00 0.  1.
         36    2    1    2    0    0 -0.71054273576E-14  0.00000000000E+00  0.37570582753E+03  0.10687499942E+04  0.10005356971E+04 0.  0.
         25    2    3    3    0    0 -0.30885584726E+02  0.74615586926E+02  0.19407727741E+03  0.24496286562E+03  0.12577523910E+03 0.  0.
         35    2    3    3    0    0  0.30885584726E+02 -0.74615586926E+02  0.18162855012E+03  0.82378712857E+03  0.79944661974E+03 0.  0.
         22    1    5    5    0    0  0.13227122001E+03 -0.41818141360E+03  0.15263967333E+03  0.46440310098E+03  0.00000000000E+00 0. -1.
         22    1    5    5    0    0 -0.10138563529E+03  0.34356582668E+03  0.28988876794E+02  0.35938402758E+03  0.00000000000E+00 0. -1.
          5    1    4    4  502    0 -0.62529331566E+02  0.26835464463E+02  0.36793498584E+02  0.77497812853E+02  0.47000000000E+01 0. -1.
         -5    1    4    4    0  502  0.31643746839E+02  0.47780122463E+02  0.15728377882E+03  0.16746505276E+03  0.47000000000E+01 0. -1.
<mgrwt>
<rscale>  0 0.10005357E+04</rscale>
<asrwt>0</asrwt>
<pdfrwt beam="1">  1        1 0.11111199E+00 0.10005357E+04</pdfrwt>
<pdfrwt beam="2">  1       -1 0.53311090E-01 0.10005357E+04</pdfrwt>
<totfact> 0.10577772E+02</totfact>
</mgrwt>
</event>
<event>
 9    1  0.4370149E-036  0.1000977E+04  0.7818608E-02  0.8680108E-01
         -2   -1    0    0    0  501 -0.00000000000E+00  0.00000000000E+00  0.39231388354E+03  0.39231388354E+03  0.00000000000E+00 0.  1.
          2   -1    0    0  501    0  0.00000000000E+00 -0.00000000000E+00 -0.63849106909E+03  0.63849106909E+03  0.00000000000E+00 0.  1.
         36    2    1    2    0    0  0.00000000000E+00  0.14210854715E-13 -0.24617718556E+03  0.10308049526E+04  0.10009773442E+04 0.  0.
         25    2    3    3    0    0  0.11002016380E+02 -0.39254897259E+02 -0.18513035850E+03  0.22726679640E+03  0.12535930674E+03 0.  0.
         35    2    3    3    0    0 -0.11002016380E+02  0.39254897259E+02 -0.61046827061E+02  0.80353815623E+03  0.80017801900E+03 0.  0.
         22    1    5    5    0    0 -0.38540661920E+03  0.12636047738E+03 -0.98297043380E+02  0.41733384849E+03  0.00000000000E+00 0.  1.
         22    1    5    5    0    0  0.37440460282E+03 -0.87105580116E+02  0.37250216319E+02  0.38620430773E+03  0.00000000000E+00 0.  1.
          5    1    4    4  502    0  0.34221844259E+02  0.37794034400E+02 -0.73354220508E+02  0.89456443743E+02  0.47000000000E+01 0. -1.
         -5    1    4    4    0  502 -0.23219827879E+02 -0.77048931659E+02 -0.11177613799E+03  0.13781035266E+03  0.47000000000E+01 0. -1.
<mgrwt>
<rscale>  0 0.10009773E+04</rscale>
<asrwt>0</asrwt>
<pdfrwt beam="1">  1        2 0.98229394E-01 0.10009773E+04</pdfrwt>
<pdfrwt beam="2">  1       -2 0.60355983E-01 0.10009773E+04</pdfrwt>
<totfact> 0.14225508E+02</totfact>
</mgrwt>
</event>
<event>
 9    1  0.4370149E-036  0.9997753E+03  0.7818608E-02  0.8681252E-01
          3   -1    0    0  501    0  0.00000000000E+00  0.00000000000E+00  0.86600188917E+03  0.86600188917E+03  0.00000000000E+00 0. -1.
         -3   -1    0    0    0  501 -0.00000000000E+00 -0.00000000000E+00 -0.28855326558E+03  0.28855326558E+03  0.00000000000E+00 0. -1.
         36    2    1    2    0    0  0.00000000000E+00 -0.28421709430E-13  0.57744862359E+03  0.11545551548E+04  0.99977532100E+03 0.  0.
         25    2    3    3    0    0 -0.69480736436E+02  0.88316489377E+02  0.10850296112E+02  0.16780188103E+03  0.12414655582E+03 0.  0.
         35    2    3    3    0    0  0.69480736436E+02 -0.88316489377E+02  0.56659832748E+03  0.98675327372E+03  0.80001311456E+03 0.  0.
         22    1    5    5    0    0  0.67805345425E+02 -0.75598299077E+02  0.77315648420E+03  0.77979716386E+03  0.00000000000E+00 0. -1.
         22    1    5    5    0    0  0.16753910108E+01 -0.12718190300E+02 -0.20655815673E+03  0.20695610986E+03  0.00000000000E+00 0. -1.
          5    1    4    4  502    0 -0.18824183296E+02  0.68200224376E+02  0.61039574210E+02  0.93560355394E+02  0.47000000000E+01 0.  1.
         -5    1    4    4    0  502 -0.50656553139E+02  0.20116265001E+02 -0.50189278097E+02  0.74241525641E+02  0.47000000000E+01 0.  1.
<mgrwt>
<rscale>  0 0.99977532E+03</rscale>
<asrwt>0</asrwt>
<pdfrwt beam="1">  1        3 0.13323106E+00 0.99977532E+03</pdfrwt>
<pdfrwt beam="2">  1       -3 0.44392810E-01 0.99977532E+03</pdfrwt>
<totfact> 0.92580617E+00</totfact>
</mgrwt>
</event>
<event>
 9    1  0.4370149E-036  0.1001997E+04  0.7818608E-02  0.8679138E-01
         -1   -1    0    0    0  501 -0.00000000000E+00  0.00000000000E+00  0.11923613347E+04  0.11923613347E+04  0.00000000000E+00 0. -1.
          1   -1    0    0  501    0  0.00000000000E+00 -0.00000000000E+00 -0.21050638891E+03  0.21050638891E+03  0.00000000000E+00 0. -1.
         36    2    1    2    0    0  0.14210854715E-13  0.00000000000E+00  0.98185494582E+03  0.14028677236E+04  0.10019973630E+04 0.  0.
         25    2    3    3    0    0 -0.63399058402E+02  0.43843408632E+01  0.62577642918E+01  0.14018213961E+03  0.12479266645E+03 0.  0.
         35    2    3    3    0    0  0.63399058402E+02 -0.43843408632E+01  0.97559718153E+03  0.12626855840E+04  0.79909095883E+03 0.  0.
         22    1    5    5    0    0 -0.32081032375E+03 -0.13832491600E+03  0.66361197583E+03  0.74995593249E+03  0.00000000000E+00 0. -1.
         22    1    5    5    0    0  0.38420938215E+03  0.13394057514E+03  0.31198520569E+03  0.51272965155E+03  0.00000000000E+00 0. -1.
          5    1    4    4  502    0  0.20262935746E+02 -0.22895640818E+02  0.35731356897E+02  0.47261155289E+02  0.47000000000E+01 0.  1.
         -5    1    4    4    0  502 -0.83661994148E+02  0.27279981682E+02 -0.29473592606E+02  0.92920984317E+02  0.47000000000E+01 0.  1.
<mgrwt>
<rscale>  0 0.10019974E+04</rscale>
<asrwt>0</asrwt>
<pdfrwt beam="1">  1        1 0.32385599E-01 0.10019974E+04</pdfrwt>
<pdfrwt beam="2">  1       -1 0.18344020E+00 0.10019974E+04</pdfrwt>
<totfact> 0.29895401E+01</totfact>
</mgrwt>
</event>
<event>
 9    1  0.4370149E-036  0.1000493E+04  0.7818608E-02  0.8680569E-01
          1   -1    0    0  501    0  0.00000000000E+00  0.00000000000E+00  0.55900295086E+03  0.55900295086E+03  0.00000000000E+00 0. -1.
         -1   -1    0    0    0  501 -0.00000000000E+00 -0.00000000000E+00 -0.44766570850E+03  0.44766570850E+03  0.00000000000E+00 0. -1.
         36    2    1    2    0    0  0.71054273576E-14  0.00000000000E+00  0.11133724236E+03  0.10066686594E+04  0.10004927827E+04 0.  0.
         25    2    3    3    0    0 -0.35471225170E+02  0.69875806415E+02 -0.97423376135E+02  0.17683561991E+03  0.12505473248E+03 0.  0.
         35    2    3    3    0    0  0.35471225170E+02 -0.69875806415E+02  0.20876061850E+03  0.82983303945E+03  0.79931285577E+03 0.  0.
         22    1    5    5    0    0 -0.13756419077E+02 -0.40593346106E+03  0.26583472281E+03  0.48542693964E+03  0.00000000000E+00 0.  1.
         22    1    5    5    0    0  0.49227644247E+02  0.33605765465E+03 -0.57074104312E+02  0.34440609981E+03  0.00000000000E+00 0.  1.
          5    1    4    4  502    0  0.20018927914E+02 -0.18689488260E+02  0.73810711143E+01  0.28751080972E+02  0.47000000000E+01 0. -1.
         -5    1    4    4    0  502 -0.55490153084E+02  0.88565294675E+02 -0.10480444725E+03  0.14808453894E+03  0.47000000000E+01 0. -1.
<mgrwt>
<rscale>  0 0.10004928E+04</rscale>
<asrwt>0</asrwt>
<pdfrwt beam="1">  1        1 0.86000453E-01 0.10004928E+04</pdfrwt>
<pdfrwt beam="2">  1       -1 0.68871648E-01 0.10004928E+04</pdfrwt>
<totfact> 0.94663280E+01</totfact>
</mgrwt>
</event>
<event>
 9    1  0.4370149E-036  0.1001503E+04  0.7818608E-02  0.8679608E-01
         -2   -1    0    0    0  501 -0.00000000000E+00  0.00000000000E+00  0.22562879910E+03  0.22562879910E+03  0.00000000000E+00 0. -1.
          2   -1    0    0  501    0  0.00000000000E+00 -0.00000000000E+00 -0.11113471198E+04  0.11113471198E+04  0.00000000000E+00 0. -1.
         36    2    1    2    0    0 -0.28421709430E-13 -0.14210854715E-13 -0.88571832070E+03  0.13369759189E+04  0.10015027030E+04 0.  0.
         25    2    3    3    0    0  0.27501642327E+02  0.12689216788E+03 -0.92092170107E+02  0.20269571811E+03  0.12548555194E+03 0.  0.
         35    2    3    3    0    0 -0.27501642327E+02 -0.12689216788E+03 -0.79362615059E+03  0.11342802008E+04  0.79993196234E+03 0.  0.
         22    1    5    5    0    0  0.35802843225E+03 -0.18863671753E+03 -0.29407744031E+03  0.50024964808E+03  0.00000000000E+00 0. -1.
         22    1    5    5    0    0 -0.38553007458E+03  0.61744549646E+02 -0.49954871028E+03  0.63403055270E+03  0.00000000000E+00 0. -1.
          5    1    4    4  502    0  0.73431548014E+02  0.69003341994E+02 -0.77541880344E+02  0.12723398389E+03  0.47000000000E+01 0. -1.
         -5    1    4    4    0  502 -0.45929905687E+02  0.57888825891E+02 -0.14550289763E+02  0.75461734221E+02  0.47000000000E+01 0. -1.
<mgrwt>
<rscale>  0 0.10015027E+04</rscale>
<asrwt>0</asrwt>
<pdfrwt beam="1">  1        2 0.17097648E+00 0.10015027E+04</pdfrwt>
<pdfrwt beam="2">  1       -2 0.34712123E-01 0.10015027E+04</pdfrwt>
<totfact> 0.20133134E+02</totfact>
</mgrwt>
</event>
<event>
 9    1  0.4370149E-036  0.1001289E+04  0.7818608E-02  0.8679811E-01
         -2   -1    0    0    0  501 -0.00000000000E+00  0.00000000000E+00  0.28075814300E+03  0.28075814300E+03  0.00000000000E+00 0. -1.
          2   -1    0    0  501    0  0.00000000000E+00 -0.00000000000E+00 -0.89274337317E+03  0.89274337317E+03  0.00000000000E+00 0. -1.
         36    2    1    2    0    0 -0.35527136788E-14 -0.14210854715E-13 -0.61198523018E+03  0.11735015162E+04  0.10012891123E+04 0.  0.
         25    2    3    3    0    0  0.11802434508E+02  0.12512065261E+03 -0.19276676704E+03  0.26135917520E+03  0.12391576500E+03 0.  0.
         35    2    3    3    0    0 -0.11802434508E+02 -0.12512065261E+03 -0.41921846314E+03  0.91214234097E+03  0.80029060671E+03 0.  0.
         22    1    5    5    0    0  0.64044024937E+02  0.33420918798E+03 -0.13122890663E+03  0.36471693736E+03  0.00000000000E+00 0. -1.
         22    1    5    5    0    0 -0.75846459446E+02 -0.45932984059E+03 -0.28798955650E+03  0.54742540361E+03  0.00000000000E+00 0. -1.
          5    1    4    4  502    0  0.13993197999E+01 -0.25100660011E+02 -0.23149025380E+02  0.34495921570E+02  0.47000000000E+01 0. -1.
         -5    1    4    4    0  502  0.10403114708E+02  0.15022131262E+03 -0.16961774166E+03  0.22686325363E+03  0.47000000000E+01 0. -1.
<mgrwt>
<rscale>  0 0.10012891E+04</rscale>
<asrwt>0</asrwt>
<pdfrwt beam="1">  1        2 0.13734513E+00 0.10012891E+04</pdfrwt>
<pdfrwt beam="2">  1       -2 0.43193560E-01 0.10012891E+04</pdfrwt>
<totfact> 0.18235904E+02</totfact>
</mgrwt>
</event>
<event>
 9    1  0.4370149E-036  0.1002425E+04  0.7818608E-02  0.8678732E-01
         -1   -1    0    0    0  501 -0.00000000000E+00  0.00000000000E+00  0.11585916855E+03  0.11585916855E+03  0.00000000000E+00 0.  1.
          1   -1    0    0  501    0  0.00000000000E+00 -0.00000000000E+00 -0.21682682264E+04  0.21682682264E+04  0.00000000000E+00 0.  1.
         36    2    1    2    0    0  0.00000000000E+00  0.35527136788E-14 -0.20524090579E+04  0.22841273950E+04  0.10024245685E+04 0.  0.
         25    2    3    3    0    0 -0.13409833615E+03 -0.23117197344E+02 -0.26306921792E+03  0.31918496987E+03  0.11898261637E+03 0.  0.
         35    2    3    3    0    0  0.13409833615E+03  0.23117197344E+02 -0.17893398400E+04  0.19649424251E+04  0.80046542870E+03 0.  0.
         22    1    5    5    0    0  0.30119182081E+03 -0.20231524251E+03 -0.15626183221E+04  0.16041895122E+04  0.00000000000E+00 0.  1.
         22    1    5    5    0    0 -0.16709348466E+03  0.22543243985E+03 -0.22672151784E+03  0.36075291295E+03  0.00000000000E+00 0.  1.
          5    1    4    4  502    0  0.10428172623E+02 -0.16153806520E+01  0.59611520136E+01  0.12999291221E+02  0.47000000000E+01 0.  1.
         -5    1    4    4    0  502 -0.14452650877E+03 -0.21501816692E+02 -0.26903036994E+03  0.30618567865E+03  0.47000000000E+01 0.  1.
<mgrwt>
<rscale>  0 0.10024246E+04</rscale>
<asrwt>0</asrwt>
<pdfrwt beam="1">  1        1 0.33357968E+00 0.10024246E+04</pdfrwt>
<pdfrwt beam="2">  1       -1 0.17824490E-01 0.10024246E+04</pdfrwt>
<totfact> 0.58652322E+01</totfact>
</mgrwt>
</event>
<event>
 9    1  0.4370149E-036  0.1000012E+04  0.7818608E-02  0.8681027E-01
         -2   -1    0    0    0  501 -0.00000000000E+00  0.00000000000E+00  0.51120899869E+03  0.51120899869E+03  0.00000000000E+00 0. -1.
          2   -1    0    0  501    0  0.00000000000E+00 -0.00000000000E+00 -0.48904838923E+03  0.48904838923E+03  0.00000000000E+00 0. -1.
         36    2    1    2    0    0 -0.14210854715E-13 -0.14210854715E-13  0.22160609460E+02  0.10002573879E+04  0.10000118747E+04 0.  0.
         25    2    3    3    0    0  0.33982731063E+02  0.12157243795E+03 -0.56651125495E+02  0.18687174420E+03  0.12560658852E+03 0.  0.
         35    2    3    3    0    0 -0.33982731063E+02 -0.12157243795E+03  0.78811734955E+02  0.81338564373E+03  0.79965632129E+03 0.  0.
         22    1    5    5    0    0 -0.27990085751E+03 -0.34930179360E+03 -0.58036093263E+02  0.45135841764E+03  0.00000000000E+00 0.  1.
         22    1    5    5    0    0  0.24591812645E+03  0.22772935566E+03  0.13684782822E+03  0.36202722609E+03  0.00000000000E+00 0.  1.
          5    1    4    4  502    0  0.23862669291E+02  0.75599572561E+02  0.32609341752E+02  0.85849761366E+02  0.47000000000E+01 0.  1.
         -5    1    4    4    0  502  0.10120061772E+02  0.45972865387E+02 -0.89260467247E+02  0.10102198283E+03  0.47000000000E+01 0.  1.
<mgrwt>
<rscale>  0 0.10000119E+04</rscale>
<asrwt>0</asrwt>
<pdfrwt beam="1">  1        2 0.75238214E-01 0.10000119E+04</pdfrwt>
<pdfrwt beam="2">  1       -2 0.78647538E-01 0.10000119E+04</pdfrwt>
<totfact> 0.10943608E+02</totfact>
</mgrwt>
</event>
<event>
 9    1  0.4370149E-036  0.1001775E+04  0.7818608E-02  0.8679350E-01
         -2   -1    0    0    0  501 -0.00000000000E+00  0.00000000000E+00  0.10683226399E+03  0.10683226399E+03  0.00000000000E+00 0.  1.
          2   -1    0    0  501    0  0.00000000000E+00 -0.00000000000E+00 -0.23484312083E+04  0.23484312083E+04  0.00000000000E+00 0.  1.
         36    2    1    2    0    0  0.00000000000E+00 -0.21316282073E-13 -0.22415989443E+04  0.24552634723E+04  0.10017748706E+04 0.  0.
         25    2    3    3    0    0  0.12687980689E+02 -0.39396361549E+02 -0.75994488920E+03  0.77122109377E+03  0.12471039526E+03 0.  0.
         35    2    3    3    0    0 -0.12687980689E+02  0.39396361549E+02 -0.14816540551E+04  0.16840423786E+04  0.79936658395E+03 0.  0.
         22    1    5    5    0    0  0.12542979443E+03 -0.28252871806E+03 -0.23276724083E+03  0.38695697211E+03  0.00000000000E+00 0. -1.
         22    1    5    5    0    0 -0.13811777512E+03  0.32192507961E+03 -0.12488868143E+04  0.12970854064E+04  0.00000000000E+00 0. -1.
          5    1    4    4  502    0  0.11812102874E+02 -0.80950596064E+02 -0.61253054200E+03  0.61798728115E+03  0.47000000000E+01 0. -1.
         -5    1    4    4    0  502  0.87587781555E+00  0.41554234514E+02 -0.14741434721E+03  0.15323381262E+03  0.47000000000E+01 0. -1.
<mgrwt>
<rscale>  0 0.10017749E+04</rscale>
<asrwt>0</asrwt>
<pdfrwt beam="1">  1        2 0.36129708E+00 0.10017749E+04</pdfrwt>
<pdfrwt beam="2">  1       -2 0.16435734E-01 0.10017749E+04</pdfrwt>
<totfact> 0.14723601E+02</totfact>
</mgrwt>
</event>
<event>
 9    1  0.4370149E-036  0.9996750E+03  0.7818608E-02  0.8681347E-01
         -2   -1    0    0    0  501 -0.00000000000E+00  0.00000000000E+00  0.12424940168E+03  0.12424940168E+03  0.00000000000E+00 0.  1.
          2   -1    0    0  501    0  0.00000000000E+00 -0.00000000000E+00 -0.20107746812E+04  0.20107746812E+04  0.00000000000E+00 0.  1.
         36    2    1    2    0    0  0.00000000000E+00  0.00000000000E+00 -0.18865252796E+04  0.21350240829E+04  0.99967504931E+03 0.  0.
         25    2    3    3    0    0 -0.12520586131E+03 -0.60197434672E+02 -0.30225175385E+03  0.35501036121E+03  0.12399997990E+03 0.  0.
         35    2    3    3    0    0  0.12520586131E+03  0.60197434672E+02 -0.15842735257E+04  0.17800137217E+04  0.79951610762E+03 0.  0.
         22    1    5    5    0    0  0.53202521752E+02 -0.15820413801E+03  0.11924030664E+02  0.16733571081E+03  0.00000000000E+00 0. -1.
         22    1    5    5    0    0  0.72003339556E+02  0.21840157268E+03 -0.15961975564E+04  0.16126780109E+04  0.00000000000E+00 0. -1.
          5    1    4    4  502    0 -0.14825976074E+03 -0.36847471665E+02 -0.25483295731E+03  0.29715420063E+03  0.47000000000E+01 0.  1.
         -5    1    4    4    0  502  0.23053899433E+02 -0.23349963007E+02 -0.47418796544E+02  0.57856160581E+02  0.47000000000E+01 0.  1.
<mgrwt>
<rscale>  0 0.99967505E+03</rscale>
<asrwt>0</asrwt>
<pdfrwt beam="1">  1        2 0.30934992E+00 0.99967505E+03</pdfrwt>
<pdfrwt beam="2">  1       -2 0.19115295E-01 0.99967505E+03</pdfrwt>
<totfact> 0.17870114E+02</totfact>
</mgrwt>
</event>
<event>
 9    1  0.4370149E-036  0.9999397E+03  0.7818608E-02  0.8681095E-01
          2   -1    0    0  501    0  0.00000000000E+00  0.00000000000E+00  0.13328602634E+03  0.13328602634E+03  0.00000000000E+00 0. -1.
         -2   -1    0    0    0  501 -0.00000000000E+00 -0.00000000000E+00 -0.18754391268E+04  0.18754391268E+04  0.00000000000E+00 0. -1.
         36    2    1    2    0    0 -0.21316282073E-13  0.28421709430E-13 -0.17421531005E+04  0.20087251532E+04  0.99993965588E+03 0.  0.
         25    2    3    3    0    0 -0.36645883813E+02  0.10425082355E+03 -0.50733108741E+03  0.53398732534E+03  0.12468550982E+03 0.  0.
         35    2    3    3    0    0  0.36645883813E+02 -0.10425082355E+03 -0.12348220131E+04  0.14747378278E+04  0.79865831356E+03 0.  0.
         22    1    5    5    0    0 -0.17963153544E+03  0.29058827684E+03 -0.39806977134E+03  0.52456513229E+03  0.00000000000E+00 0.  1.
         22    1    5    5    0    0  0.21627741925E+03 -0.39483910039E+03 -0.83675224175E+03  0.95017269554E+03  0.00000000000E+00 0.  1.
          5    1    4    4  502    0 -0.47531309672E+02  0.34856713873E+02 -0.40786187362E+03  0.41212572579E+03  0.47000000000E+01 0.  1.
         -5    1    4    4    0  502  0.10885425859E+02  0.69394109675E+02 -0.99469213786E+02  0.12186159955E+03  0.47000000000E+01 0.  1.
<mgrwt>
<rscale>  0 0.99993966E+03</rscale>
<asrwt>0</asrwt>
<pdfrwt beam="1">  1        2 0.20505544E-01 0.99993966E+03</pdfrwt>
<pdfrwt beam="2">  1       -2 0.28852907E+00 0.99993966E+03</pdfrwt>
<totfact> 0.11175793E+01</totfact>
</mgrwt>
</event>
<event>
 9    1  0.4370149E-036  0.1000058E+04  0.7818608E-02  0.8680983E-01
          2   -1    0    0  501    0  0.00000000000E+00  0.00000000000E+00  0.14125560986E+04  0.14125560986E+04  0.00000000000E+00 0.  1.
         -2   -1    0    0    0  501 -0.00000000000E+00 -0.00000000000E+00 -0.17700472329E+03  0.17700472329E+03  0.00000000000E+00 0.  1.
         36    2    1    2    0    0 -0.35527136788E-14 -0.28421709430E-13  0.12355513753E+04  0.15895608219E+04  0.10000582010E+04 0.  0.
         25    2    3    3    0    0 -0.20798905422E+02  0.13107573462E+03  0.16443108827E+03  0.24638618591E+03  0.12670882820E+03 0.  0.
         35    2    3    3    0    0  0.20798905422E+02 -0.13107573462E+03  0.10711202871E+04  0.13431746360E+04  0.79950359021E+03 0.  0.
         22    1    5    5    0    0  0.10898638424E+03 -0.24879290469E+03  0.11462637511E+04  0.11780053176E+04  0.00000000000E+00 0. -1.
         22    1    5    5    0    0 -0.88187478821E+02  0.11771717007E+03 -0.75143463994E+02  0.16516931837E+03  0.00000000000E+00 0. -1.
          5    1    4    4  502    0 -0.37607186288E+02  0.11967309091E+03  0.18064279126E+03  0.21997694694E+03  0.47000000000E+01 0.  1.
         -5    1    4    4    0  502  0.16808280867E+02  0.11402643702E+02 -0.16211702991E+02  0.26409238969E+02  0.47000000000E+01 0.  1.
<mgrwt>
<rscale>  0 0.10000582E+04</rscale>
<asrwt>0</asrwt>
<pdfrwt beam="1">  1        2 0.21731632E+00 0.10000582E+04</pdfrwt>
<pdfrwt beam="2">  1       -2 0.27231497E-01 0.10000582E+04</pdfrwt>
<totfact> 0.20919848E+02</totfact>
</mgrwt>
</event>
<event>
 9    1  0.4370149E-036  0.1000232E+04  0.7818608E-02  0.8680817E-01
          1   -1    0    0  501    0  0.00000000000E+00  0.00000000000E+00  0.11512008009E+04  0.11512008009E+04  0.00000000000E+00 0. -1.
         -1   -1    0    0    0  501 -0.00000000000E+00 -0.00000000000E+00 -0.21726520485E+03  0.21726520485E+03  0.00000000000E+00 0. -1.
         36    2    1    2    0    0  0.14210854715E-13  0.00000000000E+00  0.93393559608E+03  0.13684660058E+04  0.10002317288E+04 0.  0.
         25    2    3    3    0    0 -0.83569050258E+02 -0.74381963271E+02  0.32597145317E+03  0.36190337238E+03  0.11045451568E+03 0.  0.
         35    2    3    3    0    0  0.83569050258E+02  0.74381963271E+02  0.60796414291E+03  0.10065626334E+04  0.79437489468E+03 0.  0.
         22    1    5    5    0    0 -0.21719924498E+03  0.46721099396E+02  0.66328229816E+03  0.69950109379E+03  0.00000000000E+00 0.  1.
         22    1    5    5    0    0  0.30076829524E+03  0.27660863875E+02 -0.55318155258E+02  0.30706153962E+03  0.00000000000E+00 0.  1.
          5    1    4    4  502    0 -0.18924348921E+02 -0.56442726675E+02  0.26326467469E+03  0.26995238713E+03  0.47000000000E+01 0.  1.
         -5    1    4    4    0  502 -0.64644701337E+02 -0.17939236597E+02  0.62706778478E+02  0.91950985246E+02  0.47000000000E+01 0.  1.
<mgrwt>
<rscale>  0 0.10002317E+04</rscale>
<asrwt>0</asrwt>
<pdfrwt beam="1">  1        1 0.17710781E+00 0.10002317E+04</pdfrwt>
<pdfrwt beam="2">  1       -1 0.33425417E-01 0.10002317E+04</pdfrwt>
<totfact> 0.10822474E+02</totfact>
</mgrwt>
</event>
<event>
 9    1  0.4370149E-036  0.9995484E+03  0.7818608E-02  0.8681468E-01
          1   -1    0    0  501    0  0.00000000000E+00  0.00000000000E+00  0.33664981176E+03  0.33664981176E+03  0.00000000000E+00 0. -1.
         -1   -1    0    0    0  501 -0.00000000000E+00 -0.00000000000E+00 -0.74194079397E+03  0.74194079397E+03  0.00000000000E+00 0. -1.
         36    2    1    2    0    0  0.00000000000E+00  0.14210854715E-13 -0.40529098222E+03  0.10785906057E+04  0.99954835526E+03 0.  0.
         25    2    3    3    0    0  0.67945777303E+02  0.92360963476E+02 -0.16460925029E+03  0.23532024096E+03  0.12301314685E+03 0.  0.
         35    2    3    3    0    0 -0.67945777303E+02 -0.92360963476E+02 -0.24068173192E+03  0.84327036477E+03  0.80001877215E+03 0.  0.
         22    1    5    5    0    0  0.72149153723E+02  0.22117736575E+03  0.18435582797E+03  0.29683665341E+03  0.00000000000E+00 0. -1.
         22    1    5    5    0    0 -0.14009493103E+03 -0.31353832923E+03 -0.42503755989E+03  0.54643371136E+03  0.00000000000E+00 0. -1.
          5    1    4    4  502    0  0.29884004215E+02 -0.14040752970E+01  0.11301951388E+02  0.32324127839E+02  0.47000000000E+01 0. -1.
         -5    1    4    4    0  502  0.38061773089E+02  0.93765038773E+02 -0.17591120168E+03  0.20299611312E+03  0.47000000000E+01 0. -1.
<mgrwt>
<rscale>  0 0.99954836E+03</rscale>
<asrwt>0</asrwt>
<pdfrwt beam="1">  1        1 0.51792279E-01 0.99954836E+03</pdfrwt>
<pdfrwt beam="2">  1       -1 0.11414474E+00 0.99954836E+03</pdfrwt>
<totfact> 0.63376226E+01</totfact>
</mgrwt>
</event>
<event>
 9    1  0.4370149E-036  0.9998288E+03  0.7818608E-02  0.8681201E-01
          2   -1    0    0  501    0  0.00000000000E+00  0.00000000000E+00  0.45534857374E+03  0.45534857374E+03  0.00000000000E+00 0.  1.
         -2   -1    0    0    0  501 -0.00000000000E+00 -0.00000000000E+00 -0.54884195503E+03  0.54884195503E+03  0.00000000000E+00 0.  1.
         36    2    1    2    0    0  0.14210854715E-13  0.00000000000E+00 -0.93493381289E+02  0.10041905288E+04  0.99982878820E+03 0.  0.
         25    2    3    3    0    0 -0.77206130689E+02 -0.96722390399E+01 -0.13480553441E+03  0.19919199865E+03  0.12430036764E+03 0.  0.
         35    2    3    3    0    0  0.77206130689E+02  0.96722390399E+01  0.41312153119E+02  0.80499853011E+03  0.80016348371E+03 0.  0.
         22    1    5    5    0    0  0.12538120510E+03  0.54077858042E+02  0.40916950758E+03  0.43135199925E+03  0.00000000000E+00 0.  1.
         22    1    5    5    0    0 -0.48175074413E+02 -0.44405619002E+02 -0.36785735446E+03  0.37364653086E+03  0.00000000000E+00 0.  1.
          5    1    4    4  502    0 -0.18958537897E+02  0.55614061290E+02 -0.50970226221E+02  0.77925630786E+02  0.47000000000E+01 0.  1.
         -5    1    4    4    0  502 -0.58247592792E+02 -0.65286300330E+02 -0.83835308187E+02  0.12126636787E+03  0.47000000000E+01 0.  1.
<mgrwt>
<rscale>  0 0.99982879E+03</rscale>
<asrwt>0</asrwt>
<pdfrwt beam="1">  1        2 0.70053627E-01 0.99982879E+03</pdfrwt>
<pdfrwt beam="2">  1       -2 0.84437224E-01 0.99982879E+03</pdfrwt>
<totfact> 0.10071255E+02</totfact>
</mgrwt>
</event>
<event>
 9    1  0.4370149E-036  0.9996831E+03  0.7818608E-02  0.8681340E-01
         -2   -1    0    0    0  501 -0.00000000000E+00  0.00000000000E+00  0.25629725016E+03  0.25629725016E+03  0.00000000000E+00 0. -1.
          2   -1    0    0  501    0  0.00000000000E+00 -0.00000000000E+00 -0.97481169123E+03  0.97481169123E+03  0.00000000000E+00 0. -1.
         36    2    1    2    0    0 -0.14210854715E-13  0.00000000000E+00 -0.71851444107E+03  0.12311089414E+04  0.99968306154E+03 0.  0.
         25    2    3    3    0    0 -0.47704071949E+02 -0.11155102782E+03 -0.22133820263E+03  0.28129675563E+03  0.12416905611E+03 0.  0.
         35    2    3    3    0    0  0.47704071949E+02  0.11155102782E+03 -0.49717623844E+03  0.94981218576E+03  0.80014977713E+03 0.  0.
         22    1    5    5    0    0  0.19775818303E+03 -0.23881208802E+03 -0.47600009836E+03  0.56808063334E+03  0.00000000000E+00 0.  1.
         22    1    5    5    0    0 -0.15005411108E+03  0.35036311585E+03 -0.21176140083E+02  0.38173155241E+03  0.00000000000E+00 0.  1.
          5    1    4    4  502    0 -0.32564041416E+02 -0.13698781525E+03 -0.19942151345E+03  0.24416614906E+03  0.47000000000E+01 0. -1.
         -5    1    4    4    0  502 -0.15140030533E+02  0.25436787432E+02 -0.21916689184E+02  0.37130606569E+02  0.47000000000E+01 0. -1.
<mgrwt>
<rscale>  0 0.99968306E+03</rscale>
<asrwt>0</asrwt>
<pdfrwt beam="1">  1        2 0.14997103E+00 0.99968306E+03</pdfrwt>
<pdfrwt beam="2">  1       -2 0.39430346E-01 0.99968306E+03</pdfrwt>
<totfact> 0.19231784E+02</totfact>
</mgrwt>
</event>
<event>
 9    1  0.4370149E-036  0.9999726E+03  0.7818608E-02  0.8681064E-01
         -2   -1    0    0    0  501 -0.00000000000E+00  0.00000000000E+00  0.17999276443E+03  0.17999276443E+03  0.00000000000E+00 0. -1.
          2   -1    0    0  501    0  0.00000000000E+00 -0.00000000000E+00 -0.13888685387E+04  0.13888685387E+04  0.00000000000E+00 0. -1.
         36    2    1    2    0    0  0.28421709430E-13  0.35527136788E-14 -0.12088757743E+04  0.15688613031E+04  0.99997257506E+03 0.  0.
         25    2    3    3    0    0 -0.12323197828E+03 -0.19928465964E+02 -0.14280920010E+03  0.22887175876E+03  0.12808024867E+03 0.  0.
         35    2    3    3    0    0  0.12323197828E+03  0.19928465964E+02 -0.10660665742E+04  0.13399895444E+04  0.80217876702E+03 0.  0.
         22    1    5    5    0    0 -0.12240507279E+03 -0.41463425693E+02 -0.10787648707E+04  0.10864786532E+04  0.00000000000E+00 0.  1.
         22    1    5    5    0    0  0.24563705106E+03  0.61391891657E+02  0.12698296557E+02  0.25351089119E+03  0.00000000000E+00 0.  1.
          5    1    4    4  502    0 -0.90634394626E+02 -0.29148632728E+02 -0.14913101014E+02  0.96481743666E+02  0.47000000000E+01 0. -1.
         -5    1    4    4    0  502 -0.32597583651E+02  0.92201667633E+01 -0.12789609909E+03  0.13239001510E+03  0.47000000000E+01 0. -1.
<mgrwt>
<rscale>  0 0.99997258E+03</rscale>
<asrwt>0</asrwt>
<pdfrwt beam="1">  1        2 0.21367208E+00 0.99997258E+03</pdfrwt>
<pdfrwt beam="2">  1       -2 0.27691194E-01 0.99997258E+03</pdfrwt>
<totfact> 0.20942113E+02</totfact>
</mgrwt>
</event>
<event>
 9    1  0.4370149E-036  0.9995286E+03  0.7818608E-02  0.8681487E-01
         -2   -1    0    0    0  501 -0.00000000000E+00  0.00000000000E+00  0.21509318626E+03  0.21509318626E+03  0.00000000000E+00 0. -1.
          2   -1    0    0  501    0  0.00000000000E+00 -0.00000000000E+00 -0.11611914907E+04  0.11611914907E+04  0.00000000000E+00 0. -1.
         36    2    1    2    0    0  0.00000000000E+00  0.71054273576E-14 -0.94609830446E+03  0.13762846770E+04  0.99952864411E+03 0.  0.
         25    2    3    3    0    0  0.13960415330E+03 -0.13058280650E+02 -0.16710480580E+03  0.25093792865E+03  0.12404027411E+03 0.  0.
         35    2    3    3    0    0 -0.13960415330E+03  0.13058280650E+02 -0.77899349866E+03  0.11253467483E+04  0.79994661991E+03 0.  0.
         22    1    5    5    0    0 -0.42569558606E+03  0.79357051979E+02 -0.20180722700E+03  0.47774515231E+03  0.00000000000E+00 0.  1.
         22    1    5    5    0    0  0.28609143276E+03 -0.66298771329E+02 -0.57718627166E+03  0.64760159602E+03  0.00000000000E+00 0.  1.
          5    1    4    4  502    0  0.16283592818E+03 -0.89545951615E+01 -0.14584253392E+03  0.21883294766E+03  0.47000000000E+01 0. -1.
         -5    1    4    4    0  502 -0.23231774883E+02 -0.41036854883E+01 -0.21262271873E+02  0.32104980985E+02  0.47000000000E+01 0. -1.
<mgrwt>
<rscale>  0 0.99952864E+03</rscale>
<asrwt>0</asrwt>
<pdfrwt beam="1">  1        2 0.17864484E+00 0.99952864E+03</pdfrwt>
<pdfrwt beam="2">  1       -2 0.33091260E-01 0.99952864E+03</pdfrwt>
<totfact> 0.20537887E+02</totfact>
</mgrwt>
</event>
<event>
 9    1  0.4370149E-036  0.1003164E+04  0.7818608E-02  0.8678031E-01
          2   -1    0    0  501    0  0.00000000000E+00  0.00000000000E+00  0.26461967970E+04  0.26461967970E+04  0.00000000000E+00 0.  1.
         -2   -1    0    0    0  501 -0.00000000000E+00 -0.00000000000E+00 -0.95073938512E+02  0.95073938512E+02  0.00000000000E+00 0.  1.
         36    2    1    2    0    0 -0.71054273576E-14 -0.31974423109E-13  0.25511228585E+04  0.27412707355E+04  0.10031636986E+04 0.  0.
         25    2    3    3    0    0 -0.13874639798E+02 -0.27159032807E+02  0.99566577790E+02  0.16251551296E+03  0.12477046865E+03 0.  0.
         35    2    3    3    0    0  0.13874639798E+02  0.27159032807E+02  0.24515562807E+04  0.25787552225E+04  0.79932482866E+03 0.  0.
         22    1    5    5    0    0 -0.17064343454E+03 -0.30105709693E+03  0.63093674752E+03  0.71960804382E+03  0.00000000000E+00 0. -1.
         22    1    5    5    0    0  0.18451807434E+03  0.32821612974E+03  0.18206195332E+04  0.18591471787E+04  0.00000000000E+00 0. -1.
          5    1    4    4  502    0 -0.51188127023E+02  0.18155423697E+02  0.86419905538E+02  0.10217795179E+03  0.47000000000E+01 0. -1.
         -5    1    4    4    0  502  0.37313487226E+02 -0.45314456504E+02  0.13146672252E+02  0.60337561175E+02  0.47000000000E+01 0. -1.
<mgrwt>
<rscale>  0 0.10031637E+04</rscale>
<asrwt>0</asrwt>
<pdfrwt beam="1">  1        2 0.40710714E+00 0.10031637E+04</pdfrwt>
<pdfrwt beam="2">  1       -2 0.14626762E-01 0.10031637E+04</pdfrwt>
<totfact> 0.11803417E+02</totfact>
</mgrwt>
</event>
<event>
 9    1  0.4370149E-036  0.9997974E+03  0.7818608E-02  0.8681231E-01
         -2   -1    0    0    0  501 -0.00000000000E+00  0.00000000000E+00  0.51871630502E+03  0.51871630502E+03  0.00000000000E+00 0. -1.
          2   -1    0    0  501    0  0.00000000000E+00 -0.00000000000E+00 -0.48176379065E+03  0.48176379065E+03  0.00000000000E+00 0. -1.
         36    2    1    2    0    0  0.17763568394E-13  0.00000000000E+00  0.36952514377E+02  0.10004800957E+04  0.99979744624E+03 0.  0.
         25    2    3    3    0    0  0.19445139513E+02 -0.13754394416E+03  0.13695181715E+01  0.18838852303E+03  0.12724743613E+03 0.  0.
         35    2    3    3    0    0 -0.19445139513E+02  0.13754394416E+03  0.35582996205E+02  0.81209157264E+03  0.79933104701E+03 0.  0.
         22    1    5    5    0    0 -0.31220383049E+03  0.48600517567E+02  0.27868136856E+03  0.42130339099E+03  0.00000000000E+00 0.  1.
         22    1    5    5    0    0  0.29275869097E+03  0.88943426592E+02 -0.24309837236E+03  0.39078818165E+03  0.00000000000E+00 0.  1.
          5    1    4    4  502    0  0.16539318434E+02 -0.37076543294E+02  0.59500190743E+02  0.72184359908E+02  0.47000000000E+01 0.  1.
         -5    1    4    4    0  502  0.29058210792E+01 -0.10046740087E+03 -0.58130672571E+02  0.11620416312E+03  0.47000000000E+01 0.  1.
<mgrwt>
<rscale>  0 0.99979745E+03</rscale>
<asrwt>0</asrwt>
<pdfrwt beam="1">  1        2 0.74117506E-01 0.99979745E+03</pdfrwt>
<pdfrwt beam="2">  1       -2 0.79802509E-01 0.99979745E+03</pdfrwt>
<totfact> 0.10768453E+02</totfact>
</mgrwt>
</event>
<event>
 9    1  0.4370149E-036  0.1000161E+04  0.7818608E-02  0.8680884E-01
         -2   -1    0    0    0  501 -0.00000000000E+00  0.00000000000E+00  0.26824003467E+03  0.26824003467E+03  0.00000000000E+00 0. -1.
          2   -1    0    0  501    0  0.00000000000E+00 -0.00000000000E+00 -0.93230191950E+03  0.93230191950E+03  0.00000000000E+00 0. -1.
         36    2    1    2    0    0  0.14210854715E-13  0.00000000000E+00 -0.66406188483E+03  0.12005419542E+04  0.10001613854E+04 0.  0.
         25    2    3    3    0    0 -0.96499778479E+02  0.78274038761E+02 -0.20627737822E+03  0.27122729848E+03  0.12479927197E+03 0.  0.
         35    2    3    3    0    0  0.96499778479E+02 -0.78274038761E+02 -0.45778450661E+03  0.92931465569E+03  0.79913706108E+03 0.  0.
         22    1    5    5    0    0  0.19556147266E+03  0.25978326979E+03 -0.47612551234E+03  0.57656494894E+03  0.00000000000E+00 0. -1.
         22    1    5    5    0    0 -0.99061694179E+02 -0.33805730855E+03  0.18341005732E+02  0.35274970674E+03  0.00000000000E+00 0. -1.
          5    1    4    4  502    0 -0.95174163535E+02  0.69130196885E+02 -0.75096917853E+02  0.13963789814E+03  0.47000000000E+01 0.  1.
         -5    1    4    4    0  502 -0.13256149435E+01  0.91438418764E+01 -0.13118046037E+03  0.13158940034E+03  0.47000000000E+01 0.  1.
<mgrwt>
<rscale>  0 0.10001614E+04</rscale>
<asrwt>0</asrwt>
<pdfrwt beam="1">  1        2 0.14343106E+00 0.10001614E+04</pdfrwt>
<pdfrwt beam="2">  1       -2 0.41267698E-01 0.10001614E+04</pdfrwt>
<totfact> 0.18765253E+02</totfact>
</mgrwt>
</event>
<event>
 9    1  0.4370149E-036  0.1001257E+04  0.7818608E-02  0.8679842E-01
          1   -1    0    0  501    0  0.00000000000E+00  0.00000000000E+00  0.19646041166E+04  0.19646041166E+04  0.00000000000E+00 0.  1.
         -1   -1    0    0    0  501 -0.00000000000E+00 -0.00000000000E+00 -0.12757209582E+03  0.12757209582E+03  0.00000000000E+00 0.  1.
         36    2    1    2    0    0  0.71054273576E-14  0.00000000000E+00  0.18370320208E+04  0.20921762124E+04  0.10012565398E+04 0.  0.
         25    2    3    3    0    0  0.18382913954E+02  0.13004115063E+03  0.46134318461E+03  0.49600912659E+03  0.12624930611E+03 0.  0.
         35    2    3    3    0    0 -0.18382913954E+02 -0.13004115063E+03  0.13756888362E+04  0.15961670859E+04  0.79873710289E+03 0.  0.
         22    1    5    5    0    0 -0.77328079735E+02  0.30366862138E+03  0.88393498786E+03  0.93783544735E+03  0.00000000000E+00 0.  1.
         22    1    5    5    0    0  0.58945165781E+02 -0.43370977201E+03  0.49175384834E+03  0.65833163851E+03  0.00000000000E+00 0.  1.
          5    1    4    4  502    0  0.19630262569E+02  0.14667919064E+02  0.27941665437E+03  0.28052852225E+03  0.47000000000E+01 0.  1.
         -5    1    4    4    0  502 -0.12473486149E+01  0.11537323156E+03  0.18192653024E+03  0.21548060434E+03  0.47000000000E+01 0.  1.
<mgrwt>
<rscale>  0 0.10012565E+04</rscale>
<asrwt>0</asrwt>
<pdfrwt beam="1">  1        1 0.30224676E+00 0.10012565E+04</pdfrwt>
<pdfrwt beam="2">  1       -1 0.19626478E-01 0.10012565E+04</pdfrwt>
<totfact> 0.69566191E+01</totfact>
</mgrwt>
</event>
<event>
 9    1  0.4370149E-036  0.9994013E+03  0.7818608E-02  0.8681608E-01
          2   -1    0    0  501    0  0.00000000000E+00  0.00000000000E+00  0.54711118070E+03  0.54711118070E+03  0.00000000000E+00 0.  1.
         -2   -1    0    0    0  501 -0.00000000000E+00 -0.00000000000E+00 -0.45639849436E+03  0.45639849436E+03  0.00000000000E+00 0.  1.
         36    2    1    2    0    0 -0.14210854715E-13  0.00000000000E+00  0.90712686345E+02  0.10035096751E+04  0.99940125899E+03 0.  0.
         25    2    3    3    0    0 -0.76613409693E+02  0.10232663154E+03 -0.40297461846E+02  0.18315064239E+03  0.12481954298E+03 0.  0.
         35    2    3    3    0    0  0.76613409693E+02 -0.10232663154E+03  0.13101014819E+03  0.82035903266E+03  0.79967801613E+03 0.  0.
         22    1    5    5    0    0 -0.23766720854E+03  0.21109602312E+03  0.19347916006E+03  0.37213091563E+03  0.00000000000E+00 0.  1.
         22    1    5    5    0    0  0.31428061824E+03 -0.31342265466E+03 -0.62469011868E+02  0.44822811703E+03  0.00000000000E+00 0.  1.
          5    1    4    4  502    0  0.19082568341E+02  0.50587380404E+02 -0.50049662392E+02  0.73826053506E+02  0.47000000000E+01 0. -1.
         -5    1    4    4    0  502 -0.95695978034E+02  0.51739251134E+02  0.97522005464E+01  0.10932458889E+03  0.47000000000E+01 0. -1.
<mgrwt>
<rscale>  0 0.99940126E+03</rscale>
<asrwt>0</asrwt>
<pdfrwt beam="1">  1        2 0.84170950E-01 0.99940126E+03</pdfrwt>
<pdfrwt beam="2">  1       -2 0.70215153E-01 0.99940126E+03</pdfrwt>
<totfact> 0.12371443E+02</totfact>
</mgrwt>
</event>
<event>
 9    1  0.4370149E-036  0.1000162E+04  0.7818608E-02  0.8680884E-01
          2   -1    0    0  501    0  0.00000000000E+00  0.00000000000E+00  0.79161308671E+03  0.79161308671E+03  0.00000000000E+00 0. -1.
         -2   -1    0    0    0  501 -0.00000000000E+00 -0.00000000000E+00 -0.31591293230E+03  0.31591293230E+03  0.00000000000E+00 0. -1.
         36    2    1    2    0    0  0.28421709430E-13  0.71054273576E-14  0.47570015440E+03  0.11075260190E+04  0.10001616099E+04 0.  0.
         25    2    3    3    0    0 -0.81066019943E+02  0.43709174393E+02 -0.27606531881E+02  0.15788431855E+03  0.12523236772E+03 0.  0.
         35    2    3    3    0    0  0.81066019943E+02 -0.43709174393E+02  0.50330668628E+03  0.94964170046E+03  0.80001221696E+03 0.  0.
         22    1    5    5    0    0 -0.30642766874E+03  0.14677587877E+03  0.88978368387E+02  0.35122389554E+03  0.00000000000E+00 0.  1.
         22    1    5    5    0    0  0.38749368868E+03 -0.19048505316E+03  0.41432831790E+03  0.59841780493E+03  0.00000000000E+00 0.  1.
          5    1    4    4  502    0  0.84669583889E+01 -0.19955092146E+01  0.36999012923E+02  0.38297368038E+02  0.47000000000E+01 0.  1.
         -5    1    4    4    0  502 -0.89532978332E+02  0.45704683607E+02 -0.64605544804E+02  0.11958695051E+03  0.47000000000E+01 0.  1.
<mgrwt>
<rscale>  0 0.10001616E+04</rscale>
<asrwt>0</asrwt>
<pdfrwt beam="1">  1        2 0.12178663E+00 0.10001616E+04</pdfrwt>
<pdfrwt beam="2">  1       -2 0.48601990E-01 0.10001616E+04</pdfrwt>
<totfact> 0.16951789E+02</totfact>
</mgrwt>
</event>
<event>
 9    1  0.4370149E-036  0.1001150E+04  0.7818608E-02  0.8679943E-01
         -2   -1    0    0    0  501 -0.00000000000E+00  0.00000000000E+00  0.64107264511E+02  0.64107264511E+02  0.00000000000E+00 0. -1.
          2   -1    0    0  501    0  0.00000000000E+00 -0.00000000000E+00 -0.39086922588E+04  0.39086922588E+04  0.00000000000E+00 0. -1.
         36    2    1    2    0    0  0.00000000000E+00  0.71054273576E-14 -0.38445849943E+04  0.39727995233E+04  0.10011504753E+04 0.  0.
         25    2    3    3    0    0  0.64270881828E+02  0.25280971755E+02 -0.23424131065E+03  0.27463643911E+03  0.12564357638E+03 0.  0.
         35    2    3    3    0    0 -0.64270881828E+02 -0.25280971755E+02 -0.36103436836E+04  0.36981630842E+04  0.79815963918E+03 0.  0.
         22    1    5    5    0    0  0.36925207667E+02  0.72454661310E+02  0.36777003647E+01  0.81404388007E+02  0.00000000000E+00 0. -1.
         22    1    5    5    0    0 -0.10119608950E+03 -0.97735633065E+02 -0.36140213840E+04  0.36167586962E+04  0.00000000000E+00 0. -1.
          5    1    4    4  502    0  0.59134070201E+02 -0.20212917744E+02 -0.38485924575E+02  0.73543570029E+02  0.47000000000E+01 0.  1.
         -5    1    4    4    0  502  0.51368116268E+01  0.45493889498E+02 -0.19575538608E+03  0.20109286908E+03  0.47000000000E+01 0.  1.
<mgrwt>
<rscale>  0 0.10011505E+04</rscale>
<asrwt>0</asrwt>
<pdfrwt beam="1">  1        2 0.60133713E+00 0.10011505E+04</pdfrwt>
<pdfrwt beam="2">  1       -2 0.98626584E-02 0.10011505E+04</pdfrwt>
<totfact> 0.27803621E+01</totfact>
</mgrwt>
</event>
<event>
 9    1  0.4370149E-036  0.1000003E+04  0.7818608E-02  0.8681035E-01
         -2   -1    0    0    0  501 -0.00000000000E+00  0.00000000000E+00  0.57536369726E+03  0.57536369726E+03  0.00000000000E+00 0. -1.
          2   -1    0    0  501    0  0.00000000000E+00 -0.00000000000E+00 -0.43451056002E+03  0.43451056002E+03  0.00000000000E+00 0. -1.
         36    2    1    2    0    0  0.14210854715E-13  0.00000000000E+00  0.14085313724E+03  0.10098742573E+04  0.10000032046E+04 0.  0.
         25    2    3    3    0    0  0.94674032936E+02  0.10074631196E+03  0.60925867914E+01  0.18635448196E+03  0.12481138348E+03 0.  0.
         35    2    3    3    0    0 -0.94674032936E+02 -0.10074631196E+03  0.13476055045E+03  0.82351977533E+03  0.80056943641E+03 0.  0.
         22    1    5    5    0    0 -0.25066497889E+02 -0.41804837124E+03 -0.90174858978E+02  0.42839733333E+03  0.00000000000E+00 0.  1.
         22    1    5    5    0    0 -0.69607535048E+02  0.31730205928E+03  0.22493540942E+03  0.39512244200E+03  0.00000000000E+00 0.  1.
          5    1    4    4  502    0  0.69169748193E+02  0.10654923532E+03 -0.39901915568E+02  0.13323455437E+03  0.47000000000E+01 0. -1.
         -5    1    4    4    0  502  0.25504284744E+02 -0.58029233596E+01  0.45994502359E+02  0.53119927589E+02  0.47000000000E+01 0. -1.
<mgrwt>
<rscale>  0 0.10000032E+04</rscale>
<asrwt>0</asrwt>
<pdfrwt beam="1">  1        2 0.66847778E-01 0.10000032E+04</pdfrwt>
<pdfrwt beam="2">  1       -2 0.88517493E-01 0.10000032E+04</pdfrwt>
<totfact> 0.95087013E+01</totfact>
</mgrwt>
</event>
<event>
 9    1  0.4370149E-036  0.1000489E+04  0.7818608E-02  0.8680572E-01
         -3   -1    0    0    0  501 -0.00000000000E+00  0.00000000000E+00  0.74805479136E+02  0.74805479136E+02  0.00000000000E+00 0.  1.
          3   -1    0    0  501    0  0.00000000000E+00 -0.00000000000E+00 -0.33452724776E+04  0.33452724776E+04  0.00000000000E+00 0.  1.
         36    2    1    2    0    0 -0.14210854715E-13 -0.42632564146E-13 -0.32704669985E+04  0.34200779568E+04  0.10004893014E+04 0.  0.
         25    2    3    3    0    0  0.12374492343E+03 -0.63065983324E+02 -0.56074194831E+03  0.59123786036E+03  0.12585924917E+03 0.  0.
         35    2    3    3    0    0 -0.12374492343E+03  0.63065983324E+02 -0.27097250502E+04  0.28288400964E+04  0.80027265299E+03 0.  0.
         22    1    5    5    0    0  0.14868461601E+03  0.27604277274E+03 -0.48581802331E+03  0.57820920020E+03  0.00000000000E+00 0. -1.
         22    1    5    5    0    0 -0.27242953944E+03 -0.21297678942E+03 -0.22239070269E+04  0.22506308962E+04  0.00000000000E+00 0. -1.
          5    1    4    4  502    0  0.30564688027E+02  0.38521294544E+02 -0.15668589238E+03  0.16428831109E+03  0.47000000000E+01 0. -1.
         -5    1    4    4    0  502  0.93180235404E+02 -0.10158727787E+03 -0.40405605593E+03  0.42694954927E+03  0.47000000000E+01 0. -1.
<mgrwt>
<rscale>  0 0.10004893E+04</rscale>
<asrwt>0</asrwt>
<pdfrwt beam="1">  1        3 0.51465728E+00 0.10004893E+04</pdfrwt>
<pdfrwt beam="2">  1       -3 0.11508536E-01 0.10004893E+04</pdfrwt>
<totfact> 0.25655112E+00</totfact>
</mgrwt>
</event>
<event>
 9    1  0.4370149E-036  0.9999569E+03  0.7818608E-02  0.8681079E-01
         -2   -1    0    0    0  501 -0.00000000000E+00  0.00000000000E+00  0.74241492875E+02  0.74241492875E+02  0.00000000000E+00 0.  1.
          2   -1    0    0  501    0  0.00000000000E+00 -0.00000000000E+00 -0.33670988454E+04  0.33670988454E+04  0.00000000000E+00 0.  1.
         36    2    1    2    0    0 -0.56843418861E-13  0.00000000000E+00 -0.32928573525E+04  0.34413403383E+04  0.99995688895E+03 0.  0.
         25    2    3    3    0    0  0.47630143545E+02 -0.83924742718E+02 -0.96435125022E+03  0.97743010741E+03  0.12682384660E+03 0.  0.
         35    2    3    3    0    0 -0.47630143545E+02  0.83924742718E+02 -0.23285061023E+04  0.24639102309E+04  0.79975056377E+03 0.  0.
         22    1    5    5    0    0 -0.37852141992E+03 -0.12132367868E+03 -0.14394764965E+04  0.14933487483E+04  0.00000000000E+00 0. -1.
         22    1    5    5    0    0  0.33089127637E+03  0.20524842139E+03 -0.88902960587E+03  0.97056148253E+03  0.00000000000E+00 0. -1.
          5    1    4    4  502    0  0.90063132705E+02 -0.42500989979E+02 -0.62603396192E+03  0.63392295549E+03  0.47000000000E+01 0. -1.
         -5    1    4    4    0  502 -0.42432989160E+02 -0.41423752740E+02 -0.33831728830E+03  0.34350715193E+03  0.47000000000E+01 0. -1.
<mgrwt>
<rscale>  0 0.99995689E+03</rscale>
<asrwt>0</asrwt>
<pdfrwt beam="1">  1        2 0.51801514E+00 0.99995689E+03</pdfrwt>
<pdfrwt beam="2">  1       -2 0.11421770E-01 0.99995689E+03</pdfrwt>
<totfact> 0.58315269E+01</totfact>
</mgrwt>
</event>
<event>
 9    1  0.4370149E-036  0.1000782E+04  0.7818608E-02  0.8680294E-01
         -2   -1    0    0    0  501 -0.00000000000E+00  0.00000000000E+00  0.83629997210E+02  0.83629997210E+02  0.00000000000E+00 0. -1.
          2   -1    0    0  501    0  0.00000000000E+00 -0.00000000000E+00 -0.29940339080E+04  0.29940339080E+04  0.00000000000E+00 0. -1.
         36    2    1    2    0    0  0.28421709430E-13 -0.71054273576E-14 -0.29104039108E+04  0.30776639052E+04  0.10007817891E+04 0.  0.
         25    2    3    3    0    0  0.14079417768E+03  0.19779387574E+01 -0.59453213149E+03  0.62349648630E+03  0.12430808638E+03 0.  0.
         35    2    3    3    0    0 -0.14079417768E+03 -0.19779387574E+01 -0.23158717793E+04  0.24541674189E+04  0.79990543766E+03 0.  0.
         22    1    5    5    0    0 -0.19333126644E+03 -0.34749086746E+03 -0.17015001374E+04  0.17473493065E+04  0.00000000000E+00 0.  1.
         22    1    5    5    0    0  0.52537088767E+02  0.34551292870E+03 -0.61437164193E+03  0.70681811239E+03  0.00000000000E+00 0.  1.
          5    1    4    4  502    0  0.41417145690E+02  0.55118749966E+02 -0.15471464219E+03  0.16944664961E+03  0.47000000000E+01 0. -1.
         -5    1    4    4    0  502  0.99377031985E+02 -0.53140811209E+02 -0.43981748930E+03  0.45404983669E+03  0.47000000000E+01 0. -1.
<mgrwt>
<rscale>  0 0.10007818E+04</rscale>
<asrwt>0</asrwt>
<pdfrwt beam="1">  1        2 0.46062046E+00 0.10007818E+04</pdfrwt>
<pdfrwt beam="2">  1       -2 0.12866157E-01 0.10007818E+04</pdfrwt>
<totfact> 0.87198407E+01</totfact>
</mgrwt>
</event>
<event>
 9    1  0.4370149E-036  0.9993170E+03  0.7818608E-02  0.8681689E-01
          2   -1    0    0  501    0  0.00000000000E+00  0.00000000000E+00  0.32272118373E+03  0.32272118373E+03  0.00000000000E+00 0.  1.
         -2   -1    0    0    0  501 -0.00000000000E+00 -0.00000000000E+00 -0.77360465726E+03  0.77360465726E+03  0.00000000000E+00 0.  1.
         36    2    1    2    0    0 -0.28421709430E-13  0.14210854715E-13 -0.45088347353E+03  0.10963258410E+04  0.99931698821E+03 0.  0.
         25    2    3    3    0    0  0.78553864855E+02  0.11538682657E+03 -0.86334892784E+02  0.20619006164E+03  0.12480303834E+03 0.  0.
         35    2    3    3    0    0 -0.78553864855E+02 -0.11538682657E+03 -0.36454858075E+03  0.89013577935E+03  0.79997575496E+03 0.  0.
         22    1    5    5    0    0 -0.41729068887E+03 -0.16400592994E+03 -0.10462827546E+03  0.46040910080E+03  0.00000000000E+00 0.  1.
         22    1    5    5    0    0  0.33873682401E+03  0.48619103378E+02 -0.25992030529E+03  0.42972667855E+03  0.00000000000E+00 0.  1.
          5    1    4    4  502    0  0.18327664658E+02  0.89227649938E+02  0.75521127240E+01  0.91523774025E+02  0.47000000000E+01 0.  1.
         -5    1    4    4    0  502  0.60226200198E+02  0.26159176628E+02 -0.93887005508E+02  0.11466628761E+03  0.47000000000E+01 0.  1.
<mgrwt>
<rscale>  0 0.99931699E+03</rscale>
<asrwt>0</asrwt>
<pdfrwt beam="1">  1        2 0.49649413E-01 0.99931699E+03</pdfrwt>
<pdfrwt beam="2">  1       -2 0.11901610E+00 0.99931699E+03</pdfrwt>
<totfact> 0.64017506E+01</totfact>
</mgrwt>
</event>
<event>
 9    1  0.4370149E-036  0.1001951E+04  0.7818608E-02  0.8679182E-01
          2   -1    0    0  501    0  0.00000000000E+00  0.00000000000E+00  0.22108822557E+03  0.22108822557E+03  0.00000000000E+00 0. -1.
         -2   -1    0    0    0  501 -0.00000000000E+00 -0.00000000000E+00 -0.11351871405E+04  0.11351871405E+04  0.00000000000E+00 0. -1.
         36    2    1    2    0    0 -0.28421709430E-13  0.28421709430E-13 -0.91409891489E+03  0.13562753660E+04  0.10019511177E+04 0.  0.
         25    2    3    3    0    0  0.12914040262E+03  0.71348215440E+02 -0.18110505714E+03  0.26235138195E+03  0.11942108044E+03 0.  0.
         35    2    3    3    0    0 -0.12914040262E+03 -0.71348215440E+02 -0.73299385775E+03  0.10939239841E+04  0.79851228920E+03 0.  0.
         22    1    5    5    0    0 -0.21365212653E+03 -0.27319066013E+03 -0.79426922127E+03  0.86668561994E+03  0.00000000000E+00 0.  1.
         22    1    5    5    0    0  0.84511723915E+02  0.20184244469E+03  0.61275363529E+02  0.22723836413E+03  0.00000000000E+00 0.  1.
          5    1    4    4  502    0  0.14231509181E+03  0.48645114185E+02 -0.18139644444E+03  0.23568345836E+03  0.47000000000E+01 0.  1.
         -5    1    4    4    0  502 -0.13174689192E+02  0.22703101256E+02  0.29138729668E+00  0.26667923588E+02  0.47000000000E+01 0.  1.
<mgrwt>
<rscale>  0 0.10019511E+04</rscale>
<asrwt>0</asrwt>
<pdfrwt beam="1">  1        2 0.34013573E-01 0.10019511E+04</pdfrwt>
<pdfrwt beam="2">  1       -2 0.17464418E+00 0.10019511E+04</pdfrwt>
<totfact> 0.33828986E+01</totfact>
</mgrwt>
</event>
<event>
 9    1  0.4370149E-036  0.9997129E+03  0.7818608E-02  0.8681311E-01
         -1   -1    0    0    0  501 -0.00000000000E+00  0.00000000000E+00  0.18662557207E+03  0.18662557207E+03  0.00000000000E+00 0.  1.
          1   -1    0    0  501    0  0.00000000000E+00 -0.00000000000E+00 -0.13388114420E+04  0.13388114420E+04  0.00000000000E+00 0.  1.
         36    2    1    2    0    0  0.14210854715E-13  0.28421709430E-13 -0.11521858699E+04  0.15254370140E+04  0.99971286128E+03 0.  0.
         25    2    3    3    0    0  0.11284898623E+03 -0.71507065045E+02 -0.21439975433E+03  0.28510166097E+03  0.13216485306E+03 0.  0.
         35    2    3    3    0    0 -0.11284898623E+03  0.71507065045E+02 -0.93778611557E+03  0.12403353531E+04  0.80071270471E+03 0.  0.
         22    1    5    5    0    0 -0.12571870444E+03 -0.30977547795E+03 -0.15284798159E+03  0.36759834720E+03  0.00000000000E+00 0. -1.
         22    1    5    5    0    0  0.12869718207E+02  0.38128254300E+03 -0.78493813398E+03  0.87273700587E+03  0.00000000000E+00 0. -1.
          5    1    4    4  502    0  0.95131733228E+02  0.17335863245E+02 -0.11993941518E+03  0.15413673195E+03  0.47000000000E+01 0. -1.
         -5    1    4    4    0  502  0.17717253006E+02 -0.88842928290E+02 -0.94460339149E+02  0.13096492902E+03  0.47000000000E+01 0. -1.
<mgrwt>
<rscale>  0 0.99971286E+03</rscale>
<asrwt>0</asrwt>
<pdfrwt beam="1">  1        1 0.20597098E+00 0.99971286E+03</pdfrwt>
<pdfrwt beam="2">  1       -1 0.28711627E-01 0.99971286E+03</pdfrwt>
<totfact> 0.10208995E+02</totfact>
</mgrwt>
</event>
<event>
 9    1  0.4370149E-036  0.9996644E+03  0.7818608E-02  0.8681358E-01
         -2   -1    0    0    0  501 -0.00000000000E+00  0.00000000000E+00  0.32403183906E+03  0.32403183906E+03  0.00000000000E+00 0.  1.
          2   -1    0    0  501    0  0.00000000000E+00 -0.00000000000E+00 -0.77101138981E+03  0.77101138981E+03  0.00000000000E+00 0.  1.
         36    2    1    2    0    0  0.00000000000E+00  0.71054273576E-14 -0.44697955075E+03  0.10950432289E+04  0.99966442084E+03 0.  0.
         25    2    3    3    0    0  0.30465211390E+02  0.61786128528E+02 -0.21908425289E+03  0.26122973595E+03  0.12448859505E+03 0.  0.
         35    2    3    3    0    0 -0.30465211390E+02 -0.61786128528E+02 -0.22789529786E+03  0.83381349291E+03  0.79910138242E+03 0.  0.
         22    1    5    5    0    0  0.27244640644E+02 -0.31214430098E+03 -0.41209215964E+03  0.51768357432E+03  0.00000000000E+00 0. -1.
         22    1    5    5    0    0 -0.57709852035E+02  0.25035817246E+03  0.18419686179E+03  0.31612991859E+03  0.00000000000E+00 0. -1.
          5    1    4    4  502    0  0.37328640794E+02  0.37123533128E+02 -0.14241777744E+02  0.54740317580E+02  0.47000000000E+01 0. -1.
         -5    1    4    4    0  502 -0.68634294034E+01  0.24662595400E+02 -0.20484247515E+03  0.20648941837E+03  0.47000000000E+01 0. -1.
<mgrwt>
<rscale>  0 0.99966442E+03</rscale>
<asrwt>0</asrwt>
<pdfrwt beam="1">  1        2 0.11861714E+00 0.99966442E+03</pdfrwt>
<pdfrwt beam="2">  1       -2 0.49851053E-01 0.99966442E+03</pdfrwt>
<totfact> 0.16668414E+02</totfact>
</mgrwt>
</event>
<event>
 9    1  0.4370149E-036  0.9995546E+03  0.7818608E-02  0.8681462E-01
         -2   -1    0    0    0  501 -0.00000000000E+00  0.00000000000E+00  0.17647726478E+03  0.17647726478E+03  0.00000000000E+00 0. -1.
          2   -1    0    0  501    0  0.00000000000E+00 -0.00000000000E+00 -0.14153515226E+04  0.14153515226E+04  0.00000000000E+00 0. -1.
         36    2    1    2    0    0  0.00000000000E+00 -0.28421709430E-13 -0.12388742578E+04  0.15918287874E+04  0.99955463164E+03 0.  0.
         25    2    3    3    0    0 -0.49417884633E+02 -0.83327147142E+02 -0.71608760697E+02  0.17371409449E+03  0.12515283154E+03 0.  0.
         35    2    3    3    0    0  0.49417884633E+02  0.83327147142E+02 -0.11672654971E+04  0.14181146929E+04  0.79947170096E+03 0.  0.
         22    1    5    5    0    0  0.19579717188E+03  0.31707954850E+03 -0.22275757544E+03  0.43416230837E+03  0.00000000000E+00 0.  1.
         22    1    5    5    0    0 -0.14637928725E+03 -0.23375240136E+03 -0.94450792166E+03  0.98395238450E+03  0.00000000000E+00 0.  1.
          5    1    4    4  502    0  0.27092933610E+02 -0.76465893553E+02 -0.34665769537E+02  0.88345149873E+02  0.47000000000E+01 0. -1.
         -5    1    4    4    0  502 -0.76510818242E+02 -0.68612535894E+01 -0.36942991160E+02  0.85368944616E+02  0.47000000000E+01 0. -1.
<mgrwt>
<rscale>  0 0.99955463E+03</rscale>
<asrwt>0</asrwt>
<pdfrwt beam="1">  1        2 0.21774640E+00 0.99955463E+03</pdfrwt>
<pdfrwt beam="2">  1       -2 0.27150347E-01 0.99955463E+03</pdfrwt>
<totfact> 0.20955215E+02</totfact>
</mgrwt>
</event>
<event>
 9    1  0.4370149E-036  0.9999491E+03  0.7818608E-02  0.8681086E-01
         -1   -1    0    0    0  501 -0.00000000000E+00  0.00000000000E+00  0.19694595884E+03  0.19694595884E+03  0.00000000000E+00 0.  1.
          1   -1    0    0  501    0  0.00000000000E+00 -0.00000000000E+00 -0.12692544889E+04  0.12692544889E+04  0.00000000000E+00 0.  1.
         36    2    1    2    0    0  0.42632564146E-13  0.00000000000E+00 -0.10723085301E+04  0.14662004478E+04  0.99994908338E+03 0.  0.
         25    2    3    3    0    0 -0.97767403432E+02 -0.85779395073E+02 -0.27464036536E+03  0.32825793352E+03  0.12413448692E+03 0.  0.
         35    2    3    3    0    0  0.97767403432E+02  0.85779395073E+02 -0.79766816473E+03  0.11379425143E+04  0.80107558627E+03 0.  0.
         22    1    5    5    0    0  0.41537454014E+03  0.46023359614E+01 -0.66545806529E+03  0.78446900943E+03  0.00000000000E+00 0. -1.
         22    1    5    5    0    0 -0.31760713671E+03  0.81177059111E+02 -0.13221009944E+03  0.35347350482E+03  0.00000000000E+00 0. -1.
          5    1    4    4  502    0 -0.49891208008E+01 -0.64100333892E+02 -0.42320869862E+02  0.77116082352E+02  0.47000000000E+01 0.  1.
         -5    1    4    4    0  502 -0.92778282631E+02 -0.21679061181E+02 -0.23231949550E+03  0.25114185117E+03  0.47000000000E+01 0.  1.
<mgrwt>
<rscale>  0 0.99994908E+03</rscale>
<asrwt>0</asrwt>
<pdfrwt beam="1">  1        1 0.19526993E+00 0.99994908E+03</pdfrwt>
<pdfrwt beam="2">  1       -1 0.30299377E-01 0.99994908E+03</pdfrwt>
<totfact> 0.10467823E+02</totfact>
</mgrwt>
</event>
<event>
 9    1  0.4370149E-036  0.9994471E+03  0.7818608E-02  0.8681565E-01
          1   -1    0    0  501    0  0.00000000000E+00  0.00000000000E+00  0.96662816121E+03  0.96662816121E+03  0.00000000000E+00 0. -1.
         -1   -1    0    0    0  501 -0.00000000000E+00 -0.00000000000E+00 -0.25834508229E+03  0.25834508229E+03  0.00000000000E+00 0. -1.
         36    2    1    2    0    0  0.56843418861E-13  0.14210854715E-13  0.70828307892E+03  0.12249732435E+04  0.99944711086E+03 0.  0.
         25    2    3    3    0    0 -0.86153405067E+02  0.72378838228E+02  0.23614298758E+03  0.28997166059E+03  0.12513571805E+03 0.  0.
         35    2    3    3    0    0  0.86153405067E+02 -0.72378838228E+02  0.47214009133E+03  0.93500158291E+03  0.79915617295E+03 0.  0.
         22    1    5    5    0    0  0.31629661257E+03 -0.31647865187E+03  0.15551058055E+03  0.47369380920E+03  0.00000000000E+00 0.  1.
         22    1    5    5    0    0 -0.23014320750E+03  0.24409981365E+03  0.31662951078E+03  0.46130777370E+03  0.00000000000E+00 0.  1.
          5    1    4    4  502    0 -0.55187595418E+02  0.10686929086E+03  0.18575987733E+03  0.22134935745E+03  0.47000000000E+01 0. -1.
         -5    1    4    4    0  502 -0.30965809650E+02 -0.34490452630E+02  0.50383110253E+02  0.68622303143E+02  0.47000000000E+01 0. -1.
<mgrwt>
<rscale>  0 0.99944711E+03</rscale>
<asrwt>0</asrwt>
<pdfrwt beam="1">  1        1 0.14871202E+00 0.99944711E+03</pdfrwt>
<pdfrwt beam="2">  1       -1 0.39745398E-01 0.99944711E+03</pdfrwt>
<totfact> 0.11118411E+02</totfact>
</mgrwt>
</event>
<event>
 9    1  0.4370149E-036  0.1000453E+04  0.7818608E-02  0.8680607E-01
          2   -1    0    0  501    0  0.00000000000E+00  0.00000000000E+00  0.16944967511E+03  0.16944967511E+03  0.00000000000E+00 0.  1.
         -2   -1    0    0    0  501 -0.00000000000E+00 -0.00000000000E+00 -0.14767006124E+04  0.14767006124E+04  0.00000000000E+00 0.  1.
         36    2    1    2    0    0  0.14210854715E-13  0.00000000000E+00 -0.13072509372E+04  0.16461502875E+04  0.10004527755E+04 0.  0.
         25    2    3    3    0    0  0.60177661480E+02 -0.96700497026E+02 -0.38209719104E+03  0.41753507087E+03  0.12395537479E+03 0.  0.
         35    2    3    3    0    0 -0.60177661480E+02  0.96700497026E+02 -0.92515374621E+03  0.12286152166E+04  0.80038338268E+03 0.  0.
         22    1    5    5    0    0 -0.44960622655E+02  0.43388344307E+02 -0.10708788035E+04  0.10727000595E+04  0.00000000000E+00 0.  1.
         22    1    5    5    0    0 -0.15217038825E+02  0.53312152720E+02  0.14572505724E+03  0.15591515708E+03  0.00000000000E+00 0.  1.
          5    1    4    4  502    0 -0.30859216558E+02 -0.29861196718E+01 -0.36982247323E+02  0.48486954682E+02  0.47000000000E+01 0.  1.
         -5    1    4    4    0  502  0.91036878038E+02 -0.93714377355E+02 -0.34511494371E+03  0.36904811619E+03  0.47000000000E+01 0.  1.
<mgrwt>
<rscale>  0 0.10004528E+04</rscale>
<asrwt>0</asrwt>
<pdfrwt beam="1">  1        2 0.26069181E-01 0.10004528E+04</pdfrwt>
<pdfrwt beam="2">  1       -2 0.22718470E+00 0.10004528E+04</pdfrwt>
<totfact> 0.20027084E+01</totfact>
</mgrwt>
</event>
<event>
 9    1  0.4370149E-036  0.9961045E+03  0.7818608E-02  0.8684756E-01
         -1   -1    0    0    0  501 -0.00000000000E+00  0.00000000000E+00  0.35905507482E+03  0.35905507482E+03  0.00000000000E+00 0. -1.
          1   -1    0    0  501    0  0.00000000000E+00 -0.00000000000E+00 -0.69085794903E+03  0.69085794903E+03  0.00000000000E+00 0. -1.
         36    2    1    2    0    0 -0.14210854715E-13  0.28421709430E-13 -0.33180287421E+03  0.10499130238E+04  0.99610451777E+03 0.  0.
         25    2    3    3    0    0 -0.66181793441E+02 -0.55998300867E+02  0.50749534530E+02  0.16058458907E+03  0.12528389964E+03 0.  0.
         35    2    3    3    0    0  0.66181793441E+02  0.55998300867E+02 -0.38255240874E+03  0.88932843478E+03  0.79814966015E+03 0.  0.
         22    1    5    5    0    0  0.53946780815E+02 -0.36270141790E+03 -0.27066138558E+03  0.45576327117E+03  0.00000000000E+00 0.  1.
         22    1    5    5    0    0  0.12235012626E+02  0.41869971877E+03 -0.11189102316E+03  0.43356516360E+03  0.00000000000E+00 0.  1.
          5    1    4    4  502    0  0.34460097521E+02 -0.26040876512E+02 -0.92614883942E+00  0.43457718789E+02  0.47000000000E+01 0. -1.
         -5    1    4    4    0  502 -0.10064189096E+03 -0.29957424356E+02  0.51675683369E+02  0.11712687028E+03  0.47000000000E+01 0. -1.
<mgrwt>
<rscale>  0 0.99610452E+03</rscale>
<asrwt>0</asrwt>
<pdfrwt beam="1">  1        1 0.10628584E+00 0.99610452E+03</pdfrwt>
<pdfrwt beam="2">  1       -1 0.55239243E-01 0.99610452E+03</pdfrwt>
<totfact> 0.10600353E+02</totfact>
</mgrwt>
</event>
<event>
 9    1  0.4370149E-036  0.9988411E+03  0.7818608E-02  0.8682142E-01
         -2   -1    0    0    0  501 -0.00000000000E+00  0.00000000000E+00  0.20960423723E+03  0.20960423723E+03  0.00000000000E+00 0. -1.
          2   -1    0    0  501    0  0.00000000000E+00 -0.00000000000E+00 -0.11899611713E+04  0.11899611713E+04  0.00000000000E+00 0. -1.
         36    2    1    2    0    0 -0.71054273576E-14  0.71054273576E-14 -0.98035693405E+03  0.13995654085E+04  0.99884113579E+03 0.  0.
         25    2    3    3    0    0  0.26136095179E+02 -0.59384210600E+02 -0.11754031833E+02  0.14082137493E+03  0.12443039192E+03 0.  0.
         35    2    3    3    0    0 -0.26136095179E+02  0.59384210600E+02 -0.96860290221E+03  0.12587440336E+04  0.80127110265E+03 0.  0.
         22    1    5    5    0    0 -0.12817596638E+03 -0.32024366134E+02  0.10973110854E+03  0.17174269873E+03  0.00000000000E+00 0.  1.
         22    1    5    5    0    0  0.10203987120E+03  0.91408576734E+02 -0.10783340108E+04  0.10870013349E+04  0.00000000000E+00 0.  1.
          5    1    4    4  502    0  0.29031470512E+02 -0.19015865974E+02 -0.64964550905E+02  0.73803199884E+02  0.47000000000E+01 0. -1.
         -5    1    4    4    0  502 -0.28953753332E+01 -0.40368344626E+02  0.53210519072E+02  0.67018175043E+02  0.47000000000E+01 0. -1.
<mgrwt>
<rscale>  0 0.99884114E+03</rscale>
<asrwt>0</asrwt>
<pdfrwt beam="1">  1        2 0.18307095E+00 0.99884114E+03</pdfrwt>
<pdfrwt beam="2">  1       -2 0.32246806E-01 0.99884114E+03</pdfrwt>
<totfact> 0.20709420E+02</totfact>
</mgrwt>
</event>
<event>
 9    1  0.4370149E-036  0.1001152E+04  0.7818608E-02  0.8679942E-01
         -2   -1    0    0    0  501 -0.00000000000E+00  0.00000000000E+00  0.79683760600E+03  0.79683760600E+03  0.00000000000E+00 0.  1.
          2   -1    0    0  501    0  0.00000000000E+00 -0.00000000000E+00 -0.31446321227E+03  0.31446321227E+03  0.00000000000E+00 0.  1.
         36    2    1    2    0    0  0.00000000000E+00  0.14210854715E-13  0.48237439373E+03  0.11113008183E+04  0.10011515634E+04 0.  0.
         25    2    3    3    0    0  0.71917126997E+02 -0.10013384231E+03  0.14036395739E+02  0.17573213223E+03  0.12444236563E+03 0.  0.
         35    2    3    3    0    0 -0.71917126997E+02  0.10013384231E+03  0.46833799799E+03  0.93556868604E+03  0.80046825447E+03 0.  0.
         22    1    5    5    0    0  0.22344421678E+03  0.16494655451E+03  0.55533686461E+03  0.62091361481E+03  0.00000000000E+00 0. -1.
         22    1    5    5    0    0 -0.29536134378E+03 -0.64812712202E+02 -0.86998866621E+02  0.31465507124E+03  0.00000000000E+00 0. -1.
          5    1    4    4  502    0 -0.52042791955E+01 -0.77405395093E+02 -0.30743781475E+02  0.83581994537E+02  0.47000000000E+01 0. -1.
         -5    1    4    4    0  502  0.77121406193E+02 -0.22728447213E+02  0.44780177214E+02  0.92150137695E+02  0.47000000000E+01 0. -1.
<mgrwt>
<rscale>  0 0.10011516E+04</rscale>
<asrwt>0</asrwt>
<pdfrwt beam="1">  1        2 0.48378956E-01 0.10011516E+04</pdfrwt>
<pdfrwt beam="2">  1       -2 0.12259040E+00 0.10011516E+04</pdfrwt>
<totfact> 0.60990604E+01</totfact>
</mgrwt>
</event>
<event>
 9    1  0.4370149E-036  0.9998974E+03  0.7818608E-02  0.8681136E-01
         -1   -1    0    0    0  501 -0.00000000000E+00  0.00000000000E+00  0.23953614757E+03  0.23953614757E+03  0.00000000000E+00 0.  1.
          1   -1    0    0  501    0  0.00000000000E+00 -0.00000000000E+00 -0.10434696858E+04  0.10434696858E+04  0.00000000000E+00 0.  1.
         36    2    1    2    0    0  0.00000000000E+00 -0.14210854715E-13 -0.80393353819E+03  0.12830058333E+04  0.99989741202E+03 0.  0.
         25    2    3    3    0    0 -0.74755879468E+02  0.72914400304E+02 -0.31843786462E+02  0.16601925490E+03  0.12507363820E+03 0.  0.
         35    2    3    3    0    0  0.74755879468E+02 -0.72914400304E+02 -0.77208975173E+03  0.11169865784E+04  0.80039457795E+03 0.  0.
         22    1    5    5    0    0  0.14634339911E+03 -0.18727359624E+03 -0.90013281538E+03  0.93098167310E+03  0.00000000000E+00 0.  1.
         22    1    5    5    0    0 -0.71587519641E+02  0.11435919594E+03  0.12804306365E+03  0.18600490535E+03  0.00000000000E+00 0.  1.
          5    1    4    4  502    0 -0.92763316225E+01  0.43711487193E+02  0.43054723808E+02  0.62229765251E+02  0.47000000000E+01 0. -1.
         -5    1    4    4    0  502 -0.65479547845E+02  0.29202913111E+02 -0.74898510270E+02  0.10378948965E+03  0.47000000000E+01 0. -1.
<mgrwt>
<rscale>  0 0.99989741E+03</rscale>
<asrwt>0</asrwt>
<pdfrwt beam="1">  1        1 0.16053380E+00 0.99989741E+03</pdfrwt>
<pdfrwt beam="2">  1       -1 0.36851715E-01 0.99989741E+03</pdfrwt>
<totfact> 0.11044070E+02</totfact>
</mgrwt>
</event>
<event>
 9    1  0.4370149E-036  0.1002204E+04  0.7818608E-02  0.8678942E-01
         -1   -1    0    0    0  501 -0.00000000000E+00  0.00000000000E+00  0.29073379814E+03  0.29073379814E+03  0.00000000000E+00 0.  1.
          1   -1    0    0  501    0  0.00000000000E+00 -0.00000000000E+00 -0.86368713293E+03  0.86368713293E+03  0.00000000000E+00 0.  1.
         36    2    1    2    0    0  0.28421709430E-13  0.14210854715E-13 -0.57295333479E+03  0.11544209311E+04  0.10022036531E+04 0.  0.
         25    2    3    3    0    0 -0.53533081050E+02 -0.38093869142E+02  0.37151172116E+02  0.14626794168E+03  0.12528833761E+03 0.  0.
         35    2    3    3    0    0  0.53533081050E+02  0.38093869142E+02 -0.61010450690E+03  0.10081529894E+04  0.79989249717E+03 0.  0.
         22    1    5    5    0    0  0.33964389952E+03 -0.19324616022E+03 -0.14893449156E+03  0.41819079341E+03  0.00000000000E+00 0. -1.
         22    1    5    5    0    0 -0.28611081847E+03  0.23134002936E+03 -0.46117001535E+03  0.58996219598E+03  0.00000000000E+00 0. -1.
          5    1    4    4  502    0  0.34553302344E+02 -0.12942484880E+02 -0.15734520660E+02  0.40386925584E+02  0.47000000000E+01 0. -1.
         -5    1    4    4    0  502 -0.88086383394E+02 -0.25151384261E+02  0.52885692776E+02  0.10588101610E+03  0.47000000000E+01 0. -1.
<mgrwt>
<rscale>  0 0.10022037E+04</rscale>
<asrwt>0</asrwt>
<pdfrwt beam="1">  1        1 0.13287495E+00 0.10022037E+04</pdfrwt>
<pdfrwt beam="2">  1       -1 0.44728276E-01 0.10022037E+04</pdfrwt>
<totfact> 0.10937537E+02</totfact>
</mgrwt>
</event>
<event>
 9    1  0.4370149E-036  0.1001397E+04  0.7818608E-02  0.8679708E-01
          1   -1    0    0  501    0  0.00000000000E+00  0.00000000000E+00  0.31026879941E+03  0.31026879941E+03  0.00000000000E+00 0.  1.
         -1   -1    0    0    0  501 -0.00000000000E+00 -0.00000000000E+00 -0.80800658481E+03  0.80800658481E+03  0.00000000000E+00 0.  1.
         36    2    1    2    0    0  0.00000000000E+00  0.00000000000E+00 -0.49773778540E+03  0.11182753842E+04  0.10013974895E+04 0.  0.
         25    2    3    3    0    0 -0.51515643253E+02  0.12872534244E+03 -0.10069774920E+03  0.21461481688E+03  0.12921071027E+03 0.  0.
         35    2    3    3    0    0  0.51515643253E+02 -0.12872534244E+03 -0.39704003621E+03  0.90366056734E+03  0.79983595526E+03 0.  0.
         22    1    5    5    0    0 -0.17012893742E+03 -0.18980718818E+03  0.16006248823E+03  0.30098276391E+03  0.00000000000E+00 0.  1.
         22    1    5    5    0    0  0.22164458067E+03  0.61081845741E+02 -0.55710252443E+03  0.60267780343E+03  0.00000000000E+00 0.  1.
          5    1    4    4  502    0 -0.22966089244E+01  0.17587673977E+02  0.30569170722E+02  0.35653399377E+02  0.47000000000E+01 0.  1.
         -5    1    4    4    0  502 -0.49219034328E+02  0.11113766846E+03 -0.13126691992E+03  0.17896141751E+03  0.47000000000E+01 0.  1.
<mgrwt>
<rscale>  0 0.10013975E+04</rscale>
<asrwt>0</asrwt>
<pdfrwt beam="1">  1        1 0.47733661E-01 0.10013975E+04</pdfrwt>
<pdfrwt beam="2">  1       -1 0.12430871E+00 0.10013975E+04</pdfrwt>
<totfact> 0.57147050E+01</totfact>
</mgrwt>
</event>
<event>
 9    1  0.4370149E-036  0.1000434E+04  0.7818608E-02  0.8680625E-01
         -1   -1    0    0    0  501 -0.00000000000E+00  0.00000000000E+00  0.13611618637E+03  0.13611618637E+03  0.00000000000E+00 0.  1.
          1   -1    0    0  501    0  0.00000000000E+00 -0.00000000000E+00 -0.18382617336E+04  0.18382617336E+04  0.00000000000E+00 0.  1.
         36    2    1    2    0    0  0.00000000000E+00 -0.14210854715E-13 -0.17021455473E+04  0.19743779200E+04  0.10004342592E+04 0.  0.
         25    2    3    3    0    0 -0.10465884528E+03  0.93854283641E+02 -0.29756932935E+03  0.35163757672E+03  0.12385224721E+03 0.  0.
         35    2    3    3    0    0  0.10465884528E+03 -0.93854283641E+02 -0.14045762179E+04  0.16227403433E+04  0.80043098975E+03 0.  0.
         22    1    5    5    0    0  0.54017206830E+02 -0.40690830842E+03 -0.41548737426E+03  0.58405649408E+03  0.00000000000E+00 0. -1.
         22    1    5    5    0    0  0.50641638450E+02  0.31305402478E+03 -0.98908884366E+03  0.10386838492E+04  0.00000000000E+00 0. -1.
          5    1    4    4  502    0 -0.11193357255E+03  0.10945883127E+03 -0.20838555062E+03  0.26068561163E+03  0.47000000000E+01 0. -1.
         -5    1    4    4    0  502  0.72747272703E+01 -0.15604547632E+02 -0.89183778735E+02  0.90951965087E+02  0.47000000000E+01 0. -1.
<mgrwt>
<rscale>  0 0.10004343E+04</rscale>
<asrwt>0</asrwt>
<pdfrwt beam="1">  1        1 0.28280951E+00 0.10004343E+04</pdfrwt>
<pdfrwt beam="2">  1       -1 0.20940951E-01 0.10004343E+04</pdfrwt>
<totfact> 0.76637568E+01</totfact>
</mgrwt>
</event>
<event>
 9    1  0.4370149E-036  0.1000016E+04  0.7818608E-02  0.8681022E-01
          2   -1    0    0  501    0  0.00000000000E+00  0.00000000000E+00  0.95906372325E+03  0.95906372325E+03  0.00000000000E+00 0. -1.
         -2   -1    0    0    0  501 -0.00000000000E+00 -0.00000000000E+00 -0.26067943662E+03  0.26067943662E+03  0.00000000000E+00 0. -1.
         36    2    1    2    0    0  0.21316282073E-13 -0.14210854715E-13  0.69838428662E+03  0.12197431599E+04  0.10000163820E+04 0.  0.
         25    2    3    3    0    0  0.10594995594E+02 -0.11560089355E+03  0.22844973278E+03  0.28511947373E+03  0.12501205291E+03 0.  0.
         35    2    3    3    0    0 -0.10594995594E+02  0.11560089355E+03  0.46993455385E+03  0.93462368614E+03  0.79950430223E+03 0.  0.
         22    1    5    5    0    0 -0.35748829527E+03 -0.12382773245E+03  0.15677431843E+03  0.40952335159E+03  0.00000000000E+00 0.  1.
         22    1    5    5    0    0  0.34689329967E+03  0.23942862600E+03  0.31316023542E+03  0.52510033456E+03  0.00000000000E+00 0.  1.
          5    1    4    4  502    0 -0.14102949363E+02 -0.58379220077E+02  0.14136677733E+02  0.61878608379E+02  0.47000000000E+01 0.  1.
         -5    1    4    4    0  502  0.24697944957E+02 -0.57221673469E+02  0.21431305505E+03  0.22324086535E+03  0.47000000000E+01 0.  1.
<mgrwt>
<rscale>  0 0.10000164E+04</rscale>
<asrwt>0</asrwt>
<pdfrwt beam="1">  1        2 0.14754826E+00 0.10000164E+04</pdfrwt>
<pdfrwt beam="2">  1       -2 0.40104529E-01 0.10000164E+04</pdfrwt>
<totfact> 0.19053505E+02</totfact>
</mgrwt>
</event>
<event>
 9    1  0.4370149E-036  0.1000339E+04  0.7818608E-02  0.8680715E-01
          2   -1    0    0  501    0  0.00000000000E+00  0.00000000000E+00  0.59802591058E+03  0.59802591058E+03  0.00000000000E+00 0. -1.
         -2   -1    0    0    0  501 -0.00000000000E+00 -0.00000000000E+00 -0.41832558288E+03  0.41832558288E+03  0.00000000000E+00 0. -1.
         36    2    1    2    0    0  0.00000000000E+00  0.71054273576E-14  0.17970032770E+03  0.10163514935E+04  0.10003390178E+04 0.  0.
         25    2    3    3    0    0  0.92350414728E+02 -0.15691877334E+02  0.13793018874E+03  0.20874438053E+03  0.12559715492E+03 0.  0.
         35    2    3    3    0    0 -0.92350414728E+02  0.15691877334E+02  0.41770138965E+02  0.80760711292E+03  0.80106783122E+03 0.  0.
         22    1    5    5    0    0 -0.33922220653E+03  0.27149055246E+03  0.10386029337E+03  0.44672786573E+03  0.00000000000E+00 0.  1.
         22    1    5    5    0    0  0.24687179180E+03 -0.25579867513E+03 -0.62090154404E+02  0.36087924720E+03  0.00000000000E+00 0.  1.
          5    1    4    4  502    0  0.25037248066E+02  0.37327750981E+02  0.10930835261E+03  0.11828199666E+03  0.47000000000E+01 0. -1.
         -5    1    4    4    0  502  0.67313166663E+02 -0.53019628315E+02  0.28621836132E+02  0.90462383875E+02  0.47000000000E+01 0. -1.
<mgrwt>
<rscale>  0 0.10003390E+04</rscale>
<asrwt>0</asrwt>
<pdfrwt beam="1">  1        2 0.92003986E-01 0.10003390E+04</pdfrwt>
<pdfrwt beam="2">  1       -2 0.64357782E-01 0.10003390E+04</pdfrwt>
<totfact> 0.13437022E+02</totfact>
</mgrwt>
</event>
<event>
 9    1  0.4370149E-036  0.9991816E+03  0.7818608E-02  0.8681818E-01
         -1   -1    0    0    0  501 -0.00000000000E+00  0.00000000000E+00  0.44543368020E+03  0.44543368020E+03  0.00000000000E+00 0. -1.
          1   -1    0    0  501    0  0.00000000000E+00 -0.00000000000E+00 -0.56033246731E+03  0.56033246731E+03  0.00000000000E+00 0. -1.
         36    2    1    2    0    0 -0.14210854715E-13  0.00000000000E+00 -0.11489878711E+03  0.10057661475E+04  0.99918157118E+03 0.  0.
         25    2    3    3    0    0 -0.66050165218E+02  0.10067368363E+03  0.51393097016E+02  0.18059732614E+03  0.12440389418E+03 0.  0.
         35    2    3    3    0    0  0.66050165218E+02 -0.10067368363E+03 -0.16629188413E+03  0.82516882137E+03  0.79922010619E+03 0.  0.
         22    1    5    5    0    0  0.31306332209E+03  0.22837015542E+03 -0.18365973285E+02  0.38794185196E+03  0.00000000000E+00 0. -1.
         22    1    5    5    0    0 -0.24701315687E+03 -0.32904383905E+03 -0.14792591084E+03  0.43722696941E+03  0.00000000000E+00 0. -1.
          5    1    4    4  502    0 -0.85958175641E+01 -0.29325185552E+02  0.86438710211E+01  0.32103910875E+02  0.47000000000E+01 0. -1.
         -5    1    4    4    0  502 -0.57454347654E+02  0.12999886918E+03  0.42749225995E+02  0.14849341526E+03  0.47000000000E+01 0. -1.
<mgrwt>
<rscale>  0 0.99918157E+03</rscale>
<asrwt>0</asrwt>
<pdfrwt beam="1">  1        1 0.86204995E-01 0.99918157E+03</pdfrwt>
<pdfrwt beam="2">  1       -1 0.68528259E-01 0.99918157E+03</pdfrwt>
<totfact> 0.95289958E+01</totfact>
</mgrwt>
</event>
<event>
 9    1  0.4370149E-036  0.9983478E+03  0.7818608E-02  0.8682613E-01
         -1   -1    0    0    0  501 -0.00000000000E+00  0.00000000000E+00  0.32791707206E+03  0.32791707206E+03  0.00000000000E+00 0. -1.
          1   -1    0    0  501    0  0.00000000000E+00 -0.00000000000E+00 -0.75987073422E+03  0.75987073422E+03  0.00000000000E+00 0. -1.
         36    2    1    2    0    0 -0.71054273576E-14  0.00000000000E+00 -0.43195366216E+03  0.10877878063E+04  0.99834780775E+03 0.  0.
         25    2    3    3    0    0  0.16265723112E+02  0.13047613562E+03 -0.12482069677E+03  0.22012999054E+03  0.12485355694E+03 0.  0.
         35    2    3    3    0    0 -0.16265723112E+02 -0.13047613562E+03 -0.30713296540E+03  0.86765781574E+03  0.80075641182E+03 0.  0.
         22    1    5    5    0    0 -0.23172928494E+03 -0.79943998192E+02 -0.51100323949E+03  0.56675728060E+03  0.00000000000E+00 0.  1.
         22    1    5    5    0    0  0.21546356183E+03 -0.50532137432E+02  0.20387027409E+03  0.30090053514E+03  0.00000000000E+00 0.  1.
          5    1    4    4  502    0  0.66595541640E+02  0.40817707015E+02 -0.58259720882E+02  0.97556837021E+02  0.47000000000E+01 0.  1.
         -5    1    4    4    0  502 -0.50329818528E+02  0.89658428609E+02 -0.66560975884E+02  0.12257315352E+03  0.47000000000E+01 0.  1.
<mgrwt>
<rscale>  0 0.99834781E+03</rscale>
<asrwt>0</asrwt>
<pdfrwt beam="1">  1        1 0.11690319E+00 0.99834781E+03</pdfrwt>
<pdfrwt beam="2">  1       -1 0.50448780E-01 0.99834781E+03</pdfrwt>
<totfact> 0.10824550E+02</totfact>
</mgrwt>
</event>
<event>
 9    1  0.4370149E-036  0.9997707E+03  0.7818608E-02  0.8681256E-01
         -4   -1    0    0    0  501 -0.00000000000E+00  0.00000000000E+00  0.69512038085E+03  0.69512038085E+03  0.00000000000E+00 0.  1.
          4   -1    0    0  501    0  0.00000000000E+00 -0.00000000000E+00 -0.35948499199E+03  0.35948499199E+03  0.00000000000E+00 0.  1.
         36    2    1    2    0    0  0.00000000000E+00  0.00000000000E+00  0.33563538886E+03  0.10546053728E+04  0.99977066279E+03 0.  0.
         25    2    3    3    0    0 -0.92490533308E+02 -0.10067918584E+03  0.56342995449E+02  0.19374920186E+03  0.12519354165E+03 0.  0.
         35    2    3    3    0    0  0.92490533308E+02  0.10067918584E+03  0.27929239341E+03  0.86085617099E+03  0.80273177893E+03 0.  0.
         22    1    5    5    0    0  0.18108025147E+01  0.44148998519E+03  0.24904673026E+03  0.50689344036E+03  0.00000000000E+00 0.  1.
         22    1    5    5    0    0  0.90679730793E+02 -0.34081079935E+03  0.30245663153E+02  0.35396273063E+03  0.00000000000E+00 0.  1.
          5    1    4    4  502    0 -0.10367681648E+03 -0.38536241983E+02  0.67203633271E+02  0.12950807907E+03  0.47000000000E+01 0.  1.
         -5    1    4    4    0  502  0.11186283168E+02 -0.62142943857E+02 -0.10860637822E+02  0.64241122782E+02  0.47000000000E+01 0.  1.
<mgrwt>
<rscale>  0 0.99977066E+03</rscale>
<asrwt>0</asrwt>
<pdfrwt beam="1">  1        4 0.55305383E-01 0.99977066E+03</pdfrwt>
<pdfrwt beam="2">  1       -4 0.10694160E+00 0.99977066E+03</pdfrwt>
<totfact> 0.48636481E+00</totfact>
</mgrwt>
</event>
<event>
 9    1  0.4370149E-036  0.1000064E+04  0.7818608E-02  0.8680977E-01
         -3   -1    0    0    0  501 -0.00000000000E+00  0.00000000000E+00  0.76494380026E+03  0.76494380026E+03  0.00000000000E+00 0. -1.
          3   -1    0    0  501    0  0.00000000000E+00 -0.00000000000E+00 -0.32686292316E+03  0.32686292316E+03  0.00000000000E+00 0. -1.
         36    2    1    2    0    0  0.00000000000E+00  0.35527136788E-14  0.43808087710E+03  0.10918067234E+04  0.10000635312E+04 0.  0.
         25    2    3    3    0    0 -0.13291844223E+03  0.17548425411E+01  0.12509592870E+03  0.22209176811E+03  0.12651233270E+03 0.  0.
         35    2    3    3    0    0  0.13291844223E+03 -0.17548425411E+01  0.31298494840E+03  0.86971495531E+03  0.80048368741E+03 0.  0.
         22    1    5    5    0    0  0.16609854913E+03 -0.35952190145E+02  0.57696293121E+03  0.60147112316E+03  0.00000000000E+00 0.  1.
         22    1    5    5    0    0 -0.33180106896E+02  0.34197347603E+02 -0.26397798281E+03  0.26824383215E+03  0.00000000000E+00 0.  1.
          5    1    4    4  502    0 -0.12997099658E+03  0.26551831736E+02  0.48385481249E+02  0.14128235741E+03  0.47000000000E+01 0.  1.
         -5    1    4    4    0  502 -0.29474456594E+01 -0.24796989195E+02  0.76710447451E+02  0.80809410697E+02  0.47000000000E+01 0.  1.
<mgrwt>
<rscale>  0 0.10000635E+04</rscale>
<asrwt>0</asrwt>
<pdfrwt beam="1">  1        3 0.50286604E-01 0.10000635E+04</pdfrwt>
<pdfrwt beam="2">  1       -3 0.11768366E+00 0.10000635E+04</pdfrwt>
<totfact> 0.82063332E+00</totfact>
</mgrwt>
</event>
<event>
 9    1  0.4370149E-036  0.1009258E+04  0.7818608E-02  0.8672272E-01
         -1   -1    0    0    0  501 -0.00000000000E+00  0.00000000000E+00  0.25042540768E+03  0.25042540768E+03  0.00000000000E+00 0.  1.
          1   -1    0    0  501    0  0.00000000000E+00 -0.00000000000E+00 -0.10168707163E+04  0.10168707163E+04  0.00000000000E+00 0.  1.
         36    2    1    2    0    0  0.00000000000E+00  0.00000000000E+00 -0.76644530862E+03  0.12672961240E+04  0.10092576751E+04 0.  0.
         25    2    3    3    0    0 -0.82498208773E+02 -0.66971793819E+02 -0.28101409829E+03  0.32541461737E+03  0.12503829071E+03 0.  0.
         35    2    3    3    0    0  0.82498208773E+02  0.66971793819E+02 -0.48543121033E+03  0.94188150662E+03  0.80012882520E+03 0.  0.
         22    1    5    5    0    0  0.10655596825E+03 -0.25723171000E+03 -0.54441241771E+03  0.61147952342E+03  0.00000000000E+00 0.  1.
         22    1    5    5    0    0 -0.24057759481E+02  0.32420350382E+03  0.58981207377E+02  0.33040198320E+03  0.00000000000E+00 0.  1.
          5    1    4    4  502    0 -0.98777368936E+02 -0.21889051277E+02 -0.11835801381E+03  0.15577807488E+03  0.47000000000E+01 0. -1.
         -5    1    4    4    0  502  0.16279160163E+02 -0.45082742542E+02 -0.16265608448E+03  0.16963654249E+03  0.47000000000E+01 0. -1.
<mgrwt>
<rscale>  0 0.10092577E+04</rscale>
<asrwt>0</asrwt>
<pdfrwt beam="1">  1        1 0.15644165E+00 0.10092577E+04</pdfrwt>
<pdfrwt beam="2">  1       -1 0.38526986E-01 0.10092577E+04</pdfrwt>
<totfact> 0.10705283E+02</totfact>
</mgrwt>
</event>
<event>
 9    1  0.4370149E-036  0.9997497E+03  0.7818608E-02  0.8681276E-01
          2   -1    0    0  501    0  0.00000000000E+00  0.00000000000E+00  0.27881355831E+04  0.27881355831E+04  0.00000000000E+00 0. -1.
         -2   -1    0    0    0  501 -0.00000000000E+00 -0.00000000000E+00 -0.89620771923E+02  0.89620771923E+02  0.00000000000E+00 0. -1.
         36    2    1    2    0    0  0.00000000000E+00  0.14210854715E-13  0.26985148112E+04  0.28777563550E+04  0.99974969504E+03 0.  0.
         25    2    3    3    0    0 -0.10664114319E+03  0.58815922496E+02  0.31119037695E+03  0.35694192361E+03  0.12544496786E+03 0.  0.
         35    2    3    3    0    0  0.10664114319E+03 -0.58815922496E+02  0.23873244342E+04  0.25208144314E+04  0.80022234236E+03 0.  0.
         22    1    5    5    0    0  0.26761992402E+03 -0.97529321942E+02  0.23273544976E+04  0.23447198873E+04  0.00000000000E+00 0. -1.
         22    1    5    5    0    0 -0.16097878082E+03  0.38713399446E+02  0.59969936633E+02  0.17609454413E+03  0.00000000000E+00 0. -1.
          5    1    4    4  502    0 -0.12778707739E+03  0.22197004065E+02  0.25821005822E+03  0.28899267863E+03  0.47000000000E+01 0.  1.
         -5    1    4    4    0  502  0.21145934196E+02  0.36618918431E+02  0.52980318737E+02  0.67949244981E+02  0.47000000000E+01 0.  1.
<mgrwt>
<rscale>  0 0.99974970E+03</rscale>
<asrwt>0</asrwt>
<pdfrwt beam="1">  1        2 0.42894387E+00 0.99974970E+03</pdfrwt>
<pdfrwt beam="2">  1       -2 0.13787813E-01 0.99974970E+03</pdfrwt>
<totfact> 0.10595971E+02</totfact>
</mgrwt>
</event>
<event>
 9    1  0.4370149E-036  0.9984041E+03  0.7818608E-02  0.8682559E-01
         -3   -1    0    0    0  501 -0.00000000000E+00  0.00000000000E+00  0.22635509907E+03  0.22635509907E+03  0.00000000000E+00 0.  1.
          3   -1    0    0  501    0  0.00000000000E+00 -0.00000000000E+00 -0.11009369462E+04  0.11009369462E+04  0.00000000000E+00 0.  1.
         36    2    1    2    0    0  0.00000000000E+00  0.21316282073E-13 -0.87458184716E+03  0.13272920453E+04  0.99840410964E+03 0.  0.
         25    2    3    3    0    0  0.12631844262E+03  0.54955525270E+02 -0.18451143388E+03  0.26227663556E+03  0.12557111779E+03 0.  0.
         35    2    3    3    0    0 -0.12631844262E+03 -0.54955525270E+02 -0.69007041328E+03  0.10650154097E+04  0.79942741322E+03 0.  0.
         22    1    5    5    0    0  0.88245061920E+01  0.33940206284E+03 -0.50591602126E+03  0.60928043850E+03  0.00000000000E+00 0.  1.
         22    1    5    5    0    0 -0.13514294881E+03 -0.39435758811E+03 -0.18415439202E+03  0.45573497125E+03  0.00000000000E+00 0.  1.
          5    1    4    4  502    0  0.13832086435E+03  0.30473676862E+02 -0.10025248272E+03  0.17359134998E+03  0.47000000000E+01 0. -1.
         -5    1    4    4    0  502 -0.12002421727E+02  0.24481848408E+02 -0.84258951152E+02  0.88685285578E+02  0.47000000000E+01 0. -1.
<mgrwt>
<rscale>  0 0.99840411E+03</rscale>
<asrwt>0</asrwt>
<pdfrwt beam="1">  1        3 0.16937492E+00 0.99840411E+03</pdfrwt>
<pdfrwt beam="2">  1       -3 0.34823860E-01 0.99840411E+03</pdfrwt>
<totfact> 0.78522412E+00</totfact>
</mgrwt>
</event>
<event>
 9    1  0.4370149E-036  0.9946965E+03  0.7818608E-02  0.8686105E-01
          2   -1    0    0  501    0  0.00000000000E+00  0.00000000000E+00  0.15390737974E+04  0.15390737974E+04  0.00000000000E+00 0. -1.
         -2   -1    0    0    0  501 -0.00000000000E+00 -0.00000000000E+00 -0.16071698352E+03  0.16071698352E+03  0.00000000000E+00 0. -1.
         36    2    1    2    0    0  0.35527136788E-14  0.00000000000E+00  0.13783568139E+04  0.16997907809E+04  0.99469653288E+03 0.  0.
         25    2    3    3    0    0  0.27589706120E+01 -0.12120560398E+03  0.15444723521E+03  0.23267191417E+03  0.12483533483E+03 0.  0.
         35    2    3    3    0    0 -0.27589706120E+01  0.12120560398E+03  0.12239095787E+04  0.14671188668E+04  0.79986542747E+03 0.  0.
         22    1    5    5    0    0  0.64170027790E+02  0.44816238338E+03  0.52941129898E+03  0.69659431366E+03  0.00000000000E+00 0.  1.
         22    1    5    5    0    0 -0.66928998402E+02 -0.32695677939E+03  0.69449827972E+03  0.77052455312E+03  0.00000000000E+00 0.  1.
          5    1    4    4  502    0  0.30877380464E+02 -0.58303835795E+02  0.29869870498E+01  0.66209984024E+02  0.47000000000E+01 0. -1.
         -5    1    4    4    0  502 -0.28118409852E+02 -0.62901768188E+02  0.15146024816E+03  0.16646193014E+03  0.47000000000E+01 0. -1.
<mgrwt>
<rscale>  0 0.99469653E+03</rscale>
<asrwt>0</asrwt>
<pdfrwt beam="1">  1        2 0.23678057E+00 0.99469653E+03</pdfrwt>
<pdfrwt beam="2">  1       -2 0.24725691E-01 0.99469653E+03</pdfrwt>
<totfact> 0.21063751E+02</totfact>
</mgrwt>
</event>
<event>
 9    1  0.4370149E-036  0.9993272E+03  0.7818608E-02  0.8681679E-01
         -1   -1    0    0    0  501 -0.00000000000E+00  0.00000000000E+00  0.63747066449E+03  0.63747066449E+03  0.00000000000E+00 0.  1.
          1   -1    0    0  501    0  0.00000000000E+00 -0.00000000000E+00 -0.39164740335E+03  0.39164740335E+03  0.00000000000E+00 0.  1.
         36    2    1    2    0    0 -0.14210854715E-13  0.28421709430E-13  0.24582326114E+03  0.10291180678E+04  0.99932723461E+03 0.  0.
         25    2    3    3    0    0 -0.98857717940E+02 -0.80979470980E+02 -0.14178145236E+02  0.17856582685E+03  0.12391211241E+03 0.  0.
         35    2    3    3    0    0  0.98857717940E+02  0.80979470980E+02  0.26000140638E+03  0.85055224098E+03  0.79969235348E+03 0.  0.
         22    1    5    5    0    0  0.14749415589E+03  0.42774626754E+03  0.90084513014E+02  0.46134218851E+03  0.00000000000E+00 0. -1.
         22    1    5    5    0    0 -0.48636437953E+02 -0.34676679656E+03  0.16991689336E+03  0.38921005247E+03  0.00000000000E+00 0. -1.
          5    1    4    4  502    0  0.70394480013E+01 -0.69416214012E+02 -0.16735125676E+02  0.71904930480E+02  0.47000000000E+01 0.  1.
         -5    1    4    4    0  502 -0.10589716594E+03 -0.11563256967E+02  0.25569804401E+01  0.10666089637E+03  0.47000000000E+01 0.  1.
<mgrwt>
<rscale>  0 0.99932723E+03</rscale>
<asrwt>0</asrwt>
<pdfrwt beam="1">  1        1 0.60253447E-01 0.99932723E+03</pdfrwt>
<pdfrwt beam="2">  1       -1 0.98072410E-01 0.99932723E+03</pdfrwt>
<totfact> 0.73596386E+01</totfact>
</mgrwt>
</event>
<event>
 9    1  0.4370149E-036  0.1005283E+04  0.7818608E-02  0.8676023E-01
          2   -1    0    0  501    0  0.00000000000E+00  0.00000000000E+00  0.10442625771E+04  0.10442625771E+04  0.00000000000E+00 0. -1.
         -2   -1    0    0    0  501 -0.00000000000E+00 -0.00000000000E+00 -0.24193956743E+03  0.24193956743E+03  0.00000000000E+00 0. -1.
         36    2    1    2    0    0 -0.14210854715E-13  0.28421709430E-13  0.80232300968E+03  0.12862021445E+04  0.10052829178E+04 0.  0.
         25    2    3    3    0    0 -0.64018396601E+02  0.10537481519E+03  0.25221675459E+03  0.30717313746E+03  0.12465888776E+03 0.  0.
         35    2    3    3    0    0  0.64018396601E+02 -0.10537481519E+03  0.55010625509E+03  0.97902900709E+03  0.80042407389E+03 0.  0.
         22    1    5    5    0    0 -0.27743258005E+03  0.13568532147E+03  0.45576215002E+03  0.55054380419E+03  0.00000000000E+00 0. -1.
         22    1    5    5    0    0  0.34145097665E+03 -0.24106013666E+03  0.94344105066E+02  0.42848520290E+03  0.00000000000E+00 0. -1.
          5    1    4    4  502    0  0.14147214547E+02  0.94078664058E+02  0.12163214543E+03  0.15449080074E+03  0.47000000000E+01 0. -1.
         -5    1    4    4    0  502 -0.78165611148E+02  0.11296151134E+02  0.13058460916E+03  0.15268233672E+03  0.47000000000E+01 0. -1.
<mgrwt>
<rscale>  0 0.10052829E+04</rscale>
<asrwt>0</asrwt>
<pdfrwt beam="1">  1        2 0.16065578E+00 0.10052829E+04</pdfrwt>
<pdfrwt beam="2">  1       -2 0.37221472E-01 0.10052829E+04</pdfrwt>
<totfact> 0.19410757E+02</totfact>
</mgrwt>
</event>
<event>
 9    1  0.4370149E-036  0.1001110E+04  0.7818608E-02  0.8679981E-01
          1   -1    0    0  501    0  0.00000000000E+00  0.00000000000E+00  0.10873371265E+04  0.10873371265E+04  0.00000000000E+00 0.  1.
         -1   -1    0    0    0  501 -0.00000000000E+00 -0.00000000000E+00 -0.23043036260E+03  0.23043036260E+03  0.00000000000E+00 0.  1.
         36    2    1    2    0    0  0.28421709430E-13  0.00000000000E+00  0.85690676394E+03  0.13177674891E+04  0.10011103602E+04 0.  0.
         25    2    3    3    0    0 -0.11345392644E+03 -0.60064873161E+02  0.23657766870E+03  0.29727217823E+03  0.12618309004E+03 0.  0.
         35    2    3    3    0    0  0.11345392644E+03  0.60064873161E+02  0.62032909524E+03  0.10204953109E+04  0.80007681554E+03 0.  0.
         22    1    5    5    0    0  0.33010418450E+03  0.69104058046E+02  0.70985698049E+03  0.78590144180E+03  0.00000000000E+00 0. -1.
         22    1    5    5    0    0 -0.21665025807E+03 -0.90391848857E+01 -0.89527885251E+02  0.23459386911E+03  0.00000000000E+00 0. -1.
          5    1    4    4  502    0 -0.99583599085E+02 -0.43190949792E+01  0.72441374131E+02  0.12331013938E+03  0.47000000000E+01 0. -1.
         -5    1    4    4    0  502 -0.13870327350E+02 -0.55745778182E+02  0.16413629457E+03  0.17396203885E+03  0.47000000000E+01 0. -1.
<mgrwt>
<rscale>  0 0.10011104E+04</rscale>
<asrwt>0</asrwt>
<pdfrwt beam="1">  1        1 0.16728263E+00 0.10011104E+04</pdfrwt>
<pdfrwt beam="2">  1       -1 0.35450826E-01 0.10011104E+04</pdfrwt>
<totfact> 0.10927608E+02</totfact>
</mgrwt>
</event>
<event>
 9    1  0.4370149E-036  0.1000545E+04  0.7818608E-02  0.8680519E-01
         -2   -1    0    0    0  501 -0.00000000000E+00  0.00000000000E+00  0.13414444161E+03  0.13414444161E+03  0.00000000000E+00 0.  1.
          2   -1    0    0  501    0  0.00000000000E+00 -0.00000000000E+00 -0.18656946281E+04  0.18656946281E+04  0.00000000000E+00 0.  1.
         36    2    1    2    0    0  0.00000000000E+00 -0.14210854715E-13 -0.17315501865E+04  0.19998390697E+04  0.10005449797E+04 0.  0.
         25    2    3    3    0    0 -0.50261480428E+02  0.66980501867E+02 -0.99451552235E+02  0.18018211404E+03  0.12474926425E+03 0.  0.
         35    2    3    3    0    0  0.50261480428E+02 -0.66980501867E+02 -0.16320986343E+04  0.18196569557E+04  0.80024551257E+03 0.  0.
         22    1    5    5    0    0  0.37864627040E+02 -0.19999755044E+03 -0.22800567558E+02  0.20482337767E+03  0.00000000000E+00 0.  1.
         22    1    5    5    0    0  0.12396853388E+02  0.13301704857E+03 -0.16092980667E+04  0.16148335780E+04  0.00000000000E+00 0.  1.
          5    1    4    4  502    0 -0.60213862697E+02 -0.13138969147E+02 -0.71738954344E+02  0.94693766117E+02  0.47000000000E+01 0. -1.
         -5    1    4    4    0  502  0.99523822686E+01  0.80119471014E+02 -0.27712597892E+02  0.85488347921E+02  0.47000000000E+01 0. -1.
<mgrwt>
<rscale>  0 0.10005450E+04</rscale>
<asrwt>0</asrwt>
<pdfrwt beam="1">  1        2 0.28702991E+00 0.10005450E+04</pdfrwt>
<pdfrwt beam="2">  1       -2 0.20637609E-01 0.10005450E+04</pdfrwt>
<totfact> 0.18921415E+02</totfact>
</mgrwt>
</event>
<event>
 9    1  0.4370149E-036  0.1001055E+04  0.7818608E-02  0.8680034E-01
          1   -1    0    0  501    0  0.00000000000E+00  0.00000000000E+00  0.73761308110E+03  0.73761308110E+03  0.00000000000E+00 0. -1.
         -1   -1    0    0    0  501 -0.00000000000E+00 -0.00000000000E+00 -0.33964633403E+03  0.33964633403E+03  0.00000000000E+00 0. -1.
         36    2    1    2    0    0 -0.14210854715E-13  0.14210854715E-13  0.39796674707E+03  0.10772594151E+04  0.10010546018E+04 0.  0.
         25    2    3    3    0    0  0.24807424181E+02 -0.12778857587E+03  0.12860945446E+03  0.22167445884E+03  0.12511532883E+03 0.  0.
         35    2    3    3    0    0 -0.24807424181E+02  0.12778857587E+03  0.26935729261E+03  0.85558495630E+03  0.80157778035E+03 0.  0.
         22    1    5    5    0    0  0.17198081796E+03  0.30684027308E+03 -0.13060560767E+03  0.37521484470E+03  0.00000000000E+00 0. -1.
         22    1    5    5    0    0 -0.19678824215E+03 -0.17905169721E+03  0.39996290028E+03  0.48037011160E+03  0.00000000000E+00 0. -1.
          5    1    4    4  502    0  0.68588420944E+02 -0.97206907988E+02  0.56413439878E+02  0.13175022067E+03  0.47000000000E+01 0. -1.
         -5    1    4    4    0  502 -0.43780996763E+02 -0.30581667879E+02  0.72196014582E+02  0.89924238164E+02  0.47000000000E+01 0. -1.
<mgrwt>
<rscale>  0 0.10010546E+04</rscale>
<asrwt>0</asrwt>
<pdfrwt beam="1">  1        1 0.11347894E+00 0.10010546E+04</pdfrwt>
<pdfrwt beam="2">  1       -1 0.52253282E-01 0.10010546E+04</pdfrwt>
<totfact> 0.10625069E+02</totfact>
</mgrwt>
</event>
<event>
 9    1  0.4370149E-036  0.1000601E+04  0.7818608E-02  0.8680466E-01
         -2   -1    0    0    0  501 -0.00000000000E+00  0.00000000000E+00  0.20844494928E+03  0.20844494928E+03  0.00000000000E+00 0. -1.
          2   -1    0    0  501    0  0.00000000000E+00 -0.00000000000E+00 -0.12007986973E+04  0.12007986973E+04  0.00000000000E+00 0. -1.
         36    2    1    2    0    0 -0.71054273576E-14 -0.56843418861E-13 -0.99235374804E+03  0.14092436466E+04  0.10006006667E+04 0.  0.
         25    2    3    3    0    0  0.63268884939E+02  0.14026444451E+03 -0.22402502264E+03  0.29893146859E+03  0.12448191013E+03 0.  0.
         35    2    3    3    0    0 -0.63268884939E+02 -0.14026444451E+03 -0.76832872540E+03  0.11103121780E+04  0.78663017750E+03 0.  0.
         22    1    5    5    0    0 -0.14551590544E+03  0.29502778540E+03 -0.18361818244E+03  0.37673851650E+03  0.00000000000E+00 0. -1.
         22    1    5    5    0    0  0.82247020499E+02 -0.43529222991E+03 -0.58471054296E+03  0.73357366150E+03  0.00000000000E+00 0. -1.
          5    1    4    4  502    0  0.53859685102E+02  0.84201312838E+01 -0.25461395341E+02  0.60350119659E+02  0.47000000000E+01 0. -1.
         -5    1    4    4    0  502  0.94091998368E+01  0.13184431322E+03 -0.19856362730E+03  0.23858134893E+03  0.47000000000E+01 0. -1.
<mgrwt>
<rscale>  0 0.10006007E+04</rscale>
<asrwt>0</asrwt>
<pdfrwt beam="1">  1        2 0.18473826E+00 0.10006007E+04</pdfrwt>
<pdfrwt beam="2">  1       -2 0.32068453E-01 0.10006007E+04</pdfrwt>
<totfact> 0.20615045E+02</totfact>
</mgrwt>
</event>
<event>
 9    1  0.4370149E-036  0.1000798E+04  0.7818608E-02  0.8680278E-01
          1   -1    0    0  501    0  0.00000000000E+00  0.00000000000E+00  0.27563171612E+04  0.27563171612E+04  0.00000000000E+00 0.  1.
         -1   -1    0    0    0  501 -0.00000000000E+00 -0.00000000000E+00 -0.90845626720E+02  0.90845626720E+02  0.00000000000E+00 0.  1.
         36    2    1    2    0    0  0.56843418861E-13  0.00000000000E+00  0.26654715345E+04  0.28471627879E+04  0.10007984012E+04 0.  0.
         25    2    3    3    0    0 -0.84690809971E+02 -0.41140296572E+02  0.83421797246E+03  0.84870294019E+03  0.12454717103E+03 0.  0.
         35    2    3    3    0    0  0.84690809971E+02  0.41140296572E+02  0.18312535620E+04  0.19984598477E+04  0.79466162440E+03 0.  0.
         22    1    5    5    0    0 -0.29274147462E+03 -0.69609190998E+02  0.13174612201E+04  0.13513870937E+04  0.00000000000E+00 0.  1.
         22    1    5    5    0    0  0.37743228459E+03  0.11074948757E+03  0.51379234189E+03  0.64707275405E+03  0.00000000000E+00 0.  1.
          5    1    4    4  502    0 -0.52498551444E+02  0.79147116143E+01  0.11142019894E+03  0.12351231233E+03  0.47000000000E+01 0. -1.
         -5    1    4    4    0  502 -0.32192258527E+02 -0.49055008187E+02  0.72279777351E+03  0.72519062786E+03  0.47000000000E+01 0. -1.
<mgrwt>
<rscale>  0 0.10007984E+04</rscale>
<asrwt>0</asrwt>
<pdfrwt beam="1">  1        1 0.42404873E+00 0.10007984E+04</pdfrwt>
<pdfrwt beam="2">  1       -1 0.13976252E-01 0.10007984E+04</pdfrwt>
<totfact> 0.33573541E+01</totfact>
</mgrwt>
</event>
<event>
 9    1  0.4370149E-036  0.9989721E+03  0.7818608E-02  0.8682017E-01
          2   -1    0    0  501    0  0.00000000000E+00  0.00000000000E+00  0.28464276864E+03  0.28464276864E+03  0.00000000000E+00 0.  1.
         -2   -1    0    0    0  501 -0.00000000000E+00 -0.00000000000E+00 -0.87648921441E+03  0.87648921441E+03  0.00000000000E+00 0.  1.
         36    2    1    2    0    0  0.00000000000E+00 -0.28421709430E-13 -0.59184644577E+03  0.11611319831E+04  0.99897210506E+03 0.  0.
         25    2    3    3    0    0 -0.54284880624E+02  0.10178823968E+03 -0.19491863327E+02  0.17157420219E+03  0.12549932318E+03 0.  0.
         35    2    3    3    0    0  0.54284880624E+02 -0.10178823968E+03 -0.57235458244E+03  0.98955778086E+03  0.79895377815E+03 0.  0.
         22    1    5    5    0    0  0.27379063003E+03  0.21506076655E+03 -0.48038700802E+03  0.59328249585E+03  0.00000000000E+00 0. -1.
         22    1    5    5    0    0 -0.21950574941E+03 -0.31684900623E+03 -0.91967574417E+02  0.39627528502E+03  0.00000000000E+00 0. -1.
          5    1    4    4  502    0 -0.39323879402E+02  0.12753951274E+03  0.36021082993E+01  0.13359550886E+03  0.47000000000E+01 0.  1.
         -5    1    4    4    0  502 -0.14961001222E+02 -0.25751273062E+02 -0.23093971626E+02  0.37978693334E+02  0.47000000000E+01 0.  1.
<mgrwt>
<rscale>  0 0.99897211E+03</rscale>
<asrwt>0</asrwt>
<pdfrwt beam="1">  1        2 0.43791196E-01 0.99897211E+03</pdfrwt>
<pdfrwt beam="2">  1       -2 0.13484449E+00 0.99897211E+03</pdfrwt>
<totfact> 0.52928411E+01</totfact>
</mgrwt>
</event>
<event>
 9    1  0.4370149E-036  0.1000202E+04  0.7818608E-02  0.8680846E-01
          2   -1    0    0  501    0  0.00000000000E+00  0.00000000000E+00  0.18751628657E+04  0.18751628657E+04  0.00000000000E+00 0. -1.
         -2   -1    0    0    0  501 -0.00000000000E+00 -0.00000000000E+00 -0.13337559994E+03  0.13337559994E+03  0.00000000000E+00 0. -1.
         36    2    1    2    0    0  0.00000000000E+00  0.12434497876E-13  0.17417872658E+04  0.20085384656E+04  0.10002019240E+04 0.  0.
         25    2    3    3    0    0  0.12030147738E+03 -0.13423494018E+02  0.18479493638E+03  0.25380359030E+03  0.12495782603E+03 0.  0.
         35    2    3    3    0    0 -0.12030147738E+03  0.13423494018E+02  0.15569923294E+04  0.17547348753E+04  0.80013544685E+03 0.  0.
         22    1    5    5    0    0  0.13682443688E+03 -0.16732754131E+03  0.13743029000E+04  0.13911965690E+04  0.00000000000E+00 0.  1.
         22    1    5    5    0    0 -0.25712591426E+03  0.18075103533E+03  0.18268942934E+03  0.36353830630E+03  0.00000000000E+00 0.  1.
          5    1    4    4  502    0  0.30525745837E+02 -0.26534401944E+02  0.15177053919E+03  0.15713778098E+03  0.47000000000E+01 0.  1.
         -5    1    4    4    0  502  0.89775731547E+02  0.13110907926E+02  0.33024397186E+02  0.96665809317E+02  0.47000000000E+01 0.  1.
<mgrwt>
<rscale>  0 0.10002019E+04</rscale>
<asrwt>0</asrwt>
<pdfrwt beam="1">  1        2 0.28848658E+00 0.10002019E+04</pdfrwt>
<pdfrwt beam="2">  1       -2 0.20519324E-01 0.10002019E+04</pdfrwt>
<totfact> 0.18876880E+02</totfact>
</mgrwt>
</event>
<event>
 9    1  0.4370149E-036  0.9991852E+03  0.7818608E-02  0.8681814E-01
          1   -1    0    0  501    0  0.00000000000E+00  0.00000000000E+00  0.88057627379E+03  0.88057627379E+03  0.00000000000E+00 0. -1.
         -1   -1    0    0    0  501 -0.00000000000E+00 -0.00000000000E+00 -0.28344253555E+03  0.28344253555E+03  0.00000000000E+00 0. -1.
         36    2    1    2    0    0  0.00000000000E+00 -0.24868995752E-13  0.59713373824E+03  0.11640188093E+04  0.99918521165E+03 0.  0.
         25    2    3    3    0    0  0.11791059765E+03  0.20793213112E+02  0.19764027871E+03  0.26246929685E+03  0.12447162437E+03 0.  0.
         35    2    3    3    0    0 -0.11791059765E+03 -0.20793213112E+02  0.39949345953E+03  0.90154951250E+03  0.79928795345E+03 0.  0.
         22    1    5    5    0    0 -0.16373211426E+03 -0.32028944241E+03  0.46864152256E+03  0.59077779987E+03  0.00000000000E+00 0. -1.
         22    1    5    5    0    0  0.45821516611E+02  0.29949622930E+03 -0.69148063026E+02  0.31077171262E+03  0.00000000000E+00 0. -1.
          5    1    4    4  502    0  0.44938315115E+02 -0.29618323728E+02  0.15461116658E+03  0.16377850926E+03  0.47000000000E+01 0.  1.
         -5    1    4    4    0  502  0.72972282530E+02  0.50411536840E+02  0.43029112132E+02  0.98690787590E+02  0.47000000000E+01 0.  1.
<mgrwt>
<rscale>  0 0.99918521E+03</rscale>
<asrwt>0</asrwt>
<pdfrwt beam="1">  1        1 0.13547327E+00 0.99918521E+03</pdfrwt>
<pdfrwt beam="2">  1       -1 0.43606545E-01 0.99918521E+03</pdfrwt>
<totfact> 0.11084600E+02</totfact>
</mgrwt>
</event>
<event>
 9    1  0.4370149E-036  0.1000205E+04  0.7818608E-02  0.8680843E-01
         -2   -1    0    0    0  501 -0.00000000000E+00  0.00000000000E+00  0.10101062322E+03  0.10101062322E+03  0.00000000000E+00 0. -1.
          2   -1    0    0  501    0  0.00000000000E+00 -0.00000000000E+00 -0.24759996551E+04  0.24759996551E+04  0.00000000000E+00 0. -1.
         36    2    1    2    0    0  0.00000000000E+00 -0.71054273576E-14 -0.23749890319E+04  0.25770102783E+04  0.10002045156E+04 0.  0.
         25    2    3    3    0    0  0.13891523095E+03 -0.59645101093E+01 -0.40273067018E+03  0.44397538911E+03  0.12485646423E+03 0.  0.
         35    2    3    3    0    0 -0.13891523095E+03  0.59645101093E+01 -0.19722583617E+04  0.21330348892E+04  0.80043849017E+03 0.  0.
         22    1    5    5    0    0 -0.21654349394E+03  0.33936898590E+03 -0.14777338022E+04  0.15315872758E+04  0.00000000000E+00 0. -1.
         22    1    5    5    0    0  0.77628262987E+02 -0.33340447579E+03 -0.49452455953E+03  0.60144761341E+03  0.00000000000E+00 0. -1.
          5    1    4    4  502    0  0.26151571663E+01  0.41613242705E+02 -0.78010398617E+02  0.88578853616E+02  0.47000000000E+01 0.  1.
         -5    1    4    4    0  502  0.13630007379E+03 -0.47577752815E+02 -0.32472027156E+03  0.35539653550E+03  0.47000000000E+01 0.  1.
<mgrwt>
<rscale>  0 0.10002045E+04</rscale>
<asrwt>0</asrwt>
<pdfrwt beam="1">  1        2 0.38092301E+00 0.10002045E+04</pdfrwt>
<pdfrwt beam="2">  1       -2 0.15540097E-01 0.10002045E+04</pdfrwt>
<totfact> 0.13570268E+02</totfact>
</mgrwt>
</event>
<event>
 9    1  0.4370149E-036  0.9999390E+03  0.7818608E-02  0.8681096E-01
          2   -1    0    0  501    0  0.00000000000E+00  0.00000000000E+00  0.96867449319E+03  0.96867449319E+03  0.00000000000E+00 0. -1.
         -2   -1    0    0    0  501 -0.00000000000E+00 -0.00000000000E+00 -0.25805314001E+03  0.25805314001E+03  0.00000000000E+00 0. -1.
         36    2    1    2    0    0  0.00000000000E+00 -0.14210854715E-13  0.71062135319E+03  0.12267276332E+04  0.99993898736E+03 0.  0.
         25    2    3    3    0    0 -0.95098045053E+02 -0.90156283874E+02  0.65264597520E+02  0.19098685907E+03  0.12265691563E+03 0.  0.
         35    2    3    3    0    0  0.95098045053E+02  0.90156283874E+02  0.64535675567E+03  0.10357407741E+04  0.79943843754E+03 0.  0.
         22    1    5    5    0    0  0.67386116267E+02  0.52062993525E+02  0.83551060430E+03  0.83983892137E+03  0.00000000000E+00 0.  1.
         22    1    5    5    0    0  0.27711928786E+02  0.38093290349E+02 -0.19015384863E+03  0.19590185276E+03  0.00000000000E+00 0.  1.
          5    1    4    4  502    0 -0.51319285299E+02  0.82683983731E-01 -0.23804830207E+02  0.56766502635E+02  0.47000000000E+01 0. -1.
         -5    1    4    4    0  502 -0.43778759754E+02 -0.90238967858E+02  0.89069427726E+02  0.13422035643E+03  0.47000000000E+01 0. -1.
<mgrwt>
<rscale>  0 0.99993899E+03</rscale>
<asrwt>0</asrwt>
<pdfrwt beam="1">  1        2 0.14902684E+00 0.99993899E+03</pdfrwt>
<pdfrwt beam="2">  1       -2 0.39700484E-01 0.99993899E+03</pdfrwt>
<totfact> 0.19153864E+02</totfact>
</mgrwt>
</event>
<event>
 9    1  0.4370149E-036  0.1000561E+04  0.7818608E-02  0.8680504E-01
          1   -1    0    0  501    0  0.00000000000E+00  0.00000000000E+00  0.36039291291E+03  0.36039291291E+03  0.00000000000E+00 0. -1.
         -1   -1    0    0    0  501 -0.00000000000E+00 -0.00000000000E+00 -0.69446601005E+03  0.69446601005E+03  0.00000000000E+00 0. -1.
         36    2    1    2    0    0  0.00000000000E+00  0.00000000000E+00 -0.33407309714E+03  0.10548589230E+04  0.10005610991E+04 0.  0.
         25    2    3    3    0    0  0.54394695824E+02  0.43482538616E+02 -0.18855618251E+03  0.23709060890E+03  0.12573388074E+03 0.  0.
         35    2    3    3    0    0 -0.54394695824E+02 -0.43482538616E+02 -0.14551691463E+03  0.81776831405E+03  0.80169840272E+03 0.  0.
         22    1    5    5    0    0 -0.18986541627E+03 -0.87566384021E+02  0.29115081798E+03  0.35844880627E+03  0.00000000000E+00 0.  1.
         22    1    5    5    0    0  0.13547072045E+03  0.44083845405E+02 -0.43666773261E+03  0.45931950778E+03  0.00000000000E+00 0.  1.
          5    1    4    4  502    0 -0.36010776177E+02 -0.11107064345E+02 -0.52353152355E+02  0.64676776673E+02  0.47000000000E+01 0. -1.
         -5    1    4    4    0  502  0.90405472001E+02  0.54589602961E+02 -0.13620303016E+03  0.17241383223E+03  0.47000000000E+01 0. -1.
<mgrwt>
<rscale>  0 0.10005611E+04</rscale>
<asrwt>0</asrwt>
<pdfrwt beam="1">  1        1 0.55445064E-01 0.10005611E+04</pdfrwt>
<pdfrwt beam="2">  1       -1 0.10684092E+00 0.10005611E+04</pdfrwt>
<totfact> 0.67680536E+01</totfact>
</mgrwt>
</event>
<event>
 9    1  0.4370149E-036  0.9997928E+03  0.7818608E-02  0.8681235E-01
          1   -1    0    0  501    0  0.00000000000E+00  0.00000000000E+00  0.10708940591E+04  0.10708940591E+04  0.00000000000E+00 0.  1.
         -1   -1    0    0    0  501 -0.00000000000E+00 -0.00000000000E+00 -0.23335307973E+03  0.23335307973E+03  0.00000000000E+00 0.  1.
         36    2    1    2    0    0  0.00000000000E+00  0.00000000000E+00  0.83754097940E+03  0.13042471389E+04  0.99979283207E+03 0.  0.
         25    2    3    3    0    0 -0.69590637421E+02  0.73958899213E+02  0.28313674600E+03  0.32552530769E+03  0.12444891892E+03 0.  0.
         35    2    3    3    0    0  0.69590637421E+02 -0.73958899213E+02  0.55440423340E+03  0.97872183117E+03  0.80013723399E+03 0.  0.
         22    1    5    5    0    0  0.12039939705E+03 -0.32610663189E+03  0.62219830895E+03  0.71272174503E+03  0.00000000000E+00 0. -1.
         22    1    5    5    0    0 -0.50808759632E+02  0.25214773267E+03 -0.67794075556E+02  0.26600008614E+03  0.00000000000E+00 0. -1.
          5    1    4    4  502    0 -0.38147380237E+02  0.99984626121E+02  0.13805602152E+03  0.17473895719E+03  0.47000000000E+01 0. -1.
         -5    1    4    4    0  502 -0.31443257183E+02 -0.26025726908E+02  0.14508072448E+03  0.15078635050E+03  0.47000000000E+01 0. -1.
<mgrwt>
<rscale>  0 0.99979283E+03</rscale>
<asrwt>0</asrwt>
<pdfrwt beam="1">  1        1 0.16475293E+00 0.99979283E+03</pdfrwt>
<pdfrwt beam="2">  1       -1 0.35900474E-01 0.99979283E+03</pdfrwt>
<totfact> 0.11007980E+02</totfact>
</mgrwt>
</event>
<event>
 9    1  0.4370149E-036  0.9990390E+03  0.7818608E-02  0.8681954E-01
         -2   -1    0    0    0  501 -0.00000000000E+00  0.00000000000E+00  0.33830415379E+03  0.33830415379E+03  0.00000000000E+00 0.  1.
          2   -1    0    0  501    0  0.00000000000E+00 -0.00000000000E+00 -0.73756038652E+03  0.73756038652E+03  0.00000000000E+00 0.  1.
         36    2    1    2    0    0 -0.71054273576E-14 -0.14210854715E-13 -0.39925623274E+03  0.10758645403E+04  0.99903902312E+03 0.  0.
         25    2    3    3    0    0  0.32625606327E+02 -0.86944518887E+02  0.45231438079E+02  0.16021516392E+03  0.12247136892E+03 0.  0.
         35    2    3    3    0    0 -0.32625606327E+02  0.86944518887E+02 -0.44448767082E+03  0.91564937639E+03  0.79512307942E+03 0.  0.
         22    1    5    5    0    0  0.15719070440E+03  0.26146579670E+03  0.93478860500E+02  0.31907926563E+03  0.00000000000E+00 0.  1.
         22    1    5    5    0    0 -0.18981631073E+03 -0.17452127782E+03 -0.53796653132E+03  0.59657011076E+03  0.00000000000E+00 0.  1.
          5    1    4    4  502    0 -0.20797088458E+02  0.22394651410E+02  0.19985217107E+01  0.30985857889E+02  0.47000000000E+01 0. -1.
         -5    1    4    4    0  502  0.53422694784E+02 -0.10933917030E+03  0.43232916369E+02  0.12922930603E+03  0.47000000000E+01 0. -1.
<mgrwt>
<rscale>  0 0.99903902E+03</rscale>
<asrwt>0</asrwt>
<pdfrwt beam="1">  1        2 0.11347083E+00 0.99903902E+03</pdfrwt>
<pdfrwt beam="2">  1       -2 0.52046793E-01 0.99903902E+03</pdfrwt>
<totfact> 0.16165432E+02</totfact>
</mgrwt>
</event>
<event>
 9    1  0.4370149E-036  0.9996180E+03  0.7818608E-02  0.8681402E-01
          1   -1    0    0  501    0  0.00000000000E+00  0.00000000000E+00  0.91874924537E+03  0.91874924537E+03  0.00000000000E+00 0. -1.
         -1   -1    0    0    0  501 -0.00000000000E+00 -0.00000000000E+00 -0.27190119119E+03  0.27190119119E+03  0.00000000000E+00 0. -1.
         36    2    1    2    0    0 -0.28421709430E-13  0.00000000000E+00  0.64684805419E+03  0.11906504366E+04  0.99961795546E+03 0.  0.
         25    2    3    3    0    0 -0.13348050018E+03 -0.39225921035E+02  0.10465604597E+03  0.21430235151E+03  0.12496756817E+03 0.  0.
         35    2    3    3    0    0  0.13348050018E+03  0.39225921035E+02  0.54219200822E+03  0.97634808506E+03  0.79995480660E+03 0.  0.
         22    1    5    5    0    0 -0.17815936255E+03 -0.53440628097E+02 -0.13184788263E+03  0.22799237564E+03  0.00000000000E+00 0. -1.
         22    1    5    5    0    0  0.31163986273E+03  0.92666549132E+02  0.67403989084E+03  0.74835570942E+03  0.00000000000E+00 0. -1.
          5    1    4    4  502    0 -0.11532660046E+02  0.14442838455E+01  0.82895242461E+02  0.83837935484E+02  0.47000000000E+01 0.  1.
         -5    1    4    4    0  502 -0.12194784013E+03 -0.40670204880E+02  0.21760803509E+02  0.13046441602E+03  0.47000000000E+01 0.  1.
<mgrwt>
<rscale>  0 0.99961796E+03</rscale>
<asrwt>0</asrwt>
<pdfrwt beam="1">  1        1 0.14134604E+00 0.99961796E+03</pdfrwt>
<pdfrwt beam="2">  1       -1 0.41830953E-01 0.99961796E+03</pdfrwt>
<totfact> 0.11102235E+02</totfact>
</mgrwt>
</event>
<event>
 9    1  0.4370149E-036  0.1000835E+04  0.7818608E-02  0.8680243E-01
         -1   -1    0    0    0  501 -0.00000000000E+00  0.00000000000E+00  0.28400294694E+03  0.28400294694E+03  0.00000000000E+00 0. -1.
          1   -1    0    0  501    0  0.00000000000E+00 -0.00000000000E+00 -0.88174296995E+03  0.88174296995E+03  0.00000000000E+00 0. -1.
         36    2    1    2    0    0  0.00000000000E+00  0.00000000000E+00 -0.59774002301E+03  0.11657459169E+04  0.10008348553E+04 0.  0.
         25    2    3    3    0    0  0.68631325358E+02 -0.64789280895E+02 -0.23682498337E+03  0.28387244332E+03  0.12485824596E+03 0.  0.
         35    2    3    3    0    0 -0.68631325358E+02  0.64789280895E+02 -0.36091503964E+03  0.88187347358E+03  0.79908275405E+03 0.  0.
         22    1    5    5    0    0  0.42634644180E+02 -0.15745822279E+03  0.20605956788E+03  0.26281428866E+03  0.00000000000E+00 0.  1.
         22    1    5    5    0    0 -0.11126596954E+03  0.22224750368E+03 -0.56697460751E+03  0.61905918492E+03  0.00000000000E+00 0.  1.
          5    1    4    4  502    0  0.19124906834E+02 -0.27802041730E+02  0.48168446738E+01  0.34409411189E+02  0.47000000000E+01 0. -1.
         -5    1    4    4    0  502  0.49506418524E+02 -0.36987239165E+02 -0.24164182805E+03  0.24946303213E+03  0.47000000000E+01 0. -1.
<mgrwt>
<rscale>  0 0.10008349E+04</rscale>
<asrwt>0</asrwt>
<pdfrwt beam="1">  1        1 0.13565276E+00 0.10008349E+04</pdfrwt>
<pdfrwt beam="2">  1       -1 0.43692762E-01 0.10008349E+04</pdfrwt>
<totfact> 0.11018633E+02</totfact>
</mgrwt>
</event>
<event>
 9    1  0.4370149E-036  0.1000172E+04  0.7818608E-02  0.8680874E-01
          1   -1    0    0  501    0  0.00000000000E+00  0.00000000000E+00  0.18411375228E+04  0.18411375228E+04  0.00000000000E+00 0. -1.
         -1   -1    0    0    0  501 -0.00000000000E+00 -0.00000000000E+00 -0.13583243207E+03  0.13583243207E+03  0.00000000000E+00 0. -1.
         36    2    1    2    0    0  0.00000000000E+00 -0.35527136788E-14  0.17053050907E+04  0.19769699549E+04  0.10001723602E+04 0.  0.
         25    2    3    3    0    0 -0.17106416590E+01 -0.25206410058E+02  0.59379533402E+03  0.60729091981E+03  0.12478410627E+03 0.  0.
         35    2    3    3    0    0  0.17106416590E+01  0.25206410058E+02  0.11115097567E+04  0.13696790351E+04  0.79995526777E+03 0.  0.
         22    1    5    5    0    0  0.17121439765E+03  0.58726928265E+02 -0.55985840682E+02  0.18946671588E+03  0.00000000000E+00 0.  1.
         22    1    5    5    0    0 -0.16950375600E+03 -0.33520518207E+02  0.11674955974E+04  0.11802123192E+04  0.00000000000E+00 0.  1.
          5    1    4    4  502    0  0.19352596402E+02 -0.52314844859E+02  0.54255308881E+03  0.54543313995E+03  0.47000000000E+01 0. -1.
         -5    1    4    4    0  502 -0.21063238061E+02  0.27108434801E+02  0.51242245214E+02  0.61857779862E+02  0.47000000000E+01 0. -1.
<mgrwt>
<rscale>  0 0.10001724E+04</rscale>
<asrwt>0</asrwt>
<pdfrwt beam="1">  1        1 0.28325191E+00 0.10001724E+04</pdfrwt>
<pdfrwt beam="2">  1       -1 0.20897299E-01 0.10001724E+04</pdfrwt>
<totfact> 0.76548143E+01</totfact>
</mgrwt>
</event>
<event>
 9    1  0.4370149E-036  0.9998686E+03  0.7818608E-02  0.8681163E-01
          2   -1    0    0  501    0  0.00000000000E+00  0.00000000000E+00  0.11484514183E+03  0.11484514183E+03  0.00000000000E+00 0. -1.
         -2   -1    0    0    0  501 -0.00000000000E+00 -0.00000000000E+00 -0.21762724256E+04  0.21762724256E+04  0.00000000000E+00 0. -1.
         36    2    1    2    0    0 -0.71054273576E-14  0.21316282073E-13 -0.20614272838E+04  0.22911175674E+04  0.99986862215E+03 0.  0.
         25    2    3    3    0    0 -0.44020417091E+02 -0.31156119060E+02 -0.85825466277E+02  0.15945480550E+03  0.12309071232E+03 0.  0.
         35    2    3    3    0    0  0.44020417091E+02  0.31156119060E+02 -0.19756018175E+04  0.21316627619E+04  0.79879602432E+03 0.  0.
         22    1    5    5    0    0 -0.22596111604E+01 -0.25432380414E+03 -0.17677095340E+03  0.30973161472E+03  0.00000000000E+00 0. -1.
         22    1    5    5    0    0  0.46280028252E+02  0.28547992320E+03 -0.17988308641E+04  0.18219311472E+04  0.00000000000E+00 0. -1.
          5    1    4    4  502    0 -0.61517221949E+02 -0.49822214706E+02 -0.10782267923E+02  0.80031050075E+02  0.47000000000E+01 0. -1.
         -5    1    4    4    0  502  0.17496804857E+02  0.18666095646E+02 -0.75043198354E+02  0.79423755426E+02  0.47000000000E+01 0. -1.
<mgrwt>
<rscale>  0 0.99986862E+03</rscale>
<asrwt>0</asrwt>
<pdfrwt beam="1">  1        2 0.17668485E-01 0.99986862E+03</pdfrwt>
<pdfrwt beam="2">  1       -2 0.33481111E+00 0.99986862E+03</pdfrwt>
<totfact> 0.75027809E+00</totfact>
</mgrwt>
</event>
<event>
 9    1  0.4370149E-036  0.1000602E+04  0.7818608E-02  0.8680465E-01
          2   -1    0    0  501    0  0.00000000000E+00  0.00000000000E+00  0.34426207067E+03  0.34426207067E+03  0.00000000000E+00 0.  1.
         -2   -1    0    0    0  501 -0.00000000000E+00 -0.00000000000E+00 -0.72706515651E+03  0.72706515651E+03  0.00000000000E+00 0.  1.
         36    2    1    2    0    0 -0.42632564146E-13 -0.28421709430E-13 -0.38280308584E+03  0.10713272272E+04  0.10006017315E+04 0.  0.
         25    2    3    3    0    0 -0.11180149209E+03  0.74699152243E+02 -0.20604659259E+02  0.18369234149E+03  0.12344548335E+03 0.  0.
         35    2    3    3    0    0  0.11180149209E+03 -0.74699152243E+02 -0.36219842658E+03  0.88763488568E+03  0.79914232342E+03 0.  0.
         22    1    5    5    0    0 -0.21454230885E+03 -0.33101709409E+03 -0.15511542289E+03  0.42386497058E+03  0.00000000000E+00 0.  1.
         22    1    5    5    0    0  0.32634380095E+03  0.25631794185E+03 -0.20708300370E+03  0.46376991510E+03  0.00000000000E+00 0.  1.
          5    1    4    4  502    0 -0.92993072518E+01  0.99537537258E+01 -0.55584075738E+02  0.57421544775E+02  0.47000000000E+01 0.  1.
         -5    1    4    4    0  502 -0.10250218484E+03  0.64745398517E+02  0.34979416479E+02  0.12627079672E+03  0.47000000000E+01 0.  1.
<mgrwt>
<rscale>  0 0.10006017E+04</rscale>
<asrwt>0</asrwt>
<pdfrwt beam="1">  1        2 0.52963396E-01 0.10006017E+04</pdfrwt>
<pdfrwt beam="2">  1       -2 0.11185618E+00 0.10006017E+04</pdfrwt>
<totfact> 0.69860076E+01</totfact>
</mgrwt>
</event>
<event>
 9    1  0.4370149E-036  0.9994432E+03  0.7818608E-02  0.8681568E-01
         -3   -1    0    0    0  501 -0.00000000000E+00  0.00000000000E+00  0.24496715893E+03  0.24496715893E+03  0.00000000000E+00 0.  1.
          3   -1    0    0  501    0  0.00000000000E+00 -0.00000000000E+00 -0.10194087341E+04  0.10194087341E+04  0.00000000000E+00 0.  1.
         36    2    1    2    0    0  0.00000000000E+00 -0.14210854715E-13 -0.77444157514E+03  0.12643758930E+04  0.99944316770E+03 0.  0.
         25    2    3    3    0    0  0.89183056472E+02 -0.10474641333E+03 -0.11802821899E+03  0.22011909835E+03  0.12488526059E+03 0.  0.
         35    2    3    3    0    0 -0.89183056472E+02  0.10474641333E+03 -0.65641335615E+03  0.10442567946E+04  0.80041759748E+03 0.  0.
         22    1    5    5    0    0 -0.30881060772E+03 -0.10640161578E+03 -0.66346991110E+03  0.73951174312E+03  0.00000000000E+00 0.  1.
         22    1    5    5    0    0  0.21962755124E+03  0.21114802911E+03  0.70565549432E+01  0.30474505152E+03  0.00000000000E+00 0.  1.
          5    1    4    4  502    0 -0.28022042168E+02 -0.12242828692E+01 -0.10659210023E+02  0.30371738082E+02  0.47000000000E+01 0. -1.
         -5    1    4    4    0  502  0.11720509864E+03 -0.10352213046E+03 -0.10736900896E+03  0.18974736027E+03  0.47000000000E+01 0. -1.
<mgrwt>
<rscale>  0 0.99944317E+03</rscale>
<asrwt>0</asrwt>
<pdfrwt beam="1">  1        3 0.15683211E+00 0.99944317E+03</pdfrwt>
<pdfrwt beam="2">  1       -3 0.37687255E-01 0.99944317E+03</pdfrwt>
<totfact> 0.83400582E+00</totfact>
</mgrwt>
</event>
<event>
 9    1  0.4370149E-036  0.9998300E+03  0.7818608E-02  0.8681200E-01
          2   -1    0    0  501    0  0.00000000000E+00  0.00000000000E+00  0.75965659938E+03  0.75965659938E+03  0.00000000000E+00 0.  1.
         -2   -1    0    0    0  501 -0.00000000000E+00 -0.00000000000E+00 -0.32898417770E+03  0.32898417770E+03  0.00000000000E+00 0.  1.
         36    2    1    2    0    0  0.28421709430E-13  0.21316282073E-13  0.43067242168E+03  0.10886407771E+04  0.99982998892E+03 0.  0.
         25    2    3    3    0    0  0.41658823837E+02 -0.52520568890E+01  0.22625477493E+03  0.26181207395E+03  0.12486511597E+03 0.  0.
         35    2    3    3    0    0 -0.41658823837E+02  0.52520568890E+01  0.20441764676E+03  0.82682870313E+03  0.80006005294E+03 0.  0.
         22    1    5    5    0    0  0.29908421922E+03 -0.22429040446E+03  0.14272809686E+02  0.37411397837E+03  0.00000000000E+00 0.  1.
         22    1    5    5    0    0 -0.34074304305E+03  0.22954246135E+03  0.19014483707E+03  0.45271472476E+03  0.00000000000E+00 0.  1.
          5    1    4    4  502    0 -0.20338552767E+02  0.45141458962E+02  0.65555359965E+02  0.82286106154E+02  0.47000000000E+01 0.  1.
         -5    1    4    4    0  502  0.61997376604E+02 -0.50393515851E+02  0.16069941496E+03  0.17952596780E+03  0.47000000000E+01 0.  1.
<mgrwt>
<rscale>  0 0.99982999E+03</rscale>
<asrwt>0</asrwt>
<pdfrwt beam="1">  1        2 0.11687025E+00 0.99982999E+03</pdfrwt>
<pdfrwt beam="2">  1       -2 0.50612951E-01 0.99982999E+03</pdfrwt>
<totfact> 0.16476857E+02</totfact>
</mgrwt>
</event>
<event>
 9    1  0.4370149E-036  0.1001334E+04  0.7818608E-02  0.8679769E-01
          2   -1    0    0  501    0  0.00000000000E+00  0.00000000000E+00  0.11150363082E+04  0.11150363082E+04  0.00000000000E+00 0. -1.
         -2   -1    0    0    0  501 -0.00000000000E+00 -0.00000000000E+00 -0.22480654083E+03  0.22480654083E+03  0.00000000000E+00 0. -1.
         36    2    1    2    0    0 -0.28421709430E-13  0.00000000000E+00  0.89022976738E+03  0.13398428490E+04  0.10013340209E+04 0.  0.
         25    2    3    3    0    0  0.97256891720E+02 -0.89787995073E+02  0.23142565007E+03  0.29477247335E+03  0.12574654066E+03 0.  0.
         35    2    3    3    0    0 -0.97256891720E+02  0.89787995073E+02  0.65880411731E+03  0.10450703757E+04  0.80039267744E+03 0.  0.
         22    1    5    5    0    0  0.29195842203E+03  0.24782777012E+03  0.24033609681E+03  0.45212803857E+03  0.00000000000E+00 0.  1.
         22    1    5    5    0    0 -0.38921531375E+03 -0.15803977504E+03  0.41846802051E+03  0.59294233711E+03  0.00000000000E+00 0.  1.
          5    1    4    4  502    0  0.16962255003E+02  0.49474864089E+01  0.13823416265E+03  0.13943804875E+03  0.47000000000E+01 0. -1.
         -5    1    4    4    0  502  0.80294636717E+02 -0.94735481482E+02  0.93191487417E+02  0.15533442459E+03  0.47000000000E+01 0. -1.
<mgrwt>
<rscale>  0 0.10013340E+04</rscale>
<asrwt>0</asrwt>
<pdfrwt beam="1">  1        2 0.17154404E+00 0.10013340E+04</pdfrwt>
<pdfrwt beam="2">  1       -2 0.34585622E-01 0.10013340E+04</pdfrwt>
<totfact> 0.20166853E+02</totfact>
</mgrwt>
</event>
<event>
 9    1  0.4370149E-036  0.1000056E+04  0.7818608E-02  0.8680984E-01
          1   -1    0    0  501    0  0.00000000000E+00  0.00000000000E+00  0.13625646206E+03  0.13625646206E+03  0.00000000000E+00 0. -1.
         -1   -1    0    0    0  501 -0.00000000000E+00 -0.00000000000E+00 -0.18349816318E+04  0.18349816318E+04  0.00000000000E+00 0. -1.
         36    2    1    2    0    0 -0.42632564146E-13  0.00000000000E+00 -0.16987251698E+04  0.19712380939E+04  0.10000562086E+04 0.  0.
         25    2    3    3    0    0  0.63991426355E+02 -0.12408259416E+03 -0.29205669186E+03  0.34705125379E+03  0.12512421300E+03 0.  0.
         35    2    3    3    0    0 -0.63991426355E+02  0.12408259416E+03 -0.14066684779E+04  0.16241868401E+04  0.79985954514E+03 0.  0.
         22    1    5    5    0    0 -0.37087467446E+03  0.10085033055E+03 -0.33712819815E+03  0.51124772402E+03  0.00000000000E+00 0.  1.
         22    1    5    5    0    0  0.30688324811E+03  0.23232263612E+02 -0.10695402798E+04  0.11129391161E+04  0.00000000000E+00 0.  1.
          5    1    4    4  502    0 -0.36677765611E+02 -0.21114163983E+02 -0.80911187218E+02  0.91431814091E+02  0.47000000000E+01 0.  1.
         -5    1    4    4    0  502  0.10066919197E+03 -0.10296843017E+03 -0.21114550464E+03  0.25561943970E+03  0.47000000000E+01 0.  1.
<mgrwt>
<rscale>  0 0.10000562E+04</rscale>
<asrwt>0</asrwt>
<pdfrwt beam="1">  1        1 0.20962532E-01 0.10000562E+04</pdfrwt>
<pdfrwt beam="2">  1       -1 0.28230487E+00 0.10000562E+04</pdfrwt>
<totfact> 0.64784951E+00</totfact>
</mgrwt>
</event>
<event>
 9    1  0.4370149E-036  0.1000353E+04  0.7818608E-02  0.8680702E-01
          2   -1    0    0  501    0  0.00000000000E+00  0.00000000000E+00  0.37428041616E+03  0.37428041616E+03  0.00000000000E+00 0. -1.
         -2   -1    0    0    0  501 -0.00000000000E+00 -0.00000000000E+00 -0.66841988115E+03  0.66841988115E+03  0.00000000000E+00 0. -1.
         36    2    1    2    0    0  0.14210854715E-13  0.00000000000E+00 -0.29413946498E+03  0.10427002973E+04  0.10003528803E+04 0.  0.
         25    2    3    3    0    0  0.52344703681E+02 -0.83072919390E+01 -0.19093824670E+03  0.23414698796E+03  0.12473339094E+03 0.  0.
         35    2    3    3    0    0 -0.52344703681E+02  0.83072919390E+01 -0.10320121828E+03  0.80855330935E+03  0.80018684287E+03 0.  0.
         22    1    5    5    0    0  0.20725726498E+03 -0.25128988554E+03 -0.25258977336E+03  0.41219385496E+03  0.00000000000E+00 0. -1.
         22    1    5    5    0    0 -0.25960196867E+03  0.25959717748E+03  0.14938855508E+03  0.39635945438E+03  0.00000000000E+00 0. -1.
          5    1    4    4  502    0 -0.19501488421E+00  0.38182390981E+02 -0.95947150725E+01  0.39649483845E+02  0.47000000000E+01 0.  1.
         -5    1    4    4    0  502  0.52539718565E+02 -0.46489682920E+02 -0.18134353163E+03  0.19449750412E+03  0.47000000000E+01 0.  1.
<mgrwt>
<rscale>  0 0.10003529E+04</rscale>
<asrwt>0</asrwt>
<pdfrwt beam="1">  1        2 0.57581604E-01 0.10003529E+04</pdfrwt>
<pdfrwt beam="2">  1       -2 0.10283383E+00 0.10003529E+04</pdfrwt>
<totfact> 0.78510663E+01</totfact>
</mgrwt>
</event>
<event>
 9    1  0.4370149E-036  0.9996082E+03  0.7818608E-02  0.8681411E-01
         -1   -1    0    0    0  501 -0.00000000000E+00  0.00000000000E+00  0.16113929893E+03  0.16113929893E+03  0.00000000000E+00 0.  1.
          1   -1    0    0  501    0  0.00000000000E+00 -0.00000000000E+00 -0.15502371551E+04  0.15502371551E+04  0.00000000000E+00 0.  1.
         36    2    1    2    0    0 -0.14210854715E-13 -0.14210854715E-13 -0.13890978561E+04  0.17113764540E+04  0.99960817994E+03 0.  0.
         25    2    3    3    0    0 -0.10020609999E+03  0.23802359262E+02 -0.97075216356E+02  0.18855540543E+03  0.12458622920E+03 0.  0.
         35    2    3    3    0    0  0.10020609999E+03 -0.23802359262E+02 -0.12920226398E+04  0.15228210486E+04  0.79940829962E+03 0.  0.
         22    1    5    5    0    0 -0.23737137014E+03  0.17647438626E+03 -0.97313878092E+03  0.10170975682E+04  0.00000000000E+00 0.  1.
         22    1    5    5    0    0  0.33757747013E+03 -0.20027674552E+03 -0.31888385887E+03  0.50572348036E+03  0.00000000000E+00 0.  1.
          5    1    4    4  502    0 -0.15977646439E+02 -0.45617486649E+02 -0.11830135551E+02  0.49982820859E+02  0.47000000000E+01 0.  1.
         -5    1    4    4    0  502 -0.84228453550E+02  0.69419845911E+02 -0.85245080805E+02  0.13857258457E+03  0.47000000000E+01 0.  1.
<mgrwt>
<rscale>  0 0.99960818E+03</rscale>
<asrwt>0</asrwt>
<pdfrwt beam="1">  1        1 0.23849803E+00 0.99960818E+03</pdfrwt>
<pdfrwt beam="2">  1       -1 0.24790661E-01 0.99960818E+03</pdfrwt>
<totfact> 0.92323782E+01</totfact>
</mgrwt>
</event>
<event>
 9    1  0.4370149E-036  0.9974850E+03  0.7818608E-02  0.8683437E-01
          2   -1    0    0  501    0  0.00000000000E+00  0.00000000000E+00  0.21842476683E+04  0.21842476683E+04  0.00000000000E+00 0.  1.
         -2   -1    0    0    0  501 -0.00000000000E+00 -0.00000000000E+00 -0.11388090211E+03  0.11388090211E+03  0.00000000000E+00 0.  1.
         36    2    1    2    0    0  0.14210854715E-13  0.00000000000E+00  0.20703667662E+04  0.22981285704E+04  0.99748502722E+03 0.  0.
         25    2    3    3    0    0  0.40271701292E+02  0.28660163631E+02  0.90291986337E+02  0.16206295521E+03  0.12517405382E+03 0.  0.
         35    2    3    3    0    0 -0.40271701292E+02 -0.28660163631E+02  0.19800747798E+04  0.21360656152E+04  0.79977307011E+03 0.  0.
         22    1    5    5    0    0 -0.48055827757E+02  0.13568901089E+03 -0.51449336701E+01  0.14403937170E+03  0.00000000000E+00 0. -1.
         22    1    5    5    0    0  0.77841264646E+01 -0.16434917452E+03  0.19852197135E+04  0.19920262435E+04  0.00000000000E+00 0. -1.
          5    1    4    4  502    0 -0.43791527619E+02  0.13798162444E+02  0.48317269153E+02  0.66818677601E+02  0.47000000000E+01 0.  1.
         -5    1    4    4    0  502  0.84063228912E+02  0.14862001187E+02  0.41974717184E+02  0.95244277608E+02  0.47000000000E+01 0.  1.
<mgrwt>
<rscale>  0 0.99748503E+03</rscale>
<asrwt>0</asrwt>
<pdfrwt beam="1">  1        2 0.33603807E+00 0.99748503E+03</pdfrwt>
<pdfrwt beam="2">  1       -2 0.17520140E-01 0.99748503E+03</pdfrwt>
<totfact> 0.16490457E+02</totfact>
</mgrwt>
</event>
<event>
 9    1  0.4370149E-036  0.1000381E+04  0.7818608E-02  0.8680675E-01
         -1   -1    0    0    0  501 -0.00000000000E+00  0.00000000000E+00  0.46679436077E+03  0.46679436077E+03  0.00000000000E+00 0.  1.
          1   -1    0    0  501    0  0.00000000000E+00 -0.00000000000E+00 -0.53597581410E+03  0.53597581410E+03  0.00000000000E+00 0.  1.
         36    2    1    2    0    0  0.00000000000E+00  0.00000000000E+00 -0.69181453327E+02  0.10027701749E+04  0.10003809025E+04 0.  0.
         25    2    3    3    0    0  0.41029572578E+02 -0.13401143743E+03  0.21180089716E+02  0.18909145276E+03  0.12515786079E+03 0.  0.
         35    2    3    3    0    0 -0.41029572578E+02  0.13401143743E+03 -0.90361543043E+02  0.81367872211E+03  0.79640778698E+03 0.  0.
         22    1    5    5    0    0  0.16815619360E+02  0.30788157057E+03  0.26971532852E+03  0.40965862006E+03  0.00000000000E+00 0.  1.
         22    1    5    5    0    0 -0.57845191938E+02 -0.17387013314E+03 -0.36007687156E+03  0.40402010205E+03  0.00000000000E+00 0.  1.
          5    1    4    4  502    0  0.11725104381E+02 -0.73499439790E+02  0.72782840640E+02  0.10420689811E+03  0.47000000000E+01 0. -1.
         -5    1    4    4    0  502  0.29304468197E+02 -0.60511997643E+02 -0.51602750924E+02  0.84884554649E+02  0.47000000000E+01 0. -1.
<mgrwt>
<rscale>  0 0.10003809E+04</rscale>
<asrwt>0</asrwt>
<pdfrwt beam="1">  1        1 0.82457817E-01 0.10003809E+04</pdfrwt>
<pdfrwt beam="2">  1       -1 0.71814517E-01 0.10003809E+04</pdfrwt>
<totfact> 0.92471126E+01</totfact>
</mgrwt>
</event>
<event>
 9    1  0.4370149E-036  0.9999370E+03  0.7818608E-02  0.8681098E-01
         -2   -1    0    0    0  501 -0.00000000000E+00  0.00000000000E+00  0.26442606497E+03  0.26442606497E+03  0.00000000000E+00 0. -1.
          2   -1    0    0  501    0  0.00000000000E+00 -0.00000000000E+00 -0.94532465624E+03  0.94532465624E+03  0.00000000000E+00 0. -1.
         36    2    1    2    0    0 -0.14210854715E-13  0.14210854715E-13 -0.68089859128E+03  0.12097507212E+04  0.99993695595E+03 0.  0.
         25    2    3    3    0    0  0.87725720177E+02  0.53729942537E+02 -0.11068577863E+02  0.16257518193E+03  0.12540122670E+03 0.  0.
         35    2    3    3    0    0 -0.87725720177E+02 -0.53729942537E+02 -0.66983001341E+03  0.10471755393E+04  0.79832427903E+03 0.  0.
         22    1    5    5    0    0  0.33836921360E+03  0.96964597116E+02 -0.26775473384E+03  0.44225383582E+03  0.00000000000E+00 0. -1.
         22    1    5    5    0    0 -0.42609493377E+03 -0.15069453965E+03 -0.40207527957E+03  0.60492170346E+03  0.00000000000E+00 0. -1.
          5    1    4    4  502    0  0.16671794738E+02 -0.17702193846E+02 -0.48929383353E+02  0.54840595931E+02  0.47000000000E+01 0. -1.
         -5    1    4    4    0  502  0.71053925439E+02  0.71432136383E+02  0.37860805489E+02  0.10773458600E+03  0.47000000000E+01 0. -1.
<mgrwt>
<rscale>  0 0.99993696E+03</rscale>
<asrwt>0</asrwt>
<pdfrwt beam="1">  1        2 0.14543457E+00 0.99993696E+03</pdfrwt>
<pdfrwt beam="2">  1       -2 0.40680932E-01 0.99993696E+03</pdfrwt>
<totfact> 0.18919312E+02</totfact>
</mgrwt>
</event>
<event>
 9    1  0.4370149E-036  0.9989839E+03  0.7818608E-02  0.8682006E-01
          2   -1    0    0  501    0  0.00000000000E+00  0.00000000000E+00  0.13342551187E+04  0.13342551187E+04  0.00000000000E+00 0. -1.
         -2   -1    0    0    0  501 -0.00000000000E+00 -0.00000000000E+00 -0.18698987344E+03  0.18698987344E+03  0.00000000000E+00 0. -1.
         36    2    1    2    0    0  0.14210854715E-13 -0.14210854715E-13  0.11472652452E+04  0.15212449921E+04  0.99898387530E+03 0.  0.
         25    2    3    3    0    0 -0.93494467765E+02  0.10259219208E+03  0.18663196999E+03  0.26305844844E+03  0.12288971354E+03 0.  0.
         35    2    3    3    0    0  0.93494467765E+02 -0.10259219208E+03  0.96063327523E+03  0.12581865437E+04  0.80059397687E+03 0.  0.
         22    1    5    5    0    0 -0.10350177445E+03  0.15744141605E+03 -0.51047440939E+02  0.19520824272E+03  0.00000000000E+00 0.  1.
         22    1    5    5    0    0  0.19699624221E+03 -0.26003360813E+03  0.10116807162E+04  0.10629783009E+04  0.00000000000E+00 0.  1.
          5    1    4    4  502    0 -0.93311104057E+01 -0.26068935097E+02  0.49875805163E+02  0.57239365293E+02  0.47000000000E+01 0. -1.
         -5    1    4    4    0  502 -0.84163357359E+02  0.12866112718E+03  0.13675616483E+03  0.20581908315E+03  0.47000000000E+01 0. -1.
<mgrwt>
<rscale>  0 0.99898388E+03</rscale>
<asrwt>0</asrwt>
<pdfrwt beam="1">  1        2 0.20527001E+00 0.99898388E+03</pdfrwt>
<pdfrwt beam="2">  1       -2 0.28767674E-01 0.99898388E+03</pdfrwt>
<totfact> 0.21011666E+02</totfact>
</mgrwt>
</event>
<event>
 9    1  0.4370149E-036  0.9998220E+03  0.7818608E-02  0.8681207E-01
         -2   -1    0    0    0  501 -0.00000000000E+00  0.00000000000E+00  0.32788108227E+03  0.32788108227E+03  0.00000000000E+00 0. -1.
          2   -1    0    0  501    0  0.00000000000E+00 -0.00000000000E+00 -0.76220011815E+03  0.76220011815E+03  0.00000000000E+00 0. -1.
         36    2    1    2    0    0  0.00000000000E+00  0.00000000000E+00 -0.43431903588E+03  0.10900812004E+04  0.99982198345E+03 0.  0.
         25    2    3    3    0    0  0.12838937010E+03  0.13784590990E+02 -0.22193176785E+02  0.18111689336E+03  0.12504777752E+03 0.  0.
         35    2    3    3    0    0 -0.12838937010E+03 -0.13784590990E+02 -0.41212585909E+03  0.90896430706E+03  0.79980906626E+03 0.  0.
         22    1    5    5    0    0  0.95438327240E+02 -0.27661342214E+02  0.21829371405E+03  0.23984530380E+03  0.00000000000E+00 0. -1.
         22    1    5    5    0    0 -0.22382769734E+03  0.13876751224E+02 -0.63041957315E+03  0.66911900326E+03  0.00000000000E+00 0. -1.
          5    1    4    4  502    0  0.11680280841E+03  0.23708538802E+02 -0.64711551793E+02  0.13570064775E+03  0.47000000000E+01 0. -1.
         -5    1    4    4    0  502  0.11586561683E+02 -0.99239478125E+01  0.42518375008E+02  0.45416245608E+02  0.47000000000E+01 0. -1.
<mgrwt>
<rscale>  0 0.99982198E+03</rscale>
<asrwt>0</asrwt>
<pdfrwt beam="1">  1        2 0.11726156E+00 0.99982198E+03</pdfrwt>
<pdfrwt beam="2">  1       -2 0.50443244E-01 0.99982198E+03</pdfrwt>
<totfact> 0.16518184E+02</totfact>
</mgrwt>
</event>
<event>
 9    1  0.4370149E-036  0.9993243E+03  0.7818608E-02  0.8681682E-01
          1   -1    0    0  501    0  0.00000000000E+00  0.00000000000E+00  0.11660144553E+04  0.11660144553E+04  0.00000000000E+00 0. -1.
         -1   -1    0    0    0  501 -0.00000000000E+00 -0.00000000000E+00 -0.21411590590E+03  0.21411590590E+03  0.00000000000E+00 0. -1.
         36    2    1    2    0    0  0.88817841970E-14  0.00000000000E+00  0.95189854939E+03  0.13801303612E+04  0.99932425446E+03 0.  0.
         25    2    3    3    0    0  0.10543179979E+02  0.85355407313E+02  0.27361357591E+02  0.15479703436E+03  0.12576475562E+03 0.  0.
         35    2    3    3    0    0 -0.10543179979E+02 -0.85355407313E+02  0.92453719180E+03  0.12253333268E+04  0.79954739610E+03 0.  0.
         22    1    5    5    0    0  0.24495193659E+03 -0.16476199127E+03  0.91078186672E+03  0.95742967039E+03  0.00000000000E+00 0.  1.
         22    1    5    5    0    0 -0.25549511657E+03  0.79406583955E+02  0.13755325087E+02  0.26790365644E+03  0.00000000000E+00 0.  1.
          5    1    4    4  502    0  0.25808223779E+02  0.95731064217E+02 -0.22190796944E+02  0.10171048392E+03  0.47000000000E+01 0.  1.
         -5    1    4    4    0  502 -0.15265043800E+02 -0.10375656904E+02  0.49552154535E+02  0.53086550439E+02  0.47000000000E+01 0.  1.
<mgrwt>
<rscale>  0 0.99932425E+03</rscale>
<asrwt>0</asrwt>
<pdfrwt beam="1">  1        1 0.17938684E+00 0.99932425E+03</pdfrwt>
<pdfrwt beam="2">  1       -1 0.32940909E-01 0.99932425E+03</pdfrwt>
<totfact> 0.10818438E+02</totfact>
</mgrwt>
</event>
<event>
 9    1  0.4370149E-036  0.1001784E+04  0.7818608E-02  0.8679341E-01
         -1   -1    0    0    0  501 -0.00000000000E+00  0.00000000000E+00  0.85746318617E+03  0.85746318617E+03  0.00000000000E+00 0. -1.
          1   -1    0    0  501    0  0.00000000000E+00 -0.00000000000E+00 -0.29259863518E+03  0.29259863518E+03  0.00000000000E+00 0. -1.
         36    2    1    2    0    0  0.28421709430E-13 -0.14210854715E-13  0.56486455099E+03  0.11500618214E+04  0.10017835255E+04 0.  0.
         25    2    3    3    0    0 -0.11399355445E+03  0.46040322790E+02  0.18574391310E+03  0.25542873621E+03  0.12501518407E+03 0.  0.
         35    2    3    3    0    0  0.11399355445E+03 -0.46040322790E+02  0.37912063789E+03  0.89463308515E+03  0.80095047112E+03 0.  0.
         22    1    5    5    0    0 -0.22387909153E+03  0.21558814886E+03  0.34738681234E+03  0.46613055568E+03  0.00000000000E+00 0.  1.
         22    1    5    5    0    0  0.33787264598E+03 -0.26162847165E+03  0.31733825552E+02  0.42850252947E+03  0.00000000000E+00 0.  1.
          5    1    4    4  502    0 -0.72286410253E+02  0.70004702213E+01  0.18423469084E+03  0.19808796784E+03  0.47000000000E+01 0.  1.
         -5    1    4    4    0  502 -0.41707144198E+02  0.39039852568E+02  0.15092222531E+01  0.57340768373E+02  0.47000000000E+01 0.  1.
<mgrwt>
<rscale>  0 0.10017835E+04</rscale>
<asrwt>0</asrwt>
<pdfrwt beam="1">  1        1 0.45015175E-01 0.10017835E+04</pdfrwt>
<pdfrwt beam="2">  1       -1 0.13191741E+00 0.10017835E+04</pdfrwt>
<totfact> 0.52932946E+01</totfact>
</mgrwt>
</event>
<event>
 9    1  0.4370149E-036  0.1000479E+04  0.7818608E-02  0.8680582E-01
         -2   -1    0    0    0  501 -0.00000000000E+00  0.00000000000E+00  0.16311825182E+03  0.16311825182E+03  0.00000000000E+00 0. -1.
          2   -1    0    0  501    0  0.00000000000E+00 -0.00000000000E+00 -0.15340979462E+04  0.15340979462E+04  0.00000000000E+00 0. -1.
         36    2    1    2    0    0 -0.14210854715E-13  0.28421709430E-13 -0.13709796944E+04  0.16972161980E+04  0.10004786356E+04 0.  0.
         25    2    3    3    0    0  0.91064420060E+02  0.26971548639E+02 -0.43344818041E+03  0.46135464425E+03  0.12629564376E+03 0.  0.
         35    2    3    3    0    0 -0.91064420060E+02 -0.26971548639E+02 -0.93753151396E+03  0.12358615538E+04  0.79960505710E+03 0.  0.
         22    1    5    5    0    0  0.42510330914E+02  0.37094178550E+03 -0.54881762987E+03  0.66378138519E+03  0.00000000000E+00 0. -1.
         22    1    5    5    0    0 -0.13357475097E+03 -0.39791333414E+03 -0.38871388409E+03  0.57208016857E+03  0.00000000000E+00 0. -1.
          5    1    4    4  502    0  0.55448878624E+01  0.64215182643E+02 -0.17673703433E+03  0.18818183963E+03  0.47000000000E+01 0.  1.
         -5    1    4    4    0  502  0.85519532197E+02 -0.37243634004E+02 -0.25671114608E+03  0.27317280462E+03  0.47000000000E+01 0.  1.
<mgrwt>
<rscale>  0 0.10004786E+04</rscale>
<asrwt>0</asrwt>
<pdfrwt beam="1">  1        2 0.23601505E+00 0.10004786E+04</pdfrwt>
<pdfrwt beam="2">  1       -2 0.25095117E-01 0.10004786E+04</pdfrwt>
<totfact> 0.20650046E+02</totfact>
</mgrwt>
</event>
<event>
 9    1  0.4370149E-036  0.9999326E+03  0.7818608E-02  0.8681102E-01
          2   -1    0    0  501    0  0.00000000000E+00  0.00000000000E+00  0.14016239860E+04  0.14016239860E+04  0.00000000000E+00 0. -1.
         -2   -1    0    0    0  501 -0.00000000000E+00 -0.00000000000E+00 -0.17834048469E+03  0.17834048469E+03  0.00000000000E+00 0. -1.
         36    2    1    2    0    0 -0.56843418861E-13  0.00000000000E+00  0.12232835013E+04  0.15799644707E+04  0.99993259976E+03 0.  0.
         25    2    3    3    0    0 -0.58641373770E+02 -0.11143360152E+03  0.12705216673E+03  0.21801713357E+03  0.12463129300E+03 0.  0.
         35    2    3    3    0    0  0.58641373770E+02  0.11143360152E+03  0.10962313346E+04  0.13619473371E+04  0.79832396426E+03 0.  0.
         22    1    5    5    0    0 -0.34071667744E+03 -0.10163123016E+03  0.48076178193E+03  0.59795372078E+03  0.00000000000E+00 0. -1.
         22    1    5    5    0    0  0.39935805121E+03  0.21306483168E+03  0.61546955263E+03  0.76399361632E+03  0.00000000000E+00 0. -1.
          5    1    4    4  502    0  0.25198539251E+02 -0.38729703581E+02 -0.35390775520E+01  0.46578658093E+02  0.47000000000E+01 0.  1.
         -5    1    4    4    0  502 -0.83839913020E+02 -0.72703897938E+02  0.13059124428E+03  0.17143847547E+03  0.47000000000E+01 0.  1.
<mgrwt>
<rscale>  0 0.99993260E+03</rscale>
<asrwt>0</asrwt>
<pdfrwt beam="1">  1        2 0.21563445E+00 0.99993260E+03</pdfrwt>
<pdfrwt beam="2">  1       -2 0.27436999E-01 0.99993260E+03</pdfrwt>
<totfact> 0.20937955E+02</totfact>
</mgrwt>
</event>
<event>
 9    1  0.4370149E-036  0.1001496E+04  0.7818608E-02  0.8679614E-01
          1   -1    0    0  501    0  0.00000000000E+00  0.00000000000E+00  0.10183269527E+04  0.10183269527E+04  0.00000000000E+00 0. -1.
         -1   -1    0    0    0  501 -0.00000000000E+00 -0.00000000000E+00 -0.24623594788E+03  0.24623594788E+03  0.00000000000E+00 0. -1.
         36    2    1    2    0    0 -0.21316282073E-13  0.14210854715E-13  0.77209100479E+03  0.12645629005E+04  0.10014962854E+04 0.  0.
         25    2    3    3    0    0 -0.49385318566E+02  0.11276346207E+03  0.23703807968E+03  0.29451144611E+03  0.12407833252E+03 0.  0.
         35    2    3    3    0    0  0.49385318566E+02 -0.11276346207E+03  0.53505292511E+03  0.97005145444E+03  0.79972725571E+03 0.  0.
         22    1    5    5    0    0 -0.22742343347E+03 -0.36425157217E+03  0.34323978825E+03  0.54974010056E+03  0.00000000000E+00 0. -1.
         22    1    5    5    0    0  0.27680875204E+03  0.25148811011E+03  0.19181313686E+03  0.42031135388E+03  0.00000000000E+00 0. -1.
          5    1    4    4  502    0  0.17127880551E+02  0.62105108135E+02  0.18492051054E+03  0.19587775261E+03  0.47000000000E+01 0.  1.
         -5    1    4    4    0  502 -0.66513199117E+02  0.50658353932E+02  0.52117569140E+02  0.98633693497E+02  0.47000000000E+01 0.  1.
<mgrwt>
<rscale>  0 0.10014963E+04</rscale>
<asrwt>0</asrwt>
<pdfrwt beam="1">  1        1 0.15666568E+00 0.10014963E+04</pdfrwt>
<pdfrwt beam="2">  1       -1 0.37882454E-01 0.10014963E+04</pdfrwt>
<totfact> 0.11008004E+02</totfact>
</mgrwt>
</event>
<event>
 9    1  0.4370149E-036  0.1001027E+04  0.7818608E-02  0.8680061E-01
         -1   -1    0    0    0  501 -0.00000000000E+00  0.00000000000E+00  0.42818968115E+03  0.42818968115E+03  0.00000000000E+00 0.  1.
          1   -1    0    0  501    0  0.00000000000E+00 -0.00000000000E+00 -0.58505302524E+03  0.58505302524E+03  0.00000000000E+00 0.  1.
         36    2    1    2    0    0 -0.28421709430E-13  0.14210854715E-13 -0.15686334409E+03  0.10132427064E+04  0.10010268095E+04 0.  0.
         25    2    3    3    0    0  0.75728740942E+02 -0.11172481051E+03 -0.95332527917E+02  0.20692357364E+03  0.12454637274E+03 0.  0.
         35    2    3    3    0    0 -0.75728740942E+02  0.11172481051E+03 -0.61530816174E+02  0.80631913275E+03  0.79255739667E+03 0.  0.
         22    1    5    5    0    0  0.21236609114E+02  0.13253494897E+03 -0.41658467774E+03  0.43767487932E+03  0.00000000000E+00 0. -1.
         22    1    5    5    0    0 -0.96965350056E+02 -0.20810138462E+02  0.35505386156E+03  0.36864425343E+03  0.00000000000E+00 0. -1.
          5    1    4    4  502    0  0.95057723271E+01 -0.74353198497E+02 -0.10608802317E+03  0.12998275460E+03  0.47000000000E+01 0.  1.
         -5    1    4    4    0  502  0.66222968615E+02 -0.37371612010E+02  0.10755495253E+02  0.76940819040E+02  0.47000000000E+01 0.  1.
<mgrwt>
<rscale>  0 0.10010268E+04</rscale>
<asrwt>0</asrwt>
<pdfrwt beam="1">  1        1 0.90008157E-01 0.10010268E+04</pdfrwt>
<pdfrwt beam="2">  1       -1 0.65875336E-01 0.10010268E+04</pdfrwt>
<totfact> 0.96753439E+01</totfact>
</mgrwt>
</event>
<event>
 9    1  0.4370149E-036  0.9993899E+03  0.7818608E-02  0.8681619E-01
          1   -1    0    0  501    0  0.00000000000E+00  0.00000000000E+00  0.91753029323E+03  0.91753029323E+03  0.00000000000E+00 0. -1.
         -1   -1    0    0    0  501 -0.00000000000E+00 -0.00000000000E+00 -0.27213817828E+03  0.27213817828E+03  0.00000000000E+00 0. -1.
         36    2    1    2    0    0 -0.14210854715E-13  0.10658141036E-13  0.64539211495E+03  0.11896684715E+04  0.99938985889E+03 0.  0.
         25    2    3    3    0    0 -0.17014438189E+02  0.14988835027E+02 -0.42043552331E+02  0.13384469527E+03  0.12503033983E+03 0.  0.
         35    2    3    3    0    0  0.17014438189E+02 -0.14988835027E+02  0.68743566728E+03  0.10558237762E+04  0.80105049374E+03 0.  0.
         22    1    5    5    0    0 -0.11206558107E+03 -0.12907696595E+03 -0.13357278435E+03  0.21693604200E+03  0.00000000000E+00 0. -1.
         22    1    5    5    0    0  0.12908001926E+03  0.11408813092E+03  0.82100845164E+03  0.83888773423E+03  0.00000000000E+00 0. -1.
          5    1    4    4  502    0 -0.55870728776E+02  0.19989854513E+02 -0.65046186512E+02  0.88171588378E+02  0.47000000000E+01 0.  1.
         -5    1    4    4    0  502  0.38856290587E+02 -0.50010194859E+01  0.23002634181E+02  0.45673106894E+02  0.47000000000E+01 0.  1.
<mgrwt>
<rscale>  0 0.99938986E+03</rscale>
<asrwt>0</asrwt>
<pdfrwt beam="1">  1        1 0.14115850E+00 0.99938986E+03</pdfrwt>
<pdfrwt beam="2">  1       -1 0.41867413E-01 0.99938986E+03</pdfrwt>
<totfact> 0.11110826E+02</totfact>
</mgrwt>
</event>
<event>
 9    1  0.4370149E-036  0.1002994E+04  0.7818608E-02  0.8678192E-01
          2   -1    0    0  501    0  0.00000000000E+00  0.00000000000E+00  0.13679685319E+04  0.13679685319E+04  0.00000000000E+00 0. -1.
         -2   -1    0    0    0  501 -0.00000000000E+00 -0.00000000000E+00 -0.18384865083E+03  0.18384865083E+03  0.00000000000E+00 0. -1.
         36    2    1    2    0    0 -0.14210854715E-13  0.00000000000E+00  0.11841198811E+04  0.15518171827E+04  0.10029938563E+04 0.  0.
         25    2    3    3    0    0  0.11353894989E+03  0.79898336470E+02  0.18027205298E+03  0.26003967731E+03  0.12588797948E+03 0.  0.
         35    2    3    3    0    0 -0.11353894989E+03 -0.79898336470E+02  0.10038478281E+04  0.12917775054E+04  0.80106418234E+03 0.  0.
         22    1    5    5    0    0 -0.44952069211E+03 -0.76837809278E+02  0.71827518568E+03  0.85081851410E+03  0.00000000000E+00 0. -1.
         22    1    5    5    0    0  0.33598174222E+03 -0.30605271922E+01  0.28557264240E+03  0.44095899131E+03  0.00000000000E+00 0. -1.
          5    1    4    4  502    0  0.71990857450E+02  0.74871412028E+02  0.36448651502E+02  0.11017715776E+03  0.47000000000E+01 0.  1.
         -5    1    4    4    0  502  0.41548092443E+02  0.50269244418E+01  0.14382340148E+03  0.14986251955E+03  0.47000000000E+01 0.  1.
<mgrwt>
<rscale>  0 0.10029939E+04</rscale>
<asrwt>0</asrwt>
<pdfrwt beam="1">  1        2 0.21045669E+00 0.10029939E+04</pdfrwt>
<pdfrwt beam="2">  1       -2 0.28284409E-01 0.10029939E+04</pdfrwt>
<totfact> 0.20719541E+02</totfact>
</mgrwt>
</event>
<event>
 9    1  0.4370149E-036  0.1000218E+04  0.7818608E-02  0.8680830E-01
         -2   -1    0    0    0  501 -0.00000000000E+00  0.00000000000E+00  0.28994939999E+03  0.28994939999E+03  0.00000000000E+00 0. -1.
          2   -1    0    0  501    0  0.00000000000E+00 -0.00000000000E+00 -0.86259527574E+03  0.86259527574E+03  0.00000000000E+00 0. -1.
         36    2    1    2    0    0 -0.35527136788E-14 -0.28421709430E-13 -0.57264587575E+03  0.11525446757E+04  0.10002179415E+04 0.  0.
         25    2    3    3    0    0 -0.20527438813E+02 -0.12615461467E+03 -0.38228051261E+02  0.18240873783E+03  0.12439936167E+03 0.  0.
         35    2    3    3    0    0  0.20527438813E+02  0.12615461467E+03 -0.53441782449E+03  0.97013593790E+03  0.79951545596E+03 0.  0.
         22    1    5    5    0    0  0.19197905149E+03  0.33526401632E+03 -0.57901447510E+03  0.69607160496E+03  0.00000000000E+00 0. -1.
         22    1    5    5    0    0 -0.17145161268E+03 -0.20910940165E+03  0.44596650610E+02  0.27406433294E+03  0.00000000000E+00 0. -1.
          5    1    4    4  502    0 -0.20057849841E+02 -0.13752091321E+03  0.33004111067E+01  0.13909457798E+03  0.47000000000E+01 0. -1.
         -5    1    4    4    0  502 -0.46958897208E+00  0.11366298538E+02 -0.41528462367E+02  0.43314159842E+02  0.47000000000E+01 0. -1.
<mgrwt>
<rscale>  0 0.10002179E+04</rscale>
<asrwt>0</asrwt>
<pdfrwt beam="1">  1        2 0.13270696E+00 0.10002179E+04</pdfrwt>
<pdfrwt beam="2">  1       -2 0.44607600E-01 0.10002179E+04</pdfrwt>
<totfact> 0.17938314E+02</totfact>
</mgrwt>
</event>
<event>
 9    1  0.4370149E-036  0.9998367E+03  0.7818608E-02  0.8681194E-01
          2   -1    0    0  501    0  0.00000000000E+00  0.00000000000E+00  0.28046645380E+03  0.28046645380E+03  0.00000000000E+00 0.  1.
         -2   -1    0    0    0  501 -0.00000000000E+00 -0.00000000000E+00 -0.89108105032E+03  0.89108105032E+03  0.00000000000E+00 0.  1.
         36    2    1    2    0    0  0.21316282073E-13  0.35527136788E-14 -0.61061459651E+03  0.11715475041E+04  0.99983667112E+03 0.  0.
         25    2    3    3    0    0 -0.17277636403E+02 -0.43718162298E+00  0.46419652528E+02  0.13648568147E+03  0.12718038079E+03 0.  0.
         35    2    3    3    0    0  0.17277636403E+02  0.43718162298E+00 -0.65703424904E+03  0.10350618226E+04  0.79960006531E+03 0.  0.
         22    1    5    5    0    0  0.28182972272E+03  0.14494534105E+03 -0.66159106722E+03  0.73358018289E+03  0.00000000000E+00 0.  1.
         22    1    5    5    0    0 -0.26455208632E+03 -0.14450815943E+03  0.45568181798E+01  0.30148163976E+03  0.00000000000E+00 0.  1.
          5    1    4    4  502    0 -0.55466337315E+02  0.20240099634E+02 -0.15015892947E+02  0.61104363586E+02  0.47000000000E+01 0. -1.
         -5    1    4    4    0  502  0.38188700911E+02 -0.20677281257E+02  0.61435545475E+02  0.75381317880E+02  0.47000000000E+01 0. -1.
<mgrwt>
<rscale>  0 0.99983667E+03</rscale>
<asrwt>0</asrwt>
<pdfrwt beam="1">  1        2 0.43148685E-01 0.99983667E+03</pdfrwt>
<pdfrwt beam="2">  1       -2 0.13708939E+00 0.99983667E+03</pdfrwt>
<totfact> 0.51445108E+01</totfact>
</mgrwt>
</event>
<event>
 9    1  0.4370149E-036  0.9997437E+03  0.7818608E-02  0.8681282E-01
         -2   -1    0    0    0  501 -0.00000000000E+00  0.00000000000E+00  0.98748547966E+02  0.98748547966E+02  0.00000000000E+00 0. -1.
          2   -1    0    0  501    0  0.00000000000E+00 -0.00000000000E+00 -0.25303853115E+04  0.25303853115E+04  0.00000000000E+00 0. -1.
         36    2    1    2    0    0  0.71054273576E-14  0.14210854715E-13 -0.24316367635E+04  0.26291338594E+04  0.99974371777E+03 0.  0.
         25    2    3    3    0    0  0.90089404978E+01 -0.72858541439E+02 -0.14238676703E+03  0.20307632612E+03  0.12480574801E+03 0.  0.
         35    2    3    3    0    0 -0.90089404978E+01  0.72858541439E+02 -0.22892499965E+04  0.24260575333E+04  0.79981252837E+03 0.  0.
         22    1    5    5    0    0 -0.18784723754E+03  0.31026212888E+03 -0.19104143064E+04  0.19445390187E+04  0.00000000000E+00 0. -1.
         22    1    5    5    0    0  0.17883829704E+03 -0.23740358744E+03 -0.37883569009E+03  0.48151851460E+03  0.00000000000E+00 0. -1.
          5    1    4    4  502    0  0.60505924411E+02 -0.73995167126E+01 -0.66013955912E+02  0.89975841822E+02  0.47000000000E+01 0. -1.
         -5    1    4    4    0  502 -0.51496983914E+02 -0.65459024726E+02 -0.76372811121E+02  0.11310048430E+03  0.47000000000E+01 0. -1.
<mgrwt>
<rscale>  0 0.99974372E+03</rscale>
<asrwt>0</asrwt>
<pdfrwt beam="1">  1        2 0.38929002E+00 0.99974372E+03</pdfrwt>
<pdfrwt beam="2">  1       -2 0.15192085E-01 0.99974372E+03</pdfrwt>
<totfact> 0.13061796E+02</totfact>
</mgrwt>
</event>
<event>
 9    1  0.4370149E-036  0.9999022E+03  0.7818608E-02  0.8681131E-01
         -2   -1    0    0    0  501 -0.00000000000E+00  0.00000000000E+00  0.10713723679E+03  0.10713723679E+03  0.00000000000E+00 0.  1.
          2   -1    0    0  501    0  0.00000000000E+00 -0.00000000000E+00 -0.23329995395E+04  0.23329995395E+04  0.00000000000E+00 0.  1.
         36    2    1    2    0    0 -0.28421709430E-13  0.14210854715E-13 -0.22258623027E+04  0.24401367763E+04  0.99990224343E+03 0.  0.
         25    2    3    3    0    0  0.24316501247E+02  0.12247440981E+03 -0.26325410016E+03  0.31707826586E+03  0.12507850392E+03 0.  0.
         35    2    3    3    0    0 -0.24316501247E+02 -0.12247440981E+03 -0.19626082026E+04  0.21230585105E+04  0.79997200495E+03 0.  0.
         22    1    5    5    0    0 -0.35082361065E+03  0.90329038800E+02 -0.13435775755E+04  0.13915592846E+04  0.00000000000E+00 0.  1.
         22    1    5    5    0    0  0.32650710940E+03 -0.21280344861E+03 -0.61903062704E+03  0.73149922587E+03  0.00000000000E+00 0.  1.
          5    1    4    4  502    0 -0.32142713455E+02  0.84902379686E+02 -0.78128274114E+02  0.11986527988E+03  0.47000000000E+01 0. -1.
         -5    1    4    4    0  502  0.56459214703E+02  0.37572030123E+02 -0.18512582604E+03  0.19721298598E+03  0.47000000000E+01 0. -1.
<mgrwt>
<rscale>  0 0.99990224E+03</rscale>
<asrwt>0</asrwt>
<pdfrwt beam="1">  1        2 0.35892300E+00 0.99990224E+03</pdfrwt>
<pdfrwt beam="2">  1       -2 0.16482652E-01 0.99990224E+03</pdfrwt>
<totfact> 0.14965061E+02</totfact>
</mgrwt>
</event>
<event>
 9    1  0.4370149E-036  0.9977649E+03  0.7818608E-02  0.8683169E-01
         -1   -1    0    0    0  501 -0.00000000000E+00  0.00000000000E+00  0.37486345348E+03  0.37486345348E+03  0.00000000000E+00 0.  1.
          1   -1    0    0  501    0  0.00000000000E+00 -0.00000000000E+00 -0.66393161772E+03  0.66393161772E+03  0.00000000000E+00 0.  1.
         36    2    1    2    0    0  0.00000000000E+00  0.28421709430E-13 -0.28906816424E+03  0.10387950712E+04  0.99776490035E+03 0.  0.
         25    2    3    3    0    0  0.32108652696E+02 -0.12877178857E+03 -0.20213815341E+02  0.18330110541E+03  0.12481008694E+03 0.  0.
         35    2    3    3    0    0 -0.32108652696E+02  0.12877178857E+03 -0.26885434890E+03  0.85549396579E+03  0.80123287843E+03 0.  0.
         22    1    5    5    0    0  0.17273557184E+03  0.10826400305E+03 -0.50358063267E+03  0.54327904961E+03  0.00000000000E+00 0.  1.
         22    1    5    5    0    0 -0.20484422454E+03  0.20507785517E+02  0.23472628377E+03  0.31221491618E+03  0.00000000000E+00 0.  1.
          5    1    4    4  502    0  0.24847245226E+02 -0.41664518397E+02 -0.67929492894E+02  0.83605165471E+02  0.47000000000E+01 0. -1.
         -5    1    4    4    0  502  0.72614074701E+01 -0.87107270172E+02  0.47715677552E+02  0.99695939935E+02  0.47000000000E+01 0. -1.
<mgrwt>
<rscale>  0 0.99776490E+03</rscale>
<asrwt>0</asrwt>
<pdfrwt beam="1">  1        1 0.10214333E+00 0.99776490E+03</pdfrwt>
<pdfrwt beam="2">  1       -1 0.57671301E-01 0.99776490E+03</pdfrwt>
<totfact> 0.10375173E+02</totfact>
</mgrwt>
</event>
<event>
 9    1  0.4370149E-036  0.1000475E+04  0.7818608E-02  0.8680586E-01
         -1   -1    0    0    0  501 -0.00000000000E+00  0.00000000000E+00  0.92361401667E+03  0.92361401667E+03  0.00000000000E+00 0.  1.
          1   -1    0    0  501    0  0.00000000000E+00 -0.00000000000E+00 -0.27093283170E+03  0.27093283170E+03  0.00000000000E+00 0.  1.
         36    2    1    2    0    0  0.00000000000E+00  0.28421709430E-13  0.65268118497E+03  0.11945468484E+04  0.10004746092E+04 0.  0.
         25    2    3    3    0    0 -0.10063303512E+03 -0.33568425787E+02  0.23661142875E+03  0.28788381180E+03  0.12505308438E+03 0.  0.
         35    2    3    3    0    0  0.10063303512E+03  0.33568425787E+02  0.41606975622E+03  0.90666303657E+03  0.79854240519E+03 0.  0.
         22    1    5    5    0    0 -0.18669825484E+03  0.29946549403E+03  0.37191567029E+03  0.51269590039E+03  0.00000000000E+00 0. -1.
         22    1    5    5    0    0  0.28733128996E+03 -0.26589706824E+03  0.44154085932E+02  0.39396713618E+03  0.00000000000E+00 0. -1.
          5    1    4    4  502    0 -0.36119960429E+01  0.15352170187E+02  0.14428764059E+03  0.14522310034E+03  0.47000000000E+01 0. -1.
         -5    1    4    4    0  502 -0.97021039077E+02 -0.48920595974E+02  0.92323788160E+02  0.14266071146E+03  0.47000000000E+01 0. -1.
<mgrwt>
<rscale>  0 0.10004746E+04</rscale>
<asrwt>0</asrwt>
<pdfrwt beam="1">  1        1 0.41681975E-01 0.10004746E+04</pdfrwt>
<pdfrwt beam="2">  1       -1 0.14209446E+00 0.10004746E+04</pdfrwt>
<totfact> 0.47867805E+01</totfact>
</mgrwt>
</event>
<event>
 9    1  0.4370149E-036  0.9996223E+03  0.7818608E-02  0.8681398E-01
          2   -1    0    0  501    0  0.00000000000E+00  0.00000000000E+00  0.12248533356E+04  0.12248533356E+04  0.00000000000E+00 0. -1.
         -2   -1    0    0    0  501 -0.00000000000E+00 -0.00000000000E+00 -0.20395192945E+03  0.20395192945E+03  0.00000000000E+00 0. -1.
         36    2    1    2    0    0 -0.28421709430E-13  0.00000000000E+00  0.10209014061E+04  0.14288052650E+04  0.99962233086E+03 0.  0.
         25    2    3    3    0    0  0.15676977905E+02 -0.41222080108E+02  0.37294375453E+01  0.13234584401E+03  0.12472564370E+03 0.  0.
         35    2    3    3    0    0 -0.15676977905E+02  0.41222080108E+02  0.10171719686E+04  0.12964594210E+04  0.80263515321E+03 0.  0.
         22    1    5    5    0    0  0.27470560286E+03  0.25820594047E+03  0.26295230554E+03  0.45964920420E+03  0.00000000000E+00 0. -1.
         22    1    5    5    0    0 -0.29038258076E+03 -0.21698386036E+03  0.75421966304E+03  0.83681021683E+03  0.00000000000E+00 0. -1.
          5    1    4    4  502    0 -0.21544252627E+02  0.14304297620E+02 -0.43176860144E+02  0.50547987137E+02  0.47000000000E+01 0.  1.
         -5    1    4    4    0  502  0.37221230532E+02 -0.55526377728E+02  0.46906297689E+02  0.81797856872E+02  0.47000000000E+01 0.  1.
<mgrwt>
<rscale>  0 0.99962233E+03</rscale>
<asrwt>0</asrwt>
<pdfrwt beam="1">  1        2 0.18843897E+00 0.99962233E+03</pdfrwt>
<pdfrwt beam="2">  1       -2 0.31377221E-01 0.99962233E+03</pdfrwt>
<totfact> 0.20767956E+02</totfact>
</mgrwt>
</event>
<event>
 9    1  0.4370149E-036  0.9970867E+03  0.7818608E-02  0.8683817E-01
         -1   -1    0    0    0  501 -0.00000000000E+00  0.00000000000E+00  0.20391099225E+03  0.20391099225E+03  0.00000000000E+00 0.  1.
          1   -1    0    0  501    0  0.00000000000E+00 -0.00000000000E+00 -0.12188919695E+04  0.12188919695E+04  0.00000000000E+00 0.  1.
         36    2    1    2    0    0  0.21316282073E-13  0.71054273576E-14 -0.10149809772E+04  0.14228029617E+04  0.99708669823E+03 0.  0.
         25    2    3    3    0    0  0.26551074595E+02  0.31653541858E+02  0.70387705504E+00  0.12917348547E+03  0.12238622321E+03 0.  0.
         35    2    3    3    0    0 -0.26551074595E+02 -0.31653541858E+02 -0.10156848543E+04  0.12936294763E+04  0.80009661440E+03 0.  0.
         22    1    5    5    0    0 -0.27060035961E+03 -0.11258944194E+03 -0.53816802300E+02  0.29798856567E+03  0.00000000000E+00 0.  1.
         22    1    5    5    0    0  0.24404928501E+03  0.80935900084E+02 -0.96186805198E+03  0.99564091060E+03  0.00000000000E+00 0.  1.
          5    1    4    4  502    0  0.32458165129E+02 -0.20113493538E+02  0.46004241262E+02  0.59971370836E+02  0.47000000000E+01 0.  1.
         -5    1    4    4    0  502 -0.59070905341E+01  0.51767035396E+02 -0.45300364207E+02  0.69202114632E+02  0.47000000000E+01 0.  1.
<mgrwt>
<rscale>  0 0.99708670E+03</rscale>
<asrwt>0</asrwt>
<pdfrwt beam="1">  1        1 0.18752184E+00 0.99708670E+03</pdfrwt>
<pdfrwt beam="2">  1       -1 0.31370923E-01 0.99708670E+03</pdfrwt>
<totfact> 0.10746294E+02</totfact>
</mgrwt>
</event>
<event>
 9    1  0.4370149E-036  0.9999762E+03  0.7818608E-02  0.8681061E-01
         -2   -1    0    0    0  501 -0.00000000000E+00  0.00000000000E+00  0.42563544600E+03  0.42563544600E+03  0.00000000000E+00 0.  1.
          2   -1    0    0  501    0  0.00000000000E+00 -0.00000000000E+00 -0.58732918990E+03  0.58732918990E+03  0.00000000000E+00 0.  1.
         36    2    1    2    0    0  0.14210854715E-13 -0.56843418861E-13 -0.16169374389E+03  0.10129646359E+04  0.99997624310E+03 0.  0.
         25    2    3    3    0    0 -0.41677052492E+02 -0.13988414762E+03 -0.39572139542E+02  0.19077575240E+03  0.11629652624E+03 0.  0.
         35    2    3    3    0    0  0.41677052492E+02  0.13988414762E+03 -0.12212160435E+03  0.82218888350E+03  0.79986018931E+03 0.  0.
         22    1    5    5    0    0 -0.15602512837E+03  0.40057238515E+03 -0.21697574669E+03  0.48153977103E+03  0.00000000000E+00 0. -1.
         22    1    5    5    0    0  0.19770218087E+03 -0.26068823753E+03  0.94854142338E+02  0.34064911247E+03  0.00000000000E+00 0. -1.
          5    1    4    4  502    0  0.98111841573E+01 -0.12882447957E+03 -0.87570968003E+01  0.12957925225E+03  0.47000000000E+01 0. -1.
         -5    1    4    4    0  502 -0.51488236649E+02 -0.11059668054E+02 -0.30815042742E+02  0.61196500144E+02  0.47000000000E+01 0. -1.
<mgrwt>
<rscale>  0 0.99997624E+03</rscale>
<asrwt>0</asrwt>
<pdfrwt beam="1">  1        2 0.90358336E-01 0.99997624E+03</pdfrwt>
<pdfrwt beam="2">  1       -2 0.65482377E-01 0.99997624E+03</pdfrwt>
<totfact> 0.13230307E+02</totfact>
</mgrwt>
</event>
<event>
 9    1  0.4370149E-036  0.9946123E+03  0.7818608E-02  0.8686186E-01
         -1   -1    0    0    0  501 -0.00000000000E+00  0.00000000000E+00  0.11669556899E+04  0.11669556899E+04  0.00000000000E+00 0.  1.
          1   -1    0    0  501    0  0.00000000000E+00 -0.00000000000E+00 -0.21193043175E+03  0.21193043175E+03  0.00000000000E+00 0.  1.
         36    2    1    2    0    0  0.14210854715E-13  0.14210854715E-13  0.95502525812E+03  0.13788861216E+04  0.99461233291E+03 0.  0.
         25    2    3    3    0    0 -0.35553924249E+02 -0.12565762430E+03  0.13846046095E+03  0.22845114430E+03  0.12635151765E+03 0.  0.
         35    2    3    3    0    0  0.35553924249E+02  0.12565762430E+03  0.81656479717E+03  0.11504349773E+04  0.79979287882E+03 0.  0.
         22    1    5    5    0    0  0.27313299619E+03  0.35849415853E+03  0.31997349568E+03  0.55272301675E+03  0.00000000000E+00 0. -1.
         22    1    5    5    0    0 -0.23757907194E+03 -0.23283653424E+03  0.49659130149E+03  0.59771196057E+03  0.00000000000E+00 0. -1.
          5    1    4    4  502    0 -0.58218540667E+02 -0.47547955602E+01  0.43510564661E+02  0.72988120919E+02  0.47000000000E+01 0.  1.
         -5    1    4    4    0  502  0.22664616418E+02 -0.12090282874E+03  0.94949896291E+02  0.15546302338E+03  0.47000000000E+01 0.  1.
<mgrwt>
<rscale>  0 0.99461233E+03</rscale>
<asrwt>0</asrwt>
<pdfrwt beam="1">  1        1 0.32604682E-01 0.99461233E+03</pdfrwt>
<pdfrwt beam="2">  1       -1 0.17953164E+00 0.99461233E+03</pdfrwt>
<totfact> 0.31991585E+01</totfact>
</mgrwt>
</event>
<event>
 9    1  0.4370149E-036  0.1001453E+04  0.7818608E-02  0.8679655E-01
          2   -1    0    0  501    0  0.00000000000E+00  0.00000000000E+00  0.38647434493E+03  0.38647434493E+03  0.00000000000E+00 0. -1.
         -2   -1    0    0    0  501 -0.00000000000E+00 -0.00000000000E+00 -0.64875467599E+03  0.64875467599E+03  0.00000000000E+00 0. -1.
         36    2    1    2    0    0 -0.28421709430E-13  0.17763568394E-13 -0.26228033106E+03  0.10352290209E+04  0.10014530212E+04 0.  0.
         25    2    3    3    0    0  0.13262910433E+03 -0.11387838800E+02 -0.96721511008E+02  0.20683409027E+03  0.12532010222E+03 0.  0.
         35    2    3    3    0    0 -0.13262910433E+03  0.11387838800E+02 -0.16555882006E+03  0.82839493065E+03  0.80069237291E+03 0.  0.
         22    1    5    5    0    0 -0.47215253361E+02 -0.21866915352E+03  0.25639429489E+03  0.34026976548E+03  0.00000000000E+00 0.  1.
         22    1    5    5    0    0 -0.85413850969E+02  0.23005699232E+03 -0.42195311494E+03  0.48812516516E+03  0.00000000000E+00 0.  1.
          5    1    4    4  502    0  0.77249414208E+00  0.27859599048E+02  0.12702359430E+02  0.30986996327E+02  0.47000000000E+01 0. -1.
         -5    1    4    4    0  502  0.13185661019E+03 -0.39247437848E+02 -0.10942387044E+03  0.17584709395E+03  0.47000000000E+01 0. -1.
<mgrwt>
<rscale>  0 0.10014530E+04</rscale>
<asrwt>0</asrwt>
<pdfrwt beam="1">  1        2 0.59457592E-01 0.10014530E+04</pdfrwt>
<pdfrwt beam="2">  1       -2 0.99808410E-01 0.10014530E+04</pdfrwt>
<totfact> 0.81489774E+01</totfact>
</mgrwt>
</event>
<event>
 9    1  0.4370149E-036  0.9996430E+03  0.7818608E-02  0.8681378E-01
         -1   -1    0    0    0  501 -0.00000000000E+00  0.00000000000E+00  0.32001218812E+03  0.32001218812E+03  0.00000000000E+00 0.  1.
          1   -1    0    0  501    0  0.00000000000E+00 -0.00000000000E+00 -0.78066255941E+03  0.78066255941E+03  0.00000000000E+00 0.  1.
         36    2    1    2    0    0  0.00000000000E+00 -0.42632564146E-13 -0.46065037129E+03  0.11006747475E+04  0.99964300391E+03 0.  0.
         25    2    3    3    0    0  0.55203529376E+02 -0.69467915889E+02 -0.20355660870E+03  0.25499311732E+03  0.12535140981E+03 0.  0.
         35    2    3    3    0    0 -0.55203529376E+02  0.69467915889E+02 -0.25709376259E+03  0.84568163021E+03  0.80075401711E+03 0.  0.
         22    1    5    5    0    0 -0.13078485339E+03 -0.28244262872E+03 -0.35553321047E+03  0.47252765013E+03  0.00000000000E+00 0.  1.
         22    1    5    5    0    0  0.75581324012E+02  0.35191054461E+03  0.98439447878E+02  0.37315398007E+03  0.00000000000E+00 0.  1.
          5    1    4    4  502    0 -0.48849880961E+01  0.11080137057E+01  0.15572399674E+02  0.17020001019E+02  0.47000000000E+01 0. -1.
         -5    1    4    4    0  502  0.60088517472E+02 -0.70575929595E+02 -0.21912900838E+03  0.23797311630E+03  0.47000000000E+01 0. -1.
<mgrwt>
<rscale>  0 0.99964300E+03</rscale>
<asrwt>0</asrwt>
<pdfrwt beam="1">  1        1 0.12010193E+00 0.99964300E+03</pdfrwt>
<pdfrwt beam="2">  1       -1 0.49232644E-01 0.99964300E+03</pdfrwt>
<totfact> 0.10844218E+02</totfact>
</mgrwt>
</event>
<event>
 9    1  0.4370149E-036  0.1000251E+04  0.7818608E-02  0.8680799E-01
         -2   -1    0    0    0  501 -0.00000000000E+00  0.00000000000E+00  0.32506362574E+03  0.32506362574E+03  0.00000000000E+00 0. -1.
          2   -1    0    0  501    0  0.00000000000E+00 -0.00000000000E+00 -0.76946694959E+03  0.76946694959E+03  0.00000000000E+00 0. -1.
         36    2    1    2    0    0  0.14210854715E-13  0.00000000000E+00 -0.44440332385E+03  0.10945305753E+04  0.10002514014E+04 0.  0.
         25    2    3    3    0    0  0.98504628062E+02  0.94781332119E+02 -0.50435603492E+02  0.19207233772E+03  0.12514539604E+03 0.  0.
         35    2    3    3    0    0 -0.98504628062E+02 -0.94781332119E+02 -0.39396772036E+03  0.90245823760E+03  0.80033345754E+03 0.  0.
         22    1    5    5    0    0 -0.52725598240E+02  0.21849087985E+03  0.15200088309E+03  0.27133470428E+03  0.00000000000E+00 0.  1.
         22    1    5    5    0    0 -0.45779029821E+02 -0.31327221197E+03 -0.54596860345E+03  0.63112353332E+03  0.00000000000E+00 0.  1.
          5    1    4    4  502    0  0.14481087255E+02 -0.20619179534E+02  0.20293953935E+02  0.32692308255E+02  0.47000000000E+01 0. -1.
         -5    1    4    4    0  502  0.84023540807E+02  0.11540051165E+03 -0.70729557427E+02  0.15938002947E+03  0.47000000000E+01 0. -1.
<mgrwt>
<rscale>  0 0.10002514E+04</rscale>
<asrwt>0</asrwt>
<pdfrwt beam="1">  1        2 0.11837953E+00 0.10002514E+04</pdfrwt>
<pdfrwt beam="2">  1       -2 0.50009789E-01 0.10002514E+04</pdfrwt>
<totfact> 0.16604821E+02</totfact>
</mgrwt>
</event>
<event>
 9    1  0.4370149E-036  0.1000311E+04  0.7818608E-02  0.8680742E-01
         -1   -1    0    0    0  501 -0.00000000000E+00  0.00000000000E+00  0.19910223519E+03  0.19910223519E+03  0.00000000000E+00 0.  1.
          1   -1    0    0  501    0  0.00000000000E+00 -0.00000000000E+00 -0.12564165554E+04  0.12564165554E+04  0.00000000000E+00 0.  1.
         36    2    1    2    0    0  0.14210854715E-13 -0.14210854715E-13 -0.10573143203E+04  0.14555187906E+04  0.10003106408E+04 0.  0.
         25    2    3    3    0    0 -0.89277800384E+02 -0.10754502481E+03 -0.20699269424E+03  0.27956755028E+03  0.12560088255E+03 0.  0.
         35    2    3    3    0    0  0.89277800384E+02  0.10754502481E+03 -0.85032162601E+03  0.11759512404E+04  0.80017372741E+03 0.  0.
         22    1    5    5    0    0  0.21527817952E+03  0.19730219228E+03 -0.94869585835E+03  0.99262111670E+03  0.00000000000E+00 0.  1.
         22    1    5    5    0    0 -0.12600037914E+03 -0.89757167467E+02  0.98374232339E+02  0.18333012367E+03  0.00000000000E+00 0.  1.
          5    1    4    4  502    0  0.29000652064E+02 -0.28926612549E+02 -0.23404039793E+02  0.47409132162E+02  0.47000000000E+01 0. -1.
         -5    1    4    4    0  502 -0.11827845245E+03 -0.78618412264E+02 -0.18358865445E+03  0.23215841812E+03  0.47000000000E+01 0. -1.
<mgrwt>
<rscale>  0 0.10003106E+04</rscale>
<asrwt>0</asrwt>
<pdfrwt beam="1">  1        1 0.19329486E+00 0.10003106E+04</pdfrwt>
<pdfrwt beam="2">  1       -1 0.30631113E-01 0.10003106E+04</pdfrwt>
<totfact> 0.10499817E+02</totfact>
</mgrwt>
</event>
<event>
 9    1  0.4370149E-036  0.9994874E+03  0.7818608E-02  0.8681526E-01
          2   -1    0    0  501    0  0.00000000000E+00  0.00000000000E+00  0.14536766016E+04  0.14536766016E+04  0.00000000000E+00 0.  1.
         -2   -1    0    0    0  501 -0.00000000000E+00 -0.00000000000E+00 -0.17180145261E+03  0.17180145261E+03  0.00000000000E+00 0.  1.
         36    2    1    2    0    0  0.00000000000E+00  0.14210854715E-13  0.12818751490E+04  0.16254780542E+04  0.99948737218E+03 0.  0.
         25    2    3    3    0    0  0.11460723263E+03  0.82990509672E+02  0.27550484509E+03  0.33385679657E+03  0.12464027632E+03 0.  0.
         35    2    3    3    0    0 -0.11460723263E+03 -0.82990509672E+02  0.10063703039E+04  0.12916212577E+04  0.79717127530E+03 0.  0.
         22    1    5    5    0    0 -0.22379772742E+03 -0.23412624833E+03  0.10511079429E+04  0.10998765524E+04  0.00000000000E+00 0.  1.
         22    1    5    5    0    0  0.10919049479E+03  0.15113573866E+03 -0.44737638959E+02  0.19174470525E+03  0.00000000000E+00 0.  1.
          5    1    4    4  502    0  0.12087818144E+02  0.58208530365E+02  0.30306579328E+02  0.66894895958E+02  0.47000000000E+01 0.  1.
         -5    1    4    4    0  502  0.10251941448E+03  0.24781979308E+02  0.24519826576E+03  0.26696190061E+03  0.47000000000E+01 0.  1.
<mgrwt>
<rscale>  0 0.99948737E+03</rscale>
<asrwt>0</asrwt>
<pdfrwt beam="1">  1        2 0.22364255E+00 0.99948737E+03</pdfrwt>
<pdfrwt beam="2">  1       -2 0.26430994E-01 0.99948737E+03</pdfrwt>
<totfact> 0.20910184E+02</totfact>
</mgrwt>
</event>
<event>
 9    1  0.4370149E-036  0.9999592E+03  0.7818608E-02  0.8681077E-01
          2   -1    0    0  501    0  0.00000000000E+00  0.00000000000E+00  0.42930377095E+03  0.42930377095E+03  0.00000000000E+00 0. -1.
         -2   -1    0    0    0  501 -0.00000000000E+00 -0.00000000000E+00 -0.58229069518E+03  0.58229069518E+03  0.00000000000E+00 0. -1.
         36    2    1    2    0    0  0.71054273576E-14  0.28421709430E-13 -0.15298692423E+03  0.10115944661E+04  0.99995918163E+03 0.  0.
         25    2    3    3    0    0  0.74777699500E+01  0.71332911513E+02 -0.15141556955E+03  0.20812647368E+03  0.12347328875E+03 0.  0.
         35    2    3    3    0    0 -0.74777699500E+01 -0.71332911513E+02 -0.15713546790E+01  0.80346799246E+03  0.80025873593E+03 0.  0.
         22    1    5    5    0    0 -0.74191268733E+02 -0.34663483539E+03  0.24254703910E+03  0.42952196642E+03  0.00000000000E+00 0. -1.
         22    1    5    5    0    0  0.66713498783E+02  0.27530192387E+03 -0.24411839378E+03  0.37394602604E+03  0.00000000000E+00 0. -1.
          5    1    4    4  502    0  0.50467713760E+02  0.95810548760E+01 -0.17541408342E+02  0.54484656109E+02  0.47000000000E+01 0.  1.
         -5    1    4    4    0  502 -0.42989943810E+02  0.61751856637E+02 -0.13387416121E+03  0.15364181757E+03  0.47000000000E+01 0.  1.
<mgrwt>
<rscale>  0 0.99995918E+03</rscale>
<asrwt>0</asrwt>
<pdfrwt beam="1">  1        2 0.66046734E-01 0.99995918E+03</pdfrwt>
<pdfrwt beam="2">  1       -2 0.89583184E-01 0.99995918E+03</pdfrwt>
<totfact> 0.93719756E+01</totfact>
</mgrwt>
</event>
<event>
 9    1  0.4370149E-036  0.1000013E+04  0.7818608E-02  0.8681026E-01
         -1   -1    0    0    0  501 -0.00000000000E+00  0.00000000000E+00  0.14751249110E+03  0.14751249110E+03  0.00000000000E+00 0.  1.
          1   -1    0    0  501    0  0.00000000000E+00 -0.00000000000E+00 -0.16948156617E+04  0.16948156617E+04  0.00000000000E+00 0.  1.
         36    2    1    2    0    0  0.00000000000E+00  0.00000000000E+00 -0.15473031706E+04  0.18423281528E+04  0.10000129603E+04 0.  0.
         25    2    3    3    0    0  0.12826005264E+03  0.66303049306E+01 -0.17995656196E+03  0.25379924771E+03  0.12463984875E+03 0.  0.
         35    2    3    3    0    0 -0.12826005264E+03 -0.66303049306E+01 -0.13673466086E+04  0.15885289051E+04  0.79830616440E+03 0.  0.
         22    1    5    5    0    0  0.14540850470E+03  0.33570519231E+03 -0.70563504886E+03  0.79483484546E+03  0.00000000000E+00 0.  1.
         22    1    5    5    0    0 -0.27366855734E+03 -0.34233549724E+03 -0.66171155974E+03  0.79369405959E+03  0.00000000000E+00 0.  1.
          5    1    4    4  502    0  0.39850028087E+02 -0.51619458322E+02 -0.10608914753E+03  0.12461777738E+03  0.47000000000E+01 0. -1.
         -5    1    4    4    0  502  0.88410024556E+02  0.58249763252E+02 -0.73867414432E+02  0.12918147033E+03  0.47000000000E+01 0. -1.
<mgrwt>
<rscale>  0 0.10000130E+04</rscale>
<asrwt>0</asrwt>
<pdfrwt beam="1">  1        1 0.26074087E+00 0.10000130E+04</pdfrwt>
<pdfrwt beam="2">  1       -1 0.22694230E-01 0.10000130E+04</pdfrwt>
<totfact> 0.84574850E+01</totfact>
</mgrwt>
</event>
<event>
 9    1  0.4370149E-036  0.9995010E+03  0.7818608E-02  0.8681513E-01
          2   -1    0    0  501    0  0.00000000000E+00  0.00000000000E+00  0.97278251942E+03  0.97278251942E+03  0.00000000000E+00 0.  1.
         -2   -1    0    0    0  501 -0.00000000000E+00 -0.00000000000E+00 -0.25673833808E+03  0.25673833808E+03  0.00000000000E+00 0.  1.
         36    2    1    2    0    0 -0.71054273576E-13  0.00000000000E+00  0.71604418135E+03  0.12295208575E+04  0.99950101020E+03 0.  0.
         25    2    3    3    0    0  0.99827042256E+02 -0.36452656560E+02  0.24445033613E+03  0.29468692410E+03  0.12565899038E+03 0.  0.
         35    2    3    3    0    0 -0.99827042256E+02  0.36452656560E+02  0.47159384522E+03  0.93483393340E+03  0.80013717178E+03 0.  0.
         22    1    5    5    0    0  0.26762588339E+03  0.51163788336E+02 -0.68944970630E+02  0.28106005705E+03  0.00000000000E+00 0. -1.
         22    1    5    5    0    0 -0.36745292564E+03 -0.14711131775E+02  0.54053881585E+03  0.65377387635E+03  0.00000000000E+00 0. -1.
          5    1    4    4  502    0  0.10870866418E+03 -0.56233462628E+02  0.24339426735E+03  0.27247501788E+03  0.47000000000E+01 0. -1.
         -5    1    4    4    0  502 -0.88816219233E+01  0.19780806068E+02  0.10560687768E+01  0.22211906221E+02  0.47000000000E+01 0. -1.
<mgrwt>
<rscale>  0 0.99950101E+03</rscale>
<asrwt>0</asrwt>
<pdfrwt beam="1">  1        2 0.14965885E+00 0.99950101E+03</pdfrwt>
<pdfrwt beam="2">  1       -2 0.39498206E-01 0.99950101E+03</pdfrwt>
<totfact> 0.19225760E+02</totfact>
</mgrwt>
</event>
<event>
 9    1  0.4370149E-036  0.1000114E+04  0.7818608E-02  0.8680929E-01
          2   -1    0    0  501    0  0.00000000000E+00  0.00000000000E+00  0.13626730388E+04  0.13626730388E+04  0.00000000000E+00 0. -1.
         -2   -1    0    0    0  501 -0.00000000000E+00 -0.00000000000E+00 -0.18350491718E+03  0.18350491718E+03  0.00000000000E+00 0. -1.
         36    2    1    2    0    0  0.00000000000E+00 -0.71054273576E-14  0.11791681216E+04  0.15461779559E+04  0.10001143997E+04 0.  0.
         25    2    3    3    0    0  0.12388349228E+02  0.23958129699E+02  0.43353306600E+03  0.45248101240E+03  0.12673075433E+03 0.  0.
         35    2    3    3    0    0 -0.12388349228E+02 -0.23958129699E+02  0.74563505558E+03  0.10936969435E+04  0.79967112303E+03 0.  0.
         22    1    5    5    0    0 -0.29198766719E+02  0.80289481289E+02  0.90144071094E+03  0.90548016219E+03  0.00000000000E+00 0. -1.
         22    1    5    5    0    0  0.16810417491E+02 -0.10424761099E+03 -0.15580565536E+03  0.18821678133E+03  0.00000000000E+00 0. -1.
          5    1    4    4  502    0  0.17353332919E+02 -0.49003854049E+02  0.12696534057E+03  0.13727637663E+03  0.47000000000E+01 0. -1.
         -5    1    4    4    0  502 -0.49649836914E+01  0.72961983748E+02  0.30656772543E+03  0.31520463577E+03  0.47000000000E+01 0. -1.
<mgrwt>
<rscale>  0 0.10001144E+04</rscale>
<asrwt>0</asrwt>
<pdfrwt beam="1">  1        2 0.20964200E+00 0.10001144E+04</pdfrwt>
<pdfrwt beam="2">  1       -2 0.28231527E-01 0.10001144E+04</pdfrwt>
<totfact> 0.20935824E+02</totfact>
</mgrwt>
</event>
<event>
 9    1  0.4370149E-036  0.1000773E+04  0.7818608E-02  0.8680303E-01
         -1   -1    0    0    0  501 -0.00000000000E+00  0.00000000000E+00  0.17480402455E+03  0.17480402455E+03  0.00000000000E+00 0. -1.
          1   -1    0    0  501    0  0.00000000000E+00 -0.00000000000E+00 -0.14323836954E+04  0.14323836954E+04  0.00000000000E+00 0. -1.
         36    2    1    2    0    0 -0.14210854715E-13  0.00000000000E+00 -0.12575796708E+04  0.16071877199E+04  0.10007725709E+04 0.  0.
         25    2    3    3    0    0  0.10182106524E+03  0.93202457494E+02 -0.19042034298E+03  0.26621546388E+03  0.12472585449E+03 0.  0.
         35    2    3    3    0    0 -0.10182106524E+03 -0.93202457494E+02 -0.10671593279E+04  0.13409722561E+04  0.80020205766E+03 0.  0.
         22    1    5    5    0    0  0.13409868569E+03 -0.80370858934E+02  0.75872318883E+02  0.17377727481E+03  0.00000000000E+00 0.  1.
         22    1    5    5    0    0 -0.23591975093E+03 -0.12831598560E+02 -0.11430316467E+04  0.11671949812E+04  0.00000000000E+00 0.  1.
          5    1    4    4  502    0  0.12394655185E+03  0.55260146186E+02 -0.11119383527E+03  0.17550666789E+03  0.47000000000E+01 0.  1.
         -5    1    4    4    0  502 -0.22125486615E+02  0.37942311308E+02 -0.79226507707E+02  0.90708795984E+02  0.47000000000E+01 0.  1.
<mgrwt>
<rscale>  0 0.10007726E+04</rscale>
<asrwt>0</asrwt>
<pdfrwt beam="1">  1        1 0.22036673E+00 0.10007726E+04</pdfrwt>
<pdfrwt beam="2">  1       -1 0.26892927E-01 0.10007726E+04</pdfrwt>
<totfact> 0.97663719E+01</totfact>
</mgrwt>
</event>
<event>
 9    1  0.4370149E-036  0.1000645E+04  0.7818608E-02  0.8680424E-01
         -2   -1    0    0    0  501 -0.00000000000E+00  0.00000000000E+00  0.89430864405E+02  0.89430864405E+02  0.00000000000E+00 0. -1.
          2   -1    0    0  501    0  0.00000000000E+00 -0.00000000000E+00 -0.27990646301E+04  0.27990646301E+04  0.00000000000E+00 0. -1.
         36    2    1    2    0    0  0.14210854715E-13  0.14210854715E-13 -0.27096337657E+04  0.28884954946E+04  0.10006453306E+04 0.  0.
         25    2    3    3    0    0  0.72585418882E+02  0.11109857378E+03 -0.65294033139E+03  0.67788509747E+03  0.12484227202E+03 0.  0.
         35    2    3    3    0    0 -0.72585418882E+02 -0.11109857378E+03 -0.20566934344E+04  0.22106103971E+04  0.79949916114E+03 0.  0.
         22    1    5    5    0    0 -0.30861464274E+03 -0.10926998294E+03 -0.18983693660E+04  0.19263927888E+04  0.00000000000E+00 0.  1.
         22    1    5    5    0    0  0.23602922386E+03 -0.18285908345E+01 -0.15832406838E+03  0.28421760833E+03  0.00000000000E+00 0.  1.
          5    1    4    4  502    0 -0.24924696976E+02  0.67376457213E+02 -0.32738187131E+03  0.33520412762E+03  0.47000000000E+01 0.  1.
         -5    1    4    4    0  502  0.97510115858E+02  0.43722116564E+02 -0.32555846007E+03  0.34268096985E+03  0.47000000000E+01 0.  1.
<mgrwt>
<rscale>  0 0.10006453E+04</rscale>
<asrwt>0</asrwt>
<pdfrwt beam="1">  1        2 0.43062536E+00 0.10006453E+04</pdfrwt>
<pdfrwt beam="2">  1       -2 0.13758593E-01 0.10006453E+04</pdfrwt>
<totfact> 0.10463091E+02</totfact>
</mgrwt>
</event>
<event>
 9    1  0.4370149E-036  0.9997987E+03  0.7818608E-02  0.8681230E-01
          2   -1    0    0  501    0  0.00000000000E+00  0.00000000000E+00  0.11456505094E+04  0.11456505094E+04  0.00000000000E+00 0. -1.
         -2   -1    0    0    0  501 -0.00000000000E+00 -0.00000000000E+00 -0.21812880389E+03  0.21812880389E+03  0.00000000000E+00 0. -1.
         36    2    1    2    0    0  0.14210854715E-13 -0.28421709430E-13  0.92752170549E+03  0.13637793133E+04  0.99979873031E+03 0.  0.
         25    2    3    3    0    0 -0.25169755724E+01  0.86396307389E+02  0.32369224209E+03  0.35738614426E+03  0.12440872729E+03 0.  0.
         35    2    3    3    0    0  0.25169755724E+01 -0.86396307389E+02  0.60382946340E+03  0.10063931690E+04  0.80046644692E+03 0.  0.
         22    1    5    5    0    0 -0.93347238518E+02 -0.43303976590E+03  0.37230371416E+03  0.57865983217E+03  0.00000000000E+00 0.  1.
         22    1    5    5    0    0  0.95864214090E+02  0.34664345851E+03  0.23152574924E+03  0.42773333683E+03  0.00000000000E+00 0.  1.
          5    1    4    4  502    0  0.33726830610E+02 -0.39111084276E+01  0.18345801474E+03  0.18663260445E+03  0.47000000000E+01 0.  1.
         -5    1    4    4    0  502 -0.36243806182E+02  0.90307415817E+02  0.14023422735E+03  0.17075353981E+03  0.47000000000E+01 0.  1.
<mgrwt>
<rscale>  0 0.99979873E+03</rscale>
<asrwt>0</asrwt>
<pdfrwt beam="1">  1        2 0.17625392E+00 0.99979873E+03</pdfrwt>
<pdfrwt beam="2">  1       -2 0.33558278E-01 0.99979873E+03</pdfrwt>
<totfact> 0.20444487E+02</totfact>
</mgrwt>
</event>
<event>
 9    1  0.4370149E-036  0.1000454E+04  0.7818608E-02  0.8680606E-01
          2   -1    0    0  501    0  0.00000000000E+00  0.00000000000E+00  0.11916472806E+04  0.11916472806E+04  0.00000000000E+00 0.  1.
         -2   -1    0    0    0  501 -0.00000000000E+00 -0.00000000000E+00 -0.20998423548E+03  0.20998423548E+03  0.00000000000E+00 0.  1.
         36    2    1    2    0    0  0.28421709430E-13  0.00000000000E+00  0.98166304512E+03  0.14016315161E+04  0.10004541832E+04 0.  0.
         25    2    3    3    0    0 -0.11229552072E+03 -0.51746731347E+01  0.34598690955E+03  0.38478268866E+03  0.12535435650E+03 0.  0.
         35    2    3    3    0    0  0.11229552072E+03  0.51746731347E+01  0.63567613557E+03  0.10168488274E+04  0.78565916737E+03 0.  0.
         22    1    5    5    0    0  0.31523915516E+03  0.20002886508E+03  0.62765989419E+02  0.37858531566E+03  0.00000000000E+00 0.  1.
         22    1    5    5    0    0 -0.20294363443E+03 -0.19485419194E+03  0.57291014615E+03  0.63826351175E+03  0.00000000000E+00 0.  1.
          5    1    4    4  502    0 -0.52070950543E+02 -0.22926627526E+02  0.33872678864E+02  0.66381190962E+02  0.47000000000E+01 0. -1.
         -5    1    4    4    0  502 -0.60224570178E+02  0.17751954391E+02  0.31211423069E+03  0.31840149770E+03  0.47000000000E+01 0. -1.
<mgrwt>
<rscale>  0 0.10004542E+04</rscale>
<asrwt>0</asrwt>
<pdfrwt beam="1">  1        2 0.18333035E+00 0.10004542E+04</pdfrwt>
<pdfrwt beam="2">  1       -2 0.32305268E-01 0.10004542E+04</pdfrwt>
<totfact> 0.20592858E+02</totfact>
</mgrwt>
</event>
<event>
 9    1  0.4370149E-036  0.9998304E+03  0.7818608E-02  0.8681199E-01
          2   -1    0    0  501    0  0.00000000000E+00  0.00000000000E+00  0.25931579143E+04  0.25931579143E+04  0.00000000000E+00 0. -1.
         -2   -1    0    0    0  501 -0.00000000000E+00 -0.00000000000E+00 -0.96374851962E+02  0.96374851962E+02  0.00000000000E+00 0. -1.
         36    2    1    2    0    0  0.00000000000E+00  0.14210854715E-13  0.24967830623E+04  0.26895327662E+04  0.99983040582E+03 0.  0.
         25    2    3    3    0    0  0.11126153274E+03  0.64144173288E+02  0.62274534684E+03  0.64821303106E+03  0.12599509116E+03 0.  0.
         35    2    3    3    0    0 -0.11126153274E+03 -0.64144173288E+02  0.18740377155E+04  0.20413197352E+04  0.79904649336E+03 0.  0.
         22    1    5    5    0    0  0.32265696351E+03 -0.10678832869E+03  0.54206924966E+03  0.63980491923E+03  0.00000000000E+00 0.  1.
         22    1    5    5    0    0 -0.43391849625E+03  0.42644155401E+02  0.13319684658E+04  0.14015148159E+04  0.00000000000E+00 0.  1.
          5    1    4    4  502    0  0.71055255995E+02 -0.67247631857E+01  0.46634441108E+03  0.47179791393E+03  0.47000000000E+01 0. -1.
         -5    1    4    4    0  502  0.40206276740E+02  0.70868936474E+02  0.15640093576E+03  0.17641511713E+03  0.47000000000E+01 0. -1.
<mgrwt>
<rscale>  0 0.99983041E+03</rscale>
<asrwt>0</asrwt>
<pdfrwt beam="1">  1        2 0.39894732E+00 0.99983041E+03</pdfrwt>
<pdfrwt beam="2">  1       -2 0.14826902E-01 0.99983041E+03</pdfrwt>
<totfact> 0.12448953E+02</totfact>
</mgrwt>
</event>
<event>
 9    1  0.4370149E-036  0.1001865E+04  0.7818608E-02  0.8679264E-01
          2   -1    0    0  501    0  0.00000000000E+00  0.00000000000E+00  0.27175170442E+04  0.27175170442E+04  0.00000000000E+00 0.  1.
         -2   -1    0    0    0  501 -0.00000000000E+00 -0.00000000000E+00 -0.92339151330E+02  0.92339151330E+02  0.00000000000E+00 0.  1.
         36    2    1    2    0    0 -0.14210854715E-13  0.28421709430E-13  0.26251778928E+04  0.28098561955E+04  0.10018646966E+04 0.  0.
         25    2    3    3    0    0  0.69606381594E+02  0.66509808876E+02  0.20214950683E+03  0.25620681808E+03  0.12453476416E+03 0.  0.
         35    2    3    3    0    0 -0.69606381594E+02 -0.66509808876E+02  0.24230283860E+04  0.25536493774E+04  0.80049358544E+03 0.  0.
         22    1    5    5    0    0  0.26857504548E+02  0.23636287721E+03  0.20819553271E+03  0.31612357570E+03  0.00000000000E+00 0. -1.
         22    1    5    5    0    0 -0.96463886141E+02 -0.30287268608E+03  0.22148328533E+04  0.22375258017E+04  0.00000000000E+00 0. -1.
          5    1    4    4  502    0  0.44536313977E+02  0.80825990223E+02  0.57952121360E+02  0.10907273870E+03  0.47000000000E+01 0.  1.
         -5    1    4    4    0  502  0.25070067617E+02 -0.14316181347E+02  0.14419738547E+03  0.14713407938E+03  0.47000000000E+01 0.  1.
<mgrwt>
<rscale>  0 0.10018647E+04</rscale>
<asrwt>0</asrwt>
<pdfrwt beam="1">  1        2 0.41807948E+00 0.10018647E+04</pdfrwt>
<pdfrwt beam="2">  1       -2 0.14206025E-01 0.10018647E+04</pdfrwt>
<totfact> 0.11179303E+02</totfact>
</mgrwt>
</event>
<event>
 9    1  0.4370149E-036  0.1000246E+04  0.7818608E-02  0.8680804E-01
         -2   -1    0    0    0  501 -0.00000000000E+00  0.00000000000E+00  0.17917612566E+03  0.17917612566E+03  0.00000000000E+00 0.  1.
          2   -1    0    0  501    0  0.00000000000E+00 -0.00000000000E+00 -0.13959619811E+04  0.13959619811E+04  0.00000000000E+00 0.  1.
         36    2    1    2    0    0 -0.71054273576E-14  0.00000000000E+00 -0.12167858554E+04  0.15751381067E+04  0.10002460884E+04 0.  0.
         25    2    3    3    0    0  0.39623158638E+02 -0.11639120120E+03 -0.33507969300E+03  0.37814844850E+03  0.12490373103E+03 0.  0.
         35    2    3    3    0    0 -0.39623158638E+02  0.11639120120E+03 -0.88170616240E+03  0.11969896582E+04  0.80016346997E+03 0.  0.
         22    1    5    5    0    0  0.23000089353E+03 -0.18909689021E+03 -0.97610881547E+02  0.31334634051E+03  0.00000000000E+00 0. -1.
         22    1    5    5    0    0 -0.26962405217E+03  0.30548809141E+03 -0.78409528085E+03  0.88364331772E+03  0.00000000000E+00 0. -1.
          5    1    4    4  502    0  0.70074133094E+02 -0.12297248168E+03 -0.29444520843E+03  0.32673029573E+03  0.47000000000E+01 0. -1.
         -5    1    4    4    0  502 -0.30450974456E+02  0.65812804816E+01 -0.40634484574E+02  0.51418152774E+02  0.47000000000E+01 0. -1.
<mgrwt>
<rscale>  0 0.10002461E+04</rscale>
<asrwt>0</asrwt>
<pdfrwt beam="1">  1        2 0.21476338E+00 0.10002461E+04</pdfrwt>
<pdfrwt beam="2">  1       -2 0.27565558E-01 0.10002461E+04</pdfrwt>
<totfact> 0.20917886E+02</totfact>
</mgrwt>
</event>
<event>
 9    1  0.4370149E-036  0.1001824E+04  0.7818608E-02  0.8679303E-01
          3   -1    0    0  501    0  0.00000000000E+00  0.00000000000E+00  0.85206557430E+03  0.85206557430E+03  0.00000000000E+00 0.  1.
         -3   -1    0    0    0  501 -0.00000000000E+00 -0.00000000000E+00 -0.29447588673E+03  0.29447588673E+03  0.00000000000E+00 0.  1.
         36    2    1    2    0    0  0.00000000000E+00  0.00000000000E+00  0.55758968757E+03  0.11465414610E+04  0.10018238679E+04 0.  0.
         25    2    3    3    0    0  0.12470701288E+03  0.60172153981E+02  0.15041799260E+03  0.23891598344E+03  0.12362340988E+03 0.  0.
         35    2    3    3    0    0 -0.12470701288E+03 -0.60172153981E+02  0.40717169497E+03  0.90762547760E+03  0.79926384331E+03 0.  0.
         22    1    5    5    0    0 -0.73435543574E+02  0.10025271917E+03 -0.22302576352E+03  0.25531133535E+03  0.00000000000E+00 0. -1.
         22    1    5    5    0    0 -0.51271469301E+02 -0.16042487315E+03  0.63019745849E+03  0.65231414225E+03  0.00000000000E+00 0. -1.
          5    1    4    4  502    0  0.75889477996E+01  0.38484742027E+02  0.10355173927E+03  0.11083194577E+03  0.47000000000E+01 0.  1.
         -5    1    4    4    0  502  0.11711806508E+03  0.21687411954E+02  0.46866253329E+02  0.12808403767E+03  0.47000000000E+01 0.  1.
<mgrwt>
<rscale>  0 0.10018239E+04</rscale>
<asrwt>0</asrwt>
<pdfrwt beam="1">  1        3 0.13108701E+00 0.10018239E+04</pdfrwt>
<pdfrwt beam="2">  1       -3 0.45303983E-01 0.10018239E+04</pdfrwt>
<totfact> 0.92532432E+00</totfact>
</mgrwt>
</event>
<event>
 9    1  0.4370149E-036  0.9967480E+03  0.7818608E-02  0.8684141E-01
          2   -1    0    0  501    0  0.00000000000E+00  0.00000000000E+00  0.70559247032E+03  0.70559247032E+03  0.00000000000E+00 0.  1.
         -2   -1    0    0    0  501 -0.00000000000E+00 -0.00000000000E+00 -0.35201148303E+03  0.35201148303E+03  0.00000000000E+00 0.  1.
         36    2    1    2    0    0  0.14210854715E-13  0.00000000000E+00  0.35358098729E+03  0.10576039533E+04  0.99674801608E+03 0.  0.
         25    2    3    3    0    0 -0.37025072373E+02  0.12103094343E+03  0.12056789366E+03  0.21446414454E+03  0.12425339859E+03 0.  0.
         35    2    3    3    0    0  0.37025072373E+02 -0.12103094343E+03  0.23301309363E+03  0.84313980881E+03  0.80035635197E+03 0.  0.
         22    1    5    5    0    0  0.35998672513E+03 -0.77481248284E+02 -0.95493769992E+02  0.38041141704E+03  0.00000000000E+00 0.  1.
         22    1    5    5    0    0 -0.32296165276E+03 -0.43549695142E+02  0.32850686362E+03  0.46272839177E+03  0.00000000000E+00 0.  1.
          5    1    4    4  502    0 -0.80197219771E+02  0.51846027265E+02  0.62071052543E+02  0.11399346545E+03  0.47000000000E+01 0. -1.
         -5    1    4    4    0  502  0.43172147398E+02  0.69184916161E+02  0.58496841119E+02  0.10047067909E+03  0.47000000000E+01 0. -1.
<mgrwt>
<rscale>  0 0.99674802E+03</rscale>
<asrwt>0</asrwt>
<pdfrwt beam="1">  1        2 0.10855269E+00 0.99674802E+03</pdfrwt>
<pdfrwt beam="2">  1       -2 0.54155613E-01 0.99674802E+03</pdfrwt>
<totfact> 0.15758187E+02</totfact>
</mgrwt>
</event>
<event>
 9    1  0.4370149E-036  0.9993238E+03  0.7818608E-02  0.8681682E-01
          2   -1    0    0  501    0  0.00000000000E+00  0.00000000000E+00  0.48825268798E+03  0.48825268798E+03  0.00000000000E+00 0.  1.
         -2   -1    0    0    0  501 -0.00000000000E+00 -0.00000000000E+00 -0.51133768200E+03  0.51133768200E+03  0.00000000000E+00 0.  1.
         36    2    1    2    0    0 -0.71054273576E-14  0.28421709430E-13 -0.23084994028E+02  0.99959036998E+03  0.99932376676E+03 0.  0.
         25    2    3    3    0    0  0.12140129603E+01 -0.61982209576E+02 -0.12911321964E+03  0.18994701679E+03  0.12476528992E+03 0.  0.
         35    2    3    3    0    0 -0.12140129603E+01  0.61982209576E+02  0.10602822561E+03  0.80964335320E+03  0.80027314501E+03 0.  0.
         22    1    5    5    0    0 -0.14065300121E+03  0.30390182370E+03 -0.20422997805E+03  0.39223649643E+03  0.00000000000E+00 0.  1.
         22    1    5    5    0    0  0.13943898825E+03 -0.24191961412E+03  0.31025820366E+03  0.41740685677E+03  0.00000000000E+00 0.  1.
          5    1    4    4  502    0 -0.34802449405E+02 -0.86482518723E+02 -0.10273887156E+03  0.13880850932E+03  0.47000000000E+01 0.  1.
         -5    1    4    4    0  502  0.36016462366E+02  0.24500309146E+02 -0.26374348072E+02  0.51138507466E+02  0.47000000000E+01 0.  1.
<mgrwt>
<rscale>  0 0.99932377E+03</rscale>
<asrwt>0</asrwt>
<pdfrwt beam="1">  1        2 0.75115798E-01 0.99932377E+03</pdfrwt>
<pdfrwt beam="2">  1       -2 0.78667336E-01 0.99932377E+03</pdfrwt>
<totfact> 0.10958029E+02</totfact>
</mgrwt>
</event>
<event>
 9    1  0.4370149E-036  0.9996735E+03  0.7818608E-02  0.8681349E-01
          2   -1    0    0  501    0  0.00000000000E+00  0.00000000000E+00  0.77122076988E+03  0.77122076988E+03  0.00000000000E+00 0. -1.
         -2   -1    0    0    0  501 -0.00000000000E+00 -0.00000000000E+00 -0.32394973150E+03  0.32394973150E+03  0.00000000000E+00 0. -1.
         36    2    1    2    0    0 -0.71054273576E-14  0.00000000000E+00  0.44727103837E+03  0.10951705014E+04  0.99967346935E+03 0.  0.
         25    2    3    3    0    0  0.34635203495E+02 -0.74562555497E+02 -0.40205418322E+02  0.15426922865E+03  0.12419076956E+03 0.  0.
         35    2    3    3    0    0 -0.34635203495E+02  0.74562555497E+02  0.48747645670E+03  0.94090127273E+03  0.80056401192E+03 0.  0.
         22    1    5    5    0    0 -0.16355099990E+03 -0.12254170580E+03  0.63223982889E+03  0.66444909546E+03  0.00000000000E+00 0.  1.
         22    1    5    5    0    0  0.12891579641E+03  0.19710426130E+03 -0.14476337219E+03  0.27645217726E+03  0.00000000000E+00 0.  1.
          5    1    4    4  502    0  0.77584877648E+02 -0.21994648960E+02 -0.18818544118E+02  0.82942181218E+02  0.47000000000E+01 0.  1.
         -5    1    4    4    0  502 -0.42949674153E+02 -0.52567906537E+02 -0.21386874204E+02  0.71327047435E+02  0.47000000000E+01 0.  1.
<mgrwt>
<rscale>  0 0.99967347E+03</rscale>
<asrwt>0</asrwt>
<pdfrwt beam="1">  1        2 0.11864935E+00 0.99967347E+03</pdfrwt>
<pdfrwt beam="2">  1       -2 0.49838420E-01 0.99967347E+03</pdfrwt>
<totfact> 0.16671096E+02</totfact>
</mgrwt>
</event>
<event>
 9    1  0.4370149E-036  0.9998190E+03  0.7818608E-02  0.8681210E-01
          2   -1    0    0  501    0  0.00000000000E+00  0.00000000000E+00  0.51061215444E+03  0.51061215444E+03  0.00000000000E+00 0.  1.
         -2   -1    0    0    0  501 -0.00000000000E+00 -0.00000000000E+00 -0.48943120583E+03  0.48943120583E+03  0.00000000000E+00 0.  1.
         36    2    1    2    0    0  0.56843418861E-13 -0.71054273576E-14  0.21180948616E+02  0.10000433603E+04  0.99981902854E+03 0.  0.
         25    2    3    3    0    0  0.13862398411E+03  0.19287891817E+02  0.24538790070E+02  0.18897586783E+03  0.12458368538E+03 0.  0.
         35    2    3    3    0    0 -0.13862398411E+03 -0.19287891817E+02 -0.33578414542E+01  0.81106749244E+03  0.79889334110E+03 0.  0.
         22    1    5    5    0    0 -0.19656025785E+03 -0.17313423475E+03  0.34069954784E+03  0.42975292915E+03  0.00000000000E+00 0.  1.
         22    1    5    5    0    0  0.57936273735E+02  0.15384634293E+03 -0.34405738930E+03  0.38131456329E+03  0.00000000000E+00 0.  1.
          5    1    4    4  502    0  0.89462814018E+02  0.44792133266E+02  0.65723488494E+02  0.11979815205E+03  0.47000000000E+01 0. -1.
         -5    1    4    4    0  502  0.49161170095E+02 -0.25504241449E+02 -0.41184698423E+02  0.69177715785E+02  0.47000000000E+01 0. -1.
<mgrwt>
<rscale>  0 0.99981903E+03</rscale>
<asrwt>0</asrwt>
<pdfrwt beam="1">  1        2 0.78555716E-01 0.99981903E+03</pdfrwt>
<pdfrwt beam="2">  1       -2 0.75297109E-01 0.99981903E+03</pdfrwt>
<totfact> 0.11488740E+02</totfact>
</mgrwt>
</event>
<event>
 9    1  0.4370149E-036  0.1000103E+04  0.7818608E-02  0.8680940E-01
          2   -1    0    0  501    0  0.00000000000E+00  0.00000000000E+00  0.67392868419E+03  0.67392868419E+03  0.00000000000E+00 0. -1.
         -2   -1    0    0    0  501 -0.00000000000E+00 -0.00000000000E+00 -0.37103545962E+03  0.37103545962E+03  0.00000000000E+00 0. -1.
         36    2    1    2    0    0  0.42632564146E-13  0.00000000000E+00  0.30289322457E+03  0.10449641438E+04  0.10001028729E+04 0.  0.
         25    2    3    3    0    0 -0.60724110366E+02 -0.39353982926E+01  0.19101440336E+03  0.23604353810E+03  0.12460796382E+03 0.  0.
         35    2    3    3    0    0  0.60724110366E+02  0.39353982926E+01  0.11187882121E+03  0.80892060571E+03  0.79883212928E+03 0.  0.
         22    1    5    5    0    0 -0.34881119755E+03  0.55819721411E+02 -0.66097593877E+02  0.35938000049E+03  0.00000000000E+00 0. -1.
         22    1    5    5    0    0  0.40953530792E+03 -0.51884323118E+02  0.17797641509E+03  0.44954060522E+03  0.00000000000E+00 0. -1.
          5    1    4    4  502    0  0.33155549986E+02 -0.18039139788E+02  0.27594257626E+02  0.46991851560E+02  0.47000000000E+01 0.  1.
         -5    1    4    4    0  502 -0.93879660351E+02  0.14103741496E+02  0.16342014573E+03  0.18905168654E+03  0.47000000000E+01 0.  1.
<mgrwt>
<rscale>  0 0.10001029E+04</rscale>
<asrwt>0</asrwt>
<pdfrwt beam="1">  1        2 0.10368134E+00 0.10001029E+04</pdfrwt>
<pdfrwt beam="2">  1       -2 0.57082379E-01 0.10001029E+04</pdfrwt>
<totfact> 0.14961937E+02</totfact>
</mgrwt>
</event>
<event>
 9    1  0.4370149E-036  0.9993978E+03  0.7818608E-02  0.8681612E-01
         -1   -1    0    0    0  501 -0.00000000000E+00  0.00000000000E+00  0.80750289613E+03  0.80750289613E+03  0.00000000000E+00 0. -1.
          1   -1    0    0  501    0  0.00000000000E+00 -0.00000000000E+00 -0.30922364433E+03  0.30922364433E+03  0.00000000000E+00 0. -1.
         36    2    1    2    0    0  0.14210854715E-13 -0.71054273576E-14  0.49827925179E+03  0.11167265405E+04  0.99939779537E+03 0.  0.
         25    2    3    3    0    0  0.79703382294E+02 -0.40054942501E+02  0.21349692279E+03  0.26179078401E+03  0.12245999748E+03 0.  0.
         35    2    3    3    0    0 -0.79703382294E+02  0.40054942501E+02  0.28478232900E+03  0.85493575645E+03  0.80115987491E+03 0.  0.
         22    1    5    5    0    0 -0.39255495068E+03  0.10863817075E+03  0.33921233805E+03  0.53006287527E+03  0.00000000000E+00 0. -1.
         22    1    5    5    0    0  0.31285156839E+03 -0.68583228253E+02 -0.54430009053E+02  0.32487288118E+03  0.00000000000E+00 0. -1.
          5    1    4    4  502    0  0.60216588994E+02  0.39356049133E+01  0.22184786063E+02  0.64465349675E+02  0.47000000000E+01 0. -1.
         -5    1    4    4    0  502  0.19486793300E+02 -0.43990547415E+02  0.19131213673E+03  0.19732543434E+03  0.47000000000E+01 0. -1.
<mgrwt>
<rscale>  0 0.99939780E+03</rscale>
<asrwt>0</asrwt>
<pdfrwt beam="1">  1        1 0.47572869E-01 0.99939780E+03</pdfrwt>
<pdfrwt beam="2">  1       -1 0.12423121E+00 0.99939780E+03</pdfrwt>
<totfact> 0.57503361E+01</totfact>
</mgrwt>
</event>
<event>
 9    1  0.4370149E-036  0.9999102E+03  0.7818608E-02  0.8681123E-01
          1   -1    0    0  501    0  0.00000000000E+00  0.00000000000E+00  0.15983523992E+04  0.15983523992E+04  0.00000000000E+00 0. -1.
         -1   -1    0    0    0  501 -0.00000000000E+00 -0.00000000000E+00 -0.15638297837E+03  0.15638297837E+03  0.00000000000E+00 0. -1.
         36    2    1    2    0    0  0.14210854715E-13 -0.63948846218E-13  0.14419694208E+04  0.17547353775E+04  0.99991021330E+03 0.  0.
         25    2    3    3    0    0 -0.11320412076E+03 -0.38517876974E+02  0.42826349204E+03  0.46191053017E+03  0.12511162798E+03 0.  0.
         35    2    3    3    0    0  0.11320412076E+03  0.38517876974E+02  0.10137059288E+04  0.12928248474E+04  0.79340883294E+03 0.  0.
         22    1    5    5    0    0  0.50450708865E+02  0.39736276312E+03  0.72386192559E+03  0.82729591251E+03  0.00000000000E+00 0. -1.
         22    1    5    5    0    0  0.62753411899E+02 -0.35884488615E+03  0.28984400316E+03  0.46552893486E+03  0.00000000000E+00 0. -1.
          5    1    4    4  502    0 -0.60677375572E+02 -0.74829361512E+02  0.16640801636E+03  0.19234057076E+03  0.47000000000E+01 0. -1.
         -5    1    4    4    0  502 -0.52526745193E+02  0.36311484537E+02  0.26185547568E+03  0.26956995941E+03  0.47000000000E+01 0. -1.
<mgrwt>
<rscale>  0 0.99991021E+03</rscale>
<asrwt>0</asrwt>
<pdfrwt beam="1">  1        1 0.24590036E+00 0.99991021E+03</pdfrwt>
<pdfrwt beam="2">  1       -1 0.24058921E-01 0.99991021E+03</pdfrwt>
<totfact> 0.89745165E+01</totfact>
</mgrwt>
</event>
<event>
 9    1  0.4370149E-036  0.1000587E+04  0.7818608E-02  0.8680479E-01
         -1   -1    0    0    0  501 -0.00000000000E+00  0.00000000000E+00  0.36199937002E+03  0.36199937002E+03  0.00000000000E+00 0. -1.
          1   -1    0    0  501    0  0.00000000000E+00 -0.00000000000E+00 -0.69142024673E+03  0.69142024673E+03  0.00000000000E+00 0. -1.
         36    2    1    2    0    0  0.00000000000E+00  0.71054273576E-14 -0.32942087671E+03  0.10534196168E+04  0.10005872151E+04 0.  0.
         25    2    3    3    0    0 -0.97149500493E+02  0.40523087488E+02  0.35396663877E+02  0.16741752469E+03  0.12528191288E+03 0.  0.
         35    2    3    3    0    0  0.97149500493E+02 -0.40523087488E+02 -0.36481754059E+03  0.88600209207E+03  0.80051715981E+03 0.  0.
         22    1    5    5    0    0 -0.17418546715E+03 -0.87548950231E+02  0.18646414853E+03  0.26976707424E+03  0.00000000000E+00 0. -1.
         22    1    5    5    0    0  0.27133496765E+03  0.47025862743E+02 -0.55128168912E+03  0.61623501783E+03  0.00000000000E+00 0. -1.
          5    1    4    4  502    0 -0.49430808443E+02 -0.14846425474E+02 -0.37584273562E+02  0.64019440734E+02  0.47000000000E+01 0. -1.
         -5    1    4    4    0  502 -0.47718692050E+02  0.55369512962E+02  0.72980937439E+02  0.10339808396E+03  0.47000000000E+01 0. -1.
<mgrwt>
<rscale>  0 0.10005872E+04</rscale>
<asrwt>0</asrwt>
<pdfrwt beam="1">  1        1 0.10637234E+00 0.10005872E+04</pdfrwt>
<pdfrwt beam="2">  1       -1 0.55692212E-01 0.10005872E+04</pdfrwt>
<totfact> 0.10420871E+02</totfact>
</mgrwt>
</event>
<event>
 9    1  0.4370149E-036  0.1000885E+04  0.7818608E-02  0.8680196E-01
          2   -1    0    0  501    0  0.00000000000E+00  0.00000000000E+00  0.12936377758E+04  0.12936377758E+04  0.00000000000E+00 0. -1.
         -2   -1    0    0    0  501 -0.00000000000E+00 -0.00000000000E+00 -0.19359560701E+03  0.19359560701E+03  0.00000000000E+00 0. -1.
         36    2    1    2    0    0  0.14210854715E-13  0.14210854715E-13  0.11000421688E+04  0.14872333828E+04  0.10008847895E+04 0.  0.
         25    2    3    3    0    0 -0.46673294542E+02  0.10104354249E+03  0.78217974021E+02  0.18471490036E+03  0.12495338753E+03 0.  0.
         35    2    3    3    0    0  0.46673294542E+02 -0.10104354249E+03  0.10218241948E+04  0.13025184824E+04  0.80002594845E+03 0.  0.
         22    1    5    5    0    0 -0.42648263294E+02 -0.23214130596E+03  0.11004433974E+04  0.11254706265E+04  0.00000000000E+00 0.  1.
         22    1    5    5    0    0  0.89321557836E+02  0.13109776347E+03 -0.78619202594E+02  0.17704785596E+03  0.00000000000E+00 0.  1.
          5    1    4    4  502    0 -0.56403538572E+02  0.46236273790E+02  0.10076138789E+03  0.12447529661E+03  0.47000000000E+01 0.  1.
         -5    1    4    4    0  502  0.97302440301E+01  0.54807268695E+02 -0.22543413871E+02  0.60239603747E+02  0.47000000000E+01 0.  1.
<mgrwt>
<rscale>  0 0.10008848E+04</rscale>
<asrwt>0</asrwt>
<pdfrwt beam="1">  1        2 0.19902119E+00 0.10008848E+04</pdfrwt>
<pdfrwt beam="2">  1       -2 0.29783940E-01 0.10008848E+04</pdfrwt>
<totfact> 0.20825124E+02</totfact>
</mgrwt>
</event>
<event>
 9    1  0.4370149E-036  0.9996852E+03  0.7818608E-02  0.8681338E-01
         -2   -1    0    0    0  501 -0.00000000000E+00  0.00000000000E+00  0.29148626009E+03  0.29148626009E+03  0.00000000000E+00 0.  1.
          2   -1    0    0  501    0  0.00000000000E+00 -0.00000000000E+00 -0.85713350031E+03  0.85713350031E+03  0.00000000000E+00 0.  1.
         36    2    1    2    0    0  0.28421709430E-13 -0.14210854715E-13 -0.56564724022E+03  0.11486197604E+04  0.99968522726E+03 0.  0.
         25    2    3    3    0    0  0.93963020539E+02 -0.10088797456E+03 -0.63621906966E+02  0.19479979788E+03  0.12203188751E+03 0.  0.
         35    2    3    3    0    0 -0.93963020539E+02  0.10088797456E+03 -0.50202533325E+03  0.95381996251E+03  0.79920939248E+03 0.  0.
         22    1    5    5    0    0 -0.43265320074E+03  0.67598145777E+02 -0.41325360014E+03  0.60211032166E+03  0.00000000000E+00 0. -1.
         22    1    5    5    0    0  0.33869018020E+03  0.33289828780E+02 -0.88771733112E+02  0.35170964085E+03  0.00000000000E+00 0. -1.
          5    1    4    4  502    0  0.14672590644E+02  0.48859779215E+01  0.29082212456E+02  0.33271951818E+02  0.47000000000E+01 0. -1.
         -5    1    4    4    0  502  0.79290429896E+02 -0.10577395248E+03 -0.92704119422E+02  0.16152784606E+03  0.47000000000E+01 0. -1.
<mgrwt>
<rscale>  0 0.99968523E+03</rscale>
<asrwt>0</asrwt>
<pdfrwt beam="1">  1        2 0.13186669E+00 0.99968523E+03</pdfrwt>
<pdfrwt beam="2">  1       -2 0.44844041E-01 0.99968523E+03</pdfrwt>
<totfact> 0.17905071E+02</totfact>
</mgrwt>
</event>
<event>
 9    1  0.4370149E-036  0.1001018E+04  0.7818608E-02  0.8680070E-01
          2   -1    0    0  501    0  0.00000000000E+00  0.00000000000E+00  0.28842454033E+04  0.28842454033E+04  0.00000000000E+00 0. -1.
         -2   -1    0    0    0  501 -0.00000000000E+00 -0.00000000000E+00 -0.86854267584E+02  0.86854267584E+02  0.00000000000E+00 0. -1.
         36    2    1    2    0    0  0.00000000000E+00 -0.21316282073E-13  0.27973911357E+04  0.29710996709E+04  0.10010175264E+04 0.  0.
         25    2    3    3    0    0 -0.11283483354E+03 -0.89174491119E+01  0.26615072526E+03  0.31528513427E+03  0.12552803184E+03 0.  0.
         35    2    3    3    0    0  0.11283483354E+03  0.89174491119E+01  0.25312404104E+04  0.26558145366E+04  0.79584019551E+03 0.  0.
         22    1    5    5    0    0 -0.32845850453E+02  0.25991043629E+03  0.27065819487E+03  0.37668042588E+03  0.00000000000E+00 0. -1.
         22    1    5    5    0    0  0.14568068400E+03 -0.25099298718E+03  0.22605822156E+04  0.22791341107E+04  0.00000000000E+00 0. -1.
          5    1    4    4  502    0 -0.12839494701E+02 -0.49014893945E+02  0.14198494387E+03  0.15082813643E+03  0.47000000000E+01 0. -1.
         -5    1    4    4    0  502 -0.99995338841E+02  0.40097444833E+02  0.12416578139E+03  0.16445699784E+03  0.47000000000E+01 0. -1.
<mgrwt>
<rscale>  0 0.10010175E+04</rscale>
<asrwt>0</asrwt>
<pdfrwt beam="1">  1        2 0.44372999E+00 0.10010175E+04</pdfrwt>
<pdfrwt beam="2">  1       -2 0.13362197E-01 0.10010175E+04</pdfrwt>
<totfact> 0.96752558E+01</totfact>
</mgrwt>
</event>
<event>
 9    1  0.4370149E-036  0.1000729E+04  0.7818608E-02  0.8680344E-01
          2   -1    0    0  501    0  0.00000000000E+00  0.00000000000E+00  0.30400921735E+04  0.30400921735E+04  0.00000000000E+00 0. -1.
         -2   -1    0    0    0  501 -0.00000000000E+00 -0.00000000000E+00 -0.82354280608E+02  0.82354280608E+02  0.00000000000E+00 0. -1.
         36    2    1    2    0    0  0.00000000000E+00 -0.71054273576E-14  0.29577378929E+04  0.31224464541E+04  0.10007289422E+04 0.  0.
         25    2    3    3    0    0 -0.13135505351E+03  0.51774752898E+02  0.64376848632E+03  0.67095553573E+03  0.12573262036E+03 0.  0.
         35    2    3    3    0    0  0.13135505351E+03 -0.51774752898E+02  0.23139694066E+04  0.24514909184E+04  0.79713144037E+03 0.  0.
         22    1    5    5    0    0  0.33230796669E+03  0.31199655828E+02  0.21586471964E+04  0.21842984507E+04  0.00000000000E+00 0.  1.
         22    1    5    5    0    0 -0.20095291317E+03 -0.82974408726E+02  0.15532221021E+03  0.26719246771E+03  0.00000000000E+00 0.  1.
          5    1    4    4  502    0 -0.15339534816E+03  0.35737082100E+02  0.48980705143E+03  0.51452921152E+03  0.47000000000E+01 0. -1.
         -5    1    4    4    0  502  0.22040294643E+02  0.16037670798E+02  0.15396143489E+03  0.15642632421E+03  0.47000000000E+01 0. -1.
<mgrwt>
<rscale>  0 0.10007289E+04</rscale>
<asrwt>0</asrwt>
<pdfrwt beam="1">  1        2 0.46770640E+00 0.10007289E+04</pdfrwt>
<pdfrwt beam="2">  1       -2 0.12669892E-01 0.10007289E+04</pdfrwt>
<totfact> 0.83306702E+01</totfact>
</mgrwt>
</event>
<event>
 9    1  0.4370149E-036  0.9973888E+03  0.7818608E-02  0.8683529E-01
         -1   -1    0    0    0  501 -0.00000000000E+00  0.00000000000E+00  0.92537767983E+02  0.92537767983E+02  0.00000000000E+00 0. -1.
          1   -1    0    0  501    0  0.00000000000E+00 -0.00000000000E+00 -0.26875093657E+04  0.26875093657E+04  0.00000000000E+00 0. -1.
         36    2    1    2    0    0 -0.28421709430E-13  0.21316282073E-13 -0.25949715977E+04  0.27800471336E+04  0.99738882715E+03 0.  0.
         25    2    3    3    0    0  0.73454657788E+02 -0.41849840214E+02 -0.78513557298E+03  0.79943501632E+03  0.12454509819E+03 0.  0.
         35    2    3    3    0    0 -0.73454657788E+02  0.41849840214E+02 -0.18098360247E+04  0.19806121173E+04  0.80010682232E+03 0.  0.
         22    1    5    5    0    0  0.27317114995E+03 -0.22099657478E+03 -0.60480033418E+03  0.69946079765E+03  0.00000000000E+00 0. -1.
         22    1    5    5    0    0 -0.34662580774E+03  0.26284641499E+03 -0.12050356905E+04  0.12811513197E+04  0.00000000000E+00 0. -1.
          5    1    4    4  502    0  0.10199278923E+03 -0.48481206438E+02 -0.70457966258E+03  0.71358779933E+03  0.47000000000E+01 0.  1.
         -5    1    4    4    0  502 -0.28538131444E+02  0.66313662246E+01 -0.80555910404E+02  0.85847216993E+02  0.47000000000E+01 0.  1.
<mgrwt>
<rscale>  0 0.99738883E+03</rscale>
<asrwt>0</asrwt>
<pdfrwt beam="1">  1        1 0.41346292E+00 0.99738883E+03</pdfrwt>
<pdfrwt beam="2">  1       -1 0.14236582E-01 0.99738883E+03</pdfrwt>
<totfact> 0.36468510E+01</totfact>
</mgrwt>
</event>
<event>
 9    1  0.4370149E-036  0.9999426E+03  0.7818608E-02  0.8681093E-01
          2   -1    0    0  501    0  0.00000000000E+00  0.00000000000E+00  0.25975561564E+04  0.25975561564E+04  0.00000000000E+00 0. -1.
         -2   -1    0    0    0  501 -0.00000000000E+00 -0.00000000000E+00 -0.96233258803E+02  0.96233258803E+02  0.00000000000E+00 0. -1.
         36    2    1    2    0    0 -0.28421709430E-13  0.14210854715E-13  0.25013228976E+04  0.26937894152E+04  0.99994258607E+03 0.  0.
         25    2    3    3    0    0 -0.97127838662E+02  0.49658745653E+02  0.22119079707E+03  0.27506763096E+03  0.12180732667E+03 0.  0.
         35    2    3    3    0    0  0.97127838662E+02 -0.49658745653E+02  0.22801321006E+04  0.24187217843E+04  0.79957042571E+03 0.  0.
         22    1    5    5    0    0 -0.25442079424E+03 -0.28285834885E+03  0.95216043022E+03  0.10253527544E+04  0.00000000000E+00 0.  1.
         22    1    5    5    0    0  0.35154863290E+03  0.23319960320E+03  0.13279716703E+04  0.13933690299E+04  0.00000000000E+00 0.  1.
          5    1    4    4  502    0 -0.12310835242E+03  0.25680183674E+02  0.18874194863E+03  0.22684962297E+03  0.47000000000E+01 0. -1.
         -5    1    4    4    0  502  0.25980513753E+02  0.23978561979E+02  0.32448848437E+02  0.48218007988E+02  0.47000000000E+01 0. -1.
<mgrwt>
<rscale>  0 0.99994259E+03</rscale>
<asrwt>0</asrwt>
<pdfrwt beam="1">  1        2 0.39962397E+00 0.99994259E+03</pdfrwt>
<pdfrwt beam="2">  1       -2 0.14805119E-01 0.99994259E+03</pdfrwt>
<totfact> 0.12401652E+02</totfact>
</mgrwt>
</event>
<event>
 9    1  0.4370149E-036  0.9999551E+03  0.7818608E-02  0.8681081E-01
          1   -1    0    0  501    0  0.00000000000E+00  0.00000000000E+00  0.35976810598E+03  0.35976810598E+03  0.00000000000E+00 0. -1.
         -1   -1    0    0    0  501 -0.00000000000E+00 -0.00000000000E+00 -0.69482963167E+03  0.69482963167E+03  0.00000000000E+00 0. -1.
         36    2    1    2    0    0 -0.14210854715E-13  0.00000000000E+00 -0.33506152569E+03  0.10545977377E+04  0.99995508013E+03 0.  0.
         25    2    3    3    0    0 -0.66318545823E+02  0.11414790534E+03 -0.15049034634E+02  0.18198625908E+03  0.12435687048E+03 0.  0.
         35    2    3    3    0    0  0.66318545823E+02 -0.11414790534E+03 -0.32001249105E+03  0.87261147858E+03  0.80100867929E+03 0.  0.
         22    1    5    5    0    0  0.24453046979E+03  0.28344680116E+03 -0.11932372688E+03  0.39290633940E+03  0.00000000000E+00 0.  1.
         22    1    5    5    0    0 -0.17821192397E+03 -0.39759470650E+03 -0.20068876417E+03  0.47970513917E+03  0.00000000000E+00 0.  1.
          5    1    4    4  502    0 -0.14104439259E+02  0.86450378051E+02  0.44147311571E+02  0.98202231089E+02  0.47000000000E+01 0. -1.
         -5    1    4    4    0  502 -0.52214106564E+02  0.27697527290E+02 -0.59196346204E+02  0.83784027990E+02  0.47000000000E+01 0. -1.
<mgrwt>
<rscale>  0 0.99995508E+03</rscale>
<asrwt>0</asrwt>
<pdfrwt beam="1">  1        1 0.55348940E-01 0.99995508E+03</pdfrwt>
<pdfrwt beam="2">  1       -1 0.10689687E+00 0.99995508E+03</pdfrwt>
<totfact> 0.67758923E+01</totfact>
</mgrwt>
</event>
<event>
 9    1  0.4370149E-036  0.9992728E+03  0.7818608E-02  0.8681731E-01
         -2   -1    0    0    0  501 -0.00000000000E+00  0.00000000000E+00  0.77879556720E+03  0.77879556720E+03  0.00000000000E+00 0.  1.
          2   -1    0    0  501    0  0.00000000000E+00 -0.00000000000E+00 -0.32054182150E+03  0.32054182150E+03  0.00000000000E+00 0.  1.
         36    2    1    2    0    0  0.00000000000E+00  0.35527136788E-14  0.45825374570E+03  0.10993373887E+04  0.99927283498E+03 0.  0.
         25    2    3    3    0    0 -0.13305966443E+03 -0.13537900544E+02  0.13257113432E+03  0.22454221654E+03  0.12229453098E+03 0.  0.
         35    2    3    3    0    0  0.13305966443E+03  0.13537900544E+02  0.32568261139E+03  0.87479517215E+03  0.80081788242E+03 0.  0.
         22    1    5    5    0    0  0.46733878691E+03  0.51572208936E+02  0.14028450048E+03  0.49065769693E+03  0.00000000000E+00 0. -1.
         22    1    5    5    0    0 -0.33427912248E+03 -0.38034308392E+02  0.18539811090E+03  0.38413747522E+03  0.00000000000E+00 0. -1.
          5    1    4    4  502    0 -0.13193912051E+03 -0.33653201550E+02  0.14614259172E+03  0.19980044196E+03  0.47000000000E+01 0.  1.
         -5    1    4    4    0  502 -0.11205439173E+01  0.20115301006E+02 -0.13571457402E+02  0.24741774578E+02  0.47000000000E+01 0.  1.
<mgrwt>
<rscale>  0 0.99927283E+03</rscale>
<asrwt>0</asrwt>
<pdfrwt beam="1">  1        2 0.49314127E-01 0.99927283E+03</pdfrwt>
<pdfrwt beam="2">  1       -2 0.11981470E+00 0.99927283E+03</pdfrwt>
<totfact> 0.63390044E+01</totfact>
</mgrwt>
</event>
<event>
 9    1  0.4370149E-036  0.1000663E+04  0.7818608E-02  0.8680407E-01
         -4   -1    0    0    0  501 -0.00000000000E+00  0.00000000000E+00  0.70477342370E+03  0.70477342370E+03  0.00000000000E+00 0. -1.
          4   -1    0    0  501    0  0.00000000000E+00 -0.00000000000E+00 -0.35519450657E+03  0.35519450657E+03  0.00000000000E+00 0. -1.
         36    2    1    2    0    0  0.28421709430E-13  0.00000000000E+00  0.34957891714E+03  0.10599679303E+04  0.10006630771E+04 0.  0.
         25    2    3    3    0    0 -0.71576664195E+02 -0.81565369092E+02 -0.29395429042E+02  0.16822725824E+03  0.12514068432E+03 0.  0.
         35    2    3    3    0    0  0.71576664195E+02  0.81565369092E+02  0.37897434618E+03  0.89174067203E+03  0.79987732985E+03 0.  0.
         22    1    5    5    0    0 -0.19028652988E+03 -0.28528604511E+03  0.24524958590E+03  0.42159749806E+03  0.00000000000E+00 0.  1.
         22    1    5    5    0    0  0.26186319407E+03  0.36685141421E+03  0.13372476028E+03  0.47014317397E+03  0.00000000000E+00 0.  1.
          5    1    4    4  502    0  0.22875171088E+02 -0.79992825854E+00  0.23447419538E+02  0.33102640688E+02  0.47000000000E+01 0. -1.
         -5    1    4    4    0  502 -0.94451835283E+02 -0.80765440834E+02 -0.52842848579E+02  0.13512461755E+03  0.47000000000E+01 0. -1.
<mgrwt>
<rscale>  0 0.10006631E+04</rscale>
<asrwt>0</asrwt>
<pdfrwt beam="1">  1        4 0.54645309E-01 0.10006631E+04</pdfrwt>
<pdfrwt beam="2">  1       -4 0.10842668E+00 0.10006631E+04</pdfrwt>
<totfact> 0.48104015E+00</totfact>
</mgrwt>
</event>
<event>
 9    1  0.4370149E-036  0.1000031E+04  0.7818608E-02  0.8681009E-01
         -2   -1    0    0    0  501 -0.00000000000E+00  0.00000000000E+00  0.36008241986E+03  0.36008241986E+03  0.00000000000E+00 0.  1.
          2   -1    0    0  501    0  0.00000000000E+00 -0.00000000000E+00 -0.69432839578E+03  0.69432839578E+03  0.00000000000E+00 0.  1.
         36    2    1    2    0    0 -0.21316282073E-13  0.00000000000E+00 -0.33424597592E+03  0.10544108156E+04  0.10000308974E+04 0.  0.
         25    2    3    3    0    0  0.12367954170E+02 -0.13183252602E+03 -0.11217485179E+03  0.21391846303E+03  0.12508049506E+03 0.  0.
         35    2    3    3    0    0 -0.12367954170E+02  0.13183252602E+03 -0.22207112412E+03  0.84049235261E+03  0.79973685011E+03 0.  0.
         22    1    5    5    0    0  0.27252212174E+03  0.26465253160E+03  0.97549762949E+02  0.39220559095E+03  0.00000000000E+00 0. -1.
         22    1    5    5    0    0 -0.28489007591E+03 -0.13282000558E+03 -0.31962088707E+03  0.44828676167E+03  0.00000000000E+00 0. -1.
          5    1    4    4  502    0 -0.19672227541E+02 -0.54261353794E+02  0.16506253692E+02  0.60214927243E+02  0.47000000000E+01 0. -1.
         -5    1    4    4    0  502  0.32040181711E+02 -0.77571172223E+02 -0.12868110549E+03  0.15370353579E+03  0.47000000000E+01 0. -1.
<mgrwt>
<rscale>  0 0.10000309E+04</rscale>
<asrwt>0</asrwt>
<pdfrwt beam="1">  1        2 0.10681975E+00 0.10000309E+04</pdfrwt>
<pdfrwt beam="2">  1       -2 0.55397296E-01 0.10000309E+04</pdfrwt>
<totfact> 0.15343984E+02</totfact>
</mgrwt>
</event>
<event>
 9    1  0.4370149E-036  0.1000849E+04  0.7818608E-02  0.8680230E-01
         -2   -1    0    0    0  501 -0.00000000000E+00  0.00000000000E+00  0.23980464652E+03  0.23980464652E+03  0.00000000000E+00 0.  1.
          2   -1    0    0  501    0  0.00000000000E+00 -0.00000000000E+00 -0.10442863116E+04  0.10442863116E+04  0.00000000000E+00 0.  1.
         36    2    1    2    0    0  0.24868995752E-13  0.00000000000E+00 -0.80448166511E+03  0.12840909582E+04  0.10008490592E+04 0.  0.
         25    2    3    3    0    0  0.28383518891E+02 -0.12630812944E+03 -0.83722088796E+02  0.19866091726E+03  0.12528928202E+03 0.  0.
         35    2    3    3    0    0 -0.28383518891E+02  0.12630812944E+03 -0.72075957632E+03  0.10854300409E+04  0.80118951511E+03 0.  0.
         22    1    5    5    0    0  0.32593393554E+03  0.26507028106E+02 -0.62451688000E+03  0.70495169074E+03  0.00000000000E+00 0. -1.
         22    1    5    5    0    0 -0.35431745443E+03  0.99801101330E+02 -0.96242696316E+02  0.38047835015E+03  0.00000000000E+00 0. -1.
          5    1    4    4  502    0  0.28364089996E+02 -0.14903353374E+03 -0.54330551022E+02  0.16121232756E+03  0.47000000000E+01 0. -1.
         -5    1    4    4    0  502  0.19428894841E-01  0.22725404308E+02 -0.29391537774E+02  0.37448589709E+02  0.47000000000E+01 0. -1.
<mgrwt>
<rscale>  0 0.10008491E+04</rscale>
<asrwt>0</asrwt>
<pdfrwt beam="1">  1        2 0.16065943E+00 0.10008491E+04</pdfrwt>
<pdfrwt beam="2">  1       -2 0.36893023E-01 0.10008491E+04</pdfrwt>
<totfact> 0.19738046E+02</totfact>
</mgrwt>
</event>
<event>
 9    1  0.4370149E-036  0.1000005E+04  0.7818608E-02  0.8681033E-01
         -2   -1    0    0    0  501 -0.00000000000E+00  0.00000000000E+00  0.35795317446E+03  0.35795317446E+03  0.00000000000E+00 0.  1.
          2   -1    0    0  501    0  0.00000000000E+00 -0.00000000000E+00 -0.69842295806E+03  0.69842295806E+03  0.00000000000E+00 0.  1.
         36    2    1    2    0    0 -0.71054273576E-14  0.28421709430E-13 -0.34046978360E+03  0.10563761325E+04  0.10000054299E+04 0.  0.
         25    2    3    3    0    0 -0.21597881610E+02  0.10497379528E+03 -0.15802157373E+03  0.22855805438E+03  0.12562643143E+03 0.  0.
         35    2    3    3    0    0  0.21597881610E+02 -0.10497379528E+03 -0.18244820987E+03  0.82781807815E+03  0.80031834606E+03 0.  0.
         22    1    5    5    0    0 -0.28252409017E+03  0.17732781196E+03  0.71753191302E+02  0.34119427733E+03  0.00000000000E+00 0. -1.
         22    1    5    5    0    0  0.30412197178E+03 -0.28230160724E+03 -0.25420140117E+03  0.48662380082E+03  0.00000000000E+00 0. -1.
          5    1    4    4  502    0 -0.42799154713E+02  0.12468902688E+03 -0.10762560325E+03  0.17024829380E+03  0.47000000000E+01 0.  1.
         -5    1    4    4    0  502  0.21201273103E+02 -0.19715231597E+02 -0.50395970483E+02  0.58309760581E+02  0.47000000000E+01 0.  1.
<mgrwt>
<rscale>  0 0.10000054E+04</rscale>
<asrwt>0</asrwt>
<pdfrwt beam="1">  1        2 0.10744968E+00 0.10000054E+04</pdfrwt>
<pdfrwt beam="2">  1       -2 0.55069720E-01 0.10000054E+04</pdfrwt>
<totfact> 0.15419806E+02</totfact>
</mgrwt>
</event>
<event>
 9    1  0.4370149E-036  0.9990422E+03  0.7818608E-02  0.8681951E-01
          1   -1    0    0  501    0  0.00000000000E+00  0.00000000000E+00  0.15076020869E+04  0.15076020869E+04  0.00000000000E+00 0. -1.
         -1   -1    0    0    0  501 -0.00000000000E+00 -0.00000000000E+00 -0.16550873370E+03  0.16550873370E+03  0.00000000000E+00 0. -1.
         36    2    1    2    0    0 -0.56843418861E-13  0.14210854715E-13  0.13420933532E+04  0.16731108206E+04  0.99904216593E+03 0.  0.
         25    2    3    3    0    0  0.90970569255E+02 -0.97005816121E+02  0.17974884586E+03  0.25586074221E+03  0.12437563663E+03 0.  0.
         35    2    3    3    0    0 -0.90970569255E+02  0.97005816121E+02  0.11623445074E+04  0.14172500784E+04  0.79991703202E+03 0.  0.
         22    1    5    5    0    0  0.32149121243E+03  0.20617775803E+03  0.60253417375E+03  0.71338159362E+03  0.00000000000E+00 0.  1.
         22    1    5    5    0    0 -0.41246178169E+03 -0.10917194191E+03  0.55981033361E+03  0.70386848479E+03  0.00000000000E+00 0.  1.
          5    1    4    4  502    0  0.34290288175E+02 -0.74232857458E+02  0.17642013734E+03  0.19450577330E+03  0.47000000000E+01 0.  1.
         -5    1    4    4    0  502  0.56680281080E+02 -0.22772958663E+02  0.33287085188E+01  0.61354968910E+02  0.47000000000E+01 0.  1.
<mgrwt>
<rscale>  0 0.99904217E+03</rscale>
<asrwt>0</asrwt>
<pdfrwt beam="1">  1        1 0.23193877E+00 0.99904217E+03</pdfrwt>
<pdfrwt beam="2">  1       -1 0.25462883E-01 0.99904217E+03</pdfrwt>
<totfact> 0.94650884E+01</totfact>
</mgrwt>
</event>
<event>
 9    1  0.4370149E-036  0.1000835E+04  0.7818608E-02  0.8680243E-01
         -2   -1    0    0    0  501 -0.00000000000E+00  0.00000000000E+00  0.32776890216E+03  0.32776890216E+03  0.00000000000E+00 0. -1.
          2   -1    0    0  501    0  0.00000000000E+00 -0.00000000000E+00 -0.76400749860E+03  0.76400749860E+03  0.00000000000E+00 0. -1.
         36    2    1    2    0    0  0.00000000000E+00  0.00000000000E+00 -0.43623859645E+03  0.10917764008E+04  0.10008354491E+04 0.  0.
         25    2    3    3    0    0  0.12564257616E+02  0.34443331550E+02  0.60503172124E+02  0.14803696154E+03  0.13003885760E+03 0.  0.
         35    2    3    3    0    0 -0.12564257616E+02 -0.34443331550E+02 -0.49674176857E+03  0.94373943922E+03  0.80159063171E+03 0.  0.
         22    1    5    5    0    0 -0.13541944441E+03  0.21106216618E+03 -0.60010707150E+03  0.65039538834E+03  0.00000000000E+00 0. -1.
         22    1    5    5    0    0  0.12285518680E+03 -0.24550549773E+03  0.10336530293E+03  0.29334405088E+03  0.00000000000E+00 0. -1.
          5    1    4    4  502    0  0.50892422051E+02  0.55388027562E+02  0.70260827082E+02  0.10303662476E+03  0.47000000000E+01 0. -1.
         -5    1    4    4    0  502 -0.38328164435E+02 -0.20944696012E+02 -0.97576549580E+01  0.45000336780E+02  0.47000000000E+01 0. -1.
<mgrwt>
<rscale>  0 0.10008354E+04</rscale>
<asrwt>0</asrwt>
<pdfrwt beam="1">  1        2 0.11753961E+00 0.10008354E+04</pdfrwt>
<pdfrwt beam="2">  1       -2 0.50425985E-01 0.10008354E+04</pdfrwt>
<totfact> 0.16479566E+02</totfact>
</mgrwt>
</event>
<event>
 9    1  0.4370149E-036  0.9998578E+03  0.7818608E-02  0.8681173E-01
         -2   -1    0    0    0  501 -0.00000000000E+00  0.00000000000E+00  0.34588640657E+03  0.34588640657E+03  0.00000000000E+00 0. -1.
          2   -1    0    0  501    0  0.00000000000E+00 -0.00000000000E+00 -0.72257506723E+03  0.72257506723E+03  0.00000000000E+00 0. -1.
         36    2    1    2    0    0  0.14210854715E-13  0.00000000000E+00 -0.37668866066E+03  0.10684614738E+04  0.99985777684E+03 0.  0.
         25    2    3    3    0    0  0.46775906207E+02 -0.70101376532E+01 -0.20991461125E+03  0.24910995554E+03  0.12551692517E+03 0.  0.
         35    2    3    3    0    0 -0.46775906207E+02  0.70101376532E+01 -0.16677404942E+03  0.81935151825E+03  0.80080347119E+03 0.  0.
         22    1    5    5    0    0 -0.13812384004E+03 -0.53046572231E+02  0.30290866388E+03  0.33711391645E+03  0.00000000000E+00 0. -1.
         22    1    5    5    0    0  0.91347933829E+02  0.60056709884E+02 -0.46968271330E+03  0.48223760180E+03  0.00000000000E+00 0. -1.
          5    1    4    4  502    0  0.67741524139E+02 -0.14962388414E+00 -0.21544022173E+03  0.22588828128E+03  0.47000000000E+01 0. -1.
         -5    1    4    4    0  502 -0.20965617931E+02 -0.68605137690E+01  0.55256104851E+01  0.23221674264E+02  0.47000000000E+01 0. -1.
<mgrwt>
<rscale>  0 0.99985778E+03</rscale>
<asrwt>0</asrwt>
<pdfrwt beam="1">  1        2 0.11116539E+00 0.99985778E+03</pdfrwt>
<pdfrwt beam="2">  1       -2 0.53213294E-01 0.99985778E+03</pdfrwt>
<totfact> 0.15856209E+02</totfact>
</mgrwt>
</event>
<event>
 9    1  0.4370149E-036  0.9997339E+03  0.7818608E-02  0.8681291E-01
         -1   -1    0    0    0  501 -0.00000000000E+00  0.00000000000E+00  0.18597803243E+03  0.18597803243E+03  0.00000000000E+00 0. -1.
          1   -1    0    0  501    0  0.00000000000E+00 -0.00000000000E+00 -0.13435294886E+04  0.13435294886E+04  0.00000000000E+00 0. -1.
         36    2    1    2    0    0 -0.28421709430E-13 -0.71054273576E-14 -0.11575514561E+04  0.15295075210E+04  0.99973390617E+03 0.  0.
         25    2    3    3    0    0 -0.11469789605E+03  0.45692268986E+02 -0.32095537009E+03  0.36580984639E+03  0.12474415145E+03 0.  0.
         35    2    3    3    0    0  0.11469789605E+03 -0.45692268986E+02 -0.83659608603E+03  0.11636976746E+04  0.79940970464E+03 0.  0.
         22    1    5    5    0    0  0.22549612031E+01  0.10236580546E+03 -0.94363276334E+03  0.94917155195E+03  0.00000000000E+00 0.  1.
         22    1    5    5    0    0  0.11244293484E+03 -0.14805807445E+03  0.10703667731E+03  0.21452612264E+03  0.00000000000E+00 0.  1.
          5    1    4    4  502    0 -0.13757407826E+03  0.51300060328E+02 -0.24022116177E+03  0.28157879849E+03  0.47000000000E+01 0.  1.
         -5    1    4    4    0  502  0.22876182212E+02 -0.56077913421E+01 -0.80734208321E+02  0.84231047895E+02  0.47000000000E+01 0.  1.
<mgrwt>
<rscale>  0 0.99973391E+03</rscale>
<asrwt>0</asrwt>
<pdfrwt beam="1">  1        1 0.20669684E+00 0.99973391E+03</pdfrwt>
<pdfrwt beam="2">  1       -1 0.28612006E-01 0.99973391E+03</pdfrwt>
<totfact> 0.10188954E+02</totfact>
</mgrwt>
</event>
<event>
 9    1  0.4370149E-036  0.9985815E+03  0.7818608E-02  0.8682390E-01
         -4   -1    0    0    0  501 -0.00000000000E+00  0.00000000000E+00  0.35774517399E+03  0.35774517399E+03  0.00000000000E+00 0.  1.
          4   -1    0    0  501    0  0.00000000000E+00 -0.00000000000E+00 -0.69684035472E+03  0.69684035472E+03  0.00000000000E+00 0.  1.
         36    2    1    2    0    0  0.00000000000E+00  0.00000000000E+00 -0.33909518073E+03  0.10545855287E+04  0.99858154188E+03 0.  0.
         25    2    3    3    0    0  0.14418138750E+01 -0.13695956144E+03 -0.40872089255E+02  0.18957629968E+03  0.12453371200E+03 0.  0.
         35    2    3    3    0    0 -0.14418138750E+01  0.13695956144E+03 -0.29822309147E+03  0.86500922903E+03  0.80033989887E+03 0.  0.
         22    1    5    5    0    0 -0.55614361884E+02  0.22083630816E+03 -0.54939187183E+03  0.59472099432E+03  0.00000000000E+00 0. -1.
         22    1    5    5    0    0  0.54172548009E+02 -0.83876746718E+02  0.25116878036E+03  0.27028823471E+03  0.00000000000E+00 0. -1.
          5    1    4    4  502    0  0.18238617406E+02 -0.13039094078E+03  0.13179340522E+02  0.13240177347E+03  0.47000000000E+01 0.  1.
         -5    1    4    4    0  502 -0.16796803531E+02 -0.65686206605E+01 -0.54051429777E+02  0.57174526209E+02  0.47000000000E+01 0.  1.
<mgrwt>
<rscale>  0 0.99858154E+03</rscale>
<asrwt>0</asrwt>
<pdfrwt beam="1">  1        4 0.10720621E+00 0.99858154E+03</pdfrwt>
<pdfrwt beam="2">  1       -4 0.55037720E-01 0.99858154E+03</pdfrwt>
<totfact> 0.48699294E+00</totfact>
</mgrwt>
</event>
<event>
 9    1  0.4370149E-036  0.1000620E+04  0.7818608E-02  0.8680448E-01
          2   -1    0    0  501    0  0.00000000000E+00  0.00000000000E+00  0.11880926525E+04  0.11880926525E+04  0.00000000000E+00 0.  1.
         -2   -1    0    0    0  501 -0.00000000000E+00 -0.00000000000E+00 -0.21068216769E+03  0.21068216769E+03  0.00000000000E+00 0.  1.
         36    2    1    2    0    0  0.00000000000E+00 -0.42632564146E-13  0.97741048480E+03  0.13987748202E+04  0.10006196789E+04 0.  0.
         25    2    3    3    0    0 -0.15588612755E+02  0.49487788002E+02  0.19468377989E+01  0.13583623022E+03  0.12552149319E+03 0.  0.
         35    2    3    3    0    0  0.15588612755E+02 -0.49487788002E+02  0.97546364700E+03  0.12629385900E+04  0.80049516513E+03 0.  0.
         22    1    5    5    0    0  0.85696200761E+02 -0.41420225493E+03  0.60650332002E+03  0.73942790319E+03  0.00000000000E+00 0.  1.
         22    1    5    5    0    0 -0.70107588006E+02  0.36471446693E+03  0.36896032699E+03  0.52351068678E+03  0.00000000000E+00 0.  1.
          5    1    4    4  502    0 -0.18928118389E+01  0.70412377016E+02 -0.44092371273E+02  0.83232882794E+02  0.47000000000E+01 0. -1.
         -5    1    4    4    0  502 -0.13695800916E+02 -0.20924589014E+02  0.46039209071E+02  0.52603347422E+02  0.47000000000E+01 0. -1.
<mgrwt>
<rscale>  0 0.10006197E+04</rscale>
<asrwt>0</asrwt>
<pdfrwt beam="1">  1        2 0.18278348E+00 0.10006197E+04</pdfrwt>
<pdfrwt beam="2">  1       -2 0.32412642E-01 0.10006197E+04</pdfrwt>
<totfact> 0.20566829E+02</totfact>
</mgrwt>
</event>
<event>
 9    1  0.4370149E-036  0.1000023E+04  0.7818608E-02  0.8681017E-01
          2   -1    0    0  501    0  0.00000000000E+00  0.00000000000E+00  0.11989186425E+04  0.11989186425E+04  0.00000000000E+00 0. -1.
         -2   -1    0    0    0  501 -0.00000000000E+00 -0.00000000000E+00 -0.20853062929E+03  0.20853062929E+03  0.00000000000E+00 0. -1.
         36    2    1    2    0    0  0.00000000000E+00 -0.14210854715E-13  0.99038801324E+03  0.14074492718E+04  0.10000225177E+04 0.  0.
         25    2    3    3    0    0 -0.94638973930E+02 -0.10380751498E+03  0.21441249391E+03  0.28509758010E+03  0.12480135049E+03 0.  0.
         35    2    3    3    0    0  0.94638973930E+02  0.10380751498E+03  0.77597551933E+03  0.11223516917E+04  0.79862555540E+03 0.  0.
         22    1    5    5    0    0 -0.29881024755E+02  0.26056787583E+03 -0.54677309080E+02  0.26791435513E+03  0.00000000000E+00 0.  1.
         22    1    5    5    0    0  0.12451999868E+03 -0.15676036085E+03  0.83065282841E+03  0.85443733658E+03  0.00000000000E+00 0.  1.
          5    1    4    4  502    0 -0.70242342078E+02 -0.12943922695E+03  0.19517091187E+03  0.24454503661E+03  0.47000000000E+01 0.  1.
         -5    1    4    4    0  502 -0.24396631852E+02  0.25631711968E+02  0.19241582040E+02  0.40552543490E+02  0.47000000000E+01 0.  1.
<mgrwt>
<rscale>  0 0.10000225E+04</rscale>
<asrwt>0</asrwt>
<pdfrwt beam="1">  1        2 0.18444902E+00 0.10000225E+04</pdfrwt>
<pdfrwt beam="2">  1       -2 0.32081636E-01 0.10000225E+04</pdfrwt>
<totfact> 0.20652307E+02</totfact>
</mgrwt>
</event>
<event>
 9    1  0.4370149E-036  0.1000273E+04  0.7818608E-02  0.8680778E-01
          1   -1    0    0  501    0  0.00000000000E+00  0.00000000000E+00  0.43955918260E+04  0.43955918260E+04  0.00000000000E+00 0.  1.
         -1   -1    0    0    0  501 -0.00000000000E+00 -0.00000000000E+00 -0.56906245418E+02  0.56906245418E+02  0.00000000000E+00 0.  1.
         36    2    1    2    0    0  0.00000000000E+00  0.00000000000E+00  0.43386855805E+04  0.44524980714E+04  0.10002732171E+04 0.  0.
         25    2    3    3    0    0  0.97542379730E+02 -0.86467788207E+02  0.60078304960E+03  0.62710148198E+03  0.12379338344E+03 0.  0.
         35    2    3    3    0    0 -0.97542379730E+02  0.86467788207E+02  0.37379025309E+04  0.38253965894E+04  0.80296484422E+03 0.  0.
         22    1    5    5    0    0 -0.92903120063E+02  0.43742779437E+03  0.17191583957E+04  0.17763669820E+04  0.00000000000E+00 0. -1.
         22    1    5    5    0    0 -0.46392596668E+01 -0.35096000616E+03  0.20187441352E+04  0.20490296074E+04  0.00000000000E+00 0. -1.
          5    1    4    4  502    0  0.86775305322E+02 -0.70503579365E+02  0.22989727374E+03  0.25568643841E+03  0.47000000000E+01 0. -1.
         -5    1    4    4    0  502  0.10767074408E+02 -0.15964208842E+02  0.37088577586E+03  0.37141504357E+03  0.47000000000E+01 0. -1.
<mgrwt>
<rscale>  0 0.10002732E+04</rscale>
<asrwt>0</asrwt>
<pdfrwt beam="1">  1        1 0.67624463E+00 0.10002732E+04</pdfrwt>
<pdfrwt beam="2">  1       -1 0.87548105E-02 0.10002732E+04</pdfrwt>
<totfact> 0.41693447E+00</totfact>
</mgrwt>
</event>
<event>
 9    1  0.4370149E-036  0.9999019E+03  0.7818608E-02  0.8681131E-01
          2   -1    0    0  501    0  0.00000000000E+00  0.00000000000E+00  0.45525364748E+03  0.45525364748E+03  0.00000000000E+00 0. -1.
         -2   -1    0    0    0  501 -0.00000000000E+00 -0.00000000000E+00 -0.54903669841E+03  0.54903669841E+03  0.00000000000E+00 0. -1.
         36    2    1    2    0    0  0.00000000000E+00 -0.21316282073E-13 -0.93783050933E+02  0.10042903459E+04  0.99990191429E+03 0.  0.
         25    2    3    3    0    0 -0.85615915080E+02  0.66147941905E+01  0.94450645965E+02  0.17808206257E+03  0.12417107581E+03 0.  0.
         35    2    3    3    0    0  0.85615915080E+02 -0.66147941905E+01 -0.18823369690E+03  0.82620828332E+03  0.79988396806E+03 0.  0.
         22    1    5    5    0    0  0.36139378074E+03 -0.24621075036E+03 -0.13052304369E+03  0.45635672810E+03  0.00000000000E+00 0. -1.
         22    1    5    5    0    0 -0.27577786566E+03  0.23959595617E+03 -0.57710653207E+02  0.36985155521E+03  0.00000000000E+00 0. -1.
          5    1    4    4  502    0 -0.80781101889E+02 -0.41339761946E+02  0.92428498743E+02  0.12961357846E+03  0.47000000000E+01 0.  1.
         -5    1    4    4    0  502 -0.48348131910E+01  0.47954556136E+02  0.20221472225E+01  0.48468484113E+02  0.47000000000E+01 0.  1.
<mgrwt>
<rscale>  0 0.99990191E+03</rscale>
<asrwt>0</asrwt>
<pdfrwt beam="1">  1        2 0.70039023E-01 0.99990191E+03</pdfrwt>
<pdfrwt beam="2">  1       -2 0.84467184E-01 0.99990191E+03</pdfrwt>
<totfact> 0.10065248E+02</totfact>
</mgrwt>
</event>
<event>
 9    1  0.4370149E-036  0.1001075E+04  0.7818608E-02  0.8680015E-01
         -2   -1    0    0    0  501 -0.00000000000E+00  0.00000000000E+00  0.18524404139E+03  0.18524404139E+03  0.00000000000E+00 0.  1.
          2   -1    0    0  501    0  0.00000000000E+00 -0.00000000000E+00 -0.13524741519E+04  0.13524741519E+04  0.00000000000E+00 0.  1.
         36    2    1    2    0    0 -0.28421709430E-13  0.28421709430E-13 -0.11672301105E+04  0.15377181933E+04  0.10010749778E+04 0.  0.
         25    2    3    3    0    0 -0.91731976042E+01 -0.97803814216E+02 -0.39007473040E+03  0.41823336181E+03  0.11450378161E+03 0.  0.
         35    2    3    3    0    0  0.91731976042E+01  0.97803814216E+02 -0.77715538006E+03  0.11194848314E+04  0.79976625925E+03 0.  0.
         22    1    5    5    0    0 -0.28312431518E+03 -0.23092217044E+03 -0.37299632421E+03  0.52212133123E+03  0.00000000000E+00 0. -1.
         22    1    5    5    0    0  0.29229751278E+03  0.32872598465E+03 -0.40415905585E+03  0.59736350022E+03  0.00000000000E+00 0. -1.
          5    1    4    4  502    0 -0.42589194505E+02  0.18225535640E+01 -0.15247554247E+03  0.15839205233E+03  0.47000000000E+01 0. -1.
         -5    1    4    4    0  502  0.33415996901E+02 -0.99626367780E+02 -0.23759918794E+03  0.25984130948E+03  0.47000000000E+01 0. -1.
<mgrwt>
<rscale>  0 0.10010750E+04</rscale>
<asrwt>0</asrwt>
<pdfrwt beam="1">  1        2 0.20807294E+00 0.10010750E+04</pdfrwt>
<pdfrwt beam="2">  1       -2 0.28499084E-01 0.10010750E+04</pdfrwt>
<totfact> 0.20861281E+02</totfact>
</mgrwt>
</event>
<event>
 9    1  0.4370149E-036  0.9998274E+03  0.7818608E-02  0.8681202E-01
          2   -1    0    0  501    0  0.00000000000E+00  0.00000000000E+00  0.42517363643E+03  0.42517363643E+03  0.00000000000E+00 0.  1.
         -2   -1    0    0    0  501 -0.00000000000E+00 -0.00000000000E+00 -0.58779214678E+03  0.58779214678E+03  0.00000000000E+00 0.  1.
         36    2    1    2    0    0  0.71054273576E-14 -0.14210854715E-13 -0.16261851035E+03  0.10129657832E+04  0.99982743414E+03 0.  0.
         25    2    3    3    0    0  0.54852375405E+02  0.10134773778E+03 -0.10181847914E+03  0.19777232859E+03  0.12436536584E+03 0.  0.
         35    2    3    3    0    0 -0.54852375405E+02 -0.10134773778E+03 -0.60800031203E+02  0.81519345462E+03  0.80471335121E+03 0.  0.
         22    1    5    5    0    0 -0.18442889896E+03  0.15544036729E+02  0.33494513885E+03  0.38267986868E+03  0.00000000000E+00 0.  1.
         22    1    5    5    0    0  0.12957652356E+03 -0.11689177451E+03 -0.39574517005E+03  0.43251358594E+03  0.00000000000E+00 0.  1.
          5    1    4    4  502    0  0.61067281407E+02  0.17821230202E+01 -0.99533035277E+01  0.62076944770E+02  0.47000000000E+01 0. -1.
         -5    1    4    4    0  502 -0.62149060019E+01  0.99565614763E+02 -0.91865175616E+02  0.13569538382E+03  0.47000000000E+01 0. -1.
<mgrwt>
<rscale>  0 0.99982743E+03</rscale>
<asrwt>0</asrwt>
<pdfrwt beam="1">  1        2 0.65411329E-01 0.99982743E+03</pdfrwt>
<pdfrwt beam="2">  1       -2 0.90429560E-01 0.99982743E+03</pdfrwt>
<totfact> 0.92675763E+01</totfact>
</mgrwt>
</event>
<event>
 9    1  0.4370149E-036  0.1000326E+04  0.7818608E-02  0.8680727E-01
          2   -1    0    0  501    0  0.00000000000E+00  0.00000000000E+00  0.18570427553E+04  0.18570427553E+04  0.00000000000E+00 0. -1.
         -2   -1    0    0    0  501 -0.00000000000E+00 -0.00000000000E+00 -0.13471055288E+03  0.13471055288E+03  0.00000000000E+00 0. -1.
         36    2    1    2    0    0  0.17763568394E-13  0.00000000000E+00  0.17223322024E+04  0.19917533082E+04  0.10003264593E+04 0.  0.
         25    2    3    3    0    0 -0.21335058077E+02  0.83217649997E+02  0.53575632576E+03  0.55652671375E+03  0.12372057446E+03 0.  0.
         35    2    3    3    0    0  0.21335058077E+02 -0.83217649997E+02  0.11865758767E+04  0.14352265945E+04  0.80282794194E+03 0.  0.
         22    1    5    5    0    0 -0.24510894739E+03  0.15575776181E+03  0.97967790546E+03  0.10218158713E+04  0.00000000000E+00 0.  1.
         22    1    5    5    0    0  0.26644400547E+03 -0.23897541181E+03  0.20689797121E+03  0.41341072312E+03  0.00000000000E+00 0.  1.
          5    1    4    4  502    0  0.10363525468E+02 -0.27324937438E+02  0.58169907443E+02  0.65267779172E+02  0.47000000000E+01 0.  1.
         -5    1    4    4    0  502 -0.31698583545E+02  0.11054258744E+03  0.47758641832E+03  0.49125893457E+03  0.47000000000E+01 0.  1.
<mgrwt>
<rscale>  0 0.10003265E+04</rscale>
<asrwt>0</asrwt>
<pdfrwt beam="1">  1        2 0.28569887E+00 0.10003265E+04</pdfrwt>
<pdfrwt beam="2">  1       -2 0.20724702E-01 0.10003265E+04</pdfrwt>
<totfact> 0.18996277E+02</totfact>
</mgrwt>
</event>
<event>
 9    1  0.4370149E-036  0.1000038E+04  0.7818608E-02  0.8681002E-01
          2   -1    0    0  501    0  0.00000000000E+00  0.00000000000E+00  0.62612005456E+03  0.62612005456E+03  0.00000000000E+00 0. -1.
         -2   -1    0    0    0  501 -0.00000000000E+00 -0.00000000000E+00 -0.39931444275E+03  0.39931444275E+03  0.00000000000E+00 0. -1.
         36    2    1    2    0    0  0.17763568394E-14  0.00000000000E+00  0.22680561181E+03  0.10254344973E+04  0.10000375607E+04 0.  0.
         25    2    3    3    0    0  0.96209650195E+01  0.61668517942E+02  0.16728338950E+03  0.22131514919E+03  0.13077115042E+03 0.  0.
         35    2    3    3    0    0 -0.96209650195E+01 -0.61668517942E+02  0.59522222306E+02  0.80411934813E+03  0.79948074524E+03 0.  0.
         22    1    5    5    0    0  0.60837841342E+02  0.21265404562E+03  0.33993584380E+03  0.40556055523E+03  0.00000000000E+00 0. -1.
         22    1    5    5    0    0 -0.70458806361E+02 -0.27432256356E+03 -0.28041362149E+03  0.39855879289E+03  0.00000000000E+00 0. -1.
          5    1    4    4  502    0  0.16763009525E+02 -0.39596828330E+02  0.48205060502E+02  0.64766697925E+02  0.47000000000E+01 0.  1.
         -5    1    4    4    0  502 -0.71420445052E+01  0.10126534627E+03  0.11907832900E+03  0.15654845126E+03  0.47000000000E+01 0.  1.
<mgrwt>
<rscale>  0 0.10000376E+04</rscale>
<asrwt>0</asrwt>
<pdfrwt beam="1">  1        2 0.96326162E-01 0.10000376E+04</pdfrwt>
<pdfrwt beam="2">  1       -2 0.61432991E-01 0.10000376E+04</pdfrwt>
<totfact> 0.14034292E+02</totfact>
</mgrwt>
</event>
<event>
 9    1  0.4370149E-036  0.9995757E+03  0.7818608E-02  0.8681442E-01
         -1   -1    0    0    0  501 -0.00000000000E+00  0.00000000000E+00  0.87655771615E+03  0.87655771615E+03  0.00000000000E+00 0.  1.
          1   -1    0    0  501    0  0.00000000000E+00 -0.00000000000E+00 -0.28496457645E+03  0.28496457645E+03  0.00000000000E+00 0.  1.
         36    2    1    2    0    0  0.00000000000E+00 -0.35527136788E-13  0.59159313970E+03  0.11615222926E+04  0.99957570663E+03 0.  0.
         25    2    3    3    0    0  0.12906973241E+03  0.50234855886E+01  0.48644320506E+02  0.18611843704E+03  0.12485820541E+03 0.  0.
         35    2    3    3    0    0 -0.12906973241E+03 -0.50234855886E+01  0.54294881919E+03  0.97540385557E+03  0.79995939270E+03 0.  0.
         22    1    5    5    0    0 -0.11782894559E+03  0.30771552099E+03 -0.21292300441E+02  0.33019064847E+03  0.00000000000E+00 0. -1.
         22    1    5    5    0    0 -0.11240786820E+02 -0.31273900658E+03  0.56424111964E+03  0.64521320710E+03  0.00000000000E+00 0. -1.
          5    1    4    4  502    0  0.14335308501E+03  0.33531448701E+02  0.42513362319E+02  0.15330995078E+03  0.47000000000E+01 0.  1.
         -5    1    4    4    0  502 -0.14283352599E+02 -0.28507963113E+02  0.61309581871E+01  0.32808486259E+02  0.47000000000E+01 0.  1.
<mgrwt>
<rscale>  0 0.99957571E+03</rscale>
<asrwt>0</asrwt>
<pdfrwt beam="1">  1        1 0.43840705E-01 0.99957571E+03</pdfrwt>
<pdfrwt beam="2">  1       -1 0.13485503E+00 0.99957571E+03</pdfrwt>
<totfact> 0.51694724E+01</totfact>
</mgrwt>
</event>
<event>
 9    1  0.4370149E-036  0.9998800E+03  0.7818608E-02  0.8681152E-01
          2   -1    0    0  501    0  0.00000000000E+00  0.00000000000E+00  0.44853992942E+03  0.44853992942E+03  0.00000000000E+00 0.  1.
         -2   -1    0    0    0  501 -0.00000000000E+00 -0.00000000000E+00 -0.55723019262E+03  0.55723019262E+03  0.00000000000E+00 0.  1.
         36    2    1    2    0    0  0.71054273576E-14  0.00000000000E+00 -0.10869026320E+03  0.10057701220E+04  0.99987997534E+03 0.  0.
         25    2    3    3    0    0 -0.41604550818E+02  0.13311629028E+03 -0.10374010738E+02  0.18756359600E+03  0.12498638749E+03 0.  0.
         35    2    3    3    0    0  0.41604550818E+02 -0.13311629028E+03 -0.98316252463E+02  0.81820652605E+03  0.80021556370E+03 0.  0.
         22    1    5    5    0    0 -0.49780985398E+02 -0.10421933314E+03  0.34542990446E+03  0.36422744927E+03  0.00000000000E+00 0.  1.
         22    1    5    5    0    0  0.91385536216E+02 -0.28896957144E+02 -0.44374615693E+03  0.45397907677E+03  0.00000000000E+00 0.  1.
          5    1    4    4  502    0 -0.26580739127E+02  0.11018635120E+03 -0.61735579739E+02  0.12915471145E+03  0.47000000000E+01 0.  1.
         -5    1    4    4    0  502 -0.15023811691E+02  0.22929939081E+02  0.51361569001E+02  0.58408884549E+02  0.47000000000E+01 0.  1.
<mgrwt>
<rscale>  0 0.99987998E+03</rscale>
<asrwt>0</asrwt>
<pdfrwt beam="1">  1        2 0.69006143E-01 0.99987998E+03</pdfrwt>
<pdfrwt beam="2">  1       -2 0.85727722E-01 0.99987998E+03</pdfrwt>
<totfact> 0.98875722E+01</totfact>
</mgrwt>
</event>
<event>
 9    1  0.4370149E-036  0.1000134E+04  0.7818608E-02  0.8680910E-01
         -1   -1    0    0    0  501 -0.00000000000E+00  0.00000000000E+00  0.24746146231E+03  0.24746146231E+03  0.00000000000E+00 0. -1.
          1   -1    0    0  501    0  0.00000000000E+00 -0.00000000000E+00 -0.10105290353E+04  0.10105290353E+04  0.00000000000E+00 0. -1.
         36    2    1    2    0    0  0.14210854715E-13  0.71054273576E-14 -0.76306757295E+03  0.12579904976E+04  0.10001339766E+04 0.  0.
         25    2    3    3    0    0 -0.11656085343E+03 -0.22930918403E+02 -0.51776751805E+02  0.18067168984E+03  0.12589347843E+03 0.  0.
         35    2    3    3    0    0  0.11656085343E+03  0.22930918403E+02 -0.71129082115E+03  0.10773188077E+04  0.80035549706E+03 0.  0.
         22    1    5    5    0    0  0.44360112576E+03 -0.15773308024E+01 -0.24356485248E+03  0.50607142194E+03  0.00000000000E+00 0.  1.
         22    1    5    5    0    0 -0.32704027233E+03  0.24508249205E+02 -0.46772596867E+03  0.57124738579E+03  0.00000000000E+00 0.  1.
          5    1    4    4  502    0 -0.29521962102E+02  0.35988181607E+02 -0.58900409662E+02  0.75219968892E+02  0.47000000000E+01 0.  1.
         -5    1    4    4    0  502 -0.87038891329E+02 -0.58919100010E+02  0.71236578567E+01  0.10545172095E+03  0.47000000000E+01 0.  1.
<mgrwt>
<rscale>  0 0.10001340E+04</rscale>
<asrwt>0</asrwt>
<pdfrwt beam="1">  1        1 0.15546601E+00 0.10001340E+04</pdfrwt>
<pdfrwt beam="2">  1       -1 0.38070993E-01 0.10001340E+04</pdfrwt>
<totfact> 0.11069087E+02</totfact>
</mgrwt>
</event>
<event>
 9    1  0.4370149E-036  0.1000076E+04  0.7818608E-02  0.8680966E-01
          2   -1    0    0  501    0  0.00000000000E+00  0.00000000000E+00  0.48624332336E+03  0.48624332336E+03  0.00000000000E+00 0.  1.
         -2   -1    0    0    0  501 -0.00000000000E+00 -0.00000000000E+00 -0.51422361140E+03  0.51422361140E+03  0.00000000000E+00 0.  1.
         36    2    1    2    0    0  0.00000000000E+00  0.28421709430E-13 -0.27980288036E+02  0.10004669348E+04  0.10000755927E+04 0.  0.
         25    2    3    3    0    0 -0.13789347700E+03  0.14419032619E+02 -0.75188963157E+00  0.18740250348E+03  0.12608177296E+03 0.  0.
         35    2    3    3    0    0  0.13789347700E+03 -0.14419032619E+02 -0.27228398405E+02  0.81306443129E+03  0.80069336468E+03 0.  0.
         22    1    5    5    0    0  0.14412699724E+02  0.34367407037E+03 -0.19873627456E+03  0.39726024138E+03  0.00000000000E+00 0. -1.
         22    1    5    5    0    0  0.12348077727E+03 -0.35809310298E+03  0.17150787615E+03  0.41580418991E+03  0.00000000000E+00 0. -1.
          5    1    4    4  502    0 -0.43213810425E+02 -0.54853344914E+02 -0.77892718526E+00  0.69992996702E+02  0.47000000000E+01 0.  1.
         -5    1    4    4    0  502 -0.94679666571E+02  0.69272377533E+02  0.27037553691E-01  0.11740950678E+03  0.47000000000E+01 0.  1.
<mgrwt>
<rscale>  0 0.10000756E+04</rscale>
<asrwt>0</asrwt>
<pdfrwt beam="1">  1        2 0.74806666E-01 0.10000756E+04</pdfrwt>
<pdfrwt beam="2">  1       -2 0.79111324E-01 0.10000756E+04</pdfrwt>
<totfact> 0.10869175E+02</totfact>
</mgrwt>
</event>
<event>
 9    1  0.4370149E-036  0.1000451E+04  0.7818608E-02  0.8680608E-01
          1   -1    0    0  501    0  0.00000000000E+00  0.00000000000E+00  0.55337023444E+03  0.55337023444E+03  0.00000000000E+00 0. -1.
         -1   -1    0    0    0  501 -0.00000000000E+00 -0.00000000000E+00 -0.45218511347E+03  0.45218511347E+03  0.00000000000E+00 0. -1.
         36    2    1    2    0    0  0.14210854715E-13  0.14210854715E-13  0.10118512097E+03  0.10055553479E+04  0.10004514626E+04 0.  0.
         25    2    3    3    0    0  0.12072315369E+03 -0.63423983031E+02  0.54539171846E+02  0.19275446761E+03  0.12483221562E+03 0.  0.
         35    2    3    3    0    0 -0.12072315369E+03  0.63423983031E+02  0.46645949128E+02  0.81280088029E+03  0.79992046165E+03 0.  0.
         22    1    5    5    0    0 -0.25682914487E+03  0.19262542554E+03  0.33804738184E+03  0.46619930994E+03  0.00000000000E+00 0.  1.
         22    1    5    5    0    0  0.13610599117E+03 -0.12920144251E+03 -0.29140143271E+03  0.34660157035E+03  0.00000000000E+00 0.  1.
          5    1    4    4  502    0  0.14556366250E+03 -0.43451330458E+02  0.51142174323E+02  0.16035713253E+03  0.47000000000E+01 0. -1.
         -5    1    4    4    0  502 -0.24840508803E+02 -0.19972652573E+02  0.33969975229E+01  0.32397335084E+02  0.47000000000E+01 0. -1.
<mgrwt>
<rscale>  0 0.10004515E+04</rscale>
<asrwt>0</asrwt>
<pdfrwt beam="1">  1        1 0.85133882E-01 0.10004515E+04</pdfrwt>
<pdfrwt beam="2">  1       -1 0.69566941E-01 0.10004515E+04</pdfrwt>
<totfact> 0.94151017E+01</totfact>
</mgrwt>
</event>
<event>
 9    1  0.4370149E-036  0.1001133E+04  0.7818608E-02  0.8679960E-01
          2   -1    0    0  501    0  0.00000000000E+00  0.00000000000E+00  0.11221128344E+04  0.11221128344E+04  0.00000000000E+00 0. -1.
         -2   -1    0    0    0  501 -0.00000000000E+00 -0.00000000000E+00 -0.22329922611E+03  0.22329922611E+03  0.00000000000E+00 0. -1.
         36    2    1    2    0    0 -0.71054273576E-14  0.00000000000E+00  0.89881360833E+03  0.13454120605E+04  0.10011332130E+04 0.  0.
         25    2    3    3    0    0  0.54717273261E+02 -0.11281656204E+03  0.85127444571E+02  0.19767790806E+03  0.12691854417E+03 0.  0.
         35    2    3    3    0    0 -0.54717273261E+02  0.11281656204E+03  0.81368616375E+03  0.11477341525E+04  0.79967928261E+03 0.  0.
         22    1    5    5    0    0 -0.41859709254E+03  0.85086819935E+02  0.55530099480E+03  0.70058724484E+03  0.00000000000E+00 0. -1.
         22    1    5    5    0    0  0.36387981928E+03  0.27729742101E+02  0.25838516896E+03  0.44714690764E+03  0.00000000000E+00 0. -1.
          5    1    4    4  502    0  0.20964369110E+02 -0.12086251592E+03  0.20897235709E+02  0.12452323875E+03  0.47000000000E+01 0.  1.
         -5    1    4    4    0  502  0.33752904151E+02  0.80459538879E+01  0.64230208862E+02  0.73154669318E+02  0.47000000000E+01 0.  1.
<mgrwt>
<rscale>  0 0.10011332E+04</rscale>
<asrwt>0</asrwt>
<pdfrwt beam="1">  1        2 0.17263274E+00 0.10011332E+04</pdfrwt>
<pdfrwt beam="2">  1       -2 0.34353728E-01 0.10011332E+04</pdfrwt>
<totfact> 0.20221403E+02</totfact>
</mgrwt>
</event>
<event>
 9    1  0.4370149E-036  0.1001597E+04  0.7818608E-02  0.8679518E-01
          2   -1    0    0  501    0  0.00000000000E+00  0.00000000000E+00  0.11078301216E+04  0.11078301216E+04  0.00000000000E+00 0.  1.
         -2   -1    0    0    0  501 -0.00000000000E+00 -0.00000000000E+00 -0.22638789607E+03  0.22638789607E+03  0.00000000000E+00 0.  1.
         36    2    1    2    0    0  0.00000000000E+00 -0.17763568394E-13  0.88144222550E+03  0.13342180176E+04  0.10015973850E+04 0.  0.
         25    2    3    3    0    0 -0.15449118894E+02 -0.25996992013E+02  0.34952774717E+03  0.37316146058E+03  0.12714287534E+03 0.  0.
         35    2    3    3    0    0  0.15449118894E+02  0.25996992013E+02  0.53191447833E+03  0.96105655705E+03  0.79986384762E+03 0.  0.
         22    1    5    5    0    0  0.86851116498E+02  0.39951388653E+03  0.35575587185E+03  0.54195636570E+03  0.00000000000E+00 0.  1.
         22    1    5    5    0    0 -0.71401997604E+02 -0.37351689452E+03  0.17615860648E+03  0.41910019135E+03  0.00000000000E+00 0.  1.
          5    1    4    4  502    0 -0.28420203648E+02 -0.99041262752E+01  0.35061566471E+03  0.35193640623E+03  0.47000000000E+01 0.  1.
         -5    1    4    4    0  502  0.12971084754E+02 -0.16092865738E+02 -0.10879175404E+01  0.21225054344E+02  0.47000000000E+01 0.  1.
<mgrwt>
<rscale>  0 0.10015974E+04</rscale>
<asrwt>0</asrwt>
<pdfrwt beam="1">  1        2 0.17043540E+00 0.10015974E+04</pdfrwt>
<pdfrwt beam="2">  1       -2 0.34828908E-01 0.10015974E+04</pdfrwt>
<totfact> 0.20105652E+02</totfact>
</mgrwt>
</event>
<event>
 9    1  0.4370149E-036  0.9978603E+03  0.7818608E-02  0.8683078E-01
          2   -1    0    0  501    0  0.00000000000E+00  0.00000000000E+00  0.77468832231E+03  0.77468832231E+03  0.00000000000E+00 0.  1.
         -2   -1    0    0    0  501 -0.00000000000E+00 -0.00000000000E+00 -0.32133088397E+03  0.32133088397E+03  0.00000000000E+00 0.  1.
         36    2    1    2    0    0 -0.17763568394E-14  0.28421709430E-13  0.45335743834E+03  0.10960192063E+04  0.99786027761E+03 0.  0.
         25    2    3    3    0    0 -0.15290899173E+02 -0.10510745523E+03  0.17915114535E+03  0.24304293080E+03  0.12527308008E+03 0.  0.
         35    2    3    3    0    0  0.15290899173E+02  0.10510745523E+03  0.27420629300E+03  0.85297627547E+03  0.80068598505E+03 0.  0.
         22    1    5    5    0    0  0.23674288517E+02 -0.29550862616E+03 -0.91729948363E+02  0.31032274086E+03  0.00000000000E+00 0. -1.
         22    1    5    5    0    0 -0.83833893440E+01  0.40061608138E+03  0.36593624136E+03  0.54265353461E+03  0.00000000000E+00 0. -1.
          5    1    4    4  502    0 -0.62694944151E+01 -0.12926118773E+03  0.11292473689E+03  0.17181922889E+03  0.47000000000E+01 0.  1.
         -5    1    4    4    0  502 -0.90214047582E+01  0.24153732504E+02  0.66226408459E+02  0.71223701919E+02  0.47000000000E+01 0.  1.
<mgrwt>
<rscale>  0 0.99786028E+03</rscale>
<asrwt>0</asrwt>
<pdfrwt beam="1">  1        2 0.11918282E+00 0.99786028E+03</pdfrwt>
<pdfrwt beam="2">  1       -2 0.49435521E-01 0.99786028E+03</pdfrwt>
<totfact> 0.16847794E+02</totfact>
</mgrwt>
</event>
<event>
 9    1  0.4370149E-036  0.1000471E+04  0.7818608E-02  0.8680590E-01
          2   -1    0    0  501    0  0.00000000000E+00  0.00000000000E+00  0.89602520930E+03  0.89602520930E+03  0.00000000000E+00 0. -1.
         -2   -1    0    0    0  501 -0.00000000000E+00 -0.00000000000E+00 -0.27927280795E+03  0.27927280795E+03  0.00000000000E+00 0. -1.
         36    2    1    2    0    0 -0.28421709430E-13  0.00000000000E+00  0.61675240136E+03  0.11752980172E+04  0.10004708415E+04 0.  0.
         25    2    3    3    0    0  0.96921800547E+02  0.52024435163E+02  0.13105041163E+02  0.16620262513E+03  0.12389993229E+03 0.  0.
         35    2    3    3    0    0 -0.96921800547E+02 -0.52024435163E+02  0.60364736019E+03  0.10090953921E+04  0.80111359847E+03 0.  0.
         22    1    5    5    0    0 -0.30620889075E+03  0.21225838012E+03  0.71847168470E+02  0.37944633392E+03  0.00000000000E+00 0.  1.
         22    1    5    5    0    0  0.20928709020E+03 -0.26428281529E+03  0.53180019172E+03  0.62964905820E+03  0.00000000000E+00 0.  1.
          5    1    4    4  502    0  0.19756641833E+01 -0.24029171457E+02 -0.28428755400E+02  0.37571112087E+02  0.47000000000E+01 0. -1.
         -5    1    4    4    0  502  0.94946136364E+02  0.76053606620E+02  0.41533796563E+02  0.12863151304E+03  0.47000000000E+01 0. -1.
<mgrwt>
<rscale>  0 0.10004708E+04</rscale>
<asrwt>0</asrwt>
<pdfrwt beam="1">  1        2 0.13785003E+00 0.10004708E+04</pdfrwt>
<pdfrwt beam="2">  1       -2 0.42965048E-01 0.10004708E+04</pdfrwt>
<totfact> 0.18333121E+02</totfact>
</mgrwt>
</event>
<event>
 9    1  0.4370149E-036  0.9999624E+03  0.7818608E-02  0.8681074E-01
          2   -1    0    0  501    0  0.00000000000E+00  0.00000000000E+00  0.16318750186E+04  0.16318750186E+04  0.00000000000E+00 0. -1.
         -2   -1    0    0    0  501 -0.00000000000E+00 -0.00000000000E+00 -0.15318647455E+03  0.15318647455E+03  0.00000000000E+00 0. -1.
         36    2    1    2    0    0  0.00000000000E+00  0.28421709430E-13  0.14786885440E+04  0.17850614931E+04  0.99996236130E+03 0.  0.
         25    2    3    3    0    0 -0.35688850878E+02 -0.12142492641E+03  0.17119702408E+03  0.24691920783E+03  0.12507184859E+03 0.  0.
         35    2    3    3    0    0  0.35688850878E+02  0.12142492641E+03  0.13074915200E+04  0.15381422853E+04  0.80020616610E+03 0.  0.
         22    1    5    5    0    0  0.24029203230E+03 -0.73229545111E+02  0.12154187119E+04  0.12411065516E+04  0.00000000000E+00 0.  1.
         22    1    5    5    0    0 -0.20460318142E+03  0.19465447152E+03  0.92072808022E+02  0.29703573372E+03  0.00000000000E+00 0.  1.
          5    1    4    4  502    0  0.18838443633E+02 -0.11693507242E+03  0.89709893352E+02  0.14865615724E+03  0.47000000000E+01 0. -1.
         -5    1    4    4    0  502 -0.54527294511E+02 -0.44898539861E+01  0.81487130727E+02  0.98263050582E+02  0.47000000000E+01 0. -1.
<mgrwt>
<rscale>  0 0.99996236E+03</rscale>
<asrwt>0</asrwt>
<pdfrwt beam="1">  1        2 0.25105768E+00 0.99996236E+03</pdfrwt>
<pdfrwt beam="2">  1       -2 0.23567151E-01 0.99996236E+03</pdfrwt>
<totfact> 0.20323406E+02</totfact>
</mgrwt>
</event>
<event>
 9    1  0.4370149E-036  0.9966934E+03  0.7818608E-02  0.8684193E-01
          1   -1    0    0  501    0  0.00000000000E+00  0.00000000000E+00  0.12382278375E+04  0.12382278375E+04  0.00000000000E+00 0. -1.
         -1   -1    0    0    0  501 -0.00000000000E+00 -0.00000000000E+00 -0.20056846250E+03  0.20056846250E+03  0.00000000000E+00 0. -1.
         36    2    1    2    0    0  0.35527136788E-14 -0.14210854715E-13  0.10376593750E+04  0.14387963000E+04  0.99669344054E+03 0.  0.
         25    2    3    3    0    0  0.20104177291E+02  0.86617733898E+02  0.43169511731E+02  0.15913645973E+03  0.12471566182E+03 0.  0.
         35    2    3    3    0    0 -0.20104177291E+02 -0.86617733898E+02  0.99448986331E+03  0.12796598403E+04  0.80038266405E+03 0.  0.
         22    1    5    5    0    0  0.15392475899E+03  0.29326440596E+03  0.21390768824E+03  0.39427571866E+03  0.00000000000E+00 0.  1.
         22    1    5    5    0    0 -0.17402893628E+03 -0.37988213986E+03  0.78058217507E+03  0.88538412166E+03  0.00000000000E+00 0.  1.
          5    1    4    4  502    0 -0.66574597737E+01  0.32750136586E+02 -0.42552779742E+02  0.54311345784E+02  0.47000000000E+01 0.  1.
         -5    1    4    4    0  502  0.26761637065E+02  0.53867597312E+02  0.85722291473E+02  0.10482511395E+03  0.47000000000E+01 0.  1.
<mgrwt>
<rscale>  0 0.99669344E+03</rscale>
<asrwt>0</asrwt>
<pdfrwt beam="1">  1        1 0.19049659E+00 0.99669344E+03</pdfrwt>
<pdfrwt beam="2">  1       -1 0.30856687E-01 0.99669344E+03</pdfrwt>
<totfact> 0.10697220E+02</totfact>
</mgrwt>
</event>
<event>
 9    1  0.4370149E-036  0.9978794E+03  0.7818608E-02  0.8683060E-01
         -1   -1    0    0    0  501 -0.00000000000E+00  0.00000000000E+00  0.19321367636E+03  0.19321367636E+03  0.00000000000E+00 0. -1.
          1   -1    0    0  501    0  0.00000000000E+00 -0.00000000000E+00 -0.12884223666E+04  0.12884223666E+04  0.00000000000E+00 0. -1.
         36    2    1    2    0    0  0.00000000000E+00  0.35527136788E-13 -0.10952086903E+04  0.14816360430E+04  0.99787939585E+03 0.  0.
         25    2    3    3    0    0 -0.10649822942E+03 -0.99925146835E+01 -0.74422340713E+02  0.18081055116E+03  0.12534770597E+03 0.  0.
         35    2    3    3    0    0  0.10649822942E+03  0.99925146835E+01 -0.10207863496E+04  0.13008254918E+04  0.79918737825E+03 0.  0.
         22    1    5    5    0    0  0.23724412717E+03  0.36084989768E+03 -0.55267599410E+03  0.70139017600E+03  0.00000000000E+00 0.  1.
         22    1    5    5    0    0 -0.13074589775E+03 -0.35085738300E+03 -0.46811035547E+03  0.59943531584E+03  0.00000000000E+00 0.  1.
          5    1    4    4  502    0 -0.90179970987E+02 -0.57532238613E+02 -0.24555174987E+02  0.10985186510E+03  0.47000000000E+01 0.  1.
         -5    1    4    4    0  502 -0.16318258434E+02  0.47539723929E+02 -0.49867165725E+02  0.70958686058E+02  0.47000000000E+01 0.  1.
<mgrwt>
<rscale>  0 0.99787940E+03</rscale>
<asrwt>0</asrwt>
<pdfrwt beam="1">  1        1 0.19821882E+00 0.99787940E+03</pdfrwt>
<pdfrwt beam="2">  1       -1 0.29725181E-01 0.99787940E+03</pdfrwt>
<totfact> 0.10473437E+02</totfact>
</mgrwt>
</event>
<event>
 9    1  0.4370149E-036  0.9989584E+03  0.7818608E-02  0.8682031E-01
          2   -1    0    0  501    0  0.00000000000E+00  0.00000000000E+00  0.80848122462E+03  0.80848122462E+03  0.00000000000E+00 0.  1.
         -2   -1    0    0    0  501 -0.00000000000E+00 -0.00000000000E+00 -0.30857792270E+03  0.30857792270E+03  0.00000000000E+00 0.  1.
         36    2    1    2    0    0 -0.14210854715E-13  0.14210854715E-13  0.49990330192E+03  0.11170591473E+04  0.99895837117E+03 0.  0.
         25    2    3    3    0    0  0.10659692999E+03  0.41165628043E+02  0.18008837525E+03  0.24793483418E+03  0.12642129838E+03 0.  0.
         35    2    3    3    0    0 -0.10659692999E+03 -0.41165628043E+02  0.31981492667E+03  0.86912431314E+03  0.80002373087E+03 0.  0.
         22    1    5    5    0    0 -0.29840443333E+03  0.26465431693E+03  0.31476078134E+03  0.50809591887E+03  0.00000000000E+00 0.  1.
         22    1    5    5    0    0  0.19180750334E+03 -0.30581994497E+03  0.50541453293E+01  0.36102839427E+03  0.00000000000E+00 0.  1.
          5    1    4    4  502    0  0.35291338023E+02 -0.42173250261E+02  0.32691079880E+02  0.64147161127E+02  0.47000000000E+01 0.  1.
         -5    1    4    4    0  502  0.71305591966E+02  0.83338878303E+02  0.14739729537E+03  0.18378767305E+03  0.47000000000E+01 0.  1.
<mgrwt>
<rscale>  0 0.99895837E+03</rscale>
<asrwt>0</asrwt>
<pdfrwt beam="1">  1        2 0.12438173E+00 0.99895837E+03</pdfrwt>
<pdfrwt beam="2">  1       -2 0.47473527E-01 0.99895837E+03</pdfrwt>
<totfact> 0.17283879E+02</totfact>
</mgrwt>
</event>
<event>
 9    1  0.4370149E-036  0.9998314E+03  0.7818608E-02  0.8681198E-01
          2   -1    0    0  501    0  0.00000000000E+00  0.00000000000E+00  0.60779419202E+03  0.60779419202E+03  0.00000000000E+00 0. -1.
         -2   -1    0    0    0  501 -0.00000000000E+00 -0.00000000000E+00 -0.41118478185E+03  0.41118478185E+03  0.00000000000E+00 0. -1.
         36    2    1    2    0    0  0.00000000000E+00 -0.14210854715E-13  0.19660941017E+03  0.10189789739E+04  0.99983143030E+03 0.  0.
         25    2    3    3    0    0 -0.92863274603E+02 -0.10713257571E+03  0.45847578502E+02  0.19439677631E+03  0.12484842665E+03 0.  0.
         35    2    3    3    0    0  0.92863274603E+02  0.10713257571E+03  0.15076183167E+03  0.82458219756E+03  0.79818900900E+03 0.  0.
         22    1    5    5    0    0  0.44556946444E+03  0.30024586635E+02  0.11893149716E+03  0.46214534992E+03  0.00000000000E+00 0.  1.
         22    1    5    5    0    0 -0.35270618983E+03  0.77107989076E+02  0.31830334512E+02  0.36243684763E+03  0.00000000000E+00 0.  1.
          5    1    4    4  502    0 -0.28960028322E+02  0.12529646893E+02  0.49176404015E+02  0.58618120096E+02  0.47000000000E+01 0.  1.
         -5    1    4    4    0  502 -0.63903246280E+02 -0.11966222260E+03 -0.33288255136E+01  0.13577865621E+03  0.47000000000E+01 0.  1.
<mgrwt>
<rscale>  0 0.99983143E+03</rscale>
<asrwt>0</asrwt>
<pdfrwt beam="1">  1        2 0.93506799E-01 0.99983143E+03</pdfrwt>
<pdfrwt beam="2">  1       -2 0.63259197E-01 0.99983143E+03</pdfrwt>
<totfact> 0.13670807E+02</totfact>
</mgrwt>
</event>
<event>
 9    1  0.4370149E-036  0.1000439E+04  0.7818608E-02  0.8680620E-01
         -1   -1    0    0    0  501 -0.00000000000E+00  0.00000000000E+00  0.34827394094E+03  0.34827394094E+03  0.00000000000E+00 0.  1.
          1   -1    0    0  501    0  0.00000000000E+00 -0.00000000000E+00 -0.71845675981E+03  0.71845675981E+03  0.00000000000E+00 0.  1.
         36    2    1    2    0    0  0.00000000000E+00  0.00000000000E+00 -0.37018281887E+03  0.10667307008E+04  0.10004394377E+04 0.  0.
         25    2    3    3    0    0 -0.37796431888E+02 -0.76611546139E+02 -0.18601373846E+03  0.24068811944E+03  0.12661658928E+03 0.  0.
         35    2    3    3    0    0  0.37796431888E+02  0.76611546139E+02 -0.18416908042E+03  0.82604258131E+03  0.80070606135E+03 0.  0.
         22    1    5    5    0    0  0.95002777543E+02  0.18935679922E+03 -0.46888217025E+03  0.51452115091E+03  0.00000000000E+00 0. -1.
         22    1    5    5    0    0 -0.57206345655E+02 -0.11274525308E+03  0.28471308983E+03  0.31152143040E+03  0.00000000000E+00 0. -1.
          5    1    4    4  502    0 -0.30351487505E+02  0.20137670502E+02 -0.75483717266E+01  0.37494085970E+02  0.47000000000E+01 0. -1.
         -5    1    4    4    0  502 -0.74449443828E+01 -0.96749216641E+02 -0.17846536673E+03  0.20319403347E+03  0.47000000000E+01 0. -1.
<mgrwt>
<rscale>  0 0.10004394E+04</rscale>
<asrwt>0</asrwt>
<pdfrwt beam="1">  1        1 0.11053181E+00 0.10004394E+04</pdfrwt>
<pdfrwt beam="2">  1       -1 0.53580606E-01 0.10004394E+04</pdfrwt>
<totfact> 0.10564027E+02</totfact>
</mgrwt>
</event>
<event>
 9    1  0.4370149E-036  0.1000273E+04  0.7818608E-02  0.8680778E-01
          2   -1    0    0  501    0  0.00000000000E+00  0.00000000000E+00  0.33180402013E+03  0.33180402013E+03  0.00000000000E+00 0.  1.
         -2   -1    0    0    0  501 -0.00000000000E+00 -0.00000000000E+00 -0.75386888509E+03  0.75386888509E+03  0.00000000000E+00 0.  1.
         36    2    1    2    0    0 -0.71054273576E-14  0.14210854715E-13 -0.42206486496E+03  0.10856729052E+04  0.10002734161E+04 0.  0.
         25    2    3    3    0    0 -0.26462090212E+02 -0.49648582260E+02 -0.21439189560E+03  0.25462564176E+03  0.12532002475E+03 0.  0.
         35    2    3    3    0    0  0.26462090212E+02  0.49648582260E+02 -0.20767296936E+03  0.83104726347E+03  0.80271182125E+03 0.  0.
         22    1    5    5    0    0  0.16160085016E+02  0.23853425375E+03 -0.45837819501E+03  0.51698192253E+03  0.00000000000E+00 0.  1.
         22    1    5    5    0    0  0.10302005196E+02 -0.18888567149E+03  0.25070522565E+03  0.31406534094E+03  0.00000000000E+00 0.  1.
          5    1    4    4  502    0  0.38517303141E+02 -0.57740189721E+02 -0.87765483072E+02  0.11199277731E+03  0.47000000000E+01 0.  1.
         -5    1    4    4    0  502 -0.64979393353E+02  0.80916074619E+01 -0.12662641253E+03  0.14263286446E+03  0.47000000000E+01 0.  1.
<mgrwt>
<rscale>  0 0.10002734E+04</rscale>
<asrwt>0</asrwt>
<pdfrwt beam="1">  1        2 0.51046772E-01 0.10002734E+04</pdfrwt>
<pdfrwt beam="2">  1       -2 0.11597983E+00 0.10002734E+04</pdfrwt>
<totfact> 0.66358406E+01</totfact>
</mgrwt>
</event>
<event>
 9    1  0.4370149E-036  0.9998926E+03  0.7818608E-02  0.8681140E-01
         -2   -1    0    0    0  501 -0.00000000000E+00  0.00000000000E+00  0.33355157801E+03  0.33355157801E+03  0.00000000000E+00 0.  1.
          2   -1    0    0  501    0  0.00000000000E+00 -0.00000000000E+00 -0.74934824848E+03  0.74934824848E+03  0.00000000000E+00 0.  1.
         36    2    1    2    0    0 -0.14210854715E-13  0.14210854715E-13 -0.41579667047E+03  0.10828998265E+04  0.99989257574E+03 0.  0.
         25    2    3    3    0    0 -0.39146607544E+02  0.69698902846E+01 -0.22616233879E+03  0.25951027427E+03  0.12089310448E+03 0.  0.
         35    2    3    3    0    0  0.39146607544E+02 -0.69698902846E+01 -0.18963433168E+03  0.82338955222E+03  0.80026754195E+03 0.  0.
         22    1    5    5    0    0 -0.18719597987E+03 -0.34281813135E+03 -0.14195183638E+03  0.41559226402E+03  0.00000000000E+00 0. -1.
         22    1    5    5    0    0  0.22634258742E+03  0.33584824107E+03 -0.47682495305E+02  0.40779728820E+03  0.00000000000E+00 0. -1.
          5    1    4    4  502    0  0.12200437236E+02  0.52411215891E+02 -0.13451457610E+03  0.14495532899E+03  0.47000000000E+01 0. -1.
         -5    1    4    4    0  502 -0.51347044780E+02 -0.45441325606E+02 -0.91647762687E+02  0.11455494527E+03  0.47000000000E+01 0. -1.
<mgrwt>
<rscale>  0 0.99989258E+03</rscale>
<asrwt>0</asrwt>
<pdfrwt beam="1">  1        2 0.11528435E+00 0.99989258E+03</pdfrwt>
<pdfrwt beam="2">  1       -2 0.51315627E-01 0.99989258E+03</pdfrwt>
<totfact> 0.16305211E+02</totfact>
</mgrwt>
</event>
<event>
 9    1  0.4370149E-036  0.1000394E+04  0.7818608E-02  0.8680663E-01
          1   -1    0    0  501    0  0.00000000000E+00  0.00000000000E+00  0.28185821028E+04  0.28185821028E+04  0.00000000000E+00 0.  1.
         -1   -1    0    0    0  501 -0.00000000000E+00 -0.00000000000E+00 -0.88766939777E+02  0.88766939777E+02  0.00000000000E+00 0.  1.
         36    2    1    2    0    0  0.14210854715E-13  0.71054273576E-14  0.27298151631E+04  0.29073490426E+04  0.10003937380E+04 0.  0.
         25    2    3    3    0    0  0.23465212514E+01 -0.16995668799E+02  0.10647398066E+03  0.16455368179E+03  0.12428534392E+03 0.  0.
         35    2    3    3    0    0 -0.23465212514E+01  0.16995668799E+02  0.26233411824E+04  0.27427953608E+04  0.80044554666E+03 0.  0.
         22    1    5    5    0    0  0.33354172885E+03 -0.14039771209E+03  0.18504020584E+04  0.18854573398E+04  0.00000000000E+00 0. -1.
         22    1    5    5    0    0 -0.33588825010E+03  0.15739338089E+03  0.77293912403E+03  0.85733802107E+03  0.00000000000E+00 0. -1.
          5    1    4    4  502    0  0.50479745322E+02  0.27921256173E+02  0.36833698335E+02  0.68604756155E+02  0.47000000000E+01 0. -1.
         -5    1    4    4    0  502 -0.48133224071E+02 -0.44916924972E+02  0.69640282328E+02  0.95948925638E+02  0.47000000000E+01 0. -1.
<mgrwt>
<rscale>  0 0.10003937E+04</rscale>
<asrwt>0</asrwt>
<pdfrwt beam="1">  1        1 0.43362795E+00 0.10003937E+04</pdfrwt>
<pdfrwt beam="2">  1       -1 0.13656454E-01 0.10003937E+04</pdfrwt>
<totfact> 0.31464799E+01</totfact>
</mgrwt>
</event>
<event>
 9    1  0.4370149E-036  0.9990585E+03  0.7818608E-02  0.8681935E-01
         -2   -1    0    0    0  501 -0.00000000000E+00  0.00000000000E+00  0.19651043944E+03  0.19651043944E+03  0.00000000000E+00 0.  1.
          2   -1    0    0  501    0  0.00000000000E+00 -0.00000000000E+00 -0.12698025746E+04  0.12698025746E+04  0.00000000000E+00 0.  1.
         36    2    1    2    0    0 -0.28421709430E-13 -0.14210854715E-13 -0.10732921351E+04  0.14663130140E+04  0.99905848063E+03 0.  0.
         25    2    3    3    0    0  0.12796158682E+03  0.48952065851E+02 -0.23774451158E+03  0.30120493726E+03  0.12422354442E+03 0.  0.
         35    2    3    3    0    0 -0.12796158682E+03 -0.48952065851E+02 -0.83554762353E+03  0.11651080767E+04  0.80035400095E+03 0.  0.
         22    1    5    5    0    0 -0.28329263939E+03  0.25373166360E+03 -0.70436833032E+03  0.80048061900E+03  0.00000000000E+00 0.  1.
         22    1    5    5    0    0  0.15533105257E+03 -0.30268372945E+03 -0.13117929321E+03  0.36462745774E+03  0.00000000000E+00 0.  1.
          5    1    4    4  502    0  0.97543124129E+02 -0.12092420786E+01 -0.21842224101E+03  0.23926238463E+03  0.47000000000E+01 0.  1.
         -5    1    4    4    0  502  0.30418462691E+02  0.50161307930E+02 -0.19322270567E+02  0.61942552624E+02  0.47000000000E+01 0.  1.
<mgrwt>
<rscale>  0 0.99905848E+03</rscale>
<asrwt>0</asrwt>
<pdfrwt beam="1">  1        2 0.19535425E+00 0.99905848E+03</pdfrwt>
<pdfrwt beam="2">  1       -2 0.30232375E-01 0.99905848E+03</pdfrwt>
<totfact> 0.20923247E+02</totfact>
</mgrwt>
</event>
<event>
 9    1  0.4370149E-036  0.9991242E+03  0.7818608E-02  0.8681872E-01
         -2   -1    0    0    0  501 -0.00000000000E+00  0.00000000000E+00  0.22129880529E+03  0.22129880529E+03  0.00000000000E+00 0. -1.
          2   -1    0    0  501    0  0.00000000000E+00 -0.00000000000E+00 -0.11277163572E+04  0.11277163572E+04  0.00000000000E+00 0. -1.
         36    2    1    2    0    0  0.00000000000E+00  0.14210854715E-13 -0.90641755192E+03  0.13490151625E+04  0.99912418158E+03 0.  0.
         25    2    3    3    0    0 -0.11585570533E+03  0.28643044113E+02 -0.77541231650E+02  0.18967057524E+03  0.12537669668E+03 0.  0.
         35    2    3    3    0    0  0.11585570533E+03 -0.28643044113E+02 -0.82887632027E+03  0.11593445873E+04  0.80174868211E+03 0.  0.
         22    1    5    5    0    0  0.46717088978E+02 -0.32694139215E+03 -0.65295288641E+02  0.33665506832E+03  0.00000000000E+00 0.  1.
         22    1    5    5    0    0  0.69138616356E+02  0.29829834804E+03 -0.76358103163E+03  0.82268951894E+03  0.00000000000E+00 0.  1.
          5    1    4    4  502    0 -0.40999557717E+02 -0.44865615555E+02 -0.32782257860E+01  0.61046899646E+02  0.47000000000E+01 0.  1.
         -5    1    4    4    0  502 -0.74856147617E+02  0.73508659669E+02 -0.74263005864E+02  0.12862367559E+03  0.47000000000E+01 0.  1.
<mgrwt>
<rscale>  0 0.99912418E+03</rscale>
<asrwt>0</asrwt>
<pdfrwt beam="1">  1        2 0.17349482E+00 0.99912418E+03</pdfrwt>
<pdfrwt beam="2">  1       -2 0.34045970E-01 0.99912418E+03</pdfrwt>
<totfact> 0.20403799E+02</totfact>
</mgrwt>
</event>
<event>
 9    1  0.4370149E-036  0.1001007E+04  0.7818608E-02  0.8680080E-01
         -1   -1    0    0    0  501 -0.00000000000E+00  0.00000000000E+00  0.20990458356E+03  0.20990458356E+03  0.00000000000E+00 0. -1.
          1   -1    0    0  501    0  0.00000000000E+00 -0.00000000000E+00 -0.11934172846E+04  0.11934172846E+04  0.00000000000E+00 0. -1.
         36    2    1    2    0    0 -0.28421709430E-13 -0.14210854715E-13 -0.98351270108E+03  0.14033218682E+04  0.10010070093E+04 0.  0.
         25    2    3    3    0    0 -0.13458449144E+03 -0.42225869352E+02 -0.23514851071E+03  0.30166092769E+03  0.12573179322E+03 0.  0.
         35    2    3    3    0    0  0.13458449144E+03  0.42225869352E+02 -0.74836419037E+03  0.11016609405E+04  0.79606020943E+03 0.  0.
         22    1    5    5    0    0  0.27206366430E+03  0.36253101837E+03 -0.35241315338E+03  0.57414493587E+03  0.00000000000E+00 0.  1.
         22    1    5    5    0    0 -0.13747917286E+03 -0.32030514902E+03 -0.39595103699E+03  0.52751600464E+03  0.00000000000E+00 0.  1.
          5    1    4    4  502    0 -0.19250155501E+01 -0.23562352972E+02  0.68136980284E+01  0.25048086619E+02  0.47000000000E+01 0.  1.
         -5    1    4    4    0  502 -0.13265947589E+03 -0.18663516380E+02 -0.24196220874E+03  0.27661284107E+03  0.47000000000E+01 0.  1.
<mgrwt>
<rscale>  0 0.10010070E+04</rscale>
<asrwt>0</asrwt>
<pdfrwt beam="1">  1        1 0.18360265E+00 0.10010070E+04</pdfrwt>
<pdfrwt beam="2">  1       -1 0.32293015E-01 0.10010070E+04</pdfrwt>
<totfact> 0.10676595E+02</totfact>
</mgrwt>
</event>
<event>
 9    1  0.4370149E-036  0.1002369E+04  0.7818608E-02  0.8678785E-01
         -2   -1    0    0    0  501 -0.00000000000E+00  0.00000000000E+00  0.15327417046E+03  0.15327417046E+03  0.00000000000E+00 0.  1.
          2   -1    0    0  501    0  0.00000000000E+00 -0.00000000000E+00 -0.16388018296E+04  0.16388018296E+04  0.00000000000E+00 0.  1.
         36    2    1    2    0    0 -0.14210854715E-13 -0.14210854715E-13 -0.14855276591E+04  0.17920760000E+04  0.10023691754E+04 0.  0.
         25    2    3    3    0    0  0.11474230518E+03 -0.81090740012E+02 -0.29464063242E+03  0.34991996783E+03  0.12605307174E+03 0.  0.
         35    2    3    3    0    0 -0.11474230518E+03  0.81090740012E+02 -0.11908870267E+04  0.14421560322E+04  0.80116203490E+03 0.  0.
         22    1    5    5    0    0 -0.17485789102E+03  0.32684186076E+03 -0.20348228306E+03  0.42285449450E+03  0.00000000000E+00 0. -1.
         22    1    5    5    0    0  0.60115585847E+02 -0.24575112075E+03 -0.98740474364E+03  0.10193015377E+04  0.00000000000E+00 0. -1.
          5    1    4    4  502    0  0.17002612809E+02 -0.47989578346E+01  0.10101102099E+02  0.20886385571E+02  0.47000000000E+01 0. -1.
         -5    1    4    4    0  502  0.97739692368E+02 -0.76291782178E+02 -0.30474173452E+03  0.32903358226E+03  0.47000000000E+01 0. -1.
<mgrwt>
<rscale>  0 0.10023692E+04</rscale>
<asrwt>0</asrwt>
<pdfrwt beam="1">  1        2 0.25212337E+00 0.10023692E+04</pdfrwt>
<pdfrwt beam="2">  1       -2 0.23580640E-01 0.10023692E+04</pdfrwt>
<totfact> 0.20121187E+02</totfact>
</mgrwt>
</event>
<event>
 9    1  0.4370149E-036  0.1000248E+04  0.7818608E-02  0.8680802E-01
         -2   -1    0    0    0  501 -0.00000000000E+00  0.00000000000E+00  0.13094087213E+03  0.13094087213E+03  0.00000000000E+00 0.  1.
          2   -1    0    0  501    0  0.00000000000E+00 -0.00000000000E+00 -0.19102069387E+04  0.19102069387E+04  0.00000000000E+00 0.  1.
         36    2    1    2    0    0  0.00000000000E+00 -0.28421709430E-13 -0.17792660665E+04  0.20411478108E+04  0.10002482942E+04 0.  0.
         25    2    3    3    0    0 -0.59831083310E+02 -0.81253765879E+02 -0.52640061280E+03  0.55056269354E+03  0.12585603426E+03 0.  0.
         35    2    3    3    0    0  0.59831083310E+02  0.81253765879E+02 -0.12528654537E+04  0.14905851173E+04  0.80124291800E+03 0.  0.
         22    1    5    5    0    0  0.39370619924E+03  0.38970906090E+02 -0.98159738375E+03  0.10583273249E+04  0.00000000000E+00 0.  1.
         22    1    5    5    0    0 -0.33387511593E+03  0.42282859788E+02 -0.27126806998E+03  0.43225779236E+03  0.00000000000E+00 0.  1.
          5    1    4    4  502    0 -0.23353213151E+02 -0.85752972303E+02 -0.16680725022E+03  0.18906531556E+03  0.47000000000E+01 0. -1.
         -5    1    4    4    0  502 -0.36477870159E+02  0.44992064240E+01 -0.35959336258E+03  0.36149737798E+03  0.47000000000E+01 0. -1.
<mgrwt>
<rscale>  0 0.10002483E+04</rscale>
<asrwt>0</asrwt>
<pdfrwt beam="1">  1        2 0.29387799E+00 0.10002483E+04</pdfrwt>
<pdfrwt beam="2">  1       -2 0.20144750E-01 0.10002483E+04</pdfrwt>
<totfact> 0.18618536E+02</totfact>
</mgrwt>
</event>
<event>
 9    1  0.4370149E-036  0.1000347E+04  0.7818608E-02  0.8680707E-01
         -2   -1    0    0    0  501 -0.00000000000E+00  0.00000000000E+00  0.74731974542E+02  0.74731974542E+02  0.00000000000E+00 0. -1.
          2   -1    0    0  501    0  0.00000000000E+00 -0.00000000000E+00 -0.33476109388E+04  0.33476109388E+04  0.00000000000E+00 0. -1.
         36    2    1    2    0    0  0.35527136788E-14  0.10658141036E-13 -0.32728789643E+04  0.34223429134E+04  0.10003470907E+04 0.  0.
         25    2    3    3    0    0  0.26896711148E+02  0.14151160543E+02 -0.11008197806E+04  0.11082731332E+04  0.12466539188E+03 0.  0.
         35    2    3    3    0    0 -0.26896711148E+02 -0.14151160543E+02 -0.21720591836E+04  0.23140697802E+04  0.79759272926E+03 0.  0.
         22    1    5    5    0    0 -0.26406939428E+02  0.38319714879E+03 -0.13039187060E+04  0.13593165096E+04  0.00000000000E+00 0.  1.
         22    1    5    5    0    0 -0.48977172040E+00 -0.39734830933E+03 -0.86814047762E+03  0.95475327058E+03  0.00000000000E+00 0.  1.
          5    1    4    4  502    0 -0.18675064576E+02 -0.20832426003E+02 -0.86660699500E+03  0.86707123225E+03  0.47000000000E+01 0.  1.
         -5    1    4    4    0  502  0.45571775724E+02  0.34983586546E+02 -0.23421278564E+03  0.24120190096E+03  0.47000000000E+01 0.  1.
<mgrwt>
<rscale>  0 0.10003471E+04</rscale>
<asrwt>0</asrwt>
<pdfrwt beam="1">  1        2 0.51501716E+00 0.10003471E+04</pdfrwt>
<pdfrwt beam="2">  1       -2 0.11497225E-01 0.10003471E+04</pdfrwt>
<totfact> 0.59602563E+01</totfact>
</mgrwt>
</event>
<event>
 9    1  0.4370149E-036  0.9999740E+03  0.7818608E-02  0.8681063E-01
         -1   -1    0    0    0  501 -0.00000000000E+00  0.00000000000E+00  0.15934732398E+03  0.15934732398E+03  0.00000000000E+00 0.  1.
          1   -1    0    0  501    0  0.00000000000E+00 -0.00000000000E+00 -0.15688182165E+04  0.15688182165E+04  0.00000000000E+00 0.  1.
         36    2    1    2    0    0  0.00000000000E+00 -0.14210854715E-13 -0.14094708925E+04  0.17281655404E+04  0.99997396887E+03 0.  0.
         25    2    3    3    0    0  0.72854535650E+02 -0.75738347478E+02 -0.42130958485E+03  0.45201480926E+03  0.12558479548E+03 0.  0.
         35    2    3    3    0    0 -0.72854535650E+02  0.75738347478E+02 -0.98816130764E+03  0.12761507312E+04  0.80065837794E+03 0.  0.
         22    1    5    5    0    0 -0.81026479450E+02  0.42918624070E+03 -0.41356213561E+03  0.60149792983E+03  0.00000000000E+00 0. -1.
         22    1    5    5    0    0  0.81719438001E+01 -0.35344789323E+03 -0.57459917202E+03  0.67465280136E+03  0.00000000000E+00 0. -1.
          5    1    4    4  502    0  0.10752055310E+03 -0.44132215161E+02 -0.31163216690E+03  0.33263346074E+03  0.47000000000E+01 0. -1.
         -5    1    4    4    0  502 -0.34666017450E+02 -0.31606132317E+02 -0.10967741795E+03  0.11938134852E+03  0.47000000000E+01 0. -1.
<mgrwt>
<rscale>  0 0.99997397E+03</rscale>
<asrwt>0</asrwt>
<pdfrwt beam="1">  1        1 0.24135666E+00 0.99997397E+03</pdfrwt>
<pdfrwt beam="2">  1       -1 0.24514972E-01 0.99997397E+03</pdfrwt>
<totfact> 0.91256136E+01</totfact>
</mgrwt>
</event>
<event>
 9    1  0.4370149E-036  0.1000424E+04  0.7818608E-02  0.8680634E-01
          2   -1    0    0  501    0  0.00000000000E+00  0.00000000000E+00  0.12166545783E+04  0.12166545783E+04  0.00000000000E+00 0. -1.
         -2   -1    0    0    0  501 -0.00000000000E+00 -0.00000000000E+00 -0.20565587875E+03  0.20565587875E+03  0.00000000000E+00 0. -1.
         36    2    1    2    0    0  0.28421709430E-13  0.14210854715E-13  0.10109986996E+04  0.14223104571E+04  0.10004242429E+04 0.  0.
         25    2    3    3    0    0  0.75967197355E+02  0.11442538592E+03  0.20647836614E+03  0.28002669590E+03  0.13006710081E+03 0.  0.
         35    2    3    3    0    0 -0.75967197355E+02 -0.11442538592E+03  0.80452033344E+03  0.11422837612E+04  0.79918398391E+03 0.  0.
         22    1    5    5    0    0  0.17576688813E+03 -0.26848780228E+03  0.40759996976E+02  0.32348272950E+03  0.00000000000E+00 0. -1.
         22    1    5    5    0    0 -0.25173408549E+03  0.15406241635E+03  0.76376033647E+03  0.81880103169E+03  0.00000000000E+00 0. -1.
          5    1    4    4  502    0 -0.29359400013E+02  0.56374147919E+02  0.10388408316E+03  0.12187703498E+03  0.47000000000E+01 0.  1.
         -5    1    4    4    0  502  0.10532659737E+03  0.58051238002E+02  0.10259428299E+03  0.15814966092E+03  0.47000000000E+01 0.  1.
<mgrwt>
<rscale>  0 0.10004242E+04</rscale>
<asrwt>0</asrwt>
<pdfrwt beam="1">  1        2 0.18717762E+00 0.10004242E+04</pdfrwt>
<pdfrwt beam="2">  1       -2 0.31639367E-01 0.10004242E+04</pdfrwt>
<totfact> 0.20681606E+02</totfact>
</mgrwt>
</event>
<event>
 9    1  0.4370149E-036  0.9998377E+03  0.7818608E-02  0.8681193E-01
         -1   -1    0    0    0  501 -0.00000000000E+00  0.00000000000E+00  0.19476593346E+03  0.19476593346E+03  0.00000000000E+00 0. -1.
          1   -1    0    0  501    0  0.00000000000E+00 -0.00000000000E+00 -0.12831753574E+04  0.12831753574E+04  0.00000000000E+00 0. -1.
         36    2    1    2    0    0 -0.14210854715E-13 -0.14210854715E-13 -0.10884094240E+04  0.14779412909E+04  0.99983767938E+03 0.  0.
         25    2    3    3    0    0  0.51517382009E+02  0.94430296245E+02 -0.33430759500E+03  0.37277445876E+03  0.12501242949E+03 0.  0.
         35    2    3    3    0    0 -0.51517382009E+02 -0.94430296245E+02 -0.75410182895E+03  0.11051668321E+04  0.80072032375E+03 0.  0.
         22    1    5    5    0    0  0.13753754556E+03 -0.18302127802E+03  0.82160539048E+02  0.24323593243E+03  0.00000000000E+00 0. -1.
         22    1    5    5    0    0 -0.18905492757E+03  0.88590981776E+02 -0.83626236800E+03  0.86193089968E+03  0.00000000000E+00 0. -1.
          5    1    4    4  502    0  0.83366524408E+02  0.23570160651E+02 -0.16443178868E+03  0.18591781247E+03  0.47000000000E+01 0.  1.
         -5    1    4    4    0  502 -0.31849142399E+02  0.70860135593E+02 -0.16987580632E+03  0.18685664629E+03  0.47000000000E+01 0.  1.
<mgrwt>
<rscale>  0 0.99983768E+03</rscale>
<asrwt>0</asrwt>
<pdfrwt beam="1">  1        1 0.19741159E+00 0.99983768E+03</pdfrwt>
<pdfrwt beam="2">  1       -1 0.29963990E-01 0.99983768E+03</pdfrwt>
<totfact> 0.10421197E+02</totfact>
</mgrwt>
</event>
<event>
 9    1  0.4370149E-036  0.1000700E+04  0.7818608E-02  0.8680371E-01
         -2   -1    0    0    0  501 -0.00000000000E+00  0.00000000000E+00  0.16108274171E+03  0.16108274171E+03  0.00000000000E+00 0.  1.
          2   -1    0    0  501    0  0.00000000000E+00 -0.00000000000E+00 -0.15541723538E+04  0.15541723538E+04  0.00000000000E+00 0.  1.
         36    2    1    2    0    0  0.00000000000E+00  0.00000000000E+00 -0.13930896121E+04  0.17152550955E+04  0.10007004424E+04 0.  0.
         25    2    3    3    0    0 -0.10118957810E+03  0.74673752223E+02 -0.14414007989E+03  0.22836658998E+03  0.12473747151E+03 0.  0.
         35    2    3    3    0    0  0.10118957810E+03 -0.74673752223E+02 -0.12489495322E+04  0.14868885055E+04  0.79696109938E+03 0.  0.
         22    1    5    5    0    0  0.36959744312E+03 -0.37233420052E+02 -0.24018384896E+03  0.44235379374E+03  0.00000000000E+00 0. -1.
         22    1    5    5    0    0 -0.26840786502E+03 -0.37440332171E+02 -0.10087656832E+04  0.10445347118E+04  0.00000000000E+00 0. -1.
          5    1    4    4  502    0  0.28540609250E+02  0.13743127331E+02 -0.14908057501E+02  0.35323931034E+02  0.47000000000E+01 0.  1.
         -5    1    4    4    0  502 -0.12973018735E+03  0.60930624892E+02 -0.12923202239E+03  0.19304265894E+03  0.47000000000E+01 0.  1.
<mgrwt>
<rscale>  0 0.10007004E+04</rscale>
<asrwt>0</asrwt>
<pdfrwt beam="1">  1        2 0.23910344E+00 0.10007004E+04</pdfrwt>
<pdfrwt beam="2">  1       -2 0.24781960E-01 0.10007004E+04</pdfrwt>
<totfact> 0.20570525E+02</totfact>
</mgrwt>
</event>
<event>
 9    1  0.4370149E-036  0.1000526E+04  0.7818608E-02  0.8680537E-01
          1   -1    0    0  501    0  0.00000000000E+00  0.00000000000E+00  0.18299737664E+04  0.18299737664E+04  0.00000000000E+00 0. -1.
         -1   -1    0    0    0  501 -0.00000000000E+00 -0.00000000000E+00 -0.13675781009E+03  0.13675781009E+03  0.00000000000E+00 0. -1.
         36    2    1    2    0    0 -0.12434497876E-13  0.28421709430E-13  0.16932159563E+04  0.19667315765E+04  0.10005262711E+04 0.  0.
         25    2    3    3    0    0 -0.48264949091E+01  0.13177906367E+03  0.41824085845E+03  0.45566607013E+03  0.12376241397E+03 0.  0.
         35    2    3    3    0    0  0.48264949091E+01 -0.13177906367E+03  0.12749750979E+04  0.15110655064E+04  0.80023024666E+03 0.  0.
         22    1    5    5    0    0 -0.24167101819E+03 -0.28049461317E+03  0.25078835526E+03  0.44718777732E+03  0.00000000000E+00 0. -1.
         22    1    5    5    0    0  0.24649751310E+03  0.14871554949E+03  0.10241867426E+04  0.10638777291E+04  0.00000000000E+00 0. -1.
          5    1    4    4  502    0 -0.10439813633E+02  0.14817411615E+03  0.28693530080E+03  0.32313853879E+03  0.47000000000E+01 0.  1.
         -5    1    4    4    0  502  0.56133187244E+01 -0.16395052478E+02  0.13130555764E+03  0.13252753133E+03  0.47000000000E+01 0.  1.
<mgrwt>
<rscale>  0 0.10005263E+04</rscale>
<asrwt>0</asrwt>
<pdfrwt beam="1">  1        1 0.28153441E+00 0.10005263E+04</pdfrwt>
<pdfrwt beam="2">  1       -1 0.21039664E-01 0.10005263E+04</pdfrwt>
<totfact> 0.77066681E+01</totfact>
</mgrwt>
</event>
<event>
 9    1  0.4370149E-036  0.9995321E+03  0.7818608E-02  0.8681484E-01
          1   -1    0    0  501    0  0.00000000000E+00  0.00000000000E+00  0.26154572940E+03  0.26154572940E+03  0.00000000000E+00 0. -1.
         -1   -1    0    0    0  501 -0.00000000000E+00 -0.00000000000E+00 -0.95496155172E+03  0.95496155172E+03  0.00000000000E+00 0. -1.
         36    2    1    2    0    0  0.00000000000E+00 -0.28421709430E-13 -0.69341582232E+03  0.12165072811E+04  0.99953212173E+03 0.  0.
         25    2    3    3    0    0 -0.64746646631E+02 -0.11919738368E+03 -0.10358545607E+03  0.21127909495E+03  0.12453419099E+03 0.  0.
         35    2    3    3    0    0  0.64746646631E+02  0.11919738368E+03 -0.58983036625E+03  0.10052281862E+04  0.80261055363E+03 0.  0.
         22    1    5    5    0    0  0.56032051228E+02  0.13265563310E+03  0.18264518142E+03  0.23258626368E+03  0.00000000000E+00 0.  1.
         22    1    5    5    0    0  0.87145954028E+01 -0.13458249420E+02 -0.77247554767E+03  0.77264192249E+03  0.00000000000E+00 0.  1.
          5    1    4    4  502    0 -0.31556444835E+02  0.32886621386E+01  0.16876891285E+02  0.36242847139E+02  0.47000000000E+01 0.  1.
         -5    1    4    4    0  502 -0.33190201796E+02 -0.12248604582E+03 -0.12046234736E+03  0.17503624781E+03  0.47000000000E+01 0.  1.
<mgrwt>
<rscale>  0 0.99953212E+03</rscale>
<asrwt>0</asrwt>
<pdfrwt beam="1">  1        1 0.40237805E-01 0.99953212E+03</pdfrwt>
<pdfrwt beam="2">  1       -1 0.14691716E+00 0.99953212E+03</pdfrwt>
<totfact> 0.45625800E+01</totfact>
</mgrwt>
</event>
<event>
 9    1  0.4370149E-036  0.9986472E+03  0.7818608E-02  0.8682327E-01
         -1   -1    0    0    0  501 -0.00000000000E+00  0.00000000000E+00  0.46058404376E+03  0.46058404376E+03  0.00000000000E+00 0. -1.
          1   -1    0    0  501    0  0.00000000000E+00 -0.00000000000E+00 -0.54132153230E+03  0.54132153230E+03  0.00000000000E+00 0. -1.
         36    2    1    2    0    0  0.00000000000E+00  0.71054273576E-14 -0.80737488542E+02  0.10019055761E+04  0.99864720562E+03 0.  0.
         25    2    3    3    0    0  0.13151272738E+03  0.54771186030E+02 -0.84776440217E+01  0.18961029721E+03  0.12483875231E+03 0.  0.
         35    2    3    3    0    0 -0.13151272738E+03 -0.54771186030E+02 -0.72259844521E+02  0.81229527885E+03  0.79643371013E+03 0.  0.
         22    1    5    5    0    0  0.25312997579E+03  0.11598823195E+03 -0.23172890133E+03  0.36225176094E+03  0.00000000000E+00 0. -1.
         22    1    5    5    0    0 -0.38464270317E+03 -0.17075941798E+03  0.15946905681E+03  0.45004351791E+03  0.00000000000E+00 0. -1.
          5    1    4    4  502    0  0.13110805471E+03  0.79253224096E+02 -0.30577879199E+02  0.15629296925E+03  0.47000000000E+01 0.  1.
         -5    1    4    4    0  502  0.40467266820E+00 -0.24482038066E+02  0.22100235177E+02  0.33317327965E+02  0.47000000000E+01 0.  1.
<mgrwt>
<rscale>  0 0.99864721E+03</rscale>
<asrwt>0</asrwt>
<pdfrwt beam="1">  1        1 0.83280235E-01 0.99864721E+03</pdfrwt>
<pdfrwt beam="2">  1       -1 0.70859084E-01 0.99864721E+03</pdfrwt>
<totfact> 0.93669030E+01</totfact>
</mgrwt>
</event>
<event>
 9    1  0.4370149E-036  0.1000220E+04  0.7818608E-02  0.8680829E-01
         -2   -1    0    0    0  501 -0.00000000000E+00  0.00000000000E+00  0.43482890109E+03  0.43482890109E+03  0.00000000000E+00 0. -1.
          2   -1    0    0  501    0  0.00000000000E+00 -0.00000000000E+00 -0.57519155095E+03  0.57519155095E+03  0.00000000000E+00 0. -1.
         36    2    1    2    0    0  0.00000000000E+00  0.10658141036E-13 -0.14036264986E+03  0.10100204520E+04  0.10002197959E+04 0.  0.
         25    2    3    3    0    0  0.13691840108E+03 -0.18135797380E+01 -0.39137080540E+01  0.18722943071E+03  0.12763073685E+03 0.  0.
         35    2    3    3    0    0 -0.13691840108E+03  0.18135797380E+01 -0.13644894180E+03  0.82279102133E+03  0.79976047253E+03 0.  0.
         22    1    5    5    0    0  0.28340255708E+03 -0.19139528442E+03 -0.55351559308E+01  0.34202310186E+03  0.00000000000E+00 0. -1.
         22    1    5    5    0    0 -0.42032095816E+03  0.19320886416E+03 -0.13091378587E+03  0.48076791946E+03  0.00000000000E+00 0. -1.
          5    1    4    4  502    0  0.30870609180E+02 -0.31711215890E+02 -0.50674744634E+02  0.67443424202E+02  0.47000000000E+01 0.  1.
         -5    1    4    4    0  502  0.10604779190E+03  0.29897636152E+02  0.46761036580E+02  0.11978600651E+03  0.47000000000E+01 0.  1.
<mgrwt>
<rscale>  0 0.10002198E+04</rscale>
<asrwt>0</asrwt>
<pdfrwt beam="1">  1        2 0.88491008E-01 0.10002198E+04</pdfrwt>
<pdfrwt beam="2">  1       -2 0.66896754E-01 0.10002198E+04</pdfrwt>
<totfact> 0.12953910E+02</totfact>
</mgrwt>
</event>
<event>
 9    1  0.4370149E-036  0.1000023E+04  0.7818608E-02  0.8681016E-01
          2   -1    0    0  501    0  0.00000000000E+00  0.00000000000E+00  0.13926896205E+04  0.13926896205E+04  0.00000000000E+00 0. -1.
         -2   -1    0    0    0  501 -0.00000000000E+00 -0.00000000000E+00 -0.17951694598E+03  0.17951694598E+03  0.00000000000E+00 0. -1.
         36    2    1    2    0    0  0.15987211555E-13 -0.28421709430E-13  0.12131726746E+04  0.15722065665E+04  0.10000227745E+04 0.  0.
         25    2    3    3    0    0  0.13582220794E+02  0.64105647587E+02  0.42112847447E+03  0.44405509299E+03  0.12466644627E+03 0.  0.
         35    2    3    3    0    0 -0.13582220794E+02 -0.64105647587E+02  0.79204420008E+03  0.11281514735E+04  0.80068578203E+03 0.  0.
         22    1    5    5    0    0  0.18902401552E+03  0.25714413145E+03  0.64730328541E+03  0.72170265766E+03  0.00000000000E+00 0. -1.
         22    1    5    5    0    0 -0.20260623631E+03 -0.32124977904E+03  0.14474091468E+03  0.40644881585E+03  0.00000000000E+00 0. -1.
          5    1    4    4  502    0 -0.85306679531E+01  0.98865183751E+02  0.30134052010E+03  0.31729370606E+03  0.47000000000E+01 0.  1.
         -5    1    4    4    0  502  0.22112888747E+02 -0.34759536165E+02  0.11978795438E+03  0.12676138693E+03  0.47000000000E+01 0.  1.
<mgrwt>
<rscale>  0 0.10000228E+04</rscale>
<asrwt>0</asrwt>
<pdfrwt beam="1">  1        2 0.21425993E+00 0.10000228E+04</pdfrwt>
<pdfrwt beam="2">  1       -2 0.27617993E-01 0.10000228E+04</pdfrwt>
<totfact> 0.20936510E+02</totfact>
</mgrwt>
</event>
<event>
 9    1  0.4370149E-036  0.1005709E+04  0.7818608E-02  0.8675620E-01
         -1   -1    0    0    0  501 -0.00000000000E+00  0.00000000000E+00  0.36453016967E+03  0.36453016967E+03  0.00000000000E+00 0. -1.
          1   -1    0    0  501    0  0.00000000000E+00 -0.00000000000E+00 -0.69366778198E+03  0.69366778198E+03  0.00000000000E+00 0. -1.
         36    2    1    2    0    0  0.00000000000E+00  0.14210854715E-13 -0.32913761231E+03  0.10581979516E+04  0.10057093701E+04 0.  0.
         25    2    3    3    0    0 -0.89489709232E+02  0.83924346888E+02 -0.14581785363E+03  0.22797029872E+03  0.12512356534E+03 0.  0.
         35    2    3    3    0    0  0.89489709232E+02 -0.83924346888E+02 -0.18331975868E+03  0.83022765292E+03  0.80038747972E+03 0.  0.
         22    1    5    5    0    0 -0.13317629545E+03 -0.21023918774E+03  0.23337663463E+03  0.34117604740E+03  0.00000000000E+00 0. -1.
         22    1    5    5    0    0  0.22266600468E+03  0.12631484085E+03 -0.41669639331E+03  0.48905160552E+03  0.00000000000E+00 0. -1.
          5    1    4    4  502    0  0.12538565189E+02 -0.16770226990E+02  0.25492968142E+01  0.21611224966E+02  0.47000000000E+01 0.  1.
         -5    1    4    4    0  502 -0.10202827442E+03  0.10069457388E+03 -0.14836715045E+03  0.20635907376E+03  0.47000000000E+01 0.  1.
<mgrwt>
<rscale>  0 0.10057094E+04</rscale>
<asrwt>0</asrwt>
<pdfrwt beam="1">  1        1 0.10671812E+00 0.10057094E+04</pdfrwt>
<pdfrwt beam="2">  1       -1 0.56081565E-01 0.10057094E+04</pdfrwt>
<totfact> 0.10228652E+02</totfact>
</mgrwt>
</event>
<event>
 9    1  0.4370149E-036  0.9985740E+03  0.7818608E-02  0.8682397E-01
          1   -1    0    0  501    0  0.00000000000E+00  0.00000000000E+00  0.10719788139E+04  0.10719788139E+04  0.00000000000E+00 0.  1.
         -1   -1    0    0    0  501 -0.00000000000E+00 -0.00000000000E+00 -0.23254891958E+03  0.23254891958E+03  0.00000000000E+00 0.  1.
         36    2    1    2    0    0  0.14210854715E-13  0.00000000000E+00  0.83942989435E+03  0.13045277335E+04  0.99857401327E+03 0.  0.
         25    2    3    3    0    0 -0.44437415843E+02  0.13315193133E+02 -0.12417757453E+02  0.13457683658E+03  0.12571692785E+03 0.  0.
         35    2    3    3    0    0  0.44437415843E+02 -0.13315193133E+02  0.85184765180E+03  0.11699508969E+04  0.80061769969E+03 0.  0.
         22    1    5    5    0    0 -0.36790781558E+03  0.21862044237E+01  0.26874956958E+03  0.45561746170E+03  0.00000000000E+00 0.  1.
         22    1    5    5    0    0  0.41234523142E+03 -0.15501397557E+02  0.58309808222E+03  0.71433343524E+03  0.00000000000E+00 0.  1.
          5    1    4    4  502    0  0.64695417602E+01 -0.49771499564E+02 -0.17126835494E+02  0.53239793703E+02  0.47000000000E+01 0.  1.
         -5    1    4    4    0  502 -0.50906957603E+02  0.63086692698E+02  0.47090780410E+01  0.81337042877E+02  0.47000000000E+01 0.  1.
<mgrwt>
<rscale>  0 0.99857401E+03</rscale>
<asrwt>0</asrwt>
<pdfrwt beam="1">  1        1 0.16491981E+00 0.99857401E+03</pdfrwt>
<pdfrwt beam="2">  1       -1 0.35776758E-01 0.99857401E+03</pdfrwt>
<totfact> 0.11054497E+02</totfact>
</mgrwt>
</event>
<event>
 9    1  0.4370149E-036  0.1000228E+04  0.7818608E-02  0.8680821E-01
         -1   -1    0    0    0  501 -0.00000000000E+00  0.00000000000E+00  0.11240818839E+03  0.11240818839E+03  0.00000000000E+00 0.  1.
          1   -1    0    0  501    0  0.00000000000E+00 -0.00000000000E+00 -0.22250527208E+04  0.22250527208E+04  0.00000000000E+00 0.  1.
         36    2    1    2    0    0  0.28421709430E-13 -0.14210854715E-13 -0.21126445324E+04  0.23374609092E+04  0.10002282648E+04 0.  0.
         25    2    3    3    0    0  0.12662697728E+03  0.29926169958E+02 -0.52674059654E+03  0.55662806333E+03  0.12429472157E+03 0.  0.
         35    2    3    3    0    0 -0.12662697728E+03 -0.29926169958E+02 -0.15859039359E+04  0.17808328459E+04  0.79959012256E+03 0.  0.
         22    1    5    5    0    0  0.18249925519E+03  0.15083816462E+03 -0.10812775016E+03  0.26028780303E+03  0.00000000000E+00 0.  1.
         22    1    5    5    0    0 -0.30912623248E+03 -0.18076433457E+03 -0.14777761857E+04  0.15205450428E+04  0.00000000000E+00 0.  1.
          5    1    4    4  502    0  0.11612319165E+03  0.60711773525E+02 -0.29844091316E+03  0.32597482070E+03  0.47000000000E+01 0. -1.
         -5    1    4    4    0  502  0.10503785628E+02 -0.30785603566E+02 -0.22829968339E+03  0.23065324263E+03  0.47000000000E+01 0. -1.
<mgrwt>
<rscale>  0 0.10002283E+04</rscale>
<asrwt>0</asrwt>
<pdfrwt beam="1">  1        1 0.34231580E+00 0.10002283E+04</pdfrwt>
<pdfrwt beam="2">  1       -1 0.17293568E-01 0.10002283E+04</pdfrwt>
<totfact> 0.56226744E+01</totfact>
</mgrwt>
</event>
<event>
 9    1  0.4370149E-036  0.1000082E+04  0.7818608E-02  0.8680960E-01
          2   -1    0    0  501    0  0.00000000000E+00  0.00000000000E+00  0.12700255431E+04  0.12700255431E+04  0.00000000000E+00 0. -1.
         -2   -1    0    0    0  501 -0.00000000000E+00 -0.00000000000E+00 -0.19687864746E+03  0.19687864746E+03  0.00000000000E+00 0. -1.
         36    2    1    2    0    0  0.00000000000E+00 -0.24868995752E-13  0.10731468957E+04  0.14669041906E+04  0.10000818190E+04 0.  0.
         25    2    3    3    0    0 -0.12801882171E+03  0.18687944103E+02  0.28112882918E+03  0.33346937140E+03  0.12421894018E+03 0.  0.
         35    2    3    3    0    0  0.12801882171E+03 -0.18687944103E+02  0.79201806651E+03  0.11334348192E+04  0.80040228244E+03 0.  0.
         22    1    5    5    0    0 -0.44072136185E+02 -0.38607430544E+03  0.50159494202E+03  0.63450233126E+03  0.00000000000E+00 0. -1.
         22    1    5    5    0    0  0.17209095790E+03  0.36738636134E+03  0.29042312449E+03  0.49893248794E+03  0.00000000000E+00 0. -1.
          5    1    4    4  502    0  0.53734624196E+01  0.16967851937E+02  0.13219183950E+03  0.13346742872E+03  0.47000000000E+01 0.  1.
         -5    1    4    4    0  502 -0.13339228413E+03  0.17200921653E+01  0.14893698967E+03  0.20000194268E+03  0.47000000000E+01 0.  1.
<mgrwt>
<rscale>  0 0.10000818E+04</rscale>
<asrwt>0</asrwt>
<pdfrwt beam="1">  1        2 0.19538854E+00 0.10000818E+04</pdfrwt>
<pdfrwt beam="2">  1       -2 0.30289023E-01 0.10000818E+04</pdfrwt>
<totfact> 0.20845604E+02</totfact>
</mgrwt>
</event>
<event>
 9    1  0.4370149E-036  0.9952600E+03  0.7818608E-02  0.8685565E-01
          2   -1    0    0  501    0  0.00000000000E+00  0.00000000000E+00  0.11389509018E+04  0.11389509018E+04  0.00000000000E+00 0. -1.
         -2   -1    0    0    0  501 -0.00000000000E+00 -0.00000000000E+00 -0.21742429135E+03  0.21742429135E+03  0.00000000000E+00 0. -1.
         36    2    1    2    0    0  0.35527136788E-14  0.14210854715E-13  0.92152661040E+03  0.13563751931E+04  0.99525995137E+03 0.  0.
         25    2    3    3    0    0  0.26826277167E+02  0.62078341622E+02  0.17190994996E+02  0.14609677870E+03  0.12835641313E+03 0.  0.
         35    2    3    3    0    0 -0.26826277167E+02 -0.62078341622E+02  0.90433561540E+03  0.12102784144E+04  0.80148460088E+03 0.  0.
         22    1    5    5    0    0  0.19519440180E+03 -0.36793373183E+03  0.56805273769E+03  0.70438625648E+03  0.00000000000E+00 0. -1.
         22    1    5    5    0    0 -0.22202067897E+03  0.30585539021E+03  0.33628287771E+03  0.50589215793E+03  0.00000000000E+00 0. -1.
          5    1    4    4  502    0  0.26006671060E+02  0.25337710127E+02  0.71514831365E+02  0.80341817252E+02  0.47000000000E+01 0. -1.
         -5    1    4    4    0  502  0.81960610750E+00  0.36740631495E+02 -0.54323836369E+02  0.65754961445E+02  0.47000000000E+01 0. -1.
<mgrwt>
<rscale>  0 0.99525995E+03</rscale>
<asrwt>0</asrwt>
<pdfrwt beam="1">  1        2 0.17522321E+00 0.99525995E+03</pdfrwt>
<pdfrwt beam="2">  1       -2 0.33449892E-01 0.99525995E+03</pdfrwt>
<totfact> 0.20758921E+02</totfact>
</mgrwt>
</event>
<event>
 9    1  0.4370149E-036  0.1000885E+04  0.7818608E-02  0.8680196E-01
          1   -1    0    0  501    0  0.00000000000E+00  0.00000000000E+00  0.14442426312E+04  0.14442426312E+04  0.00000000000E+00 0. -1.
         -1   -1    0    0    0  501 -0.00000000000E+00 -0.00000000000E+00 -0.17340764418E+03  0.17340764418E+03  0.00000000000E+00 0. -1.
         36    2    1    2    0    0  0.71054273576E-14  0.00000000000E+00  0.12708349870E+04  0.16176502754E+04  0.10008850330E+04 0.  0.
         25    2    3    3    0    0 -0.45937472354E+02 -0.98063728481E+02  0.92066284364E+02  0.18880289348E+03  0.12427222400E+03 0.  0.
         35    2    3    3    0    0  0.45937472354E+02  0.98063728481E+02  0.11787687026E+04  0.14288473819E+04  0.80023898942E+03 0.  0.
         22    1    5    5    0    0  0.35542356126E+03 -0.15593098725E+03  0.73486396080E+03  0.83106282648E+03  0.00000000000E+00 0.  1.
         22    1    5    5    0    0 -0.30948608891E+03  0.25399471573E+03  0.44390474185E+03  0.59778455541E+03  0.00000000000E+00 0.  1.
          5    1    4    4  502    0 -0.70388185630E+02 -0.11157015895E+03  0.91238875137E+02  0.16046500983E+03  0.47000000000E+01 0. -1.
         -5    1    4    4    0  502  0.24450713276E+02  0.13506430465E+02  0.82740922716E+00  0.28337883648E+02  0.47000000000E+01 0. -1.
<mgrwt>
<rscale>  0 0.10008850E+04</rscale>
<asrwt>0</asrwt>
<pdfrwt beam="1">  1        1 0.22219117E+00 0.10008850E+04</pdfrwt>
<pdfrwt beam="2">  1       -1 0.26678100E-01 0.10008850E+04</pdfrwt>
<totfact> 0.97078283E+01</totfact>
</mgrwt>
</event>
<event>
 9    1  0.4370149E-036  0.9998143E+03  0.7818608E-02  0.8681215E-01
          1   -1    0    0  501    0  0.00000000000E+00  0.00000000000E+00  0.18114960205E+04  0.18114960205E+04  0.00000000000E+00 0. -1.
         -1   -1    0    0    0  501 -0.00000000000E+00 -0.00000000000E+00 -0.13795623042E+03  0.13795623042E+03  0.00000000000E+00 0. -1.
         36    2    1    2    0    0  0.28421709430E-13  0.00000000000E+00  0.16735397901E+04  0.19494522509E+04  0.99981430757E+03 0.  0.
         25    2    3    3    0    0 -0.90552890398E+02  0.10458805969E+03  0.29649488304E+03  0.35019211870E+03  0.12484717115E+03 0.  0.
         35    2    3    3    0    0  0.90552890398E+02 -0.10458805969E+03  0.13770449070E+04  0.15992601322E+04  0.80139990410E+03 0.  0.
         22    1    5    5    0    0 -0.25996933980E+03 -0.15907728607E+03  0.18723645989E+03  0.35769698418E+03  0.00000000000E+00 0.  1.
         22    1    5    5    0    0  0.35052223020E+03  0.54489226384E+02  0.11898084471E+04  0.12415631480E+04  0.00000000000E+00 0.  1.
          5    1    4    4  502    0 -0.39141274368E+01 -0.17545518237E+02  0.10713192711E+03  0.10873134512E+03  0.47000000000E+01 0.  1.
         -5    1    4    4    0  502 -0.86638762961E+02  0.12213357793E+03  0.18936295592E+03  0.24146077359E+03  0.47000000000E+01 0.  1.
<mgrwt>
<rscale>  0 0.99981431E+03</rscale>
<asrwt>0</asrwt>
<pdfrwt beam="1">  1        1 0.27869168E+00 0.99981431E+03</pdfrwt>
<pdfrwt beam="2">  1       -1 0.21224037E-01 0.99981431E+03</pdfrwt>
<totfact> 0.78265570E+01</totfact>
</mgrwt>
</event>
<event>
 9    1  0.4370149E-036  0.1000008E+04  0.7818608E-02  0.8681030E-01
         -2   -1    0    0    0  501 -0.00000000000E+00  0.00000000000E+00  0.28261557614E+03  0.28261557614E+03  0.00000000000E+00 0.  1.
          2   -1    0    0  501    0  0.00000000000E+00 -0.00000000000E+00 -0.88460820564E+03  0.88460820564E+03  0.00000000000E+00 0.  1.
         36    2    1    2    0    0 -0.71054273576E-14  0.00000000000E+00 -0.60199262951E+03  0.11672237818E+04  0.10000081154E+04 0.  0.
         25    2    3    3    0    0  0.37284826413E+02 -0.94886093875E+02 -0.79880272548E-01  0.16130337854E+03  0.12500097782E+03 0.  0.
         35    2    3    3    0    0 -0.37284826413E+02  0.94886093875E+02 -0.60191274923E+03  0.10059204032E+04  0.79948944387E+03 0.  0.
         22    1    5    5    0    0  0.62657027244E+02  0.26055947257E+02  0.19155881687E+03  0.20322301978E+03  0.00000000000E+00 0. -1.
         22    1    5    5    0    0 -0.99941853658E+02  0.68830146618E+02 -0.79347156610E+03  0.80269738345E+03  0.00000000000E+00 0. -1.
          5    1    4    4  502    0  0.42015966932E+02 -0.10672700757E+02 -0.47457267384E+02  0.64447887834E+02  0.47000000000E+01 0.  1.
         -5    1    4    4    0  502 -0.47311405188E+01 -0.84213393118E+02  0.47377387111E+02  0.96855490709E+02  0.47000000000E+01 0.  1.
<mgrwt>
<rscale>  0 0.10000081E+04</rscale>
<asrwt>0</asrwt>
<pdfrwt beam="1">  1        2 0.13609357E+00 0.10000081E+04</pdfrwt>
<pdfrwt beam="2">  1       -2 0.43479320E-01 0.10000081E+04</pdfrwt>
<totfact> 0.18228928E+02</totfact>
</mgrwt>
</event>
<event>
 9    1  0.4370149E-036  0.1000543E+04  0.7818608E-02  0.8680521E-01
         -2   -1    0    0    0  501 -0.00000000000E+00  0.00000000000E+00  0.19594262397E+03  0.19594262397E+03  0.00000000000E+00 0. -1.
          2   -1    0    0  501    0  0.00000000000E+00 -0.00000000000E+00 -0.12772685390E+04  0.12772685390E+04  0.00000000000E+00 0. -1.
         36    2    1    2    0    0  0.00000000000E+00  0.71054273576E-14 -0.10813259150E+04  0.14732111630E+04  0.10005425509E+04 0.  0.
         25    2    3    3    0    0  0.14153528422E+03  0.31180771636E+02 -0.22236978250E+03  0.29341798667E+03  0.12506525309E+03 0.  0.
         35    2    3    3    0    0 -0.14153528422E+03 -0.31180771636E+02 -0.85895613254E+03  0.11797931763E+04  0.79567695960E+03 0.  0.
         22    1    5    5    0    0  0.30808957610E+03 -0.12302044627E+03 -0.48607680051E+03  0.58849288279E+03  0.00000000000E+00 0. -1.
         22    1    5    5    0    0 -0.44962486032E+03  0.91839674630E+02 -0.37287933203E+03  0.59130029351E+03  0.00000000000E+00 0. -1.
          5    1    4    4  502    0  0.60279858925E+02 -0.46382975615E+02 -0.65921723819E+02  0.10076113085E+03  0.47000000000E+01 0.  1.
         -5    1    4    4    0  502  0.81255425299E+02  0.77563747251E+02 -0.15644805868E+03  0.19265685582E+03  0.47000000000E+01 0.  1.
<mgrwt>
<rscale>  0 0.10005426E+04</rscale>
<asrwt>0</asrwt>
<pdfrwt beam="1">  1        2 0.19650286E+00 0.10005426E+04</pdfrwt>
<pdfrwt beam="2">  1       -2 0.30145018E-01 0.10005426E+04</pdfrwt>
<totfact> 0.20824306E+02</totfact>
</mgrwt>
</event>
<event>
 9    1  0.4370149E-036  0.1000167E+04  0.7818608E-02  0.8680879E-01
         -2   -1    0    0    0  501 -0.00000000000E+00  0.00000000000E+00  0.97975525480E+02  0.97975525480E+02  0.00000000000E+00 0. -1.
          2   -1    0    0  501    0  0.00000000000E+00 -0.00000000000E+00 -0.25525076522E+04  0.25525076522E+04  0.00000000000E+00 0. -1.
         36    2    1    2    0    0  0.00000000000E+00 -0.14210854715E-13 -0.24545321268E+04  0.26504831777E+04  0.10001665432E+04 0.  0.
         25    2    3    3    0    0  0.98854631407E+02  0.98972129098E+02 -0.50852010499E+03  0.54200953118E+03  0.12495564901E+03 0.  0.
         35    2    3    3    0    0 -0.98854631407E+02 -0.98972129098E+02 -0.19460120218E+04  0.21084736465E+04  0.79945644584E+03 0.  0.
         22    1    5    5    0    0  0.21803482106E+03 -0.34644675361E+03 -0.10041064836E+04  0.10843405216E+04  0.00000000000E+00 0. -1.
         22    1    5    5    0    0 -0.31688945246E+03  0.24747462451E+03 -0.94190553811E+03  0.10241331249E+04  0.00000000000E+00 0. -1.
          5    1    4    4  502    0  0.55370076554E+02 -0.59703722889E+01 -0.29358384384E+03  0.29885624318E+03  0.47000000000E+01 0.  1.
         -5    1    4    4    0  502  0.43484554854E+02  0.10494250139E+03 -0.21493626115E+03  0.24315328800E+03  0.47000000000E+01 0.  1.
<mgrwt>
<rscale>  0 0.10001665E+04</rscale>
<asrwt>0</asrwt>
<pdfrwt beam="1">  1        2 0.39269348E+00 0.10001665E+04</pdfrwt>
<pdfrwt beam="2">  1       -2 0.15073158E-01 0.10001665E+04</pdfrwt>
<totfact> 0.12828439E+02</totfact>
</mgrwt>
</event>
<event>
 9    1  0.4370149E-036  0.1000223E+04  0.7818608E-02  0.8680825E-01
          2   -1    0    0  501    0  0.00000000000E+00  0.00000000000E+00  0.24595785852E+04  0.24595785852E+04  0.00000000000E+00 0. -1.
         -2   -1    0    0    0  501 -0.00000000000E+00 -0.00000000000E+00 -0.10168886586E+03  0.10168886586E+03  0.00000000000E+00 0. -1.
         36    2    1    2    0    0  0.28421709430E-13 -0.28421709430E-13  0.23578897193E+04  0.25612674511E+04  0.10002234887E+04 0.  0.
         25    2    3    3    0    0  0.12940186063E+03 -0.53767815633E+02  0.47428014013E+03  0.50971399251E+03  0.12341346485E+03 0.  0.
         35    2    3    3    0    0 -0.12940186063E+03  0.53767815633E+02  0.18836095792E+04  0.20515534586E+04  0.80078132277E+03 0.  0.
         22    1    5    5    0    0 -0.25115236150E+03 -0.30670753967E+03  0.12614724352E+04  0.13222933594E+04  0.00000000000E+00 0. -1.
         22    1    5    5    0    0  0.12175050088E+03  0.36047535530E+03  0.62213714399E+03  0.72926009913E+03  0.00000000000E+00 0. -1.
          5    1    4    4  502    0  0.10735154597E+02  0.74448044820E+01 -0.28989854461E+01  0.14183186335E+02  0.47000000000E+01 0.  1.
         -5    1    4    4    0  502  0.11866670603E+03 -0.61212620115E+02  0.47717912558E+03  0.49553080618E+03  0.47000000000E+01 0.  1.
<mgrwt>
<rscale>  0 0.10002235E+04</rscale>
<asrwt>0</asrwt>
<pdfrwt beam="1">  1        2 0.37839666E+00 0.10002235E+04</pdfrwt>
<pdfrwt beam="2">  1       -2 0.15644443E-01 0.10002235E+04</pdfrwt>
<totfact> 0.13728832E+02</totfact>
</mgrwt>
</event>
<event>
 9    1  0.4370149E-036  0.9998459E+03  0.7818608E-02  0.8681185E-01
          2   -1    0    0  501    0  0.00000000000E+00  0.00000000000E+00  0.50675547539E+03  0.50675547539E+03  0.00000000000E+00 0.  1.
         -2   -1    0    0    0  501 -0.00000000000E+00 -0.00000000000E+00 -0.49318251487E+03  0.49318251487E+03  0.00000000000E+00 0.  1.
         36    2    1    2    0    0  0.14210854715E-13 -0.14210854715E-13  0.13572960511E+02  0.99993799026E+03  0.99984586768E+03 0.  0.
         25    2    3    3    0    0  0.37504501205E+02 -0.10609203074E+03 -0.81860647282E+02  0.18677281292E+03  0.12458254884E+03 0.  0.
         35    2    3    3    0    0 -0.37504501205E+02  0.10609203074E+03  0.95433607793E+02  0.81316517734E+03  0.79966738432E+03 0.  0.
         22    1    5    5    0    0 -0.41369713333E+03  0.98063116986E+02  0.76835630627E+00  0.42516147921E+03  0.00000000000E+00 0. -1.
         22    1    5    5    0    0  0.37619263212E+03  0.80289137529E+01  0.94665251487E+02  0.38800369813E+03  0.00000000000E+00 0. -1.
          5    1    4    4  502    0  0.35523972105E+02 -0.13407153162E+03 -0.61493139484E+02  0.15179138443E+03  0.47000000000E+01 0.  1.
         -5    1    4    4    0  502  0.19805290993E+01  0.27979500881E+02 -0.20367507798E+02  0.34981428487E+02  0.47000000000E+01 0.  1.
<mgrwt>
<rscale>  0 0.99984587E+03</rscale>
<asrwt>0</asrwt>
<pdfrwt beam="1">  1        2 0.77962381E-01 0.99984587E+03</pdfrwt>
<pdfrwt beam="2">  1       -2 0.75874233E-01 0.99984587E+03</pdfrwt>
<totfact> 0.11393172E+02</totfact>
</mgrwt>
</event>
<event>
 9    1  0.4370149E-036  0.9992429E+03  0.7818608E-02  0.8681759E-01
          2   -1    0    0  501    0  0.00000000000E+00  0.00000000000E+00  0.82202403669E+03  0.82202403669E+03  0.00000000000E+00 0.  1.
         -2   -1    0    0    0  501 -0.00000000000E+00 -0.00000000000E+00 -0.30366700836E+03  0.30366700836E+03  0.00000000000E+00 0.  1.
         36    2    1    2    0    0  0.14210854715E-13 -0.14210854715E-13  0.51835702833E+03  0.11256910450E+04  0.99924287342E+03 0.  0.
         25    2    3    3    0    0  0.12519246940E+03  0.53616987667E+02  0.68430867293E+02  0.19733477308E+03  0.12534070890E+03 0.  0.
         35    2    3    3    0    0 -0.12519246940E+03 -0.53616987667E+02  0.44992616104E+03  0.92835627197E+03  0.80053974389E+03 0.  0.
         22    1    5    5    0    0  0.30119048369E+03  0.48744496978E+02  0.71485316813E+01  0.30519311092E+03  0.00000000000E+00 0. -1.
         22    1    5    5    0    0 -0.42638295309E+03 -0.10236148464E+03  0.44277762935E+03  0.62316316104E+03  0.00000000000E+00 0. -1.
          5    1    4    4  502    0  0.79614206241E+02 -0.33322652036E+02  0.38340642246E+02  0.94556416080E+02  0.47000000000E+01 0.  1.
         -5    1    4    4    0  502  0.45578263160E+02  0.86939639703E+02  0.30090225047E+02  0.10277835700E+03  0.47000000000E+01 0.  1.
<mgrwt>
<rscale>  0 0.99924287E+03</rscale>
<asrwt>0</asrwt>
<pdfrwt beam="1">  1        2 0.12646524E+00 0.99924287E+03</pdfrwt>
<pdfrwt beam="2">  1       -2 0.46718002E-01 0.99924287E+03</pdfrwt>
<totfact> 0.17458702E+02</totfact>
</mgrwt>
</event>
<event>
 9    1  0.4370149E-036  0.1000175E+04  0.7818608E-02  0.8680872E-01
         -1   -1    0    0    0  501 -0.00000000000E+00  0.00000000000E+00  0.23900587826E+03  0.23900587826E+03  0.00000000000E+00 0. -1.
          1   -1    0    0  501    0  0.00000000000E+00 -0.00000000000E+00 -0.10463647702E+04  0.10463647702E+04  0.00000000000E+00 0. -1.
         36    2    1    2    0    0  0.71054273576E-14 -0.42632564146E-13 -0.80735889199E+03  0.12853706485E+04  0.10001746465E+04 0.  0.
         25    2    3    3    0    0 -0.34991633106E+02 -0.61484228049E+02 -0.30827002288E+03  0.33984482833E+03  0.12433573763E+03 0.  0.
         35    2    3    3    0    0  0.34991633106E+02  0.61484228049E+02 -0.49908886911E+03  0.94552582018E+03  0.79995290653E+03 0.  0.
         22    1    5    5    0    0  0.19288596456E+03  0.37258685371E+03 -0.13373409290E+03  0.44035300213E+03  0.00000000000E+00 0.  1.
         22    1    5    5    0    0 -0.15789433145E+03 -0.31110262566E+03 -0.36535477621E+03  0.50517281805E+03  0.00000000000E+00 0.  1.
          5    1    4    4  502    0 -0.53277042684E+02 -0.91144833110E+02 -0.20302566869E+03  0.22888279976E+03  0.47000000000E+01 0. -1.
         -5    1    4    4    0  502  0.18285409578E+02  0.29660605062E+02 -0.10524435419E+03  0.11096202857E+03  0.47000000000E+01 0. -1.
<mgrwt>
<rscale>  0 0.10001746E+04</rscale>
<asrwt>0</asrwt>
<pdfrwt beam="1">  1        1 0.16097919E+00 0.10001746E+04</pdfrwt>
<pdfrwt beam="2">  1       -1 0.36770135E-01 0.10001746E+04</pdfrwt>
<totfact> 0.11029268E+02</totfact>
</mgrwt>
</event>
<event>
 9    1  0.4370149E-036  0.1000018E+04  0.7818608E-02  0.8681021E-01
          2   -1    0    0  501    0  0.00000000000E+00  0.00000000000E+00  0.19892744986E+04  0.19892744986E+04  0.00000000000E+00 0. -1.
         -2   -1    0    0    0  501 -0.00000000000E+00 -0.00000000000E+00 -0.12567841300E+03  0.12567841300E+03  0.00000000000E+00 0. -1.
         36    2    1    2    0    0  0.00000000000E+00  0.00000000000E+00  0.18635960856E+04  0.21149529116E+04  0.10000177238E+04 0.  0.
         25    2    3    3    0    0  0.11048448147E+03  0.42659174732E+02  0.50051189657E+03  0.52917675445E+03  0.12445582753E+03 0.  0.
         35    2    3    3    0    0 -0.11048448147E+03 -0.42659174732E+02  0.13630841890E+04  0.15857761571E+04  0.80166133021E+03 0.  0.
         22    1    5    5    0    0 -0.11159214861E+03 -0.41889976180E+03  0.76039185412E+03  0.87528600462E+03  0.00000000000E+00 0. -1.
         22    1    5    5    0    0  0.11076671383E+01  0.37624058707E+03  0.60269233489E+03  0.71049015251E+03  0.00000000000E+00 0. -1.
          5    1    4    4  502    0  0.40017098583E+02 -0.72916075672E+01  0.37210156865E+03  0.37434770349E+03  0.47000000000E+01 0. -1.
         -5    1    4    4    0  502  0.70467382886E+02  0.49950782299E+02  0.12841032792E+03  0.15482905096E+03  0.47000000000E+01 0. -1.
<mgrwt>
<rscale>  0 0.10000177E+04</rscale>
<asrwt>0</asrwt>
<pdfrwt beam="1">  1        2 0.30604221E+00 0.10000177E+04</pdfrwt>
<pdfrwt beam="2">  1       -2 0.19335142E-01 0.10000177E+04</pdfrwt>
<totfact> 0.18022861E+02</totfact>
</mgrwt>
</event>
<event>
 9    1  0.4370149E-036  0.1000028E+04  0.7818608E-02  0.8681011E-01
         -2   -1    0    0    0  501 -0.00000000000E+00  0.00000000000E+00  0.95496501197E+02  0.95496501197E+02  0.00000000000E+00 0. -1.
          2   -1    0    0  501    0  0.00000000000E+00 -0.00000000000E+00 -0.26180437858E+04  0.26180437858E+04  0.00000000000E+00 0. -1.
         36    2    1    2    0    0  0.14210854715E-13 -0.14210854715E-13 -0.25225472846E+04  0.27135402870E+04  0.10000280427E+04 0.  0.
         25    2    3    3    0    0  0.34947131760E+02 -0.12485493098E+03 -0.33378121831E+03  0.37982869095E+03  0.12668810902E+03 0.  0.
         35    2    3    3    0    0 -0.34947131760E+02  0.12485493098E+03 -0.21887660663E+04  0.23337115961E+04  0.79918887927E+03 0.  0.
         22    1    5    5    0    0 -0.36675630476E+03  0.22624913641E+03 -0.15252748562E+04  0.15849802036E+04  0.00000000000E+00 0. -1.
         22    1    5    5    0    0  0.33180917300E+03 -0.10139420543E+03 -0.66349121012E+03  0.74873139248E+03  0.00000000000E+00 0. -1.
          5    1    4    4  502    0  0.60229597724E+02 -0.10798141532E+02 -0.14925131478E+03  0.16137611120E+03  0.47000000000E+01 0.  1.
         -5    1    4    4    0  502 -0.25282465964E+02 -0.11405678945E+03 -0.18452990352E+03  0.21845257975E+03  0.47000000000E+01 0.  1.
<mgrwt>
<rscale>  0 0.10000280E+04</rscale>
<asrwt>0</asrwt>
<pdfrwt beam="1">  1        2 0.40277593E+00 0.10000280E+04</pdfrwt>
<pdfrwt beam="2">  1       -2 0.14691771E-01 0.10000280E+04</pdfrwt>
<totfact> 0.12199964E+02</totfact>
</mgrwt>
</event>
<event>
 9    1  0.4370149E-036  0.9995332E+03  0.7818608E-02  0.8681483E-01
          1   -1    0    0  501    0  0.00000000000E+00  0.00000000000E+00  0.63436537038E+03  0.63436537038E+03  0.00000000000E+00 0. -1.
         -1   -1    0    0    0  501 -0.00000000000E+00 -0.00000000000E+00 -0.39372682274E+03  0.39372682274E+03  0.00000000000E+00 0. -1.
         36    2    1    2    0    0 -0.88817841970E-14  0.00000000000E+00  0.24063854764E+03  0.10280921931E+04  0.99953321452E+03 0.  0.
         25    2    3    3    0    0  0.12567494575E+02  0.12643782970E+03 -0.11323091684E+02  0.17933409940E+03  0.12604776913E+03 0.  0.
         35    2    3    3    0    0 -0.12567494575E+02 -0.12643782970E+03  0.25196163932E+03  0.84875809372E+03  0.80047558817E+03 0.  0.
         22    1    5    5    0    0 -0.30103439598E+03  0.20957568890E+03  0.13343508432E+03  0.39031858612E+03  0.00000000000E+00 0.  1.
         22    1    5    5    0    0  0.28846690141E+03 -0.33601351860E+03  0.11852655500E+03  0.45843950760E+03  0.00000000000E+00 0.  1.
          5    1    4    4  502    0  0.17630275789E+02  0.12426127251E+03  0.36638468390E+02  0.13082873475E+03  0.47000000000E+01 0.  1.
         -5    1    4    4    0  502 -0.50627812140E+01  0.21765571834E+01 -0.47961560074E+02  0.48505364647E+02  0.47000000000E+01 0.  1.
<mgrwt>
<rscale>  0 0.99953321E+03</rscale>
<asrwt>0</asrwt>
<pdfrwt beam="1">  1        1 0.97594672E-01 0.99953321E+03</pdfrwt>
<pdfrwt beam="2">  1       -1 0.60573357E-01 0.99953321E+03</pdfrwt>
<totfact> 0.10110205E+02</totfact>
</mgrwt>
</event>
<event>
 9    1  0.4370149E-036  0.9997243E+03  0.7818608E-02  0.8681301E-01
          2   -1    0    0  501    0  0.00000000000E+00  0.00000000000E+00  0.24935667332E+04  0.24935667332E+04  0.00000000000E+00 0. -1.
         -2   -1    0    0    0  501 -0.00000000000E+00 -0.00000000000E+00 -0.10020271761E+03  0.10020271761E+03  0.00000000000E+00 0. -1.
         36    2    1    2    0    0  0.42632564146E-13 -0.14210854715E-13  0.23933640156E+04  0.25937694508E+04  0.99972428843E+03 0.  0.
         25    2    3    3    0    0  0.72884445823E+02 -0.49350944597E+02  0.71766546502E+03  0.73378283323E+03  0.12508344605E+03 0.  0.
         35    2    3    3    0    0 -0.72884445823E+02  0.49350944597E+02  0.16756985506E+04  0.18599866176E+04  0.80239449591E+03 0.  0.
         22    1    5    5    0    0 -0.36968800750E+03  0.15988097739E+03  0.13366706398E+04  0.13960370873E+04  0.00000000000E+00 0.  1.
         22    1    5    5    0    0  0.29680356168E+03 -0.11053003279E+03  0.33902791075E+03  0.46394953027E+03  0.00000000000E+00 0.  1.
          5    1    4    4  502    0  0.59223901085E+02 -0.14533684506E+02  0.67105835258E+03  0.67383981852E+03  0.47000000000E+01 0.  1.
         -5    1    4    4    0  502  0.13660544738E+02 -0.34817260091E+02  0.46607112440E+02  0.59943014712E+02  0.47000000000E+01 0.  1.
<mgrwt>
<rscale>  0 0.99972429E+03</rscale>
<asrwt>0</asrwt>
<pdfrwt beam="1">  1        2 0.38362560E+00 0.99972429E+03</pdfrwt>
<pdfrwt beam="2">  1       -2 0.15415805E-01 0.99972429E+03</pdfrwt>
<totfact> 0.13421263E+02</totfact>
</mgrwt>
</event>
<event>
 9    1  0.4370149E-036  0.9988588E+03  0.7818608E-02  0.8682125E-01
          1   -1    0    0  501    0  0.00000000000E+00  0.00000000000E+00  0.34410752078E+03  0.34410752078E+03  0.00000000000E+00 0. -1.
         -1   -1    0    0    0  501 -0.00000000000E+00 -0.00000000000E+00 -0.72485991258E+03  0.72485991258E+03  0.00000000000E+00 0. -1.
         36    2    1    2    0    0  0.00000000000E+00 -0.14210854715E-13 -0.38075239180E+03  0.10689674334E+04  0.99885884374E+03 0.  0.
         25    2    3    3    0    0 -0.11454300715E+03 -0.55858692727E+02 -0.12726780554E+02  0.17909482079E+03  0.12519061406E+03 0.  0.
         35    2    3    3    0    0  0.11454300715E+03  0.55858692727E+02 -0.36802561125E+03  0.88987261258E+03  0.80011881745E+03 0.  0.
         22    1    5    5    0    0  0.18680508449E+03  0.13773078953E+03 -0.59463540213E+03  0.63832371995E+03  0.00000000000E+00 0. -1.
         22    1    5    5    0    0 -0.72262077342E+02 -0.81872096805E+02  0.22660979089E+03  0.25154889263E+03  0.00000000000E+00 0. -1.
          5    1    4    4  502    0 -0.59133495331E+02  0.34933384747E+02 -0.21876075787E+02  0.72234093971E+02  0.47000000000E+01 0.  1.
         -5    1    4    4    0  502 -0.55409511820E+02 -0.90792077474E+02  0.91492952324E+01  0.10686072682E+03  0.47000000000E+01 0.  1.
<mgrwt>
<rscale>  0 0.99885884E+03</rscale>
<asrwt>0</asrwt>
<pdfrwt beam="1">  1        1 0.52939619E-01 0.99885884E+03</pdfrwt>
<pdfrwt beam="2">  1       -1 0.11151691E+00 0.99885884E+03</pdfrwt>
<totfact> 0.65094613E+01</totfact>
</mgrwt>
</event>
<event>
 9    1  0.4370149E-036  0.1000288E+04  0.7818608E-02  0.8680764E-01
         -1   -1    0    0    0  501 -0.00000000000E+00  0.00000000000E+00  0.31761978621E+03  0.31761978621E+03  0.00000000000E+00 0. -1.
          1   -1    0    0  501    0  0.00000000000E+00 -0.00000000000E+00 -0.78755772826E+03  0.78755772826E+03  0.00000000000E+00 0. -1.
         36    2    1    2    0    0 -0.71054273576E-14  0.21316282073E-13 -0.46993794205E+03  0.11051775145E+04  0.10002877931E+04 0.  0.
         25    2    3    3    0    0  0.30196416417E+02  0.42815175719E+02  0.56917241101E+02  0.14646118959E+03  0.12436376033E+03 0.  0.
         35    2    3    3    0    0 -0.30196416417E+02 -0.42815175719E+02 -0.52685518315E+03  0.95871632487E+03  0.79925943519E+03 0.  0.
         22    1    5    5    0    0  0.28753639836E+03  0.18248911348E+03 -0.44557638665E+03  0.56081884175E+03  0.00000000000E+00 0.  1.
         22    1    5    5    0    0 -0.31773281478E+03 -0.22530428920E+03 -0.81278796502E+02  0.39789748313E+03  0.00000000000E+00 0.  1.
          5    1    4    4  502    0 -0.44806269739E+02  0.33483513909E+02  0.90049752397E+01  0.56850040376E+02  0.47000000000E+01 0.  1.
         -5    1    4    4    0  502  0.75002686156E+02  0.93316618095E+01  0.47912265861E+02  0.89611149210E+02  0.47000000000E+01 0.  1.
<mgrwt>
<rscale>  0 0.10002878E+04</rscale>
<asrwt>0</asrwt>
<pdfrwt beam="1">  1        1 0.12116273E+00 0.10002878E+04</pdfrwt>
<pdfrwt beam="2">  1       -1 0.48864582E-01 0.10002878E+04</pdfrwt>
<totfact> 0.10839777E+02</totfact>
</mgrwt>
</event>
<event>
 9    1  0.4370149E-036  0.1000051E+04  0.7818608E-02  0.8680990E-01
          2   -1    0    0  501    0  0.00000000000E+00  0.00000000000E+00  0.33648086936E+04  0.33648086936E+04  0.00000000000E+00 0.  1.
         -2   -1    0    0    0  501 -0.00000000000E+00 -0.00000000000E+00 -0.74305977829E+02  0.74305977829E+02  0.00000000000E+00 0.  1.
         36    2    1    2    0    0  0.53290705182E-14 -0.28421709430E-13  0.32905027157E+04  0.34391146714E+04  0.10000507991E+04 0.  0.
         25    2    3    3    0    0 -0.52397805962E+01 -0.10837840084E+03  0.31605383620E+03  0.35696919497E+03  0.12555335804E+03 0.  0.
         35    2    3    3    0    0  0.52397805962E+01  0.10837840084E+03  0.29744488795E+04  0.30821454764E+04  0.80031323104E+03 0.  0.
         22    1    5    5    0    0 -0.11977615627E+03  0.43614639647E+03  0.15111779187E+04  0.15774120288E+04  0.00000000000E+00 0. -1.
         22    1    5    5    0    0  0.12501593687E+03 -0.32776799564E+03  0.14632709609E+04  0.15047334476E+04  0.00000000000E+00 0. -1.
          5    1    4    4  502    0 -0.41068311190E+01  0.24539240269E+02  0.10085560842E+03  0.10398549959E+03  0.47000000000E+01 0.  1.
         -5    1    4    4    0  502 -0.11329494772E+01 -0.13291764111E+03  0.21519822777E+03  0.25298369538E+03  0.47000000000E+01 0.  1.
<mgrwt>
<rscale>  0 0.10000508E+04</rscale>
<asrwt>0</asrwt>
<pdfrwt beam="1">  1        2 0.51766276E+00 0.10000508E+04</pdfrwt>
<pdfrwt beam="2">  1       -2 0.11431692E-01 0.10000508E+04</pdfrwt>
<totfact> 0.58456469E+01</totfact>
</mgrwt>
</event>
<event>
 9    1  0.4370149E-036  0.9991090E+03  0.7818608E-02  0.8681887E-01
         -2   -1    0    0    0  501 -0.00000000000E+00  0.00000000000E+00  0.18280877262E+03  0.18280877262E+03  0.00000000000E+00 0.  1.
          2   -1    0    0  501    0  0.00000000000E+00 -0.00000000000E+00 -0.13651133164E+04  0.13651133164E+04  0.00000000000E+00 0.  1.
         36    2    1    2    0    0 -0.28421709430E-13  0.28421709430E-13 -0.11823045438E+04  0.15479220890E+04  0.99910898274E+03 0.  0.
         25    2    3    3    0    0 -0.93921265136E+02  0.37262615305E+02 -0.71560508034E+02  0.17512747283E+03  0.12385079283E+03 0.  0.
         35    2    3    3    0    0  0.93921265136E+02 -0.37262615305E+02 -0.11107440357E+04  0.13727946162E+04  0.80037681047E+03 0.  0.
         22    1    5    5    0    0  0.32691286573E+02  0.38172003785E+03 -0.51317417417E+03  0.64041130577E+03  0.00000000000E+00 0. -1.
         22    1    5    5    0    0  0.61229978563E+02 -0.41898265316E+03 -0.59756986155E+03  0.73238331040E+03  0.00000000000E+00 0. -1.
          5    1    4    4  502    0 -0.20305456570E+02  0.70668202363E+02 -0.12100914370E+02  0.74664774294E+02  0.47000000000E+01 0. -1.
         -5    1    4    4    0  502 -0.73615808566E+02 -0.33405587058E+02 -0.59459593664E+02  0.10046269853E+03  0.47000000000E+01 0. -1.
<mgrwt>
<rscale>  0 0.99910898E+03</rscale>
<asrwt>0</asrwt>
<pdfrwt beam="1">  1        2 0.21001744E+00 0.99910898E+03</pdfrwt>
<pdfrwt beam="2">  1       -2 0.28124426E-01 0.99910898E+03</pdfrwt>
<totfact> 0.21012257E+02</totfact>
</mgrwt>
</event>
<event>
 9    1  0.4370149E-036  0.9996595E+03  0.7818608E-02  0.8681362E-01
         -1   -1    0    0    0  501 -0.00000000000E+00  0.00000000000E+00  0.29457464427E+03  0.29457464427E+03  0.00000000000E+00 0.  1.
          1   -1    0    0  501    0  0.00000000000E+00 -0.00000000000E+00 -0.84810347733E+03  0.84810347733E+03  0.00000000000E+00 0.  1.
         36    2    1    2    0    0 -0.14210854715E-13  0.14210854715E-13 -0.55352883306E+03  0.11426781216E+04  0.99965950231E+03 0.  0.
         25    2    3    3    0    0 -0.10341600307E+03 -0.18061495539E+02  0.17587010921E+01  0.16304624660E+03  0.12473932094E+03 0.  0.
         35    2    3    3    0    0  0.10341600307E+03  0.18061495539E+02 -0.55528753415E+03  0.97963187500E+03  0.80019577456E+03 0.  0.
         22    1    5    5    0    0 -0.18199005346E+03  0.32488843636E+03 -0.35764132074E+03  0.51631404198E+03  0.00000000000E+00 0. -1.
         22    1    5    5    0    0  0.28540605654E+03 -0.30682694082E+03 -0.19764621341E+03  0.46331783302E+03  0.00000000000E+00 0. -1.
          5    1    4    4  502    0 -0.85231362597E+02 -0.57890458779E+02 -0.31522084497E+02  0.10784907139E+03  0.47000000000E+01 0. -1.
         -5    1    4    4    0  502 -0.18184640477E+02  0.39828963241E+02  0.33280785589E+02  0.55197175213E+02  0.47000000000E+01 0. -1.
<mgrwt>
<rscale>  0 0.99965950E+03</rscale>
<asrwt>0</asrwt>
<pdfrwt beam="1">  1        1 0.13047746E+00 0.99965950E+03</pdfrwt>
<pdfrwt beam="2">  1       -1 0.45319176E-01 0.99965950E+03</pdfrwt>
<totfact> 0.11014557E+02</totfact>
</mgrwt>
</event>
<event>
 9    1  0.4370149E-036  0.1000147E+04  0.7818608E-02  0.8680898E-01
          2   -1    0    0  501    0  0.00000000000E+00  0.00000000000E+00  0.17532517946E+04  0.17532517946E+04  0.00000000000E+00 0.  1.
         -2   -1    0    0    0  501 -0.00000000000E+00 -0.00000000000E+00 -0.14263415890E+03  0.14263415890E+03  0.00000000000E+00 0.  1.
         36    2    1    2    0    0  0.00000000000E+00  0.71054273576E-14  0.16106176357E+04  0.18958859535E+04  0.10001471793E+04 0.  0.
         25    2    3    3    0    0  0.12414588621E+03  0.24595796064E+02  0.18681861830E+03  0.25795135829E+03  0.12498221014E+03 0.  0.
         35    2    3    3    0    0 -0.12414588621E+03 -0.24595796064E+02  0.14237990174E+04  0.16379345952E+04  0.79975555141E+03 0.  0.
         22    1    5    5    0    0  0.29000454150E+03 -0.16491282524E+03  0.87360044671E+03  0.93513454353E+03  0.00000000000E+00 0.  1.
         22    1    5    5    0    0 -0.41415042771E+03  0.14031702918E+03  0.55019857070E+03  0.70280005168E+03  0.00000000000E+00 0.  1.
          5    1    4    4  502    0  0.13598621200E+02  0.22144919673E+02 -0.13072297835E+02  0.29466844700E+02  0.47000000000E+01 0.  1.
         -5    1    4    4    0  502  0.11054726501E+03  0.24508763905E+01  0.19989091614E+03  0.22848451359E+03  0.47000000000E+01 0.  1.
<mgrwt>
<rscale>  0 0.10001472E+04</rscale>
<asrwt>0</asrwt>
<pdfrwt beam="1">  1        2 0.26973103E+00 0.10001472E+04</pdfrwt>
<pdfrwt beam="2">  1       -2 0.21943718E-01 0.10001472E+04</pdfrwt>
<totfact> 0.19678765E+02</totfact>
</mgrwt>
</event>
<event>
 9    1  0.4370149E-036  0.9994171E+03  0.7818608E-02  0.8681593E-01
         -1   -1    0    0    0  501 -0.00000000000E+00  0.00000000000E+00  0.96212826395E+02  0.96212826395E+02  0.00000000000E+00 0. -1.
          1   -1    0    0  501    0  0.00000000000E+00 -0.00000000000E+00 -0.25953777182E+04  0.25953777182E+04  0.00000000000E+00 0. -1.
         36    2    1    2    0    0 -0.14210854715E-13 -0.28421709430E-13 -0.24991648918E+04  0.26915905446E+04  0.99941708177E+03 0.  0.
         25    2    3    3    0    0 -0.25244746668E+02 -0.12964976007E+03 -0.38754897925E+03  0.42822118185E+03  0.12543050563E+03 0.  0.
         35    2    3    3    0    0  0.25244746668E+02  0.12964976007E+03 -0.21116159126E+04  0.22633693628E+04  0.80403529311E+03 0.  0.
         22    1    5    5    0    0  0.26860162423E+03  0.37315403853E+03 -0.13850998892E+04  0.14594151130E+04  0.00000000000E+00 0. -1.
         22    1    5    5    0    0 -0.24335687756E+03 -0.24350427847E+03 -0.72651602331E+03  0.80395424970E+03  0.00000000000E+00 0. -1.
          5    1    4    4  502    0 -0.72361547178E+02 -0.10676862928E+03 -0.26056211477E+03  0.29077558247E+03  0.47000000000E+01 0. -1.
         -5    1    4    4    0  502  0.47116800509E+02 -0.22881130783E+02 -0.12698686448E+03  0.13744559937E+03  0.47000000000E+01 0. -1.
<mgrwt>
<rscale>  0 0.99941708E+03</rscale>
<asrwt>0</asrwt>
<pdfrwt beam="1">  1        1 0.39928883E+00 0.99941708E+03</pdfrwt>
<pdfrwt beam="2">  1       -1 0.14801975E-01 0.99941708E+03</pdfrwt>
<totfact> 0.39760661E+01</totfact>
</mgrwt>
</event>
<event>
 9    1  0.4370149E-036  0.1000379E+04  0.7818608E-02  0.8680677E-01
         -1   -1    0    0    0  501 -0.00000000000E+00  0.00000000000E+00  0.16239714959E+03  0.16239714959E+03  0.00000000000E+00 0. -1.
          1   -1    0    0  501    0  0.00000000000E+00 -0.00000000000E+00 -0.15406025118E+04  0.15406025118E+04  0.00000000000E+00 0. -1.
         36    2    1    2    0    0  0.00000000000E+00  0.28421709430E-13 -0.13782053622E+04  0.17029996614E+04  0.10003788414E+04 0.  0.
         25    2    3    3    0    0  0.66261410555E+02  0.70494318801E+02 -0.87239635323E+02  0.18103051697E+03  0.12570310494E+03 0.  0.
         35    2    3    3    0    0 -0.66261410555E+02 -0.70494318801E+02 -0.12909657269E+04  0.15219691444E+04  0.80027341891E+03 0.  0.
         22    1    5    5    0    0 -0.15658984449E+03 -0.29233574668E+03 -0.12312237758E+04  0.12751049189E+04  0.00000000000E+00 0.  1.
         22    1    5    5    0    0  0.90328433931E+02  0.22184142788E+03 -0.59741951085E+02  0.24686422548E+03  0.00000000000E+00 0.  1.
          5    1    4    4  502    0 -0.92072107553E+01 -0.29759798691E+02 -0.78522983531E+01  0.32467937068E+02  0.47000000000E+01 0.  1.
         -5    1    4    4    0  502  0.75468621310E+02  0.10025411749E+03 -0.79387336970E+02  0.14856257990E+03  0.47000000000E+01 0.  1.
<mgrwt>
<rscale>  0 0.10003788E+04</rscale>
<asrwt>0</asrwt>
<pdfrwt beam="1">  1        1 0.23701576E+00 0.10003788E+04</pdfrwt>
<pdfrwt beam="2">  1       -1 0.24984178E-01 0.10003788E+04</pdfrwt>
<totfact> 0.92568284E+01</totfact>
</mgrwt>
</event>
<event>
 9    1  0.4370149E-036  0.9984955E+03  0.7818608E-02  0.8682472E-01
          2   -1    0    0  501    0  0.00000000000E+00  0.00000000000E+00  0.37545959673E+04  0.37545959673E+04  0.00000000000E+00 0. -1.
         -2   -1    0    0    0  501 -0.00000000000E+00 -0.00000000000E+00 -0.66384853155E+02  0.66384853155E+02  0.00000000000E+00 0. -1.
         36    2    1    2    0    0  0.00000000000E+00 -0.14210854715E-13  0.36882111142E+04  0.38209808205E+04  0.99849547209E+03 0.  0.
         25    2    3    3    0    0  0.16924608806E+02  0.10312276417E+02  0.18016108702E+03  0.22232590308E+03  0.12875559980E+03 0.  0.
         35    2    3    3    0    0 -0.16924608806E+02 -0.10312276417E+02  0.35080500271E+04  0.35986549174E+04  0.80219039888E+03 0.  0.
         22    1    5    5    0    0 -0.27126760577E+03 -0.14877621287E+03  0.29833093052E+04  0.29993090681E+04  0.00000000000E+00 0.  1.
         22    1    5    5    0    0  0.25434299696E+03  0.13846393645E+03  0.52474072196E+03  0.59934584931E+03  0.00000000000E+00 0.  1.
          5    1    4    4  502    0  0.59676354604E+02 -0.31266206443E+02  0.11864273719E+03  0.13651751555E+03  0.47000000000E+01 0. -1.
         -5    1    4    4    0  502 -0.42751745798E+02  0.41578482860E+02  0.61518349830E+02  0.85808387536E+02  0.47000000000E+01 0. -1.
<mgrwt>
<rscale>  0 0.99849547E+03</rscale>
<asrwt>0</asrwt>
<pdfrwt beam="1">  1        2 0.57762998E+00 0.99849547E+03</pdfrwt>
<pdfrwt beam="2">  1       -2 0.10213057E-01 0.99849547E+03</pdfrwt>
<totfact> 0.35242348E+01</totfact>
</mgrwt>
</event>
<event>
 9    1  0.4370149E-036  0.9998805E+03  0.7818608E-02  0.8681152E-01
          1   -1    0    0  501    0  0.00000000000E+00  0.00000000000E+00  0.67103099991E+03  0.67103099991E+03  0.00000000000E+00 0.  1.
         -1   -1    0    0    0  501 -0.00000000000E+00 -0.00000000000E+00 -0.37247202448E+03  0.37247202448E+03  0.00000000000E+00 0.  1.
         36    2    1    2    0    0  0.71054273576E-14  0.71054273576E-14  0.29855897543E+03  0.10435030244E+04  0.99988054291E+03 0.  0.
         25    2    3    3    0    0 -0.51159340926E+02 -0.51406390257E+02 -0.68868629879E+02  0.16009147935E+03  0.12500599368E+03 0.  0.
         35    2    3    3    0    0  0.51159340926E+02  0.51406390257E+02  0.36742760531E+03  0.88341154503E+03  0.80009563030E+03 0.  0.
         22    1    5    5    0    0  0.35976745631E+02 -0.41051322088E+02  0.61566506477E+03  0.61808009938E+03  0.00000000000E+00 0. -1.
         22    1    5    5    0    0  0.15182595295E+02  0.92457712345E+02 -0.24823745946E+03  0.26533144565E+03  0.00000000000E+00 0. -1.
          5    1    4    4  502    0 -0.38498308253E+02 -0.90036079140E+02 -0.27310586377E+02  0.10176725118E+03  0.47000000000E+01 0. -1.
         -5    1    4    4    0  502 -0.12661032673E+02  0.38629688883E+02 -0.41558043502E+02  0.58324228167E+02  0.47000000000E+01 0. -1.
<mgrwt>
<rscale>  0 0.99988054E+03</rscale>
<asrwt>0</asrwt>
<pdfrwt beam="1">  1        1 0.10323554E+00 0.99988054E+03</pdfrwt>
<pdfrwt beam="2">  1       -1 0.57303388E-01 0.99988054E+03</pdfrwt>
<totfact> 0.10332937E+02</totfact>
</mgrwt>
</event>
<event>
 9    1  0.4370149E-036  0.9999543E+03  0.7818608E-02  0.8681081E-01
          1   -1    0    0  501    0  0.00000000000E+00  0.00000000000E+00  0.78692588890E+03  0.78692588890E+03  0.00000000000E+00 0. -1.
         -1   -1    0    0    0  501 -0.00000000000E+00 -0.00000000000E+00 -0.31766291153E+03  0.31766291153E+03  0.00000000000E+00 0. -1.
         36    2    1    2    0    0 -0.28421709430E-13  0.00000000000E+00  0.46926297737E+03  0.11045888004E+04  0.99995433702E+03 0.  0.
         25    2    3    3    0    0 -0.10451127391E+03  0.82170133765E+02  0.39951566263E+02  0.18662917458E+03  0.12473886283E+03 0.  0.
         35    2    3    3    0    0  0.10451127391E+03 -0.82170133765E+02  0.42931141111E+03  0.91795962586E+03  0.80041679752E+03 0.  0.
         22    1    5    5    0    0  0.37746767515E+03 -0.11333604140E+03  0.49769756965E+03  0.63484626083E+03  0.00000000000E+00 0.  1.
         22    1    5    5    0    0 -0.27295640124E+03  0.31165907632E+02 -0.68386158544E+02  0.28311336503E+03  0.00000000000E+00 0.  1.
          5    1    4    4  502    0  0.31118446975E+01 -0.26985358531E+02  0.14571033226E+02  0.31181695941E+02  0.47000000000E+01 0. -1.
         -5    1    4    4    0  502 -0.10762311860E+03  0.10915549230E+03  0.25380533037E+02  0.15544747863E+03  0.47000000000E+01 0. -1.
<mgrwt>
<rscale>  0 0.99995434E+03</rscale>
<asrwt>0</asrwt>
<pdfrwt beam="1">  1        1 0.12106552E+00 0.99995434E+03</pdfrwt>
<pdfrwt beam="2">  1       -1 0.48871217E-01 0.99995434E+03</pdfrwt>
<totfact> 0.10851445E+02</totfact>
</mgrwt>
</event>
<event>
 9    1  0.4370149E-036  0.1000689E+04  0.7818608E-02  0.8680382E-01
          2   -1    0    0  501    0  0.00000000000E+00  0.00000000000E+00  0.86964659683E+03  0.86964659683E+03  0.00000000000E+00 0.  1.
         -2   -1    0    0    0  501 -0.00000000000E+00 -0.00000000000E+00 -0.28786951477E+03  0.28786951477E+03  0.00000000000E+00 0.  1.
         36    2    1    2    0    0 -0.71054273576E-14  0.00000000000E+00  0.58177708206E+03  0.11575161116E+04  0.10006892502E+04 0.  0.
         25    2    3    3    0    0 -0.33540940499E+02  0.13104258548E+03  0.64694521328E+02  0.19490996770E+03  0.12452855303E+03 0.  0.
         35    2    3    3    0    0  0.33540940499E+02 -0.13104258548E+03  0.51708256073E+03  0.96260614390E+03  0.80058669722E+03 0.  0.
         22    1    5    5    0    0 -0.27755020548E+02 -0.15686252870E+03  0.72604421794E+03  0.74331446944E+03  0.00000000000E+00 0. -1.
         22    1    5    5    0    0  0.61295961048E+02  0.25819943217E+02 -0.20896165720E+03  0.21929167447E+03  0.00000000000E+00 0. -1.
          5    1    4    4  502    0 -0.19235632499E+02  0.15183104792E+03  0.37762333422E+02  0.15770466225E+03  0.47000000000E+01 0.  1.
         -5    1    4    4    0  502 -0.14305308000E+02 -0.20788462444E+02  0.26932187906E+02  0.37205305444E+02  0.47000000000E+01 0.  1.
<mgrwt>
<rscale>  0 0.10006893E+04</rscale>
<asrwt>0</asrwt>
<pdfrwt beam="1">  1        2 0.13379178E+00 0.10006893E+04</pdfrwt>
<pdfrwt beam="2">  1       -2 0.44287618E-01 0.10006893E+04</pdfrwt>
<totfact> 0.17994979E+02</totfact>
</mgrwt>
</event>
<event>
 9    1  0.4370149E-036  0.9987605E+03  0.7818608E-02  0.8682219E-01
         -1   -1    0    0    0  501 -0.00000000000E+00  0.00000000000E+00  0.15785704388E+03  0.15785704388E+03  0.00000000000E+00 0. -1.
          1   -1    0    0  501    0  0.00000000000E+00 -0.00000000000E+00 -0.15797877035E+04  0.15797877035E+04  0.00000000000E+00 0. -1.
         36    2    1    2    0    0  0.00000000000E+00  0.00000000000E+00 -0.14219306597E+04  0.17376447474E+04  0.99876046544E+03 0.  0.
         25    2    3    3    0    0 -0.95208583529E+02  0.99394274387E+02 -0.24604677048E+03  0.30838471619E+03  0.12497289209E+03 0.  0.
         35    2    3    3    0    0  0.95208583529E+02 -0.99394274387E+02 -0.11758838892E+04  0.14292600312E+04  0.80071057184E+03 0.  0.
         22    1    5    5    0    0  0.45478812589E+02  0.19045417335E+03 -0.11109746560E+04  0.11280983117E+04  0.00000000000E+00 0. -1.
         22    1    5    5    0    0  0.49729770939E+02 -0.28984844774E+03 -0.64909233197E+02  0.30116171956E+03  0.00000000000E+00 0. -1.
          5    1    4    4  502    0 -0.54022156362E+02  0.36306588673E+01 -0.17213213653E+03  0.18050799840E+03  0.47000000000E+01 0. -1.
         -5    1    4    4    0  502 -0.41186427166E+02  0.95763615520E+02 -0.73914633954E+02  0.12787671779E+03  0.47000000000E+01 0. -1.
<mgrwt>
<rscale>  0 0.99876047E+03</rscale>
<asrwt>0</asrwt>
<pdfrwt beam="1">  1        1 0.24304426E+00 0.99876047E+03</pdfrwt>
<pdfrwt beam="2">  1       -1 0.24285700E-01 0.99876047E+03</pdfrwt>
<totfact> 0.91068114E+01</totfact>
</mgrwt>
</event>
<event>
 9    1  0.4370149E-036  0.9997548E+03  0.7818608E-02  0.8681271E-01
          1   -1    0    0  501    0  0.00000000000E+00  0.00000000000E+00  0.22115874862E+04  0.22115874862E+04  0.00000000000E+00 0.  1.
         -1   -1    0    0    0  501 -0.00000000000E+00 -0.00000000000E+00 -0.11298555459E+03  0.11298555459E+03  0.00000000000E+00 0.  1.
         36    2    1    2    0    0  0.00000000000E+00  0.15987211555E-13  0.20986019316E+04  0.23245730408E+04  0.99975484725E+03 0.  0.
         25    2    3    3    0    0 -0.13931449550E+03 -0.15210370072E+02  0.42969965510E+03  0.46894482310E+03  0.12501027757E+03 0.  0.
         35    2    3    3    0    0  0.13931449550E+03  0.15210370072E+02  0.16689022765E+04  0.18556282177E+04  0.79905030490E+03 0.  0.
         22    1    5    5    0    0 -0.76071405489E+02  0.30042178959E+03  0.13209733837E+04  0.13568385279E+04  0.00000000000E+00 0. -1.
         22    1    5    5    0    0  0.21538590099E+03 -0.28521141951E+03  0.34792889275E+03  0.49878968972E+03  0.00000000000E+00 0. -1.
          5    1    4    4  502    0 -0.15186889517E+03 -0.62919258500E+00  0.42049269447E+03  0.44710262055E+03  0.47000000000E+01 0.  1.
         -5    1    4    4    0  502  0.12554399667E+02 -0.14581177487E+02  0.92069606367E+01  0.21842202546E+02  0.47000000000E+01 0.  1.
<mgrwt>
<rscale>  0 0.99975485E+03</rscale>
<asrwt>0</asrwt>
<pdfrwt beam="1">  1        1 0.34024420E+00 0.99975485E+03</pdfrwt>
<pdfrwt beam="2">  1       -1 0.17382395E-01 0.99975485E+03</pdfrwt>
<totfact> 0.56987213E+01</totfact>
</mgrwt>
</event>
<event>
 9    1  0.4370149E-036  0.9991350E+03  0.7818608E-02  0.8681862E-01
          2   -1    0    0  501    0  0.00000000000E+00  0.00000000000E+00  0.12998611211E+04  0.12998611211E+04  0.00000000000E+00 0.  1.
         -2   -1    0    0    0  501 -0.00000000000E+00 -0.00000000000E+00 -0.19199565100E+03  0.19199565100E+03  0.00000000000E+00 0.  1.
         36    2    1    2    0    0  0.14210854715E-13  0.00000000000E+00  0.11078654701E+04  0.14918567721E+04  0.99913499018E+03 0.  0.
         25    2    3    3    0    0 -0.59750857594E+02  0.27277138906E+02  0.38874212464E+03  0.41367302591E+03  0.12526262651E+03 0.  0.
         35    2    3    3    0    0  0.59750857594E+02 -0.27277138906E+02  0.71912334547E+03  0.10781837462E+04  0.80064199070E+03 0.  0.
         22    1    5    5    0    0  0.18734045776E+03 -0.52894922557E+02 -0.12023110434E+03  0.22880087062E+03  0.00000000000E+00 0. -1.
         22    1    5    5    0    0 -0.12758960016E+03  0.25617783651E+02  0.83935444981E+03  0.84938287558E+03  0.00000000000E+00 0. -1.
          5    1    4    4  502    0  0.22047669631E+02 -0.28434310236E+02  0.58059806112E+02  0.68466348088E+02  0.47000000000E+01 0.  1.
         -5    1    4    4    0  502 -0.81798527225E+02  0.55711449143E+02  0.33068231853E+03  0.34520667782E+03  0.47000000000E+01 0.  1.
<mgrwt>
<rscale>  0 0.99913499E+03</rscale>
<asrwt>0</asrwt>
<pdfrwt beam="1">  1        2 0.19997863E+00 0.99913499E+03</pdfrwt>
<pdfrwt beam="2">  1       -2 0.29537793E-01 0.99913499E+03</pdfrwt>
<totfact> 0.20966917E+02</totfact>
</mgrwt>
</event>
<event>
 9    1  0.4370149E-036  0.9986222E+03  0.7818608E-02  0.8682351E-01
         -1   -1    0    0    0  501 -0.00000000000E+00  0.00000000000E+00  0.29551908575E+03  0.29551908575E+03  0.00000000000E+00 0. -1.
          1   -1    0    0  501    0  0.00000000000E+00 -0.00000000000E+00 -0.84363945932E+03  0.84363945932E+03  0.00000000000E+00 0. -1.
         36    2    1    2    0    0 -0.14210854715E-13  0.14210854715E-13 -0.54812037357E+03  0.11391585451E+04  0.99862217425E+03 0.  0.
         25    2    3    3    0    0  0.49048016371E+02 -0.11005530040E+03 -0.25077246743E+02  0.17538113472E+03  0.12494717706E+03 0.  0.
         35    2    3    3    0    0 -0.49048016371E+02  0.11005530040E+03 -0.52304312683E+03  0.96377741035E+03  0.80048417044E+03 0.  0.
         22    1    5    5    0    0  0.13253050318E+03 -0.13356417909E+03  0.13993455344E+03  0.23448966599E+03  0.00000000000E+00 0. -1.
         22    1    5    5    0    0 -0.18157851955E+03  0.24361947949E+03 -0.66297768026E+03  0.72928774436E+03  0.00000000000E+00 0. -1.
          5    1    4    4  502    0  0.25622468004E+02  0.20193109746E+02 -0.27517683616E+02  0.42936994066E+02  0.47000000000E+01 0. -1.
         -5    1    4    4    0  502  0.23425548367E+02 -0.13024841015E+03  0.24404368731E+01  0.13244414066E+03  0.47000000000E+01 0. -1.
<mgrwt>
<rscale>  0 0.99862217E+03</rscale>
<asrwt>0</asrwt>
<pdfrwt beam="1">  1        1 0.12979069E+00 0.99862217E+03</pdfrwt>
<pdfrwt beam="2">  1       -1 0.45464474E-01 0.99862217E+03</pdfrwt>
<totfact> 0.11048714E+02</totfact>
</mgrwt>
</event>
<event>
 9    1  0.4370149E-036  0.1003448E+04  0.7818608E-02  0.8677762E-01
          1   -1    0    0  501    0  0.00000000000E+00  0.00000000000E+00  0.11298105983E+04  0.11298105983E+04  0.00000000000E+00 0.  1.
         -1   -1    0    0    0  501 -0.00000000000E+00 -0.00000000000E+00 -0.22280441538E+03  0.22280441538E+03  0.00000000000E+00 0.  1.
         36    2    1    2    0    0  0.14210854715E-13  0.00000000000E+00  0.90700618293E+03  0.13526150137E+04  0.10034476366E+04 0.  0.
         25    2    3    3    0    0  0.35876746505E+02 -0.12238602183E+03  0.25995455945E+03  0.31532730389E+03  0.12485774433E+03 0.  0.
         35    2    3    3    0    0 -0.35876746505E+02  0.12238602183E+03  0.64705162348E+03  0.10372877098E+04  0.80064006281E+03 0.  0.
         22    1    5    5    0    0 -0.28655164634E+03  0.34956514548E+03  0.25320617133E+03  0.51809362296E+03  0.00000000000E+00 0. -1.
         22    1    5    5    0    0  0.25067489984E+03 -0.22717912365E+03  0.39384545215E+03  0.51919408684E+03  0.00000000000E+00 0. -1.
          5    1    4    4  502    0 -0.14929307272E+02 -0.12436033601E+03  0.20524914533E+03  0.24049465492E+03  0.47000000000E+01 0.  1.
         -5    1    4    4    0  502  0.50806053777E+02  0.19743141846E+01  0.54705414125E+02  0.74832648967E+02  0.47000000000E+01 0.  1.
<mgrwt>
<rscale>  0 0.10034476E+04</rscale>
<asrwt>0</asrwt>
<pdfrwt beam="1">  1        1 0.17381701E+00 0.10034476E+04</pdfrwt>
<pdfrwt beam="2">  1       -1 0.34277603E-01 0.10034476E+04</pdfrwt>
<totfact> 0.10750421E+02</totfact>
</mgrwt>
</event>
<event>
 9    1  0.4370149E-036  0.1000216E+04  0.7818608E-02  0.8680832E-01
          2   -1    0    0  501    0  0.00000000000E+00  0.00000000000E+00  0.97033980066E+03  0.97033980066E+03  0.00000000000E+00 0. -1.
         -2   -1    0    0    0  501 -0.00000000000E+00 -0.00000000000E+00 -0.25775319363E+03  0.25775319363E+03  0.00000000000E+00 0. -1.
         36    2    1    2    0    0 -0.71054273576E-14  0.71054273576E-14  0.71258660704E+03  0.12280929943E+04  0.10002163416E+04 0.  0.
         25    2    3    3    0    0 -0.50147327919E+02 -0.11730632708E+02  0.29257694094E+03  0.32221714946E+03  0.12478085911E+03 0.  0.
         35    2    3    3    0    0  0.50147327919E+02  0.11730632708E+02  0.42000966610E+03  0.90587584482E+03  0.80096851647E+03 0.  0.
         22    1    5    5    0    0  0.15408517220E+03 -0.26978900498E+03  0.50594108824E+03  0.59372108963E+03  0.00000000000E+00 0. -1.
         22    1    5    5    0    0 -0.10393784428E+03  0.28151963769E+03 -0.85931422142E+02  0.31215475519E+03  0.00000000000E+00 0. -1.
          5    1    4    4  502    0 -0.22716503745E+02  0.47329075568E+01  0.28867816917E+03  0.28964739825E+03  0.47000000000E+01 0.  1.
         -5    1    4    4    0  502 -0.27430824174E+02 -0.16463540265E+02  0.38987717629E+01  0.32569751214E+02  0.47000000000E+01 0.  1.
<mgrwt>
<rscale>  0 0.10002163E+04</rscale>
<asrwt>0</asrwt>
<pdfrwt beam="1">  1        2 0.14928304E+00 0.10002163E+04</pdfrwt>
<pdfrwt beam="2">  1       -2 0.39654338E-01 0.10002163E+04</pdfrwt>
<totfact> 0.19149641E+02</totfact>
</mgrwt>
</event>
<event>
 9    1  0.4370149E-036  0.1000257E+04  0.7818608E-02  0.8680793E-01
          1   -1    0    0  501    0  0.00000000000E+00  0.00000000000E+00  0.46444565618E+03  0.46444565618E+03  0.00000000000E+00 0.  1.
         -1   -1    0    0    0  501 -0.00000000000E+00 -0.00000000000E+00 -0.53855322456E+03  0.53855322456E+03  0.00000000000E+00 0.  1.
         36    2    1    2    0    0  0.00000000000E+00  0.14210854715E-13 -0.74107568383E+02  0.10029988807E+04  0.10002573784E+04 0.  0.
         25    2    3    3    0    0 -0.80188201493E+02  0.11655489266E+03 -0.26106573900E+02  0.19027290475E+03  0.12452724368E+03 0.  0.
         35    2    3    3    0    0  0.80188201493E+02 -0.11655489266E+03 -0.48000994483E+02  0.81272597600E+03  0.79887685279E+03 0.  0.
         22    1    5    5    0    0  0.10626324814E+03 -0.41011273192E+03  0.15907493349E+03  0.45253636899E+03  0.00000000000E+00 0. -1.
         22    1    5    5    0    0 -0.26075046651E+02  0.29355783927E+03 -0.20707592797E+03  0.36018960701E+03  0.00000000000E+00 0. -1.
          5    1    4    4  502    0 -0.55233547429E+02 -0.12305041475E+02 -0.13243089182E+02  0.58306330860E+02  0.47000000000E+01 0.  1.
         -5    1    4    4    0  502 -0.24954654063E+02  0.12885993413E+03 -0.12863484718E+02  0.13196657389E+03  0.47000000000E+01 0.  1.
<mgrwt>
<rscale>  0 0.10002574E+04</rscale>
<asrwt>0</asrwt>
<pdfrwt beam="1">  1        1 0.71453178E-01 0.10002574E+04</pdfrwt>
<pdfrwt beam="2">  1       -1 0.82854342E-01 0.10002574E+04</pdfrwt>
<totfact> 0.84089163E+01</totfact>
</mgrwt>
</event>
<event>
 9    1  0.4370149E-036  0.1000127E+04  0.7818608E-02  0.8680917E-01
         -2   -1    0    0    0  501 -0.00000000000E+00  0.00000000000E+00  0.39965399514E+03  0.39965399514E+03  0.00000000000E+00 0. -1.
          2   -1    0    0  501    0  0.00000000000E+00 -0.00000000000E+00 -0.62569992829E+03  0.62569992829E+03  0.00000000000E+00 0. -1.
         36    2    1    2    0    0 -0.71054273576E-14  0.35527136788E-14 -0.22604593315E+03  0.10253539234E+04  0.10001269441E+04 0.  0.
         25    2    3    3    0    0  0.16881806779E+02 -0.31600655520E+02  0.95386782147E+02  0.16122185643E+03  0.12494099389E+03 0.  0.
         35    2    3    3    0    0 -0.16881806779E+02  0.31600655520E+02 -0.32143271529E+03  0.86413206700E+03  0.80132492906E+03 0.  0.
         22    1    5    5    0    0 -0.73760129696E+02 -0.36193582017E+03 -0.28925478534E+02  0.37050611056E+03  0.00000000000E+00 0.  1.
         22    1    5    5    0    0  0.56878322917E+02  0.39353647569E+03 -0.29250723676E+03  0.49362595644E+03  0.00000000000E+00 0.  1.
          5    1    4    4  502    0 -0.45843033434E+02 -0.30647533698E+02  0.11766668741E+02  0.56580911352E+02  0.47000000000E+01 0. -1.
         -5    1    4    4    0  502  0.62724840213E+02 -0.95312182204E+00  0.83620113406E+02  0.10464094508E+03  0.47000000000E+01 0. -1.
<mgrwt>
<rscale>  0 0.10001269E+04</rscale>
<asrwt>0</asrwt>
<pdfrwt beam="1">  1        2 0.96261528E-01 0.10001269E+04</pdfrwt>
<pdfrwt beam="2">  1       -2 0.61485230E-01 0.10001269E+04</pdfrwt>
<totfact> 0.14020511E+02</totfact>
</mgrwt>
</event>
<event>
 9    1  0.4370149E-036  0.9949229E+03  0.7818608E-02  0.8685888E-01
          1   -1    0    0  501    0  0.00000000000E+00  0.00000000000E+00  0.27829683231E+04  0.27829683231E+04  0.00000000000E+00 0.  1.
         -1   -1    0    0    0  501 -0.00000000000E+00 -0.00000000000E+00 -0.88922290522E+02  0.88922290522E+02  0.00000000000E+00 0.  1.
         36    2    1    2    0    0 -0.14210854715E-13 -0.42632564146E-13  0.26940460326E+04  0.28718906136E+04  0.99492294724E+03 0.  0.
         25    2    3    3    0    0  0.31864537683E+02 -0.73593642057E+02  0.80633110456E+03  0.82006131263E+03  0.12609255878E+03 0.  0.
         35    2    3    3    0    0 -0.31864537683E+02  0.73593642057E+02  0.18877149280E+04  0.20518293010E+04  0.80006528360E+03 0.  0.
         22    1    5    5    0    0 -0.17149238919E+03 -0.31375652777E+03  0.58529375457E+03  0.68587285804E+03  0.00000000000E+00 0.  1.
         22    1    5    5    0    0  0.13962785150E+03  0.38735016982E+03  0.13024211734E+04  0.13659564429E+04  0.00000000000E+00 0.  1.
          5    1    4    4  502    0 -0.45751254456E+02 -0.28036129046E+02  0.41536004268E+03  0.41883798404E+03  0.47000000000E+01 0.  1.
         -5    1    4    4    0  502  0.77615792139E+02 -0.45557513010E+02  0.39097106188E+03  0.40122332859E+03  0.47000000000E+01 0.  1.
<mgrwt>
<rscale>  0 0.99492295E+03</rscale>
<asrwt>0</asrwt>
<pdfrwt beam="1">  1        1 0.42814891E+00 0.99492295E+03</pdfrwt>
<pdfrwt beam="2">  1       -1 0.13680355E-01 0.99492295E+03</pdfrwt>
<totfact> 0.33278142E+01</totfact>
</mgrwt>
</event>
<event>
 9    1  0.4370149E-036  0.1000315E+04  0.7818608E-02  0.8680738E-01
          2   -1    0    0  501    0  0.00000000000E+00  0.00000000000E+00  0.46830875314E+03  0.46830875314E+03  0.00000000000E+00 0.  1.
         -2   -1    0    0    0  501 -0.00000000000E+00 -0.00000000000E+00 -0.53417267905E+03  0.53417267905E+03  0.00000000000E+00 0.  1.
         36    2    1    2    0    0  0.14210854715E-13  0.00000000000E+00 -0.65863925907E+02  0.10024814322E+04  0.10003154328E+04 0.  0.
         25    2    3    3    0    0  0.85771540536E+02  0.73402115313E+02  0.72257697288E+02  0.18238653574E+03  0.12368931200E+03 0.  0.
         35    2    3    3    0    0 -0.85771540536E+02 -0.73402115313E+02 -0.13812162320E+03  0.82009489644E+03  0.80045826167E+03 0.  0.
         22    1    5    5    0    0 -0.15849662471E+03  0.34689117714E+03 -0.78952602587E+02  0.38947167070E+03  0.00000000000E+00 0. -1.
         22    1    5    5    0    0  0.72725084177E+02 -0.42029329245E+03 -0.59169020608E+02  0.43062322574E+03  0.00000000000E+00 0. -1.
          5    1    4    4  502    0  0.11102034940E+03  0.66155626846E+02  0.30564539487E+02  0.13288478475E+03  0.47000000000E+01 0. -1.
         -5    1    4    4    0  502 -0.25248808861E+02  0.72464884672E+01  0.41693157802E+02  0.49501750994E+02  0.47000000000E+01 0. -1.
<mgrwt>
<rscale>  0 0.10003154E+04</rscale>
<asrwt>0</asrwt>
<pdfrwt beam="1">  1        2 0.72047501E-01 0.10003154E+04</pdfrwt>
<pdfrwt beam="2">  1       -2 0.82180412E-01 0.10003154E+04</pdfrwt>
<totfact> 0.10392544E+02</totfact>
</mgrwt>
</event>
<event>
 9    1  0.4370149E-036  0.9997561E+03  0.7818608E-02  0.8681270E-01
         -2   -1    0    0    0  501 -0.00000000000E+00  0.00000000000E+00  0.73272457808E+02  0.73272457808E+02  0.00000000000E+00 0.  1.
          2   -1    0    0  501    0  0.00000000000E+00 -0.00000000000E+00 -0.34102594137E+04  0.34102594137E+04  0.00000000000E+00 0.  1.
         36    2    1    2    0    0 -0.35527136788E-13 -0.42632564146E-13 -0.33369869559E+04  0.34835318715E+04  0.99975614827E+03 0.  0.
         25    2    3    3    0    0 -0.32350499580E+01  0.53229790194E+02 -0.16330758891E+03  0.21213575836E+03  0.12445214047E+03 0.  0.
         35    2    3    3    0    0  0.32350499580E+01 -0.53229790194E+02 -0.31736793669E+04  0.32713961131E+04  0.79180043481E+03 0.  0.
         22    1    5    5    0    0  0.26740033764E+03 -0.31964001286E+03 -0.17759016916E+04  0.18241434967E+04  0.00000000000E+00 0.  1.
         22    1    5    5    0    0 -0.26416528768E+03  0.26641022266E+03 -0.13977776754E+04  0.14472526164E+04  0.00000000000E+00 0.  1.
          5    1    4    4  502    0  0.45518475811E+02  0.65804675529E+02 -0.12584777194E+03  0.14920435203E+03  0.47000000000E+01 0. -1.
         -5    1    4    4    0  502 -0.48753525769E+02 -0.12574885334E+02 -0.37459816972E+02  0.62931406338E+02  0.47000000000E+01 0. -1.
<mgrwt>
<rscale>  0 0.99975615E+03</rscale>
<asrwt>0</asrwt>
<pdfrwt beam="1">  1        2 0.52465531E+00 0.99975615E+03</pdfrwt>
<pdfrwt beam="2">  1       -2 0.11272685E-01 0.99975615E+03</pdfrwt>
<totfact> 0.55394615E+01</totfact>
</mgrwt>
</event>
<event>
 9    1  0.4370149E-036  0.1000369E+04  0.7818608E-02  0.8680687E-01
          2   -1    0    0  501    0  0.00000000000E+00  0.00000000000E+00  0.19279542531E+04  0.19279542531E+04  0.00000000000E+00 0.  1.
         -2   -1    0    0    0  501 -0.00000000000E+00 -0.00000000000E+00 -0.12976674488E+03  0.12976674488E+03  0.00000000000E+00 0.  1.
         36    2    1    2    0    0  0.00000000000E+00  0.00000000000E+00  0.17981875082E+04  0.20577209980E+04  0.10003686275E+04 0.  0.
         25    2    3    3    0    0 -0.98121511096E+02 -0.91955412505E+02  0.21938200142E+03  0.28264970175E+03  0.11695624192E+03 0.  0.
         35    2    3    3    0    0  0.98121511096E+02  0.91955412505E+02  0.15788055068E+04  0.17750712963E+04  0.80010477413E+03 0.  0.
         22    1    5    5    0    0  0.18496429388E+03 -0.15512178087E+03  0.81129795325E+02  0.25466959104E+03  0.00000000000E+00 0. -1.
         22    1    5    5    0    0 -0.86842782786E+02  0.24707719337E+03  0.14976757115E+04  0.15204017052E+04  0.00000000000E+00 0. -1.
          5    1    4    4  502    0 -0.73528565019E+02 -0.48046169450E+02  0.21454068374E+03  0.23187211831E+03  0.47000000000E+01 0.  1.
         -5    1    4    4    0  502 -0.24592946076E+02 -0.43909243055E+02  0.48413176782E+01  0.50777583433E+02  0.47000000000E+01 0.  1.
<mgrwt>
<rscale>  0 0.10003686E+04</rscale>
<asrwt>0</asrwt>
<pdfrwt beam="1">  1        2 0.29660832E+00 0.10003686E+04</pdfrwt>
<pdfrwt beam="2">  1       -2 0.19964116E-01 0.10003686E+04</pdfrwt>
<totfact> 0.18477719E+02</totfact>
</mgrwt>
</event>
<event>
 9    1  0.4370149E-036  0.1000521E+04  0.7818608E-02  0.8680542E-01
         -1   -1    0    0    0  501 -0.00000000000E+00  0.00000000000E+00  0.22563817608E+03  0.22563817608E+03  0.00000000000E+00 0.  1.
          1   -1    0    0  501    0  0.00000000000E+00 -0.00000000000E+00 -0.11091231381E+04  0.11091231381E+04  0.00000000000E+00 0.  1.
         36    2    1    2    0    0  0.00000000000E+00 -0.10658141036E-13 -0.88348496201E+03  0.13347613142E+04  0.10005209082E+04 0.  0.
         25    2    3    3    0    0 -0.13125237301E+03  0.10685738393E+02 -0.96762357676E+02  0.20586916744E+03  0.12521098120E+03 0.  0.
         35    2    3    3    0    0  0.13125237301E+03 -0.10685738393E+02 -0.78672260433E+03  0.11288921467E+04  0.79882642193E+03 0.  0.
         22    1    5    5    0    0  0.37148592667E+01  0.21764118371E+03 -0.83503109437E+03  0.86293592670E+03  0.00000000000E+00 0. -1.
         22    1    5    5    0    0  0.12753751374E+03 -0.22832692210E+03  0.48308490035E+02  0.26595622004E+03  0.00000000000E+00 0. -1.
          5    1    4    4  502    0 -0.14702847356E+03  0.10383738230E+02 -0.49076851562E+02  0.15542143165E+03  0.47000000000E+01 0.  1.
         -5    1    4    4    0  502  0.15776100553E+02  0.30200016330E+00 -0.47685506114E+02  0.50447735788E+02  0.47000000000E+01 0.  1.
<mgrwt>
<rscale>  0 0.10005209E+04</rscale>
<asrwt>0</asrwt>
<pdfrwt beam="1">  1        1 0.17063433E+00 0.10005209E+04</pdfrwt>
<pdfrwt beam="2">  1       -1 0.34713566E-01 0.10005209E+04</pdfrwt>
<totfact> 0.10908118E+02</totfact>
</mgrwt>
</event>
<event>
 9    1  0.4370149E-036  0.1000080E+04  0.7818608E-02  0.8680961E-01
         -2   -1    0    0    0  501 -0.00000000000E+00  0.00000000000E+00  0.28759816839E+03  0.28759816839E+03  0.00000000000E+00 0. -1.
          2   -1    0    0  501    0  0.00000000000E+00 -0.00000000000E+00 -0.86940815918E+03  0.86940815918E+03  0.00000000000E+00 0. -1.
         36    2    1    2    0    0  0.21316282073E-13  0.71054273576E-14 -0.58180999080E+03  0.11570063276E+04  0.10000803851E+04 0.  0.
         25    2    3    3    0    0  0.44410959801E+02 -0.40398665728E+02  0.37690248439E+02  0.14298719291E+03  0.12417889099E+03 0.  0.
         35    2    3    3    0    0 -0.44410959801E+02  0.40398665728E+02 -0.61950023924E+03  0.10140191347E+04  0.80053099471E+03 0.  0.
         22    1    5    5    0    0  0.29519633037E+03  0.17161841932E+03 -0.54386294334E+03  0.64216871339E+03  0.00000000000E+00 0. -1.
         22    1    5    5    0    0 -0.33960729017E+03 -0.13121975359E+03 -0.75637295893E+02  0.37185042127E+03  0.00000000000E+00 0. -1.
          5    1    4    4  502    0  0.71057668539E+02 -0.57763940415E+02  0.54539247023E+02  0.10668872732E+03  0.47000000000E+01 0. -1.
         -5    1    4    4    0  502 -0.26646708738E+02  0.17365274687E+02 -0.16848998584E+02  0.36298465598E+02  0.47000000000E+01 0. -1.
<mgrwt>
<rscale>  0 0.10000804E+04</rscale>
<asrwt>0</asrwt>
<pdfrwt beam="1">  1        2 0.13375510E+00 0.10000804E+04</pdfrwt>
<pdfrwt beam="2">  1       -2 0.44245873E-01 0.10000804E+04</pdfrwt>
<totfact> 0.18034936E+02</totfact>
</mgrwt>
</event>
<event>
 9    1  0.4370149E-036  0.1000175E+04  0.7818608E-02  0.8680872E-01
         -1   -1    0    0    0  501 -0.00000000000E+00  0.00000000000E+00  0.14398509527E+03  0.14398509527E+03  0.00000000000E+00 0.  1.
          1   -1    0    0  501    0  0.00000000000E+00 -0.00000000000E+00 -0.17368975354E+04  0.17368975354E+04  0.00000000000E+00 0.  1.
         36    2    1    2    0    0  0.00000000000E+00  0.00000000000E+00 -0.15929124402E+04  0.18808826307E+04  0.10001746990E+04 0.  0.
         25    2    3    3    0    0  0.73018226105E+02 -0.10444839967E+03 -0.28972996530E+03  0.34026967485E+03  0.12489543342E+03 0.  0.
         35    2    3    3    0    0 -0.73018226105E+02  0.10444839967E+03 -0.13031824749E+04  0.15406129559E+04  0.81176510606E+03 0.  0.
         22    1    5    5    0    0 -0.32950434027E+03 -0.22314925121E+03 -0.53223692183E+03  0.66456364596E+03  0.00000000000E+00 0. -1.
         22    1    5    5    0    0  0.25648611416E+03  0.32759765089E+03 -0.77094555305E+03  0.87604930991E+03  0.00000000000E+00 0. -1.
          5    1    4    4  502    0  0.36647179952E+02 -0.97686699735E+02 -0.28393041606E+03  0.30252979732E+03  0.47000000000E+01 0. -1.
         -5    1    4    4    0  502  0.36371046153E+02 -0.67616999377E+01 -0.57995492450E+01  0.37739877527E+02  0.47000000000E+01 0. -1.
<mgrwt>
<rscale>  0 0.10001747E+04</rscale>
<asrwt>0</asrwt>
<pdfrwt beam="1">  1        1 0.26721501E+00 0.10001747E+04</pdfrwt>
<pdfrwt beam="2">  1       -1 0.22151553E-01 0.10001747E+04</pdfrwt>
<totfact> 0.82247696E+01</totfact>
</mgrwt>
</event>
<event>
 9    1  0.4370149E-036  0.1003601E+04  0.7818608E-02  0.8677617E-01
         -2   -1    0    0    0  501 -0.00000000000E+00  0.00000000000E+00  0.18969250339E+03  0.18969250339E+03  0.00000000000E+00 0. -1.
          2   -1    0    0  501    0  0.00000000000E+00 -0.00000000000E+00 -0.13274304143E+04  0.13274304143E+04  0.00000000000E+00 0. -1.
         36    2    1    2    0    0 -0.14210854715E-13  0.00000000000E+00 -0.11377379109E+04  0.15171229177E+04  0.10036007142E+04 0.  0.
         25    2    3    3    0    0  0.67073618915E+02  0.71850399701E+02 -0.38344218873E+03  0.41371961391E+03  0.12031066677E+03 0.  0.
         35    2    3    3    0    0 -0.67073618915E+02 -0.71850399701E+02 -0.75429572220E+03  0.11034033038E+04  0.79929685601E+03 0.  0.
         22    1    5    5    0    0 -0.98490459507E+02 -0.39894648977E+03 -0.62981460385E+03  0.75201403414E+03  0.00000000000E+00 0. -1.
         22    1    5    5    0    0  0.31416840592E+02  0.32709609007E+03 -0.12448111835E+03  0.35138926967E+03  0.00000000000E+00 0. -1.
          5    1    4    4  502    0  0.95933237066E+02  0.64073645284E+02 -0.23034894811E+03  0.25766518176E+03  0.47000000000E+01 0. -1.
         -5    1    4    4    0  502 -0.28859618152E+02  0.77767544165E+01 -0.15309324062E+03  0.15605443215E+03  0.47000000000E+01 0. -1.
<mgrwt>
<rscale>  0 0.10036007E+04</rscale>
<asrwt>0</asrwt>
<pdfrwt beam="1">  1        2 0.20422006E+00 0.10036007E+04</pdfrwt>
<pdfrwt beam="2">  1       -2 0.29183463E-01 0.10036007E+04</pdfrwt>
<totfact> 0.20658218E+02</totfact>
</mgrwt>
</event>
<event>
 9    1  0.4370149E-036  0.9940337E+03  0.7818608E-02  0.8686741E-01
         -3   -1    0    0    0  501 -0.00000000000E+00  0.00000000000E+00  0.10658107539E+04  0.10658107539E+04  0.00000000000E+00 0.  1.
          3   -1    0    0  501    0  0.00000000000E+00 -0.00000000000E+00 -0.23177262344E+03  0.23177262344E+03  0.00000000000E+00 0.  1.
         36    2    1    2    0    0  0.14210854715E-13  0.00000000000E+00  0.83403813050E+03  0.12975833774E+04  0.99403371075E+03 0.  0.
         25    2    3    3    0    0 -0.56388405060E+02 -0.12229398476E+03  0.17337419671E+03  0.25211366828E+03  0.12396458655E+03 0.  0.
         35    2    3    3    0    0  0.56388405060E+02  0.12229398476E+03  0.66066393379E+03  0.10454697091E+04  0.79899600016E+03 0.  0.
         22    1    5    5    0    0 -0.27301700182E+03  0.26725653332E+03  0.12859307278E+03  0.40311352775E+03  0.00000000000E+00 0. -1.
         22    1    5    5    0    0  0.32940540688E+03 -0.14496254857E+03  0.53207086101E+03  0.64235618134E+03  0.00000000000E+00 0. -1.
          5    1    4    4  502    0  0.28428433803E+02 -0.35797462941E+02  0.73505308753E+01  0.46537667600E+02  0.47000000000E+01 0. -1.
         -5    1    4    4    0  502 -0.84816838863E+02 -0.86496521816E+02  0.16602366583E+03  0.20557600068E+03  0.47000000000E+01 0. -1.
<mgrwt>
<rscale>  0 0.99403371E+03</rscale>
<asrwt>0</asrwt>
<pdfrwt beam="1">  1        3 0.35657327E-01 0.99403371E+03</pdfrwt>
<pdfrwt beam="2">  1       -3 0.16397088E+00 0.99403371E+03</pdfrwt>
<totfact> 0.61149659E+00</totfact>
</mgrwt>
</event>
<event>
 9    1  0.4370149E-036  0.9960468E+03  0.7818608E-02  0.8684812E-01
         -2   -1    0    0    0  501 -0.00000000000E+00  0.00000000000E+00  0.22241415320E+03  0.22241415320E+03  0.00000000000E+00 0. -1.
          2   -1    0    0  501    0  0.00000000000E+00 -0.00000000000E+00 -0.11151597336E+04  0.11151597336E+04  0.00000000000E+00 0. -1.
         36    2    1    2    0    0  0.28421709430E-13  0.00000000000E+00 -0.89274558042E+03  0.13375738868E+04  0.99604680179E+03 0.  0.
         25    2    3    3    0    0 -0.75432419437E+02 -0.94582880581E+02 -0.75470371372E+02  0.18940780782E+03  0.12467385254E+03 0.  0.
         35    2    3    3    0    0  0.75432419437E+02  0.94582880581E+02 -0.81727520905E+03  0.11481660790E+04  0.79731462200E+03 0.  0.
         22    1    5    5    0    0  0.34021519651E+03 -0.16873691644E+03 -0.61678593918E+03  0.72432273309E+03  0.00000000000E+00 0.  1.
         22    1    5    5    0    0 -0.26478277708E+03  0.26331979702E+03 -0.20048926987E+03  0.42384334591E+03  0.00000000000E+00 0.  1.
          5    1    4    4  502    0 -0.16128160042E+01  0.29142521785E+02 -0.12127019538E+02  0.31953753368E+02  0.47000000000E+01 0.  1.
         -5    1    4    4    0  502 -0.73819603433E+02 -0.12372540237E+03 -0.63343351834E+02  0.15745405445E+03  0.47000000000E+01 0.  1.
<mgrwt>
<rscale>  0 0.99604680E+03</rscale>
<asrwt>0</asrwt>
<pdfrwt beam="1">  1        2 0.17156304E+00 0.99604680E+03</pdfrwt>
<pdfrwt beam="2">  1       -2 0.34217562E-01 0.99604680E+03</pdfrwt>
<totfact> 0.20569578E+02</totfact>
</mgrwt>
</event>
<event>
 9    1  0.4370149E-036  0.1000185E+04  0.7818608E-02  0.8680862E-01
          2   -1    0    0  501    0  0.00000000000E+00  0.00000000000E+00  0.17121963015E+04  0.17121963015E+04  0.00000000000E+00 0. -1.
         -2   -1    0    0    0  501 -0.00000000000E+00 -0.00000000000E+00 -0.14606535946E+03  0.14606535946E+03  0.00000000000E+00 0. -1.
         36    2    1    2    0    0 -0.71054273576E-14  0.00000000000E+00  0.15661309420E+04  0.18582616609E+04  0.10001851193E+04 0.  0.
         25    2    3    3    0    0  0.55166309482E+02 -0.79646168044E+02  0.48340449409E+03  0.50886976305E+03  0.12602260534E+03 0.  0.
         35    2    3    3    0    0 -0.55166309482E+02  0.79646168044E+02  0.10827264479E+04  0.13493918979E+04  0.79948427079E+03 0.  0.
         22    1    5    5    0    0  0.43674437830E+02  0.34154555045E+03  0.99980890951E+03  0.10574396792E+04  0.00000000000E+00 0.  1.
         22    1    5    5    0    0 -0.98840747312E+02 -0.26189938241E+03  0.82917538428E+02  0.29195221872E+03  0.00000000000E+00 0.  1.
          5    1    4    4  502    0  0.34861442739E+02  0.26464920951E+02  0.81005738001E+02  0.92193990150E+02  0.47000000000E+01 0. -1.
         -5    1    4    4    0  502  0.20304866743E+02 -0.10611108899E+03  0.40239875609E+03  0.41667577290E+03  0.47000000000E+01 0. -1.
<mgrwt>
<rscale>  0 0.10001851E+04</rscale>
<asrwt>0</asrwt>
<pdfrwt beam="1">  1        2 0.26341480E+00 0.10001851E+04</pdfrwt>
<pdfrwt beam="2">  1       -2 0.22471595E-01 0.10001851E+04</pdfrwt>
<totfact> 0.19909131E+02</totfact>
</mgrwt>
</event>
<event>
 9    1  0.4370149E-036  0.9992196E+03  0.7818608E-02  0.8681782E-01
         -1   -1    0    0    0  501 -0.00000000000E+00  0.00000000000E+00  0.10500481605E+03  0.10500481605E+03  0.00000000000E+00 0. -1.
          1   -1    0    0  501    0  0.00000000000E+00 -0.00000000000E+00 -0.23771284902E+04  0.23771284902E+04  0.00000000000E+00 0. -1.
         36    2    1    2    0    0  0.71054273576E-14  0.00000000000E+00 -0.22721236742E+04  0.24821333063E+04  0.99921957518E+03 0.  0.
         25    2    3    3    0    0 -0.62186379234E+02 -0.50259976082E+02 -0.15260022870E+03  0.21523536495E+03  0.12902023704E+03 0.  0.
         35    2    3    3    0    0  0.62186379234E+02  0.50259976082E+02 -0.21195234455E+04  0.22668979414E+04  0.80003339279E+03 0.  0.
         22    1    5    5    0    0 -0.27648704359E+03 -0.64132730560E+02 -0.30155522188E+03  0.41411791105E+03  0.00000000000E+00 0.  1.
         22    1    5    5    0    0  0.33867342283E+03  0.11439270664E+03 -0.18179682236E+04  0.18527800303E+04  0.00000000000E+00 0.  1.
          5    1    4    4  502    0 -0.49013647868E+02 -0.93615838206E+02 -0.11413581087E+03  0.15561277635E+03  0.47000000000E+01 0.  1.
         -5    1    4    4    0  502 -0.13172731367E+02  0.43355862124E+02 -0.38464417837E+02  0.59622588603E+02  0.47000000000E+01 0.  1.
<mgrwt>
<rscale>  0 0.99921958E+03</rscale>
<asrwt>0</asrwt>
<pdfrwt beam="1">  1        1 0.36571209E+00 0.99921958E+03</pdfrwt>
<pdfrwt beam="2">  1       -1 0.16154586E-01 0.99921958E+03</pdfrwt>
<totfact> 0.49122356E+01</totfact>
</mgrwt>
</event>
<event>
 9    1  0.4370149E-036  0.9998488E+03  0.7818608E-02  0.8681182E-01
          2   -1    0    0  501    0  0.00000000000E+00  0.00000000000E+00  0.20479813018E+03  0.20479813018E+03  0.00000000000E+00 0.  1.
         -2   -1    0    0    0  501 -0.00000000000E+00 -0.00000000000E+00 -0.12203451484E+04  0.12203451484E+04  0.00000000000E+00 0.  1.
         36    2    1    2    0    0  0.00000000000E+00 -0.28421709430E-13 -0.10155470182E+04  0.14251432785E+04  0.99984879768E+03 0.  0.
         25    2    3    3    0    0 -0.40403423580E+02  0.13465466693E+03 -0.21318928163E+03  0.28442228598E+03  0.12522799606E+03 0.  0.
         35    2    3    3    0    0  0.40403423580E+02 -0.13465466693E+03 -0.80235773655E+03  0.11407209926E+04  0.79856253950E+03 0.  0.
         22    1    5    5    0    0 -0.15218194290E+03  0.22176523110E+03 -0.32683617359E+02  0.27093796395E+03  0.00000000000E+00 0.  1.
         22    1    5    5    0    0  0.19258536648E+03 -0.35641989802E+03 -0.76967411919E+03  0.86978302860E+03  0.00000000000E+00 0.  1.
          5    1    4    4  502    0  0.20390393502E+01 -0.11312242385E+02  0.88803025509E+01  0.15266770537E+02  0.47000000000E+01 0. -1.
         -5    1    4    4    0  502 -0.42442462931E+02  0.14596690931E+03 -0.22206958418E+03  0.26915551544E+03  0.47000000000E+01 0. -1.
<mgrwt>
<rscale>  0 0.99984880E+03</rscale>
<asrwt>0</asrwt>
<pdfrwt beam="1">  1        2 0.31507404E-01 0.99984880E+03</pdfrwt>
<pdfrwt beam="2">  1       -2 0.18774541E+00 0.99984880E+03</pdfrwt>
<totfact> 0.29684126E+01</totfact>
</mgrwt>
</event>
<event>
 9    1  0.4370149E-036  0.9999742E+03  0.7818608E-02  0.8681063E-01
          2   -1    0    0  501    0  0.00000000000E+00  0.00000000000E+00  0.24823987332E+04  0.24823987332E+04  0.00000000000E+00 0. -1.
         -2   -1    0    0    0  501 -0.00000000000E+00 -0.00000000000E+00 -0.10070383977E+03  0.10070383977E+03  0.00000000000E+00 0. -1.
         36    2    1    2    0    0 -0.71054273576E-14 -0.42632564146E-13  0.23816948934E+04  0.25831025729E+04  0.99997416820E+03 0.  0.
         25    2    3    3    0    0 -0.48049882973E+02  0.57718831410E+02  0.75448974553E+03  0.76844555113E+03  0.12495412836E+03 0.  0.
         35    2    3    3    0    0  0.48049882973E+02 -0.57718831410E+02  0.16272051479E+04  0.18146570218E+04  0.79971448578E+03 0.  0.
         22    1    5    5    0    0 -0.15969282405E+03  0.31185580894E+03  0.98194947258E+03  0.10425836227E+04  0.00000000000E+00 0. -1.
         22    1    5    5    0    0  0.20774270703E+03 -0.36957464035E+03  0.64525567530E+03  0.77207339911E+03  0.00000000000E+00 0. -1.
          5    1    4    4  502    0 -0.75749031794E+02  0.22065211137E+01  0.28863170003E+03  0.29845122351E+03  0.47000000000E+01 0. -1.
         -5    1    4    4    0  502  0.27699148821E+02  0.55512310296E+02  0.46585804549E+03  0.46999432762E+03  0.47000000000E+01 0. -1.
<mgrwt>
<rscale>  0 0.99997417E+03</rscale>
<asrwt>0</asrwt>
<pdfrwt beam="1">  1        2 0.38190745E+00 0.99997417E+03</pdfrwt>
<pdfrwt beam="2">  1       -2 0.15492900E-01 0.99997417E+03</pdfrwt>
<totfact> 0.13518606E+02</totfact>
</mgrwt>
</event>
<event>
 9    1  0.4370149E-036  0.9940669E+03  0.7818608E-02  0.8686709E-01
          1   -1    0    0  501    0  0.00000000000E+00  0.00000000000E+00  0.71937018401E+03  0.71937018401E+03  0.00000000000E+00 0. -1.
         -1   -1    0    0    0  501 -0.00000000000E+00 -0.00000000000E+00 -0.34341461149E+03  0.34341461149E+03  0.00000000000E+00 0. -1.
         36    2    1    2    0    0  0.14210854715E-13  0.00000000000E+00  0.37595557251E+03  0.10627847955E+04  0.99406686347E+03 0.  0.
         25    2    3    3    0    0  0.25862686536E+02 -0.12709014927E+03  0.10635638931E+03  0.20921178652E+03  0.12504841252E+03 0.  0.
         35    2    3    3    0    0 -0.25862686536E+02  0.12709014927E+03  0.26959918320E+03  0.85357300898E+03  0.79942628021E+03 0.  0.
         22    1    5    5    0    0  0.21493355154E+03 -0.49782948293E+02 -0.19947304379E+03  0.29742943485E+03  0.00000000000E+00 0.  1.
         22    1    5    5    0    0 -0.24079623807E+03  0.17687309756E+03  0.46907222699E+03  0.55614357413E+03  0.00000000000E+00 0.  1.
          5    1    4    4  502    0 -0.30852244871E+02 -0.69484339186E+01  0.60781892661E+02  0.68678018484E+02  0.47000000000E+01 0. -1.
         -5    1    4    4    0  502  0.56714931406E+02 -0.12014171535E+03  0.45574496653E+02  0.14053376803E+03  0.47000000000E+01 0. -1.
<mgrwt>
<rscale>  0 0.99406686E+03</rscale>
<asrwt>0</asrwt>
<pdfrwt beam="1">  1        1 0.11067234E+00 0.99406686E+03</pdfrwt>
<pdfrwt beam="2">  1       -1 0.52833017E-01 0.99406686E+03</pdfrwt>
<totfact> 0.10830366E+02</totfact>
</mgrwt>
</event>
<event>
 9    1  0.4370149E-036  0.1000286E+04  0.7818608E-02  0.8680766E-01
         -2   -1    0    0    0  501 -0.00000000000E+00  0.00000000000E+00  0.17715472492E+03  0.17715472492E+03  0.00000000000E+00 0.  1.
          2   -1    0    0  501    0  0.00000000000E+00 -0.00000000000E+00 -0.14120019364E+04  0.14120019364E+04  0.00000000000E+00 0.  1.
         36    2    1    2    0    0 -0.28421709430E-13 -0.71054273576E-14 -0.12348472115E+04  0.15891566613E+04  0.10002855885E+04 0.  0.
         25    2    3    3    0    0 -0.10190531399E+03  0.18423256248E+02 -0.38431852526E+03  0.41691364326E+03  0.12406509455E+03 0.  0.
         35    2    3    3    0    0  0.10190531399E+03 -0.18423256248E+02 -0.85052868621E+03  0.11722430181E+04  0.80001908598E+03 0.  0.
         22    1    5    5    0    0  0.37215611835E+03 -0.25336616564E+02 -0.11770909782E+03  0.39114901544E+03  0.00000000000E+00 0. -1.
         22    1    5    5    0    0 -0.27025080436E+03  0.69133603155E+01 -0.73281958839E+03  0.78109400262E+03  0.00000000000E+00 0. -1.
          5    1    4    4  502    0 -0.79891907671E+02 -0.33719376181E+02 -0.31777995881E+03  0.32943270248E+03  0.47000000000E+01 0. -1.
         -5    1    4    4    0  502 -0.22013406322E+02  0.52142632429E+02 -0.66538566456E+02  0.87480940785E+02  0.47000000000E+01 0. -1.
<mgrwt>
<rscale>  0 0.10002856E+04</rscale>
<asrwt>0</asrwt>
<pdfrwt beam="1">  1        2 0.21723107E+00 0.10002856E+04</pdfrwt>
<pdfrwt beam="2">  1       -2 0.27254573E-01 0.10002856E+04</pdfrwt>
<totfact> 0.20903228E+02</totfact>
</mgrwt>
</event>
<event>
 9    1  0.4370149E-036  0.9999966E+03  0.7818608E-02  0.8681041E-01
         -2   -1    0    0    0  501 -0.00000000000E+00  0.00000000000E+00  0.31049153779E+03  0.31049153779E+03  0.00000000000E+00 0.  1.
          2   -1    0    0  501    0  0.00000000000E+00 -0.00000000000E+00 -0.80516945937E+03  0.80516945937E+03  0.00000000000E+00 0.  1.
         36    2    1    2    0    0  0.00000000000E+00  0.00000000000E+00 -0.49467792158E+03  0.11156609972E+04  0.99999660724E+03 0.  0.
         25    2    3    3    0    0 -0.96571994363E+02  0.96744875326E+01  0.17290166883E+02  0.16070091943E+03  0.12690977043E+03 0.  0.
         35    2    3    3    0    0  0.96571994363E+02 -0.96744875326E+01 -0.51196808847E+03  0.95496007774E+03  0.80026100784E+03 0.  0.
         22    1    5    5    0    0  0.41969525349E+03 -0.82192603131E+01 -0.10024372066E+03  0.43157903746E+03  0.00000000000E+00 0. -1.
         22    1    5    5    0    0 -0.32312325913E+03 -0.14552272195E+01 -0.41172436781E+03  0.52338104028E+03  0.00000000000E+00 0. -1.
          5    1    4    4  502    0  0.24202239867E+02  0.57029894617E+00  0.29992280260E+02  0.38829119622E+02  0.47000000000E+01 0.  1.
         -5    1    4    4    0  502 -0.12077423423E+03  0.91041885864E+01 -0.12702113376E+02  0.12187179981E+03  0.47000000000E+01 0.  1.
<mgrwt>
<rscale>  0 0.99999661E+03</rscale>
<asrwt>0</asrwt>
<pdfrwt beam="1">  1        2 0.12387222E+00 0.99999661E+03</pdfrwt>
<pdfrwt beam="2">  1       -2 0.47767929E-01 0.99999661E+03</pdfrwt>
<totfact> 0.17164265E+02</totfact>
</mgrwt>
</event>
<event>
 9    1  0.4370149E-036  0.9998613E+03  0.7818608E-02  0.8681170E-01
          2   -1    0    0  501    0  0.00000000000E+00  0.00000000000E+00  0.79222052346E+03  0.79222052346E+03  0.00000000000E+00 0.  1.
         -2   -1    0    0    0  501 -0.00000000000E+00 -0.00000000000E+00 -0.31548117770E+03  0.31548117770E+03  0.00000000000E+00 0.  1.
         36    2    1    2    0    0  0.14210854715E-13  0.28421709430E-13  0.47673934576E+03  0.11077017012E+04  0.99986131787E+03 0.  0.
         25    2    3    3    0    0 -0.73116108002E+02 -0.80817982072E+02  0.18895559277E+03  0.25107144886E+03  0.12431872311E+03 0.  0.
         35    2    3    3    0    0  0.73116108002E+02  0.80817982072E+02  0.28778375299E+03  0.85663025231E+03  0.79944880337E+03 0.  0.
         22    1    5    5    0    0 -0.20914653940E+02 -0.33791296042E+03 -0.24074985367E+01  0.33856814324E+03  0.00000000000E+00 0. -1.
         22    1    5    5    0    0  0.94030761942E+02  0.41873094249E+03  0.29019125152E+03  0.51806210907E+03  0.00000000000E+00 0. -1.
          5    1    4    4  502    0 -0.46037608215E+02 -0.54190920173E+02  0.14827007404E+02  0.72787686788E+02  0.47000000000E+01 0.  1.
         -5    1    4    4    0  502 -0.27078499787E+02 -0.26627061899E+02  0.17412858537E+03  0.17828376207E+03  0.47000000000E+01 0.  1.
<mgrwt>
<rscale>  0 0.99986132E+03</rscale>
<asrwt>0</asrwt>
<pdfrwt beam="1">  1        2 0.12188008E+00 0.99986132E+03</pdfrwt>
<pdfrwt beam="2">  1       -2 0.48535566E-01 0.99986132E+03</pdfrwt>
<totfact> 0.16981307E+02</totfact>
</mgrwt>
</event>
<event>
 9    1  0.4370149E-036  0.9991974E+03  0.7818608E-02  0.8681803E-01
          2   -1    0    0  501    0  0.00000000000E+00  0.00000000000E+00  0.14914500256E+04  0.14914500256E+04  0.00000000000E+00 0.  1.
         -2   -1    0    0    0  501 -0.00000000000E+00 -0.00000000000E+00 -0.16735316708E+03  0.16735316708E+03  0.00000000000E+00 0.  1.
         36    2    1    2    0    0  0.71054273576E-14  0.00000000000E+00  0.13240968585E+04  0.16588031926E+04  0.99919744860E+03 0.  0.
         25    2    3    3    0    0 -0.10494966700E+02 -0.14513966078E+03  0.32815085521E+03  0.38009603432E+03  0.12495737702E+03 0.  0.
         35    2    3    3    0    0  0.10494966700E+02  0.14513966078E+03  0.99594600326E+03  0.12787071583E+04  0.78867476812E+03 0.  0.
         22    1    5    5    0    0 -0.28989699566E+03  0.13135237160E+03  0.99943359634E+02  0.33359015087E+03  0.00000000000E+00 0. -1.
         22    1    5    5    0    0  0.30039196236E+03  0.13787289181E+02  0.89600264363E+03  0.94511700746E+03  0.00000000000E+00 0. -1.
          5    1    4    4  502    0 -0.28137605786E+02 -0.76462272608E+02  0.28612516082E+03  0.29753638709E+03  0.47000000000E+01 0.  1.
         -5    1    4    4    0  502  0.17642639086E+02 -0.68677388176E+02  0.42025694391E+02  0.82559647223E+02  0.47000000000E+01 0.  1.
<mgrwt>
<rscale>  0 0.99919745E+03</rscale>
<asrwt>0</asrwt>
<pdfrwt beam="1">  1        2 0.22945384E+00 0.99919745E+03</pdfrwt>
<pdfrwt beam="2">  1       -2 0.25746642E-01 0.99919745E+03</pdfrwt>
<totfact> 0.20857665E+02</totfact>
</mgrwt>
</event>
<event>
 9    1  0.4370149E-036  0.1000093E+04  0.7818608E-02  0.8680949E-01
          1   -1    0    0  501    0  0.00000000000E+00  0.00000000000E+00  0.30679433625E+03  0.30679433625E+03  0.00000000000E+00 0.  1.
         -1   -1    0    0    0  501 -0.00000000000E+00 -0.00000000000E+00 -0.81503029709E+03  0.81503029709E+03  0.00000000000E+00 0.  1.
         36    2    1    2    0    0  0.00000000000E+00 -0.42632564146E-13 -0.50823596083E+03  0.11218246333E+04  0.10000933537E+04 0.  0.
         25    2    3    3    0    0  0.61877008620E+02 -0.12516005885E+03 -0.72881097064E+02  0.20112141399E+03  0.12507743334E+03 0.  0.
         35    2    3    3    0    0 -0.61877008620E+02  0.12516005885E+03 -0.43535486377E+03  0.92070321935E+03  0.79916628819E+03 0.  0.
         22    1    5    5    0    0 -0.95940872496E+02  0.37150224586E+03 -0.53026417534E+03  0.65452170731E+03  0.00000000000E+00 0. -1.
         22    1    5    5    0    0  0.34063863875E+02 -0.24634218702E+03  0.94909311568E+02  0.26618151203E+03  0.00000000000E+00 0. -1.
          5    1    4    4  502    0  0.23789216260E+02 -0.83269456755E+02  0.22952089847E+02  0.89714088452E+02  0.47000000000E+01 0.  1.
         -5    1    4    4    0  502  0.38087792360E+02 -0.41890602094E+02 -0.95833186911E+02  0.11140732554E+03  0.47000000000E+01 0.  1.
<mgrwt>
<rscale>  0 0.10000934E+04</rscale>
<asrwt>0</asrwt>
<pdfrwt beam="1">  1        1 0.47199130E-01 0.10000934E+04</pdfrwt>
<pdfrwt beam="2">  1       -1 0.12538927E+00 0.10000934E+04</pdfrwt>
<totfact> 0.56744437E+01</totfact>
</mgrwt>
</event>
<event>
 9    1  0.4370149E-036  0.9992549E+03  0.7818608E-02  0.8681748E-01
         -2   -1    0    0    0  501 -0.00000000000E+00  0.00000000000E+00  0.57089399114E+03  0.57089399114E+03  0.00000000000E+00 0. -1.
          2   -1    0    0  501    0  0.00000000000E+00 -0.00000000000E+00 -0.43725733348E+03  0.43725733348E+03  0.00000000000E+00 0. -1.
         36    2    1    2    0    0 -0.14210854715E-13  0.00000000000E+00  0.13363665766E+03  0.10081513246E+04  0.99925489094E+03 0.  0.
         25    2    3    3    0    0 -0.62266955162E+01  0.12439044874E+03 -0.37805568971E+02  0.18026026907E+03  0.12471065747E+03 0.  0.
         35    2    3    3    0    0  0.62266955162E+01 -0.12439044874E+03  0.17144222663E+03  0.82789105555E+03  0.80031206871E+03 0.  0.
         22    1    5    5    0    0  0.13352713569E+03 -0.19417299595E+03  0.45327139989E+03  0.51086946502E+03  0.00000000000E+00 0.  1.
         22    1    5    5    0    0 -0.12730044018E+03  0.69782547210E+02 -0.28182917326E+03  0.31702159054E+03  0.00000000000E+00 0.  1.
          5    1    4    4  502    0 -0.55598833312E+02  0.67854887198E+02  0.13971557875E+02  0.88953979179E+02  0.47000000000E+01 0.  1.
         -5    1    4    4    0  502  0.49372137796E+02  0.56535561545E+02 -0.51777126846E+02  0.91306289894E+02  0.47000000000E+01 0.  1.
<mgrwt>
<rscale>  0 0.99925489E+03</rscale>
<asrwt>0</asrwt>
<pdfrwt beam="1">  1        2 0.67270359E-01 0.99925489E+03</pdfrwt>
<pdfrwt beam="2">  1       -2 0.87829844E-01 0.99925489E+03</pdfrwt>
<totfact> 0.96158396E+01</totfact>
</mgrwt>
</event>
<event>
 9    1  0.4370149E-036  0.1000085E+04  0.7818608E-02  0.8680957E-01
          2   -1    0    0  501    0  0.00000000000E+00  0.00000000000E+00  0.37148483967E+03  0.37148483967E+03  0.00000000000E+00 0.  1.
         -2   -1    0    0    0  501 -0.00000000000E+00 -0.00000000000E+00 -0.67308981507E+03  0.67308981507E+03  0.00000000000E+00 0.  1.
         36    2    1    2    0    0  0.53290705182E-14 -0.56843418861E-13 -0.30160497540E+03  0.10445746547E+04  0.10000853204E+04 0.  0.
         25    2    3    3    0    0  0.15365448457E+02  0.13497313802E+03 -0.95213534081E+02  0.20760919016E+03  0.12482833722E+03 0.  0.
         35    2    3    3    0    0 -0.15365448457E+02 -0.13497313802E+03 -0.20639144132E+03  0.83696546458E+03  0.79966237679E+03 0.  0.
         22    1    5    5    0    0 -0.10625334546E+03  0.27792552468E+03 -0.27912120584E+03  0.40797183511E+03  0.00000000000E+00 0. -1.
         22    1    5    5    0    0  0.90887897006E+02 -0.41289866270E+03  0.72729764521E+02  0.42899362948E+03  0.00000000000E+00 0. -1.
          5    1    4    4  502    0 -0.15775852840E+02  0.65422770835E+02 -0.11076579249E+03  0.12969258754E+03  0.47000000000E+01 0.  1.
         -5    1    4    4    0  502  0.31141301297E+02  0.69550367185E+02  0.15552258408E+02  0.77916602619E+02  0.47000000000E+01 0.  1.
<mgrwt>
<rscale>  0 0.10000853E+04</rscale>
<asrwt>0</asrwt>
<pdfrwt beam="1">  1        2 0.57151514E-01 0.10000853E+04</pdfrwt>
<pdfrwt beam="2">  1       -2 0.10355228E+00 0.10000853E+04</pdfrwt>
<totfact> 0.77826802E+01</totfact>
</mgrwt>
</event>
<event>
 9    1  0.4370149E-036  0.1000338E+04  0.7818608E-02  0.8680716E-01
         -2   -1    0    0    0  501 -0.00000000000E+00  0.00000000000E+00  0.10968111635E+03  0.10968111635E+03  0.00000000000E+00 0.  1.
          2   -1    0    0  501    0  0.00000000000E+00 -0.00000000000E+00 -0.22808759060E+04  0.22808759060E+04  0.00000000000E+00 0.  1.
         36    2    1    2    0    0 -0.14210854715E-13 -0.14210854715E-13 -0.21711947896E+04  0.23905570223E+04  0.10003379741E+04 0.  0.
         25    2    3    3    0    0 -0.33829884977E+02  0.98109039062E+02 -0.64637343837E+03  0.66650895999E+03  0.12516280302E+03 0.  0.
         35    2    3    3    0    0  0.33829884977E+02 -0.98109039062E+02 -0.15248213513E+04  0.17240480623E+04  0.79780431392E+03 0.  0.
         22    1    5    5    0    0  0.27012515448E+03  0.23584152336E+03 -0.97409555310E+03  0.10380033573E+04  0.00000000000E+00 0. -1.
         22    1    5    5    0    0 -0.23629526950E+03 -0.33395056242E+03 -0.55072579818E+03  0.68604470504E+03  0.00000000000E+00 0. -1.
          5    1    4    4  502    0  0.34398226664E+02  0.50193576831E+02 -0.43463808407E+03  0.43890202469E+03  0.47000000000E+01 0.  1.
         -5    1    4    4    0  502 -0.68228111641E+02  0.47915462231E+02 -0.21173535430E+03  0.22760693531E+03  0.47000000000E+01 0.  1.
<mgrwt>
<rscale>  0 0.10003380E+04</rscale>
<asrwt>0</asrwt>
<pdfrwt beam="1">  1        2 0.35090399E+00 0.10003380E+04</pdfrwt>
<pdfrwt beam="2">  1       -2 0.16874018E-01 0.10003380E+04</pdfrwt>
<totfact> 0.15436354E+02</totfact>
</mgrwt>
</event>
<event>
 9    1  0.4370149E-036  0.1006997E+04  0.7818608E-02  0.8674403E-01
         -1   -1    0    0    0  501 -0.00000000000E+00  0.00000000000E+00  0.20999648604E+03  0.20999648604E+03  0.00000000000E+00 0. -1.
          1   -1    0    0  501    0  0.00000000000E+00 -0.00000000000E+00 -0.12072144650E+04  0.12072144650E+04  0.00000000000E+00 0. -1.
         36    2    1    2    0    0  0.00000000000E+00 -0.21316282073E-13 -0.99721797894E+03  0.14172109510E+04  0.10069971113E+04 0.  0.
         25    2    3    3    0    0  0.11148207730E+03  0.12385813391E+02 -0.32557898623E+03  0.36635696906E+03  0.12503635700E+03 0.  0.
         35    2    3    3    0    0 -0.11148207730E+03 -0.12385813391E+02 -0.67163899271E+03  0.10508539820E+04  0.80038334125E+03 0.  0.
         22    1    5    5    0    0 -0.15130088985E+03 -0.18947654084E+03  0.96939140958E+02  0.26113313816E+03  0.00000000000E+00 0. -1.
         22    1    5    5    0    0  0.39818812557E+02  0.17709072744E+03 -0.76857813367E+03  0.78972084380E+03  0.00000000000E+00 0. -1.
          5    1    4    4  502    0 -0.25050034926E+01  0.31130660178E+02 -0.15013475509E+02  0.34969808299E+02  0.47000000000E+01 0. -1.
         -5    1    4    4    0  502  0.11398708079E+03 -0.18744846787E+02 -0.31056551072E+03  0.33138716076E+03  0.47000000000E+01 0. -1.
<mgrwt>
<rscale>  0 0.10069971E+04</rscale>
<asrwt>0</asrwt>
<pdfrwt beam="1">  1        1 0.18572530E+00 0.10069971E+04</pdfrwt>
<pdfrwt beam="2">  1       -1 0.32307152E-01 0.10069971E+04</pdfrwt>
<totfact> 0.10412812E+02</totfact>
</mgrwt>
</event>
<event>
 9    1  0.4370149E-036  0.9951389E+03  0.7818608E-02  0.8685681E-01
          2   -1    0    0  501    0  0.00000000000E+00  0.00000000000E+00  0.67749479674E+03  0.67749479674E+03  0.00000000000E+00 0.  1.
         -2   -1    0    0    0  501 -0.00000000000E+00 -0.00000000000E+00 -0.36542766286E+03  0.36542766286E+03  0.00000000000E+00 0.  1.
         36    2    1    2    0    0  0.00000000000E+00 -0.71054273576E-14  0.31206713388E+03  0.10429224596E+04  0.99513886502E+03 0.  0.
         25    2    3    3    0    0 -0.87000034288E+02 -0.26433862693E+02 -0.44635915341E+02  0.16239939868E+03  0.12693874385E+03 0.  0.
         35    2    3    3    0    0  0.87000034288E+02  0.26433862693E+02  0.35670304922E+03  0.88052306091E+03  0.79988501700E+03 0.  0.
         22    1    5    5    0    0 -0.23997487831E+03 -0.75697430712E+02  0.45863125680E+03  0.52312586722E+03  0.00000000000E+00 0.  1.
         22    1    5    5    0    0  0.32697491260E+03  0.10213129340E+03 -0.10192820758E+03  0.35739719370E+03  0.00000000000E+00 0.  1.
          5    1    4    4  502    0 -0.81600095674E+02  0.51583229151E+01  0.24974269950E+02  0.85621189369E+02  0.47000000000E+01 0. -1.
         -5    1    4    4    0  502 -0.53999386142E+01 -0.31592185608E+02 -0.69610185291E+02  0.76778209310E+02  0.47000000000E+01 0. -1.
<mgrwt>
<rscale>  0 0.99513887E+03</rscale>
<asrwt>0</asrwt>
<pdfrwt beam="1">  1        2 0.10422997E+00 0.99513887E+03</pdfrwt>
<pdfrwt beam="2">  1       -2 0.56219641E-01 0.99513887E+03</pdfrwt>
<totfact> 0.15342186E+02</totfact>
</mgrwt>
</event>
<event>
 9    1  0.4370149E-036  0.1001541E+04  0.7818608E-02  0.8679572E-01
         -2   -1    0    0    0  501 -0.00000000000E+00  0.00000000000E+00  0.12871410470E+03  0.12871410470E+03  0.00000000000E+00 0.  1.
          2   -1    0    0  501    0  0.00000000000E+00 -0.00000000000E+00 -0.19482803821E+04  0.19482803821E+04  0.00000000000E+00 0.  1.
         36    2    1    2    0    0 -0.21316282073E-13  0.00000000000E+00 -0.18195662774E+04  0.20769944868E+04  0.10015411426E+04 0.  0.
         25    2    3    3    0    0  0.40036365372E+02  0.50127368457E+02 -0.60111475348E+03  0.61756166788E+03  0.12620540070E+03 0.  0.
         35    2    3    3    0    0 -0.40036365372E+02 -0.50127368457E+02 -0.12184515239E+04  0.14594328189E+04  0.80075237942E+03 0.  0.
         22    1    5    5    0    0 -0.18093937351E+03 -0.35085760627E+03 -0.96196811418E+03  0.10398186234E+04  0.00000000000E+00 0. -1.
         22    1    5    5    0    0  0.14090300814E+03  0.30073023782E+03 -0.25648340972E+03  0.41961419554E+03  0.00000000000E+00 0. -1.
          5    1    4    4  502    0 -0.13974342065E+02  0.78838100285E+02 -0.34601508212E+03  0.35518904170E+03  0.47000000000E+01 0.  1.
         -5    1    4    4    0  502  0.54010707436E+02 -0.28710731828E+02 -0.25509967136E+03  0.26237262618E+03  0.47000000000E+01 0.  1.
<mgrwt>
<rscale>  0 0.10015411E+04</rscale>
<asrwt>0</asrwt>
<pdfrwt beam="1">  1        2 0.29973543E+00 0.10015411E+04</pdfrwt>
<pdfrwt beam="2">  1       -2 0.19802171E-01 0.10015411E+04</pdfrwt>
<totfact> 0.18248432E+02</totfact>
</mgrwt>
</event>
<event>
 9    1  0.4370149E-036  0.9997494E+03  0.7818608E-02  0.8681277E-01
         -2   -1    0    0    0  501 -0.00000000000E+00  0.00000000000E+00  0.55957327475E+03  0.55957327475E+03  0.00000000000E+00 0. -1.
          2   -1    0    0  501    0  0.00000000000E+00 -0.00000000000E+00 -0.44654510893E+03  0.44654510893E+03  0.00000000000E+00 0. -1.
         36    2    1    2    0    0 -0.14210854715E-13  0.00000000000E+00  0.11302816582E+03  0.10061183837E+04  0.99974938644E+03 0.  0.
         25    2    3    3    0    0 -0.12072837547E+03  0.71125883057E+02  0.42407736567E+02  0.19280431210E+03  0.12546256318E+03 0.  0.
         35    2    3    3    0    0  0.12072837547E+03 -0.71125883057E+02  0.70620429252E+02  0.81331407157E+03  0.79803402315E+03 0.  0.
         22    1    5    5    0    0  0.12616098875E+03  0.34700010476E+03  0.12897379219E+03  0.39110089089E+03  0.00000000000E+00 0. -1.
         22    1    5    5    0    0 -0.54326132819E+01 -0.41812598782E+03 -0.58353362936E+02  0.42221318068E+03  0.00000000000E+00 0. -1.
          5    1    4    4  502    0 -0.10468856245E+03  0.17584039641E+02 -0.20823762004E+02  0.10828025038E+03  0.47000000000E+01 0. -1.
         -5    1    4    4    0  502 -0.16039813014E+02  0.53541843416E+02  0.63231498571E+02  0.84524061719E+02  0.47000000000E+01 0. -1.
<mgrwt>
<rscale>  0 0.99974939E+03</rscale>
<asrwt>0</asrwt>
<pdfrwt beam="1">  1        2 0.68699248E-01 0.99974939E+03</pdfrwt>
<pdfrwt beam="2">  1       -2 0.86088196E-01 0.99974939E+03</pdfrwt>
<totfact> 0.98405744E+01</totfact>
</mgrwt>
</event>
<event>
 9    1  0.4370149E-036  0.9995016E+03  0.7818608E-02  0.8681513E-01
         -1   -1    0    0    0  501 -0.00000000000E+00  0.00000000000E+00  0.29240588453E+03  0.29240588453E+03  0.00000000000E+00 0. -1.
          1   -1    0    0  501    0  0.00000000000E+00 -0.00000000000E+00 -0.85412400481E+03  0.85412400481E+03  0.00000000000E+00 0. -1.
         36    2    1    2    0    0 -0.28421709430E-13 -0.14210854715E-13 -0.56171812028E+03  0.11465298893E+04  0.99950164607E+03 0.  0.
         25    2    3    3    0    0 -0.86026876090E+02  0.84740673805E+02 -0.18631892520E+03  0.25423150438E+03  0.12384389661E+03 0.  0.
         35    2    3    3    0    0  0.86026876090E+02 -0.84740673805E+02 -0.37539919508E+03  0.89229838495E+03  0.80043128807E+03 0.  0.
         22    1    5    5    0    0  0.32754011473E+03 -0.76939259538E+02 -0.51355288243E+03  0.61395336913E+03  0.00000000000E+00 0. -1.
         22    1    5    5    0    0 -0.24151323864E+03 -0.78014142668E+01  0.13815368735E+03  0.27834501582E+03  0.00000000000E+00 0. -1.
          5    1    4    4  502    0 -0.83431541671E+02  0.10445295305E+03 -0.10406471978E+03  0.16947801465E+03  0.47000000000E+01 0. -1.
         -5    1    4    4    0  502 -0.25953344191E+01 -0.19712279241E+02 -0.82254205418E+02  0.84753489737E+02  0.47000000000E+01 0. -1.
<mgrwt>
<rscale>  0 0.99950165E+03</rscale>
<asrwt>0</asrwt>
<pdfrwt beam="1">  1        1 0.13140369E+00 0.99950165E+03</pdfrwt>
<pdfrwt beam="2">  1       -1 0.44985522E-01 0.99950165E+03</pdfrwt>
<totfact> 0.11031865E+02</totfact>
</mgrwt>
</event>
<event>
 9    1  0.4370149E-036  0.1002229E+04  0.7818608E-02  0.8678918E-01
          2   -1    0    0  501    0  0.00000000000E+00  0.00000000000E+00  0.10804677335E+04  0.10804677335E+04  0.00000000000E+00 0. -1.
         -2   -1    0    0    0  501 -0.00000000000E+00 -0.00000000000E+00 -0.23241382457E+03  0.23241382457E+03  0.00000000000E+00 0. -1.
         36    2    1    2    0    0 -0.71054273576E-14 -0.56843418861E-13  0.84805390894E+03  0.13128815581E+04  0.10022287928E+04 0.  0.
         25    2    3    3    0    0  0.10263997517E+02  0.13616047347E+03  0.22117358406E+03  0.28826645198E+03  0.12463855290E+03 0.  0.
         35    2    3    3    0    0 -0.10263997517E+02 -0.13616047347E+03  0.62688032488E+03  0.10246151061E+04  0.79888181214E+03 0.  0.
         22    1    5    5    0    0 -0.19086569406E+03  0.18305826220E+03  0.60138256418E+03  0.65696349140E+03  0.00000000000E+00 0.  1.
         22    1    5    5    0    0  0.18060169654E+03 -0.31921873568E+03  0.25497760698E+02  0.36765161471E+03  0.00000000000E+00 0.  1.
          5    1    4    4  502    0 -0.19343768187E+02  0.58081571121E+02  0.18888586750E+03  0.19861422711E+03  0.47000000000E+01 0. -1.
         -5    1    4    4    0  502  0.29607765704E+02  0.78078902350E+02  0.32287716562E+02  0.89652224864E+02  0.47000000000E+01 0. -1.
<mgrwt>
<rscale>  0 0.10022288E+04</rscale>
<asrwt>0</asrwt>
<pdfrwt beam="1">  1        2 0.16622580E+00 0.10022288E+04</pdfrwt>
<pdfrwt beam="2">  1       -2 0.35755974E-01 0.10022288E+04</pdfrwt>
<totfact> 0.19889311E+02</totfact>
</mgrwt>
</event>
<event>
 9    1  0.4370149E-036  0.9999988E+03  0.7818608E-02  0.8681039E-01
          2   -1    0    0  501    0  0.00000000000E+00  0.00000000000E+00  0.85111644423E+03  0.85111644423E+03  0.00000000000E+00 0. -1.
         -2   -1    0    0    0  501 -0.00000000000E+00 -0.00000000000E+00 -0.29373116227E+03  0.29373116227E+03  0.00000000000E+00 0. -1.
         36    2    1    2    0    0 -0.21316282073E-13  0.71054273576E-14  0.55738528196E+03  0.11448476065E+04  0.99999884478E+03 0.  0.
         25    2    3    3    0    0  0.57455980627E+02  0.61853367481E+02  0.23132610345E+03  0.27730252133E+03  0.12750644461E+03 0.  0.
         35    2    3    3    0    0 -0.57455980627E+02 -0.61853367481E+02  0.32605917851E+03  0.86754508517E+03  0.79949537718E+03 0.  0.
         22    1    5    5    0    0 -0.30506238144E+03  0.33745562572E+01 -0.14008443946E+03  0.33570536841E+03  0.00000000000E+00 0.  1.
         22    1    5    5    0    0  0.24760640081E+03 -0.65227923738E+02  0.46614361797E+03  0.53183971676E+03  0.00000000000E+00 0.  1.
          5    1    4    4  502    0  0.95783862442E+02  0.53949412521E+02  0.14180002839E+03  0.17948377494E+03  0.47000000000E+01 0.  1.
         -5    1    4    4    0  502 -0.38327881816E+02  0.79039549593E+01  0.89526075060E+02  0.97818746384E+02  0.47000000000E+01 0.  1.
<mgrwt>
<rscale>  0 0.99999884E+03</rscale>
<asrwt>0</asrwt>
<pdfrwt beam="1">  1        2 0.13094099E+00 0.99999884E+03</pdfrwt>
<pdfrwt beam="2">  1       -2 0.45189410E-01 0.99999884E+03</pdfrwt>
<totfact> 0.17804027E+02</totfact>
</mgrwt>
</event>
<event>
 9    1  0.4370149E-036  0.1002783E+04  0.7818608E-02  0.8678392E-01
         -2   -1    0    0    0  501 -0.00000000000E+00  0.00000000000E+00  0.35417564537E+03  0.35417564537E+03  0.00000000000E+00 0. -1.
          2   -1    0    0  501    0  0.00000000000E+00 -0.00000000000E+00 -0.70979840961E+03  0.70979840961E+03  0.00000000000E+00 0. -1.
         36    2    1    2    0    0  0.71054273576E-14  0.00000000000E+00 -0.35562276424E+03  0.10639740550E+04  0.10027827478E+04 0.  0.
         25    2    3    3    0    0  0.57739714607E+02  0.72139553756E+02  0.41783006766E+02  0.16086818710E+03  0.12487899787E+03 0.  0.
         35    2    3    3    0    0 -0.57739714607E+02 -0.72139553756E+02 -0.39740577101E+03  0.90310586787E+03  0.80568658416E+03 0.  0.
         22    1    5    5    0    0  0.15219790900E+02  0.36460130008E+03 -0.13946266220E+03  0.39066044617E+03  0.00000000000E+00 0.  1.
         22    1    5    5    0    0 -0.72959505508E+02 -0.43674085383E+03 -0.25794310880E+03  0.51244542171E+03  0.00000000000E+00 0.  1.
          5    1    4    4  502    0  0.26061060851E+02  0.27887658223E+01 -0.40578881706E+02  0.48535468969E+02  0.47000000000E+01 0. -1.
         -5    1    4    4    0  502  0.31678653757E+02  0.69350787934E+02  0.82361888473E+02  0.11233271814E+03  0.47000000000E+01 0. -1.
<mgrwt>
<rscale>  0 0.10027827E+04</rscale>
<asrwt>0</asrwt>
<pdfrwt beam="1">  1        2 0.10919976E+00 0.10027827E+04</pdfrwt>
<pdfrwt beam="2">  1       -2 0.54488561E-01 0.10027827E+04</pdfrwt>
<totfact> 0.15446224E+02</totfact>
</mgrwt>
</event>
<event>
 9    1  0.4370149E-036  0.1000106E+04  0.7818608E-02  0.8680937E-01
         -2   -1    0    0    0  501 -0.00000000000E+00  0.00000000000E+00  0.43004590398E+03  0.43004590398E+03  0.00000000000E+00 0. -1.
          2   -1    0    0  501    0  0.00000000000E+00 -0.00000000000E+00 -0.58145699472E+03  0.58145699472E+03  0.00000000000E+00 0. -1.
         36    2    1    2    0    0  0.00000000000E+00  0.14210854715E-13 -0.15141109074E+03  0.10115028987E+04  0.10001063922E+04 0.  0.
         25    2    3    3    0    0 -0.10879690268E+03 -0.73611485092E+02 -0.67270763812E+02  0.19228909453E+03  0.12326525642E+03 0.  0.
         35    2    3    3    0    0  0.10879690268E+03  0.73611485092E+02 -0.84140326929E+02  0.81921380417E+03  0.80422400210E+03 0.  0.
         22    1    5    5    0    0  0.20782130586E+02 -0.65480087012E+02  0.34908107650E+03  0.35577680745E+03  0.00000000000E+00 0. -1.
         22    1    5    5    0    0  0.88014772097E+02  0.13909157210E+03 -0.43322140343E+03  0.46343699672E+03  0.00000000000E+00 0. -1.
          5    1    4    4  502    0 -0.13267380851E+03 -0.46909760998E+02 -0.67537084383E+02  0.15616085588E+03  0.47000000000E+01 0.  1.
         -5    1    4    4    0  502  0.23876905828E+02 -0.26701724094E+02  0.26632057091E+00  0.36128238653E+02  0.47000000000E+01 0.  1.
<mgrwt>
<rscale>  0 0.10001064E+04</rscale>
<asrwt>0</asrwt>
<pdfrwt beam="1">  1        2 0.89454922E-01 0.10001064E+04</pdfrwt>
<pdfrwt beam="2">  1       -2 0.66160909E-01 0.10001064E+04</pdfrwt>
<totfact> 0.13096456E+02</totfact>
</mgrwt>
</event>
<event>
 9    1  0.4370149E-036  0.1000518E+04  0.7818608E-02  0.8680545E-01
          2   -1    0    0  501    0  0.00000000000E+00  0.00000000000E+00  0.26221141403E+03  0.26221141403E+03  0.00000000000E+00 0. -1.
         -2   -1    0    0    0  501 -0.00000000000E+00 -0.00000000000E+00 -0.95441679122E+03  0.95441679122E+03  0.00000000000E+00 0. -1.
         36    2    1    2    0    0 -0.28421709430E-13  0.28421709430E-13 -0.69220537718E+03  0.12166282053E+04  0.10005178187E+04 0.  0.
         25    2    3    3    0    0 -0.22045058447E+02 -0.67468347045E+02  0.10542388147E+02  0.14646313127E+03  0.12768063447E+03 0.  0.
         35    2    3    3    0    0  0.22045058447E+02  0.67468347045E+02 -0.70274776533E+03  0.10701650740E+04  0.80396573399E+03 0.  0.
         22    1    5    5    0    0  0.33780861609E+03  0.26337013090E+03 -0.30495895706E+03  0.52581218362E+03  0.00000000000E+00 0. -1.
         22    1    5    5    0    0 -0.31576355764E+03 -0.19590178386E+03 -0.39778880827E+03  0.54435289035E+03  0.00000000000E+00 0. -1.
          5    1    4    4  502    0 -0.72845338170E+02 -0.23615440435E+02 -0.67018383108E+01  0.77013875093E+02  0.47000000000E+01 0.  1.
         -5    1    4    4    0  502  0.50800279723E+02 -0.43852906610E+02  0.17244226458E+02  0.69449256182E+02  0.47000000000E+01 0.  1.
<mgrwt>
<rscale>  0 0.10005178E+04</rscale>
<asrwt>0</asrwt>
<pdfrwt beam="1">  1        2 0.40340218E-01 0.10005178E+04</pdfrwt>
<pdfrwt beam="2">  1       -2 0.14683335E+00 0.10005178E+04</pdfrwt>
<totfact> 0.45934902E+01</totfact>
</mgrwt>
</event>
<event>
 9    1  0.4370149E-036  0.1000754E+04  0.7818608E-02  0.8680320E-01
         -1   -1    0    0    0  501 -0.00000000000E+00  0.00000000000E+00  0.94550925304E+03  0.94550925304E+03  0.00000000000E+00 0. -1.
          1   -1    0    0  501    0  0.00000000000E+00 -0.00000000000E+00 -0.26480682860E+03  0.26480682860E+03  0.00000000000E+00 0. -1.
         36    2    1    2    0    0  0.88817841970E-14  0.00000000000E+00  0.68070242444E+03  0.12103160816E+04  0.10007543289E+04 0.  0.
         25    2    3    3    0    0  0.94209834289E+01 -0.87049429071E+02 -0.41643883074E+01  0.15321164642E+03  0.12565869821E+03 0.  0.
         35    2    3    3    0    0 -0.94209834289E+01  0.87049429071E+02  0.68486681275E+03  0.10571044352E+04  0.80047540732E+03 0.  0.
         22    1    5    5    0    0  0.16018088359E+03 -0.57001494036E+02 -0.12896555958E+03  0.21339915967E+03  0.00000000000E+00 0.  1.
         22    1    5    5    0    0 -0.16960186702E+03  0.14405092311E+03  0.81383237233E+03  0.84370527555E+03  0.00000000000E+00 0.  1.
          5    1    4    4  502    0  0.21259078805E+02 -0.46167416432E+02 -0.62596120666E+02  0.80769691680E+02  0.47000000000E+01 0. -1.
         -5    1    4    4    0  502 -0.11838095376E+02 -0.40882012639E+02  0.58431732358E+02  0.72441954736E+02  0.47000000000E+01 0. -1.
<mgrwt>
<rscale>  0 0.10007543E+04</rscale>
<asrwt>0</asrwt>
<pdfrwt beam="1">  1        1 0.40739513E-01 0.10007543E+04</pdfrwt>
<pdfrwt beam="2">  1       -1 0.14546296E+00 0.10007543E+04</pdfrwt>
<totfact> 0.46175890E+01</totfact>
</mgrwt>
</event>
<event>
 9    1  0.4370149E-036  0.9992161E+03  0.7818608E-02  0.8681785E-01
          1   -1    0    0  501    0  0.00000000000E+00  0.00000000000E+00  0.41648538381E+03  0.41648538381E+03  0.00000000000E+00 0.  1.
         -1   -1    0    0    0  501 -0.00000000000E+00 -0.00000000000E+00 -0.59932044536E+03  0.59932044536E+03  0.00000000000E+00 0.  1.
         36    2    1    2    0    0  0.14210854715E-13 -0.28421709430E-13 -0.18283506155E+03  0.10158058292E+04  0.99921610418E+03 0.  0.
         25    2    3    3    0    0 -0.87916091468E+02  0.84034947870E+02  0.35131730872E+02  0.17859766193E+03  0.12598323195E+03 0.  0.
         35    2    3    3    0    0  0.87916091468E+02 -0.84034947870E+02 -0.21796679242E+03  0.83720816724E+03  0.79913508313E+03 0.  0.
         22    1    5    5    0    0 -0.94368285111E+02 -0.92883574888E+02  0.27843820823E+03  0.30831893799E+03  0.00000000000E+00 0. -1.
         22    1    5    5    0    0  0.18228437658E+03  0.88486270178E+01 -0.49640500065E+03  0.52888922925E+03  0.00000000000E+00 0. -1.
          5    1    4    4  502    0 -0.58436690930E+02  0.16799807788E+02  0.73599606625E+02  0.95582804332E+02  0.47000000000E+01 0. -1.
         -5    1    4    4    0  502 -0.29479400538E+02  0.67235140081E+02 -0.38467875753E+02  0.83014857603E+02  0.47000000000E+01 0. -1.
<mgrwt>
<rscale>  0 0.99921610E+03</rscale>
<asrwt>0</asrwt>
<pdfrwt beam="1">  1        1 0.64074675E-01 0.99921610E+03</pdfrwt>
<pdfrwt beam="2">  1       -1 0.92203145E-01 0.99921610E+03</pdfrwt>
<totfact> 0.77580881E+01</totfact>
</mgrwt>
</event>
<event>
 9    1  0.4370149E-036  0.1000162E+04  0.7818608E-02  0.8680884E-01
          2   -1    0    0  501    0  0.00000000000E+00  0.00000000000E+00  0.19728130770E+04  0.19728130770E+04  0.00000000000E+00 0. -1.
         -2   -1    0    0    0  501 -0.00000000000E+00 -0.00000000000E+00 -0.12676367096E+03  0.12676367096E+03  0.00000000000E+00 0. -1.
         36    2    1    2    0    0  0.00000000000E+00  0.28421709430E-13  0.18460494060E+04  0.20995767479E+04  0.10001620424E+04 0.  0.
         25    2    3    3    0    0  0.95988195955E+02 -0.10409341384E+03  0.30487748180E+03  0.35900320418E+03  0.12603114351E+03 0.  0.
         35    2    3    3    0    0 -0.95988195955E+02  0.10409341384E+03  0.15411719242E+04  0.17405735437E+04  0.79645225133E+03 0.  0.
         22    1    5    5    0    0 -0.18343926245E+03  0.21411673518E+03  0.15716681974E+04  0.15967582353E+04  0.00000000000E+00 0. -1.
         22    1    5    5    0    0  0.87451066492E+02 -0.11002332134E+03 -0.30496273178E+02  0.14381530846E+03  0.00000000000E+00 0. -1.
          5    1    4    4  502    0  0.77236272301E+02 -0.13345271791E+03  0.24270258163E+03  0.28757903750E+03  0.47000000000E+01 0.  1.
         -5    1    4    4    0  502  0.18751923654E+02  0.29359304062E+02  0.62174900167E+02  0.71424166684E+02  0.47000000000E+01 0.  1.
<mgrwt>
<rscale>  0 0.10001620E+04</rscale>
<asrwt>0</asrwt>
<pdfrwt beam="1">  1        2 0.30350968E+00 0.10001620E+04</pdfrwt>
<pdfrwt beam="2">  1       -2 0.19502105E-01 0.10001620E+04</pdfrwt>
<totfact> 0.18144623E+02</totfact>
</mgrwt>
</event>
<event>
 9    1  0.4370149E-036  0.1001045E+04  0.7818608E-02  0.8680044E-01
         -1   -1    0    0    0  501 -0.00000000000E+00  0.00000000000E+00  0.56524434775E+03  0.56524434775E+03  0.00000000000E+00 0.  1.
          1   -1    0    0  501    0  0.00000000000E+00 -0.00000000000E+00 -0.44321124308E+03  0.44321124308E+03  0.00000000000E+00 0.  1.
         36    2    1    2    0    0  0.00000000000E+00  0.00000000000E+00  0.12203310467E+03  0.10084555908E+04  0.10010447543E+04 0.  0.
         25    2    3    3    0    0 -0.53600524776E+02  0.53134714179E+02 -0.93579240632E+02  0.17664167328E+03  0.12941751178E+03 0.  0.
         35    2    3    3    0    0  0.53600524776E+02 -0.53134714179E+02  0.21561234530E+03  0.83181391756E+03  0.79983085455E+03 0.  0.
         22    1    5    5    0    0  0.12082838419E+02  0.19896319598E+03 -0.23845918634E+03  0.31079757382E+03  0.00000000000E+00 0. -1.
         22    1    5    5    0    0  0.41517686358E+02 -0.25209791016E+03  0.45407153165E+03  0.52101634374E+03  0.00000000000E+00 0. -1.
          5    1    4    4  502    0 -0.31810684185E+02  0.87851240021E+02 -0.25377657004E+02  0.96932324209E+02  0.47000000000E+01 0.  1.
         -5    1    4    4    0  502 -0.21789840591E+02 -0.34716525843E+02 -0.68201583628E+02  0.79709349068E+02  0.47000000000E+01 0.  1.
<mgrwt>
<rscale>  0 0.10010448E+04</rscale>
<asrwt>0</asrwt>
<pdfrwt beam="1">  1        1 0.68186345E-01 0.10010448E+04</pdfrwt>
<pdfrwt beam="2">  1       -1 0.86960669E-01 0.10010448E+04</pdfrwt>
<totfact> 0.80858469E+01</totfact>
</mgrwt>
</event>
<event>
 9    1  0.4370149E-036  0.1000624E+04  0.7818608E-02  0.8680444E-01
         -1   -1    0    0    0  501 -0.00000000000E+00  0.00000000000E+00  0.49998974390E+03  0.49998974390E+03  0.00000000000E+00 0.  1.
          1   -1    0    0  501    0  0.00000000000E+00 -0.00000000000E+00 -0.50063409140E+03  0.50063409140E+03  0.00000000000E+00 0.  1.
         36    2    1    2    0    0  0.00000000000E+00  0.00000000000E+00 -0.64434749992E+00  0.10006238353E+04  0.10006236278E+04 0.  0.
         25    2    3    3    0    0  0.54978947313E+02  0.24582097509E+02  0.12144213150E+03  0.18985407359E+03  0.13292634724E+03 0.  0.
         35    2    3    3    0    0 -0.54978947313E+02 -0.24582097509E+02 -0.12208647900E+03  0.81076976172E+03  0.79925936591E+03 0.  0.
         22    1    5    5    0    0  0.27017229497E+02 -0.52763119149E+02  0.33770836916E+03  0.34287143368E+03  0.00000000000E+00 0. -1.
         22    1    5    5    0    0 -0.81996176810E+02  0.28181021641E+02 -0.45979484816E+03  0.46789832804E+03  0.00000000000E+00 0. -1.
          5    1    4    4  502    0  0.94871466248E+02  0.36702699872E+02  0.10005121130E+03  0.14275860103E+03  0.47000000000E+01 0. -1.
         -5    1    4    4    0  502 -0.39892518935E+02 -0.12120602363E+02  0.21390920193E+02  0.47095472557E+02  0.47000000000E+01 0. -1.
<mgrwt>
<rscale>  0 0.10006236E+04</rscale>
<asrwt>0</asrwt>
<pdfrwt beam="1">  1        1 0.77020630E-01 0.10006236E+04</pdfrwt>
<pdfrwt beam="2">  1       -1 0.76921499E-01 0.10006236E+04</pdfrwt>
<totfact> 0.88525191E+01</totfact>
</mgrwt>
</event>
<event>
 9    1  0.4370149E-036  0.9992197E+03  0.7818608E-02  0.8681781E-01
         -1   -1    0    0    0  501 -0.00000000000E+00  0.00000000000E+00  0.12638230968E+03  0.12638230968E+03  0.00000000000E+00 0.  1.
          1   -1    0    0  501    0  0.00000000000E+00 -0.00000000000E+00 -0.19750391230E+04  0.19750391230E+04  0.00000000000E+00 0.  1.
         36    2    1    2    0    0  0.71054273576E-14  0.28421709430E-13 -0.18486568133E+04  0.21014214326E+04  0.99921970770E+03 0.  0.
         25    2    3    3    0    0 -0.41615628666E+02 -0.77750979313E+02 -0.11733834681E+03  0.19208970222E+03  0.12390758949E+03 0.  0.
         35    2    3    3    0    0  0.41615628666E+02  0.77750979313E+02 -0.17313184665E+04  0.19093317304E+04  0.80019182018E+03 0.  0.
         22    1    5    5    0    0  0.81406991060E+02 -0.35787934173E+03 -0.75416316740E+03  0.83872927962E+03  0.00000000000E+00 0. -1.
         22    1    5    5    0    0 -0.39791362394E+02  0.43563032105E+03 -0.97715529908E+03  0.10706024508E+04  0.00000000000E+00 0. -1.
          5    1    4    4  502    0  0.34156007989E+02 -0.28335650743E+02 -0.84824697101E+02  0.95848115387E+02  0.47000000000E+01 0. -1.
         -5    1    4    4    0  502 -0.75771636655E+02 -0.49415328570E+02 -0.32513649708E+02  0.96241586834E+02  0.47000000000E+01 0. -1.
<mgrwt>
<rscale>  0 0.99921971E+03</rscale>
<asrwt>0</asrwt>
<pdfrwt beam="1">  1        1 0.30385218E+00 0.99921971E+03</pdfrwt>
<pdfrwt beam="2">  1       -1 0.19443432E-01 0.99921971E+03</pdfrwt>
<totfact> 0.69479333E+01</totfact>
</mgrwt>
</event>
<event>
 9    1  0.4370149E-036  0.1000136E+04  0.7818608E-02  0.8680909E-01
         -2   -1    0    0    0  501 -0.00000000000E+00  0.00000000000E+00  0.22285287520E+03  0.22285287520E+03  0.00000000000E+00 0.  1.
          2   -1    0    0  501    0  0.00000000000E+00 -0.00000000000E+00 -0.11221204222E+04  0.11221204222E+04  0.00000000000E+00 0.  1.
         36    2    1    2    0    0 -0.14210854715E-13  0.00000000000E+00 -0.89926754699E+03  0.13449732974E+04  0.10001355156E+04 0.  0.
         25    2    3    3    0    0  0.10958271860E+03  0.90106744156E+02 -0.16388375264E+03  0.24989032322E+03  0.12433700858E+03 0.  0.
         35    2    3    3    0    0 -0.10958271860E+03 -0.90106744156E+02 -0.73538379435E+03  0.10950829742E+04  0.79893040859E+03 0.  0.
         22    1    5    5    0    0 -0.32375118627E+03 -0.33376051197E+03 -0.55451031761E+03  0.72366608481E+03  0.00000000000E+00 0. -1.
         22    1    5    5    0    0  0.21416846767E+03  0.24365376782E+03 -0.18087347673E+03  0.37141688936E+03  0.00000000000E+00 0. -1.
          5    1    4    4  502    0  0.13402845816E+03  0.56429387178E+02 -0.11456419182E+03  0.18518895048E+03  0.47000000000E+01 0.  1.
         -5    1    4    4    0  502 -0.24445739555E+02  0.33677356978E+02 -0.49319560820E+02  0.64701372744E+02  0.47000000000E+01 0.  1.
<mgrwt>
<rscale>  0 0.10001355E+04</rscale>
<asrwt>0</asrwt>
<pdfrwt beam="1">  1        2 0.17263391E+00 0.10001355E+04</pdfrwt>
<pdfrwt beam="2">  1       -2 0.34285058E-01 0.10001355E+04</pdfrwt>
<totfact> 0.20296731E+02</totfact>
</mgrwt>
</event>
<event>
 9    1  0.4370149E-036  0.9998324E+03  0.7818608E-02  0.8681198E-01
         -2   -1    0    0    0  501 -0.00000000000E+00  0.00000000000E+00  0.19189428434E+03  0.19189428434E+03  0.00000000000E+00 0.  1.
          2   -1    0    0  501    0  0.00000000000E+00 -0.00000000000E+00 -0.13023639678E+04  0.13023639678E+04  0.00000000000E+00 0.  1.
         36    2    1    2    0    0  0.00000000000E+00 -0.14210854715E-13 -0.11104696834E+04  0.14942582521E+04  0.99983238904E+03 0.  0.
         25    2    3    3    0    0 -0.70259786651E+02 -0.57780540470E+02 -0.50097292859E+02  0.16289554672E+03  0.12549976857E+03 0.  0.
         35    2    3    3    0    0  0.70259786651E+02  0.57780540470E+02 -0.10603723906E+04  0.13313627054E+04  0.79991375669E+03 0.  0.
         22    1    5    5    0    0  0.22710753914E+03  0.34688922027E+03 -0.32851678021E+03  0.52899266569E+03  0.00000000000E+00 0.  1.
         22    1    5    5    0    0 -0.15684775249E+03 -0.28910867980E+03 -0.73185561036E+03  0.80237003970E+03  0.00000000000E+00 0.  1.
          5    1    4    4  502    0 -0.40151610043E+02 -0.95774669613E+02 -0.47013382488E+02  0.11409332698E+03  0.47000000000E+01 0.  1.
         -5    1    4    4    0  502 -0.30108176608E+02  0.37994129143E+02 -0.30839103705E+01  0.48802219736E+02  0.47000000000E+01 0.  1.
<mgrwt>
<rscale>  0 0.99983239E+03</rscale>
<asrwt>0</asrwt>
<pdfrwt beam="1">  1        2 0.20036369E+00 0.99983239E+03</pdfrwt>
<pdfrwt beam="2">  1       -2 0.29522198E-01 0.99983239E+03</pdfrwt>
<totfact> 0.20916985E+02</totfact>
</mgrwt>
</event>
<event>
 9    1  0.4370149E-036  0.1000287E+04  0.7818608E-02  0.8680765E-01
         -1   -1    0    0    0  501 -0.00000000000E+00  0.00000000000E+00  0.20532720394E+03  0.20532720394E+03  0.00000000000E+00 0. -1.
          1   -1    0    0  501    0  0.00000000000E+00 -0.00000000000E+00 -0.12182672577E+04  0.12182672577E+04  0.00000000000E+00 0. -1.
         36    2    1    2    0    0 -0.28421709430E-13  0.14210854715E-13 -0.10129400538E+04  0.14235944616E+04  0.10002867782E+04 0.  0.
         25    2    3    3    0    0  0.13559444911E+03  0.42045297710E+02 -0.20902647202E+03  0.28213195246E+03  0.12550980401E+03 0.  0.
         35    2    3    3    0    0 -0.13559444911E+03 -0.42045297710E+02 -0.80391358175E+03  0.11414625092E+04  0.79781323083E+03 0.  0.
         22    1    5    5    0    0 -0.17079373409E+03 -0.26849092276E+03 -0.13498318547E+02  0.31849659309E+03  0.00000000000E+00 0. -1.
         22    1    5    5    0    0  0.35199284980E+02  0.22644562505E+03 -0.79041526320E+03  0.82296591610E+03  0.00000000000E+00 0. -1.
          5    1    4    4  502    0  0.97974451227E+02  0.79673288312E+02 -0.18382276181E+03  0.22306887663E+03  0.47000000000E+01 0.  1.
         -5    1    4    4    0  502  0.37619997879E+02 -0.37627990601E+02 -0.25203710218E+02  0.59063075824E+02  0.47000000000E+01 0.  1.
<mgrwt>
<rscale>  0 0.10002868E+04</rscale>
<asrwt>0</asrwt>
<pdfrwt beam="1">  1        1 0.18742573E+00 0.10002868E+04</pdfrwt>
<pdfrwt beam="2">  1       -1 0.31588801E-01 0.10002868E+04</pdfrwt>
<totfact> 0.10627452E+02</totfact>
</mgrwt>
</event>
<event>
 9    1  0.4370149E-036  0.1000641E+04  0.7818608E-02  0.8680428E-01
         -2   -1    0    0    0  501 -0.00000000000E+00  0.00000000000E+00  0.15680119031E+04  0.15680119031E+04  0.00000000000E+00 0.  1.
          2   -1    0    0  501    0  0.00000000000E+00 -0.00000000000E+00 -0.15964192953E+03  0.15964192953E+03  0.00000000000E+00 0.  1.
         36    2    1    2    0    0  0.71054273576E-14  0.00000000000E+00  0.14083699736E+04  0.17276538326E+04  0.10006406862E+04 0.  0.
         25    2    3    3    0    0 -0.27373448730E+02 -0.14015366484E+03  0.28671124934E+03  0.34403722161E+03  0.12556239043E+03 0.  0.
         35    2    3    3    0    0  0.27373448730E+02  0.14015366484E+03  0.11216587242E+04  0.13836166110E+04  0.79742352436E+03 0.  0.
         22    1    5    5    0    0 -0.38015981053E+03  0.10707340217E+03  0.46527389961E+03  0.61029992352E+03  0.00000000000E+00 0.  1.
         22    1    5    5    0    0  0.40753325926E+03  0.33080262668E+02  0.65638482461E+03  0.77331668750E+03  0.00000000000E+00 0.  1.
          5    1    4    4  502    0 -0.37433202271E+02 -0.14511658350E+03  0.16992784137E+03  0.22662221584E+03  0.47000000000E+01 0. -1.
         -5    1    4    4    0  502  0.10059753541E+02  0.49629186614E+01  0.11678340797E+03  0.11741500577E+03  0.47000000000E+01 0. -1.
<mgrwt>
<rscale>  0 0.10006407E+04</rscale>
<asrwt>0</asrwt>
<pdfrwt beam="1">  1        2 0.24560298E-01 0.10006407E+04</pdfrwt>
<pdfrwt beam="2">  1       -2 0.24123259E+00 0.10006407E+04</pdfrwt>
<totfact> 0.17469473E+01</totfact>
</mgrwt>
</event>
<event>
 9    1  0.4370149E-036  0.9983944E+03  0.7818608E-02  0.8682569E-01
         -2   -1    0    0    0  501 -0.00000000000E+00  0.00000000000E+00  0.29038759316E+03  0.29038759316E+03  0.00000000000E+00 0. -1.
          2   -1    0    0  501    0  0.00000000000E+00 -0.00000000000E+00 -0.85815589329E+03  0.85815589329E+03  0.00000000000E+00 0. -1.
         36    2    1    2    0    0  0.00000000000E+00 -0.71054273576E-14 -0.56776830013E+03  0.11485434864E+04  0.99839435977E+03 0.  0.
         25    2    3    3    0    0  0.85041155037E+02 -0.10570239205E+02  0.19353662648E+02  0.15264131206E+03  0.12482418789E+03 0.  0.
         35    2    3    3    0    0 -0.85041155037E+02  0.10570239205E+02 -0.58712196278E+03  0.99590217439E+03  0.79985324514E+03 0.  0.
         22    1    5    5    0    0  0.35390271829E+03 -0.60265972590E+02 -0.28456641075E+03  0.45810169569E+03  0.00000000000E+00 0. -1.
         22    1    5    5    0    0 -0.43894387332E+03  0.70836211795E+02 -0.30255555203E+03  0.53780047870E+03  0.00000000000E+00 0. -1.
          5    1    4    4  502    0  0.30318718785E+02 -0.60875165525E+02  0.34858185424E+02  0.76564963120E+02  0.47000000000E+01 0. -1.
         -5    1    4    4    0  502  0.54722436251E+02  0.50304926320E+02 -0.15504522776E+02  0.76076348939E+02  0.47000000000E+01 0. -1.
<mgrwt>
<rscale>  0 0.99839436E+03</rscale>
<asrwt>0</asrwt>
<pdfrwt beam="1">  1        2 0.13202398E+00 0.99839436E+03</pdfrwt>
<pdfrwt beam="2">  1       -2 0.44675015E-01 0.99839436E+03</pdfrwt>
<totfact> 0.18009558E+02</totfact>
</mgrwt>
</event>
<event>
 9    1  0.4370149E-036  0.9998529E+03  0.7818608E-02  0.8681178E-01
         -2   -1    0    0    0  501 -0.00000000000E+00  0.00000000000E+00  0.25258530201E+03  0.25258530201E+03  0.00000000000E+00 0. -1.
          2   -1    0    0  501    0  0.00000000000E+00 -0.00000000000E+00 -0.98947344157E+03  0.98947344157E+03  0.00000000000E+00 0. -1.
         36    2    1    2    0    0 -0.14210854715E-13  0.00000000000E+00 -0.73688813956E+03  0.12420587436E+04  0.99985288531E+03 0.  0.
         25    2    3    3    0    0  0.11273177367E+03 -0.47568350294E+02 -0.54510890667E+02  0.18361281841E+03  0.12558275814E+03 0.  0.
         35    2    3    3    0    0 -0.11273177367E+03  0.47568350294E+02 -0.68237724889E+03  0.10584459252E+04  0.79981114392E+03 0.  0.
         22    1    5    5    0    0  0.41881133593E+02  0.28043491639E+03  0.37680041143E+02  0.28603768490E+03  0.00000000000E+00 0.  1.
         22    1    5    5    0    0 -0.15461290726E+03 -0.23286656609E+03 -0.72005729003E+03  0.77240824026E+03  0.00000000000E+00 0.  1.
          5    1    4    4  502    0  0.10719573371E+03  0.15717324068E+02 -0.17228836524E+02  0.10980383604E+03  0.47000000000E+01 0. -1.
         -5    1    4    4    0  502  0.55360399569E+01 -0.63285674362E+02 -0.37282054143E+02  0.73808982373E+02  0.47000000000E+01 0. -1.
<mgrwt>
<rscale>  0 0.99985289E+03</rscale>
<asrwt>0</asrwt>
<pdfrwt beam="1">  1        2 0.15222668E+00 0.99985289E+03</pdfrwt>
<pdfrwt beam="2">  1       -2 0.38859277E-01 0.99985289E+03</pdfrwt>
<totfact> 0.19356047E+02</totfact>
</mgrwt>
</event>
<event>
 9    1  0.4370149E-036  0.1000389E+04  0.7818608E-02  0.8680668E-01
         -2   -1    0    0    0  501 -0.00000000000E+00  0.00000000000E+00  0.10840344424E+03  0.10840344424E+03  0.00000000000E+00 0. -1.
          2   -1    0    0  501    0  0.00000000000E+00 -0.00000000000E+00 -0.23079935940E+04  0.23079935940E+04  0.00000000000E+00 0. -1.
         36    2    1    2    0    0  0.14210854715E-13  0.00000000000E+00 -0.21995901498E+04  0.24163970382E+04  0.10003888341E+04 0.  0.
         25    2    3    3    0    0 -0.10355698740E+03  0.88481302559E+02 -0.50340489982E+03  0.53600135236E+03  0.12380616313E+03 0.  0.
         35    2    3    3    0    0  0.10355698740E+03 -0.88481302559E+02 -0.16961852499E+04  0.18803956859E+04  0.80018156865E+03 0.  0.
         22    1    5    5    0    0  0.29142248165E+03  0.26581012045E+03 -0.10284490004E+04  0.11014941804E+04  0.00000000000E+00 0. -1.
         22    1    5    5    0    0 -0.18786549425E+03 -0.35429142301E+03 -0.66773624953E+03  0.77890150550E+03  0.00000000000E+00 0. -1.
          5    1    4    4  502    0 -0.55672582969E+02 -0.13518766578E+02 -0.27889203102E+03  0.28475436522E+03  0.47000000000E+01 0. -1.
         -5    1    4    4    0  502 -0.47884404430E+02  0.10200006914E+03 -0.22451286880E+03  0.25124698715E+03  0.47000000000E+01 0. -1.
<mgrwt>
<rscale>  0 0.10003888E+04</rscale>
<asrwt>0</asrwt>
<pdfrwt beam="1">  1        2 0.35507591E+00 0.10003888E+04</pdfrwt>
<pdfrwt beam="2">  1       -2 0.16677454E-01 0.10003888E+04</pdfrwt>
<totfact> 0.15177647E+02</totfact>
</mgrwt>
</event>
<event>
 9    1  0.4370149E-036  0.1003377E+04  0.7818608E-02  0.8677829E-01
         -1   -1    0    0    0  501 -0.00000000000E+00  0.00000000000E+00  0.30566577922E+03  0.30566577922E+03  0.00000000000E+00 0. -1.
          1   -1    0    0  501    0  0.00000000000E+00 -0.00000000000E+00 -0.82341966606E+03  0.82341966606E+03  0.00000000000E+00 0. -1.
         36    2    1    2    0    0  0.00000000000E+00 -0.14210854715E-13 -0.51775388684E+03  0.11290854453E+04  0.10033767266E+04 0.  0.
         25    2    3    3    0    0 -0.11484091342E+03  0.23677775888E+02 -0.18903384325E+03  0.25517949747E+03  0.12503483342E+03 0.  0.
         35    2    3    3    0    0  0.11484091342E+03 -0.23677775888E+02 -0.32872004359E+03  0.87390594780E+03  0.80119015600E+03 0.  0.
         22    1    5    5    0    0  0.36787070378E+03 -0.26738152080E+03 -0.22633079123E+03  0.50798362122E+03  0.00000000000E+00 0.  1.
         22    1    5    5    0    0 -0.25302979036E+03  0.24370374491E+03 -0.10238925236E+03  0.36592232658E+03  0.00000000000E+00 0.  1.
          5    1    4    4  502    0  0.94480715443E+00  0.42831517616E+02 -0.96388075858E+02  0.10558495503E+03  0.47000000000E+01 0. -1.
         -5    1    4    4    0  502 -0.11578572058E+03 -0.19153741728E+02 -0.92645767393E+02  0.14959454244E+03  0.47000000000E+01 0. -1.
<mgrwt>
<rscale>  0 0.10033767E+04</rscale>
<asrwt>0</asrwt>
<pdfrwt beam="1">  1        1 0.12667995E+00 0.10033767E+04</pdfrwt>
<pdfrwt beam="2">  1       -1 0.47025505E-01 0.10033767E+04</pdfrwt>
<totfact> 0.10811627E+02</totfact>
</mgrwt>
</event>
<event>
 9    1  0.4370149E-036  0.1000480E+04  0.7818608E-02  0.8680581E-01
          2   -1    0    0  501    0  0.00000000000E+00  0.00000000000E+00  0.92601655078E+03  0.92601655078E+03  0.00000000000E+00 0.  1.
         -2   -1    0    0    0  501 -0.00000000000E+00 -0.00000000000E+00 -0.27023306422E+03  0.27023306422E+03  0.00000000000E+00 0.  1.
         36    2    1    2    0    0  0.71054273576E-14  0.00000000000E+00  0.65578348656E+03  0.11962496150E+04  0.10004804646E+04 0.  0.
         25    2    3    3    0    0  0.35465989682E+02 -0.10630914691E+03  0.17991464486E+02  0.16897632262E+03  0.12517920622E+03 0.  0.
         35    2    3    3    0    0 -0.35465989682E+02  0.10630914691E+03  0.63779202207E+03  0.10272732924E+04  0.79746616398E+03 0.  0.
         22    1    5    5    0    0  0.17260000364E+03  0.27137063758E+03  0.68572228089E+03  0.75739542559E+03  0.00000000000E+00 0. -1.
         22    1    5    5    0    0 -0.20806599332E+03 -0.16506149067E+03 -0.47930258814E+02  0.26987786680E+03  0.00000000000E+00 0. -1.
          5    1    4    4  502    0 -0.11246819306E+02  0.23194712509E+02  0.16976204903E+02  0.31221261438E+02  0.47000000000E+01 0.  1.
         -5    1    4    4    0  502  0.46712808989E+02 -0.12950385942E+03  0.10152595834E+01  0.13775506118E+03  0.47000000000E+01 0.  1.
<mgrwt>
<rscale>  0 0.10004805E+04</rscale>
<asrwt>0</asrwt>
<pdfrwt beam="1">  1        2 0.14246408E+00 0.10004805E+04</pdfrwt>
<pdfrwt beam="2">  1       -2 0.41574318E-01 0.10004805E+04</pdfrwt>
<totfact> 0.18673951E+02</totfact>
</mgrwt>
</event>
<event>
 9    1  0.4370149E-036  0.9999985E+03  0.7818608E-02  0.8681039E-01
          2   -1    0    0  501    0  0.00000000000E+00  0.00000000000E+00  0.75580374839E+03  0.75580374839E+03  0.00000000000E+00 0.  1.
         -2   -1    0    0    0  501 -0.00000000000E+00 -0.00000000000E+00 -0.33077270134E+03  0.33077270134E+03  0.00000000000E+00 0.  1.
         36    2    1    2    0    0  0.00000000000E+00 -0.28421709430E-13  0.42503104705E+03  0.10865764497E+04  0.99999849508E+03 0.  0.
         25    2    3    3    0    0 -0.12831013012E+02 -0.13203127091E+03  0.34272556571E+02  0.18546684225E+03  0.12500580005E+03 0.  0.
         35    2    3    3    0    0  0.12831013012E+02  0.13203127091E+03  0.39075849048E+03  0.90110960749E+03  0.80106768468E+03 0.  0.
         22    1    5    5    0    0  0.67116986096E+02  0.40828782294E+03 -0.69606483068E+01  0.41382615530E+03  0.00000000000E+00 0.  1.
         22    1    5    5    0    0 -0.54285973084E+02 -0.27625655204E+03  0.39771913879E+03  0.48728345219E+03  0.00000000000E+00 0.  1.
          5    1    4    4  502    0 -0.31420196985E+02 -0.11163242182E+03 -0.26060507796E+02  0.11895489249E+03  0.47000000000E+01 0.  1.
         -5    1    4    4    0  502  0.18589183972E+02 -0.20398849083E+02  0.60333064367E+02  0.66511949758E+02  0.47000000000E+01 0.  1.
<mgrwt>
<rscale>  0 0.99999850E+03</rscale>
<asrwt>0</asrwt>
<pdfrwt beam="1">  1        2 0.11627750E+00 0.99999850E+03</pdfrwt>
<pdfrwt beam="2">  1       -2 0.50888108E-01 0.99999850E+03</pdfrwt>
<totfact> 0.16403480E+02</totfact>
</mgrwt>
</event>
<event>
 9    1  0.4370149E-036  0.9999896E+03  0.7818608E-02  0.8681048E-01
          1   -1    0    0  501    0  0.00000000000E+00  0.00000000000E+00  0.24860282410E+03  0.24860282410E+03  0.00000000000E+00 0.  1.
         -1   -1    0    0    0  501 -0.00000000000E+00 -0.00000000000E+00 -0.10055992794E+04  0.10055992794E+04  0.00000000000E+00 0.  1.
         36    2    1    2    0    0  0.00000000000E+00  0.14210854715E-13 -0.75699645534E+03  0.12542021036E+04  0.99998964152E+03 0.  0.
         25    2    3    3    0    0 -0.12330725743E+03  0.25656390556E+02 -0.64248832265E+02  0.18923455600E+03  0.12577310771E+03 0.  0.
         35    2    3    3    0    0  0.12330725743E+03 -0.25656390556E+02 -0.69274762308E+03  0.10649675476E+04  0.79899541798E+03 0.  0.
         22    1    5    5    0    0 -0.10689699666E+03 -0.20617795883E+03  0.74452417512E+02  0.24388415503E+03  0.00000000000E+00 0. -1.
         22    1    5    5    0    0  0.23020425408E+03  0.18052156827E+03 -0.76720004059E+03  0.82108339253E+03  0.00000000000E+00 0. -1.
          5    1    4    4  502    0  0.11102603620E+02  0.38092589534E+02 -0.29801969257E+02  0.49845366446E+02  0.47000000000E+01 0.  1.
         -5    1    4    4    0  502 -0.13440986105E+03 -0.12436198978E+02 -0.34446863009E+02  0.13938918955E+03  0.47000000000E+01 0.  1.
<mgrwt>
<rscale>  0 0.99998964E+03</rscale>
<asrwt>0</asrwt>
<pdfrwt beam="1">  1        1 0.38246589E-01 0.99998964E+03</pdfrwt>
<pdfrwt beam="2">  1       -1 0.15470758E+00 0.99998964E+03</pdfrwt>
<totfact> 0.41917743E+01</totfact>
</mgrwt>
</event>
<event>
 9    1  0.4370149E-036  0.9999296E+03  0.7818608E-02  0.8681105E-01
          3   -1    0    0  501    0  0.00000000000E+00  0.00000000000E+00  0.65898521867E+03  0.65898521867E+03  0.00000000000E+00 0.  1.
         -3   -1    0    0    0  501 -0.00000000000E+00 -0.00000000000E+00 -0.37931774187E+03  0.37931774187E+03  0.00000000000E+00 0.  1.
         36    2    1    2    0    0  0.71054273576E-14  0.00000000000E+00  0.27966747680E+03  0.10383029605E+04  0.99992956767E+03 0.  0.
         25    2    3    3    0    0  0.37918349598E+02 -0.14023603996E+02 -0.88908842811E+02  0.15810201723E+03  0.12432619522E+03 0.  0.
         35    2    3    3    0    0 -0.37918349598E+02  0.14023603996E+02  0.36857631962E+03  0.88020094331E+03  0.79829238661E+03 0.  0.
         22    1    5    5    0    0  0.14990152464E+03 -0.39211329036E+02  0.57534024246E+03  0.59583923168E+03  0.00000000000E+00 0.  1.
         22    1    5    5    0    0 -0.18781987424E+03  0.53234933032E+02 -0.20676392284E+03  0.28436171163E+03  0.00000000000E+00 0.  1.
          5    1    4    4  502    0  0.12312632292E+02  0.38330578533E+02 -0.90974775354E+02  0.99595852902E+02  0.47000000000E+01 0. -1.
         -5    1    4    4    0  502  0.25605717306E+02 -0.52354182529E+02  0.20659325433E+01  0.58506164327E+02  0.47000000000E+01 0. -1.
<mgrwt>
<rscale>  0 0.99992957E+03</rscale>
<asrwt>0</asrwt>
<pdfrwt beam="1">  1        3 0.10138234E+00 0.99992957E+03</pdfrwt>
<pdfrwt beam="2">  1       -3 0.58356576E-01 0.99992957E+03</pdfrwt>
<totfact> 0.10098278E+01</totfact>
</mgrwt>
</event>
<event>
 9    1  0.4370149E-036  0.9994920E+03  0.7818608E-02  0.8681522E-01
         -4   -1    0    0    0  501 -0.00000000000E+00  0.00000000000E+00  0.25897724168E+03  0.25897724168E+03  0.00000000000E+00 0. -1.
          4   -1    0    0  501    0  0.00000000000E+00 -0.00000000000E+00 -0.96435535117E+03  0.96435535117E+03  0.00000000000E+00 0. -1.
         36    2    1    2    0    0  0.71054273576E-14 -0.14210854715E-13 -0.70537810949E+03  0.12233325929E+04  0.99949204869E+03 0.  0.
         25    2    3    3    0    0 -0.62763450663E+02 -0.12157750807E+03 -0.16406298548E+03  0.24755099517E+03  0.12507793890E+03 0.  0.
         35    2    3    3    0    0  0.62763450663E+02  0.12157750807E+03 -0.54131512401E+03  0.97578159768E+03  0.80025453556E+03 0.  0.
         22    1    5    5    0    0 -0.16718602018E+03  0.42379715532E+02 -0.67608048040E+03  0.69773348896E+03  0.00000000000E+00 0. -1.
         22    1    5    5    0    0  0.22994947084E+03  0.79197792533E+02  0.13476535639E+03  0.27804810872E+03  0.00000000000E+00 0. -1.
          5    1    4    4  502    0 -0.25493408727E+02 -0.31942927201E+02 -0.14206927285E+03  0.14790548595E+03  0.47000000000E+01 0. -1.
         -5    1    4    4    0  502 -0.37270041936E+02 -0.89634580864E+02 -0.21993712632E+02  0.99645509222E+02  0.47000000000E+01 0. -1.
<mgrwt>
<rscale>  0 0.99949205E+03</rscale>
<asrwt>0</asrwt>
<pdfrwt beam="1">  1        4 0.14836236E+00 0.99949205E+03</pdfrwt>
<pdfrwt beam="2">  1       -4 0.39842653E-01 0.99949205E+03</pdfrwt>
<totfact> 0.37786944E+00</totfact>
</mgrwt>
</event>
<event>
 9    1  0.4370149E-036  0.1004679E+04  0.7818608E-02  0.8676595E-01
          2   -1    0    0  501    0  0.00000000000E+00  0.00000000000E+00  0.11292361887E+04  0.11292361887E+04  0.00000000000E+00 0. -1.
         -2   -1    0    0    0  501 -0.00000000000E+00 -0.00000000000E+00 -0.22346514711E+03  0.22346514711E+03  0.00000000000E+00 0. -1.
         36    2    1    2    0    0  0.00000000000E+00  0.00000000000E+00  0.90577104160E+03  0.13527013358E+04  0.10046789159E+04 0.  0.
         25    2    3    3    0    0  0.87157919266E+02  0.10924837560E+03  0.23878230751E+03  0.30285514998E+03  0.12317686889E+03 0.  0.
         35    2    3    3    0    0 -0.87157919266E+02 -0.10924837560E+03  0.66698873409E+03  0.10498461858E+04  0.79860586777E+03 0.  0.
         22    1    5    5    0    0 -0.23229936843E+03 -0.24219453142E+03  0.76100746386E+03  0.83171722819E+03  0.00000000000E+00 0. -1.
         22    1    5    5    0    0  0.14514144917E+03  0.13294615582E+03 -0.94018729765E+02  0.21812895764E+03  0.00000000000E+00 0. -1.
          5    1    4    4  502    0  0.87654120730E+02  0.94646023542E+02  0.10016258454E+03  0.16338833494E+03  0.47000000000E+01 0.  1.
         -5    1    4    4    0  502 -0.49620146340E+00  0.14602352053E+02  0.13861972297E+03  0.13946681504E+03  0.47000000000E+01 0.  1.
<mgrwt>
<rscale>  0 0.10046789E+04</rscale>
<asrwt>0</asrwt>
<pdfrwt beam="1">  1        2 0.17372864E+00 0.10046789E+04</pdfrwt>
<pdfrwt beam="2">  1       -2 0.34379254E-01 0.10046789E+04</pdfrwt>
<totfact> 0.19994713E+02</totfact>
</mgrwt>
</event>
<event>
 9    1  0.4370149E-036  0.1000523E+04  0.7818608E-02  0.8680540E-01
         -2   -1    0    0    0  501 -0.00000000000E+00  0.00000000000E+00  0.51211983171E+03  0.51211983171E+03  0.00000000000E+00 0. -1.
          2   -1    0    0  501    0  0.00000000000E+00 -0.00000000000E+00 -0.48867759225E+03  0.48867759225E+03  0.00000000000E+00 0. -1.
         36    2    1    2    0    0 -0.71054273576E-14  0.00000000000E+00  0.23442239459E+02  0.10007974240E+04  0.10005228359E+04 0.  0.
         25    2    3    3    0    0 -0.53179537921E+02  0.12924612897E+03 -0.68699062976E+01  0.18725925044E+03  0.12444358624E+03 0.  0.
         35    2    3    3    0    0  0.53179537921E+02 -0.12924612897E+03  0.30312145756E+02  0.81353817352E+03  0.80087009464E+03 0.  0.
         22    1    5    5    0    0 -0.31314485236E+03 -0.24798472693E+03 -0.91220011871E+02  0.40972821958E+03  0.00000000000E+00 0. -1.
         22    1    5    5    0    0  0.36632439028E+03  0.11873859796E+03  0.12153215763E+03  0.40380995394E+03  0.00000000000E+00 0. -1.
          5    1    4    4  502    0 -0.77756379992E+02  0.54226092870E+02  0.30632813122E+02  0.99734562801E+02  0.47000000000E+01 0. -1.
         -5    1    4    4    0  502  0.24576842071E+02  0.75020036100E+02 -0.37502719420E+02  0.87524687640E+02  0.47000000000E+01 0. -1.
<mgrwt>
<rscale>  0 0.10005228E+04</rscale>
<asrwt>0</asrwt>
<pdfrwt beam="1">  1        2 0.75181169E-01 0.10005228E+04</pdfrwt>
<pdfrwt beam="2">  1       -2 0.78787666E-01 0.10005228E+04</pdfrwt>
<totfact> 0.10908583E+02</totfact>
</mgrwt>
</event>
<event>
 9    1  0.4370149E-036  0.9993298E+03  0.7818608E-02  0.8681676E-01
          2   -1    0    0  501    0  0.00000000000E+00  0.00000000000E+00  0.12978814805E+04  0.12978814805E+04  0.00000000000E+00 0.  1.
         -2   -1    0    0    0  501 -0.00000000000E+00 -0.00000000000E+00 -0.19236348513E+03  0.19236348513E+03  0.00000000000E+00 0.  1.
         36    2    1    2    0    0 -0.14210854715E-13  0.28421709430E-13  0.11055179954E+04  0.14902449656E+04  0.99932978516E+03 0.  0.
         25    2    3    3    0    0  0.55616115968E+02 -0.64634004636E+02  0.42620123436E+02  0.15734382457E+03  0.12517946036E+03 0.  0.
         35    2    3    3    0    0 -0.55616115968E+02  0.64634004636E+02  0.10628978719E+04  0.13329011411E+04  0.79975174822E+03 0.  0.
         22    1    5    5    0    0  0.31110250743E+03  0.14549399566E+03  0.81097262374E+03  0.88069851218E+03  0.00000000000E+00 0.  1.
         22    1    5    5    0    0 -0.36671862339E+03 -0.80859991027E+02  0.25192524820E+03  0.45220262889E+03  0.00000000000E+00 0.  1.
          5    1    4    4  502    0 -0.19608624376E+02 -0.72039908500E+02  0.12529836946E+02  0.75850730916E+02  0.47000000000E+01 0. -1.
         -5    1    4    4    0  502  0.75224740344E+02  0.74059038632E+01  0.30090286489E+02  0.81493093651E+02  0.47000000000E+01 0. -1.
<mgrwt>
<rscale>  0 0.99932979E+03</rscale>
<asrwt>0</asrwt>
<pdfrwt beam="1">  1        2 0.19967407E+00 0.99932979E+03</pdfrwt>
<pdfrwt beam="2">  1       -2 0.29594383E-01 0.99932979E+03</pdfrwt>
<totfact> 0.20949390E+02</totfact>
</mgrwt>
</event>
<event>
 9    1  0.4370149E-036  0.9974374E+03  0.7818608E-02  0.8683482E-01
         -1   -1    0    0    0  501 -0.00000000000E+00  0.00000000000E+00  0.46598280163E+03  0.46598280163E+03  0.00000000000E+00 0. -1.
          1   -1    0    0  501    0  0.00000000000E+00 -0.00000000000E+00 -0.53375438918E+03  0.53375438918E+03  0.00000000000E+00 0. -1.
         36    2    1    2    0    0  0.71054273576E-14  0.00000000000E+00 -0.67771587557E+02  0.99973719081E+03  0.99743744797E+03 0.  0.
         25    2    3    3    0    0 -0.16767312237E+02  0.46753985654E+02  0.11640535823E+03  0.17800214296E+03  0.12516979484E+03 0.  0.
         35    2    3    3    0    0  0.16767312237E+02 -0.46753985654E+02 -0.18417694579E+03  0.82173504785E+03  0.79928734731E+03 0.  0.
         22    1    5    5    0    0  0.66485162527E+02  0.19354501006E+03  0.24995908908E+03  0.32304720084E+03  0.00000000000E+00 0. -1.
         22    1    5    5    0    0 -0.49717850290E+02 -0.24029899571E+03 -0.43413603487E+03  0.49868784701E+03  0.00000000000E+00 0. -1.
          5    1    4    4  502    0 -0.26875788211E+02  0.37648937667E+02 -0.12618870404E+02  0.48177550682E+02  0.47000000000E+01 0. -1.
         -5    1    4    4    0  502  0.10108475973E+02  0.91050479868E+01  0.12902422864E+03  0.12982459228E+03  0.47000000000E+01 0. -1.
<mgrwt>
<rscale>  0 0.99743745E+03</rscale>
<asrwt>0</asrwt>
<pdfrwt beam="1">  1        1 0.82116060E-01 0.99743745E+03</pdfrwt>
<pdfrwt beam="2">  1       -1 0.71689662E-01 0.99743745E+03</pdfrwt>
<totfact> 0.93365217E+01</totfact>
</mgrwt>
</event>
<event>
 9    1  0.4370149E-036  0.1001363E+04  0.7818608E-02  0.8679741E-01
         -1   -1    0    0    0  501 -0.00000000000E+00  0.00000000000E+00  0.83741292885E+03  0.83741292885E+03  0.00000000000E+00 0. -1.
          1   -1    0    0  501    0  0.00000000000E+00 -0.00000000000E+00 -0.29935304231E+03  0.29935304231E+03  0.00000000000E+00 0. -1.
         36    2    1    2    0    0 -0.71054273576E-14  0.71054273576E-14  0.53805988654E+03  0.11367659712E+04  0.10013632866E+04 0.  0.
         25    2    3    3    0    0  0.56221688918E+02  0.92898762885E+01  0.24826690210E+03  0.28409794802E+03  0.12580941651E+03 0.  0.
         35    2    3    3    0    0 -0.56221688918E+02 -0.92898762885E+01  0.28979298444E+03  0.85266802315E+03  0.79988474405E+03 0.  0.
         22    1    5    5    0    0 -0.35858875827E+03 -0.13034615690E+03  0.35425942765E+03  0.52064936402E+03  0.00000000000E+00 0.  1.
         22    1    5    5    0    0  0.30236706936E+03  0.12105628061E+03 -0.64466443211E+02  0.33201865912E+03  0.00000000000E+00 0.  1.
          5    1    4    4  502    0 -0.10504982685E+02  0.45745902247E+02  0.38377737960E+02  0.60811043442E+02  0.47000000000E+01 0.  1.
         -5    1    4    4    0  502  0.66726671603E+02 -0.36456025958E+02  0.20988916414E+03  0.22328690458E+03  0.47000000000E+01 0.  1.
<mgrwt>
<rscale>  0 0.10013633E+04</rscale>
<asrwt>0</asrwt>
<pdfrwt beam="1">  1        1 0.46054315E-01 0.10013633E+04</pdfrwt>
<pdfrwt beam="2">  1       -1 0.12883276E+00 0.10013633E+04</pdfrwt>
<totfact> 0.54653548E+01</totfact>
</mgrwt>
</event>
<event>
 9    1  0.4370149E-036  0.1002514E+04  0.7818608E-02  0.8678647E-01
          2   -1    0    0  501    0  0.00000000000E+00  0.00000000000E+00  0.91369091564E+03  0.91369091564E+03  0.00000000000E+00 0. -1.
         -2   -1    0    0    0  501 -0.00000000000E+00 -0.00000000000E+00 -0.27499316293E+03  0.27499316293E+03  0.00000000000E+00 0. -1.
         36    2    1    2    0    0  0.00000000000E+00  0.00000000000E+00  0.63869775271E+03  0.11886840786E+04  0.10025143487E+04 0.  0.
         25    2    3    3    0    0 -0.10666782369E+03  0.94270558005E+02  0.14696206621E+03  0.23939038448E+03  0.12427769132E+03 0.  0.
         35    2    3    3    0    0  0.10666782369E+03 -0.94270558005E+02  0.49173568650E+03  0.94929369409E+03  0.79943077845E+03 0.  0.
         22    1    5    5    0    0  0.24659700463E+03  0.29738772182E+03  0.16364651799E+03  0.41955896205E+03  0.00000000000E+00 0.  1.
         22    1    5    5    0    0 -0.13992918095E+03 -0.39165827983E+03  0.32808916851E+03  0.52973473204E+03  0.00000000000E+00 0.  1.
          5    1    4    4  502    0 -0.32070919812E+02  0.98739035826E+02  0.12244306558E+03  0.16059992342E+03  0.47000000000E+01 0.  1.
         -5    1    4    4    0  502 -0.74596903877E+02 -0.44684778205E+01  0.24519000627E+02  0.78790461058E+02  0.47000000000E+01 0.  1.
<mgrwt>
<rscale>  0 0.10025143E+04</rscale>
<asrwt>0</asrwt>
<pdfrwt beam="1">  1        2 0.14056783E+00 0.10025143E+04</pdfrwt>
<pdfrwt beam="2">  1       -2 0.42306641E-01 0.10025143E+04</pdfrwt>
<totfact> 0.18391313E+02</totfact>
</mgrwt>
</event>
<event>
 9    1  0.4370149E-036  0.9996330E+03  0.7818608E-02  0.8681388E-01
          2   -1    0    0  501    0  0.00000000000E+00  0.00000000000E+00  0.28377559652E+04  0.28377559652E+04  0.00000000000E+00 0.  1.
         -2   -1    0    0    0  501 -0.00000000000E+00 -0.00000000000E+00 -0.88033120008E+02  0.88033120008E+02  0.00000000000E+00 0.  1.
         36    2    1    2    0    0 -0.14210854715E-13  0.28421709430E-13  0.27497228452E+04  0.29257890852E+04  0.99963295552E+03 0.  0.
         25    2    3    3    0    0  0.36734800758E+02 -0.10170143447E+03  0.77334000478E+03  0.79091107755E+03  0.12566997353E+03 0.  0.
         35    2    3    3    0    0 -0.36734800758E+02  0.10170143447E+03  0.19763828404E+04  0.21348780077E+04  0.79995146623E+03 0.  0.
         22    1    5    5    0    0 -0.10893203107E+03  0.28400175080E+03  0.19004082490E+04  0.19245972811E+04  0.00000000000E+00 0. -1.
         22    1    5    5    0    0  0.72197230309E+02 -0.18230031633E+03  0.75974591459E+02  0.21028072652E+03  0.00000000000E+00 0. -1.
          5    1    4    4  502    0  0.64394526406E+02 -0.10460998928E+03  0.45468190467E+03  0.47100703744E+03  0.47000000000E+01 0. -1.
         -5    1    4    4    0  502 -0.27659725647E+02  0.29085548069E+01  0.31865810011E+03  0.31990404011E+03  0.47000000000E+01 0. -1.
<mgrwt>
<rscale>  0 0.99963296E+03</rscale>
<asrwt>0</asrwt>
<pdfrwt beam="1">  1        2 0.43657777E+00 0.99963296E+03</pdfrwt>
<pdfrwt beam="2">  1       -2 0.13543559E-01 0.99963296E+03</pdfrwt>
<totfact> 0.10142507E+02</totfact>
</mgrwt>
</event>
<event>
 9    1  0.4370149E-036  0.9998306E+03  0.7818608E-02  0.8681199E-01
          1   -1    0    0  501    0  0.00000000000E+00  0.00000000000E+00  0.65830010841E+03  0.65830010841E+03  0.00000000000E+00 0. -1.
         -1   -1    0    0    0  501 -0.00000000000E+00 -0.00000000000E+00 -0.37963734221E+03  0.37963734221E+03  0.00000000000E+00 0. -1.
         36    2    1    2    0    0 -0.28421709430E-13  0.88817841970E-15  0.27866276620E+03  0.10379374506E+04  0.99983059273E+03 0.  0.
         25    2    3    3    0    0 -0.13560217344E+03  0.61594966869E+01  0.88809212074E+02  0.20490011738E+03  0.12518423669E+03 0.  0.
         35    2    3    3    0    0  0.13560217344E+03 -0.61594966869E+01  0.18985355413E+03  0.83303733325E+03  0.79967552028E+03 0.  0.
         22    1    5    5    0    0  0.46597802078E+03 -0.16090017842E+02  0.18738983805E+03  0.50250309046E+03  0.00000000000E+00 0.  1.
         22    1    5    5    0    0 -0.33037584734E+03  0.99305211548E+01  0.24637160783E+01  0.33053424278E+03  0.00000000000E+00 0.  1.
          5    1    4    4  502    0  0.24127018651E+02  0.35319040653E+01  0.11742583459E+02  0.27469358231E+02  0.47000000000E+01 0.  1.
         -5    1    4    4    0  502 -0.15972919209E+03  0.26275926216E+01  0.77066628615E+02  0.17743075915E+03  0.47000000000E+01 0.  1.
<mgrwt>
<rscale>  0 0.99983059E+03</rscale>
<asrwt>0</asrwt>
<pdfrwt beam="1">  1        1 0.10127694E+00 0.99983059E+03</pdfrwt>
<pdfrwt beam="2">  1       -1 0.58405745E-01 0.99983059E+03</pdfrwt>
<totfact> 0.10256676E+02</totfact>
</mgrwt>
</event>
<event>
 9    1  0.4370149E-036  0.1001037E+04  0.7818608E-02  0.8680051E-01
          2   -1    0    0  501    0  0.00000000000E+00  0.00000000000E+00  0.16417174992E+04  0.16417174992E+04  0.00000000000E+00 0.  1.
         -2   -1    0    0    0  501 -0.00000000000E+00 -0.00000000000E+00 -0.15259563156E+03  0.15259563156E+03  0.00000000000E+00 0.  1.
         36    2    1    2    0    0  0.00000000000E+00  0.28421709430E-13  0.14891218677E+04  0.17943131308E+04  0.10010372993E+04 0.  0.
         25    2    3    3    0    0  0.81865427282E+01  0.13420726870E+03  0.32344786076E+03  0.37192693832E+03  0.12503006982E+03 0.  0.
         35    2    3    3    0    0 -0.81865427282E+01 -0.13420726870E+03  0.11656740069E+04  0.14223861925E+04  0.80393282041E+03 0.  0.
         22    1    5    5    0    0  0.21818868236E+03  0.26794935636E+03  0.40200555484E+03  0.53010529596E+03  0.00000000000E+00 0. -1.
         22    1    5    5    0    0 -0.22637522509E+03 -0.40215662506E+03  0.76366845206E+03  0.89228089652E+03  0.00000000000E+00 0. -1.
          5    1    4    4  502    0  0.84064915139E+01 -0.12065851146E+02 -0.15322151769E+01  0.15514236907E+02  0.47000000000E+01 0.  1.
         -5    1    4    4    0  502 -0.21994878571E+00  0.14627311985E+03  0.32498007594E+03  0.35641270141E+03  0.47000000000E+01 0.  1.
<mgrwt>
<rscale>  0 0.10010373E+04</rscale>
<asrwt>0</asrwt>
<pdfrwt beam="1">  1        2 0.25257191E+00 0.10010373E+04</pdfrwt>
<pdfrwt beam="2">  1       -2 0.23476252E-01 0.10010373E+04</pdfrwt>
<totfact> 0.20202472E+02</totfact>
</mgrwt>
</event>
<event>
 9    1  0.4370149E-036  0.1000278E+04  0.7818608E-02  0.8680773E-01
          2   -1    0    0  501    0  0.00000000000E+00  0.00000000000E+00  0.21506913547E+04  0.21506913547E+04  0.00000000000E+00 0. -1.
         -2   -1    0    0    0  501 -0.00000000000E+00 -0.00000000000E+00 -0.11630634845E+03  0.11630634845E+03  0.00000000000E+00 0. -1.
         36    2    1    2    0    0  0.00000000000E+00  0.14210854715E-13  0.20343850063E+04  0.22669977032E+04  0.10002780775E+04 0.  0.
         25    2    3    3    0    0  0.11890387171E+02  0.11069842942E+03  0.20853483884E+03  0.26912213243E+03  0.12862511250E+03 0.  0.
         35    2    3    3    0    0 -0.11890387171E+02 -0.11069842942E+03  0.18258501675E+04  0.19978755708E+04  0.80335698085E+03 0.  0.
         22    1    5    5    0    0 -0.98495331699E+02  0.33195252180E+03  0.97849870983E+03  0.10379564212E+04  0.00000000000E+00 0.  1.
         22    1    5    5    0    0  0.86604944528E+02 -0.44265095122E+03  0.84735145762E+03  0.95991914960E+03  0.00000000000E+00 0.  1.
          5    1    4    4  502    0  0.62165772179E+02  0.20101678920E+02  0.94403736679E+02  0.11490350832E+03  0.47000000000E+01 0. -1.
         -5    1    4    4    0  502 -0.50275385007E+02  0.90596750501E+02  0.11413110217E+03  0.15421862410E+03  0.47000000000E+01 0. -1.
<mgrwt>
<rscale>  0 0.10002781E+04</rscale>
<asrwt>0</asrwt>
<pdfrwt beam="1">  1        2 0.33087556E+00 0.10002781E+04</pdfrwt>
<pdfrwt beam="2">  1       -2 0.17893286E-01 0.10002781E+04</pdfrwt>
<totfact> 0.16635744E+02</totfact>
</mgrwt>
</event>
<event>
 9    1  0.4370149E-036  0.9922438E+03  0.7818608E-02  0.8688459E-01
         -2   -1    0    0    0  501 -0.00000000000E+00  0.00000000000E+00  0.87897439988E+03  0.87897439988E+03  0.00000000000E+00 0. -1.
          2   -1    0    0  501    0  0.00000000000E+00 -0.00000000000E+00 -0.28002743030E+03  0.28002743030E+03  0.00000000000E+00 0. -1.
         36    2    1    2    0    0 -0.42632564146E-13  0.28421709430E-13  0.59894696957E+03  0.11590018302E+04  0.99224380572E+03 0.  0.
         25    2    3    3    0    0  0.70677508158E+02 -0.11007011791E+03  0.93608220102E+02  0.20374627930E+03  0.12505721268E+03 0.  0.
         35    2    3    3    0    0 -0.70677508158E+02  0.11007011791E+03  0.50533874947E+03  0.95525555088E+03  0.80002198392E+03 0.  0.
         22    1    5    5    0    0  0.19842339358E+03  0.24678031582E+03  0.56490012004E+03  0.64759903723E+03  0.00000000000E+00 0. -1.
         22    1    5    5    0    0 -0.26910090173E+03 -0.13671019791E+03 -0.59561370572E+02  0.30765651365E+03  0.00000000000E+00 0. -1.
          5    1    4    4  502    0  0.67806893748E+02 -0.13455315206E+03  0.95710645969E+02  0.17856355541E+03  0.47000000000E+01 0.  1.
         -5    1    4    4    0  502  0.28706144094E+01  0.24483034149E+02 -0.21024258667E+01  0.25182723894E+02  0.47000000000E+01 0.  1.
<mgrwt>
<rscale>  0 0.99224381E+03</rscale>
<asrwt>0</asrwt>
<pdfrwt beam="1">  1        2 0.43081144E-01 0.99224381E+03</pdfrwt>
<pdfrwt beam="2">  1       -2 0.13522683E+00 0.99224381E+03</pdfrwt>
<totfact> 0.53521497E+01</totfact>
</mgrwt>
</event>
<event>
 9    1  0.4370149E-036  0.1008723E+04  0.7818608E-02  0.8672775E-01
         -2   -1    0    0    0  501 -0.00000000000E+00  0.00000000000E+00  0.18197654066E+03  0.18197654066E+03  0.00000000000E+00 0. -1.
          2   -1    0    0  501    0  0.00000000000E+00 -0.00000000000E+00 -0.13978745858E+04  0.13978745858E+04  0.00000000000E+00 0. -1.
         36    2    1    2    0    0  0.10658141036E-13  0.28421709430E-13 -0.12158980451E+04  0.15798511264E+04  0.10087227199E+04 0.  0.
         25    2    3    3    0    0  0.30853863834E+02  0.11863523294E+03 -0.99861884850E+02  0.20121140576E+03  0.12444819949E+03 0.  0.
         35    2    3    3    0    0 -0.30853863834E+02 -0.11863523294E+03 -0.11160361603E+04  0.13786397207E+04  0.80005280389E+03 0.  0.
         22    1    5    5    0    0 -0.26282670749E+03  0.25716475771E+03 -0.49959347268E+03  0.62032671127E+03  0.00000000000E+00 0. -1.
         22    1    5    5    0    0  0.23197284365E+03 -0.37579999064E+03 -0.61644268758E+03  0.75831300940E+03  0.00000000000E+00 0. -1.
          5    1    4    4  502    0  0.25847317222E+02  0.77112342413E+02 -0.12718141237E+03  0.15103509133E+03  0.47000000000E+01 0.  1.
         -5    1    4    4    0  502  0.50065466116E+01  0.41522890522E+02  0.27319527519E+02  0.50176314433E+02  0.47000000000E+01 0.  1.
<mgrwt>
<rscale>  0 0.10087227E+04</rscale>
<asrwt>0</asrwt>
<pdfrwt beam="1">  1        2 0.21505762E+00 0.10087227E+04</pdfrwt>
<pdfrwt beam="2">  1       -2 0.27996391E-01 0.10087227E+04</pdfrwt>
<totfact> 0.20289339E+02</totfact>
</mgrwt>
</event>
<event>
 9    1  0.4370149E-036  0.1000676E+04  0.7818608E-02  0.8680394E-01
          2   -1    0    0  501    0  0.00000000000E+00  0.00000000000E+00  0.11998738297E+04  0.11998738297E+04  0.00000000000E+00 0. -1.
         -2   -1    0    0    0  501 -0.00000000000E+00 -0.00000000000E+00 -0.20863723202E+03  0.20863723202E+03  0.00000000000E+00 0. -1.
         36    2    1    2    0    0 -0.28421709430E-13  0.00000000000E+00  0.99123659769E+03  0.14085110617E+04  0.10006764804E+04 0.  0.
         25    2    3    3    0    0  0.74236138990E+02 -0.15153554134E+02  0.34927635415E+03  0.37899795890E+03  0.12611441929E+03 0.  0.
         35    2    3    3    0    0 -0.74236138990E+02  0.15153554134E+02  0.64196024354E+03  0.10295131028E+04  0.80127625703E+03 0.  0.
         22    1    5    5    0    0  0.58280642240E+02 -0.37995995811E+03  0.35742351670E+03  0.52489786942E+03  0.00000000000E+00 0. -1.
         22    1    5    5    0    0 -0.13251678123E+03  0.39511351225E+03  0.28453672684E+03  0.50461523341E+03  0.00000000000E+00 0. -1.
          5    1    4    4  502    0  0.14905133278E+02 -0.65937680314E+02  0.13901239355E+03  0.15464952713E+03  0.47000000000E+01 0.  1.
         -5    1    4    4    0  502  0.59331005713E+02  0.50784126180E+02  0.21026396060E+03  0.22434843177E+03  0.47000000000E+01 0.  1.
<mgrwt>
<rscale>  0 0.10006765E+04</rscale>
<asrwt>0</asrwt>
<pdfrwt beam="1">  1        2 0.18459597E+00 0.10006765E+04</pdfrwt>
<pdfrwt beam="2">  1       -2 0.32098037E-01 0.10006765E+04</pdfrwt>
<totfact> 0.20606013E+02</totfact>
</mgrwt>
</event>
<event>
 9    1  0.4370149E-036  0.9991996E+03  0.7818608E-02  0.8681801E-01
         -1   -1    0    0    0  501 -0.00000000000E+00  0.00000000000E+00  0.14379348165E+03  0.14379348165E+03  0.00000000000E+00 0. -1.
          1   -1    0    0  501    0  0.00000000000E+00 -0.00000000000E+00 -0.17358226075E+04  0.17358226075E+04  0.00000000000E+00 0. -1.
         36    2    1    2    0    0  0.00000000000E+00 -0.71054273576E-14 -0.15920291258E+04  0.18796160891E+04  0.99919963222E+03 0.  0.
         25    2    3    3    0    0  0.86007917721E+02 -0.16157152239E+02 -0.50016931672E+03  0.52296169013E+03  0.12514459027E+03 0.  0.
         35    2    3    3    0    0 -0.86007917721E+02  0.16157152239E+02 -0.10918598091E+04  0.13566543990E+04  0.80043419473E+03 0.  0.
         22    1    5    5    0    0  0.14949381506E+02 -0.10618019442E+03 -0.11734126622E+04  0.11783017413E+04  0.00000000000E+00 0. -1.
         22    1    5    5    0    0 -0.10095729923E+03  0.12233734666E+03  0.81552853116E+02  0.17835265769E+03  0.00000000000E+00 0. -1.
          5    1    4    4  502    0  0.10448795150E+03 -0.35926882028E+02 -0.46690053919E+03  0.47981942057E+03  0.47000000000E+01 0.  1.
         -5    1    4    4    0  502 -0.18480033774E+02  0.19769729789E+02 -0.33268777523E+02  0.43142269552E+02  0.47000000000E+01 0.  1.
<mgrwt>
<rscale>  0 0.99919963E+03</rscale>
<asrwt>0</asrwt>
<pdfrwt beam="1">  1        1 0.26704964E+00 0.99919963E+03</pdfrwt>
<pdfrwt beam="2">  1       -1 0.22122073E-01 0.99919963E+03</pdfrwt>
<totfact> 0.82579188E+01</totfact>
</mgrwt>
</event>
<event>
 9    1  0.4370149E-036  0.1000153E+04  0.7818608E-02  0.8680893E-01
         -2   -1    0    0    0  501 -0.00000000000E+00  0.00000000000E+00  0.13392573589E+03  0.13392573589E+03  0.00000000000E+00 0.  1.
          2   -1    0    0  501    0  0.00000000000E+00 -0.00000000000E+00 -0.18672764557E+04  0.18672764557E+04  0.00000000000E+00 0.  1.
         36    2    1    2    0    0  0.28421709430E-13  0.00000000000E+00 -0.17333507198E+04  0.20012021916E+04  0.10001527352E+04 0.  0.
         25    2    3    3    0    0 -0.92529222255E+02  0.77041438548E+02 -0.17913865677E+03  0.24923931844E+03  0.12462960838E+03 0.  0.
         35    2    3    3    0    0  0.92529222255E+02 -0.77041438548E+02 -0.15542120630E+04  0.17519628731E+04  0.79956346324E+03 0.  0.
         22    1    5    5    0    0  0.19304871539E+03 -0.40094849476E+03 -0.10876279234E+04  0.11751433963E+04  0.00000000000E+00 0. -1.
         22    1    5    5    0    0 -0.10051949314E+03  0.32390705621E+03 -0.46658413960E+03  0.57681947687E+03  0.00000000000E+00 0. -1.
          5    1    4    4  502    0 -0.46969853563E+02 -0.29350690915E+02 -0.41631728389E+02  0.69447253434E+02  0.47000000000E+01 0.  1.
         -5    1    4    4    0  502 -0.45559368692E+02  0.10639212946E+03 -0.13750692838E+03  0.17979206501E+03  0.47000000000E+01 0.  1.
<mgrwt>
<rscale>  0 0.10001527E+04</rscale>
<asrwt>0</asrwt>
<pdfrwt beam="1">  1        2 0.28727330E+00 0.10001527E+04</pdfrwt>
<pdfrwt beam="2">  1       -2 0.20603959E-01 0.10001527E+04</pdfrwt>
<totfact> 0.18936051E+02</totfact>
</mgrwt>
</event>
<event>
 9    1  0.4370149E-036  0.9933589E+03  0.7818608E-02  0.8687388E-01
         -2   -1    0    0    0  501 -0.00000000000E+00  0.00000000000E+00  0.17912013219E+03  0.17912013219E+03  0.00000000000E+00 0.  1.
          2   -1    0    0  501    0  0.00000000000E+00 -0.00000000000E+00 -0.13772348429E+04  0.13772348429E+04  0.00000000000E+00 0.  1.
         36    2    1    2    0    0  0.14210854715E-13 -0.14210854715E-13 -0.11981147108E+04  0.15563549751E+04  0.99335892228E+03 0.  0.
         25    2    3    3    0    0  0.51427200663E+02 -0.40010975982E+02 -0.40489315877E+03  0.42856741063E+03  0.12444243758E+03 0.  0.
         35    2    3    3    0    0 -0.51427200663E+02  0.40010975982E+02 -0.79322155199E+03  0.11277875645E+04  0.79903612242E+03 0.  0.
         22    1    5    5    0    0  0.10661100857E+03  0.23904218779E+03  0.32584596097E+02  0.26375903889E+03  0.00000000000E+00 0. -1.
         22    1    5    5    0    0 -0.15803820923E+03 -0.19903121181E+03 -0.82580614808E+03  0.86402852561E+03  0.00000000000E+00 0. -1.
          5    1    4    4  502    0 -0.14724094690E+02 -0.58273320470E+02 -0.27557788016E+03  0.28209543931E+03  0.47000000000E+01 0. -1.
         -5    1    4    4    0  502  0.66151295353E+02  0.18262344489E+02 -0.12931527861E+03  0.14647197133E+03  0.47000000000E+01 0. -1.
<mgrwt>
<rscale>  0 0.99335892E+03</rscale>
<asrwt>0</asrwt>
<pdfrwt beam="1">  1        2 0.21188228E+00 0.99335892E+03</pdfrwt>
<pdfrwt beam="2">  1       -2 0.27556944E-01 0.99335892E+03</pdfrwt>
<totfact> 0.21453234E+02</totfact>
</mgrwt>
</event>
<event>
 9    1  0.4370149E-036  0.1000170E+04  0.7818608E-02  0.8680876E-01
          2   -1    0    0  501    0  0.00000000000E+00  0.00000000000E+00  0.32804368958E+03  0.32804368958E+03  0.00000000000E+00 0. -1.
         -2   -1    0    0    0  501 -0.00000000000E+00 -0.00000000000E+00 -0.76235297786E+03  0.76235297786E+03  0.00000000000E+00 0. -1.
         36    2    1    2    0    0  0.14210854715E-13 -0.14210854715E-13 -0.43430928828E+03  0.10903966674E+04  0.10001701528E+04 0.  0.
         25    2    3    3    0    0 -0.11160116784E+03 -0.43108419138E+02  0.37045846234E+01  0.16999412080E+03  0.12071089717E+03 0.  0.
         35    2    3    3    0    0  0.11160116784E+03  0.43108419138E+02 -0.43801387290E+03  0.92040254664E+03  0.80060698132E+03 0.  0.
         22    1    5    5    0    0  0.22112547489E+02 -0.35529547796E+03 -0.54353100518E+02  0.36010845720E+03  0.00000000000E+00 0.  1.
         22    1    5    5    0    0  0.89488620354E+02  0.39840389709E+03 -0.38366077238E+03  0.56029408944E+03  0.00000000000E+00 0.  1.
          5    1    4    4  502    0 -0.58755901849E+02 -0.50696679800E+02 -0.51340191342E+02  0.93168205907E+02  0.47000000000E+01 0.  1.
         -5    1    4    4    0  502 -0.52845265994E+02  0.75882606627E+01  0.55044775966E+02  0.76825914892E+02  0.47000000000E+01 0.  1.
<mgrwt>
<rscale>  0 0.10001702E+04</rscale>
<asrwt>0</asrwt>
<pdfrwt beam="1">  1        2 0.50468260E-01 0.10001702E+04</pdfrwt>
<pdfrwt beam="2">  1       -2 0.11728507E+00 0.10001702E+04</pdfrwt>
<totfact> 0.65293354E+01</totfact>
</mgrwt>
</event>
<event>
 9    1  0.4370149E-036  0.1001145E+04  0.7818608E-02  0.8679948E-01
         -2   -1    0    0    0  501 -0.00000000000E+00  0.00000000000E+00  0.18982125010E+03  0.18982125010E+03  0.00000000000E+00 0.  1.
          2   -1    0    0  501    0  0.00000000000E+00 -0.00000000000E+00 -0.13200473720E+04  0.13200473720E+04  0.00000000000E+00 0.  1.
         36    2    1    2    0    0  0.00000000000E+00  0.00000000000E+00 -0.11302261219E+04  0.15098686221E+04  0.10011454287E+04 0.  0.
         25    2    3    3    0    0  0.83338212051E+02  0.97965032723E+02 -0.29627677666E+03  0.34645891529E+03  0.12534530851E+03 0.  0.
         35    2    3    3    0    0 -0.83338212051E+02 -0.97965032723E+02 -0.83394934528E+03  0.11634097069E+04  0.80094208923E+03 0.  0.
         22    1    5    5    0    0 -0.23163021351E+03  0.25101083593E+03 -0.13311606697E+03  0.36657725359E+03  0.00000000000E+00 0.  1.
         22    1    5    5    0    0  0.14829200146E+03 -0.34897586865E+03 -0.70083327830E+03  0.79683245326E+03  0.00000000000E+00 0.  1.
          5    1    4    4  502    0 -0.78000926036E+01  0.27807999957E+02 -0.18171569576E+03  0.18405654129E+03  0.47000000000E+01 0.  1.
         -5    1    4    4    0  502  0.91138304655E+02  0.70157032766E+02 -0.11456108091E+03  0.16240237400E+03  0.47000000000E+01 0.  1.
<mgrwt>
<rscale>  0 0.10011454E+04</rscale>
<asrwt>0</asrwt>
<pdfrwt beam="1">  1        2 0.20308422E+00 0.10011454E+04</pdfrwt>
<pdfrwt beam="2">  1       -2 0.29203268E-01 0.10011454E+04</pdfrwt>
<totfact> 0.20836634E+02</totfact>
</mgrwt>
</event>
<event>
 9    1  0.4370149E-036  0.9993737E+03  0.7818608E-02  0.8681635E-01
          1   -1    0    0  501    0  0.00000000000E+00  0.00000000000E+00  0.86521133725E+03  0.86521133725E+03  0.00000000000E+00 0.  1.
         -1   -1    0    0    0  501 -0.00000000000E+00 -0.00000000000E+00 -0.28858491190E+03  0.28858491190E+03  0.00000000000E+00 0.  1.
         36    2    1    2    0    0  0.00000000000E+00 -0.14210854715E-13  0.57662642535E+03  0.11537962491E+04  0.99937367893E+03 0.  0.
         25    2    3    3    0    0  0.11226060654E+03  0.42913477682E+02  0.18334544877E+03  0.25426228068E+03  0.12880117796E+03 0.  0.
         35    2    3    3    0    0 -0.11226060654E+03 -0.42913477682E+02  0.39328097658E+03  0.89953396847E+03  0.80002963917E+03 0.  0.
         22    1    5    5    0    0 -0.27916244392E+03  0.14863985547E+03 -0.11074363698E+03  0.33509644860E+03  0.00000000000E+00 0. -1.
         22    1    5    5    0    0  0.16690183738E+03 -0.19155333316E+03  0.50402461356E+03  0.56443751987E+03  0.00000000000E+00 0. -1.
          5    1    4    4  502    0  0.54910736515E+01  0.60743342827E+02  0.34730498909E+02  0.70343465526E+02  0.47000000000E+01 0.  1.
         -5    1    4    4    0  502  0.10676953289E+03 -0.17829865146E+02  0.14861494986E+03  0.18391881515E+03  0.47000000000E+01 0.  1.
<mgrwt>
<rscale>  0 0.99937368E+03</rscale>
<asrwt>0</asrwt>
<pdfrwt beam="1">  1        1 0.13310944E+00 0.99937368E+03</pdfrwt>
<pdfrwt beam="2">  1       -1 0.44397679E-01 0.99937368E+03</pdfrwt>
<totfact> 0.11055310E+02</totfact>
</mgrwt>
</event>
<event>
 9    1  0.4370149E-036  0.1001049E+04  0.7818608E-02  0.8680039E-01
         -2   -1    0    0    0  501 -0.00000000000E+00  0.00000000000E+00  0.42874093879E+03  0.42874093879E+03  0.00000000000E+00 0. -1.
          2   -1    0    0  501    0  0.00000000000E+00 -0.00000000000E+00 -0.58432699013E+03  0.58432699013E+03  0.00000000000E+00 0. -1.
         36    2    1    2    0    0  0.21316282073E-13  0.71054273576E-14 -0.15558605134E+03  0.10130679289E+04  0.10010492541E+04 0.  0.
         25    2    3    3    0    0  0.38199647901E+02 -0.51105691113E+02  0.10070176548E+03  0.17181366978E+03  0.12372585335E+03 0.  0.
         35    2    3    3    0    0 -0.38199647901E+02  0.51105691113E+02 -0.25628781682E+03  0.84125425914E+03  0.79872040083E+03 0.  0.
         22    1    5    5    0    0  0.29150815723E+03 -0.16249694908E+03 -0.29640158080E+03  0.44635878091E+03  0.00000000000E+00 0. -1.
         22    1    5    5    0    0 -0.32970780513E+03  0.21360264020E+03  0.40113763977E+02  0.39489547823E+03  0.00000000000E+00 0. -1.
          5    1    4    4  502    0  0.67410493571E+02  0.11550622771E+02  0.62083625884E+02  0.92488151310E+02  0.47000000000E+01 0. -1.
         -5    1    4    4    0  502 -0.29210845670E+02 -0.62656313884E+02  0.38618139596E+02  0.79325518467E+02  0.47000000000E+01 0. -1.
<mgrwt>
<rscale>  0 0.10010493E+04</rscale>
<asrwt>0</asrwt>
<pdfrwt beam="1">  1        2 0.89896459E-01 0.10010493E+04</pdfrwt>
<pdfrwt beam="2">  1       -2 0.65960145E-01 0.10010493E+04</pdfrwt>
<totfact> 0.13105228E+02</totfact>
</mgrwt>
</event>
<event>
 9    1  0.4370149E-036  0.9989196E+03  0.7818608E-02  0.8682067E-01
          2   -1    0    0  501    0  0.00000000000E+00  0.00000000000E+00  0.13850065839E+04  0.13850065839E+04  0.00000000000E+00 0. -1.
         -2   -1    0    0    0  501 -0.00000000000E+00 -0.00000000000E+00 -0.18011474169E+03  0.18011474169E+03  0.00000000000E+00 0. -1.
         36    2    1    2    0    0 -0.14210854715E-13 -0.28421709430E-13  0.12048918422E+04  0.15651213256E+04  0.99891962259E+03 0.  0.
         25    2    3    3    0    0  0.75370230892E+02 -0.73898626017E+02  0.36662099713E+03  0.40128903671E+03  0.12441968018E+03 0.  0.
         35    2    3    3    0    0 -0.75370230892E+02  0.73898626017E+02  0.83827084509E+03  0.11638322889E+04  0.80041608448E+03 0.  0.
         22    1    5    5    0    0  0.10157032434E+03 -0.22558442928E+03 -0.93909746465E+01  0.24757434424E+03  0.00000000000E+00 0.  1.
         22    1    5    5    0    0 -0.17694055524E+03  0.29948305529E+03  0.84766181974E+03  0.91625794465E+03  0.00000000000E+00 0.  1.
          5    1    4    4  502    0  0.61905410082E+02 -0.37363357612E+02  0.35208190410E+03  0.35946078713E+03  0.47000000000E+01 0. -1.
         -5    1    4    4    0  502  0.13464820810E+02 -0.36535268405E+02  0.14539093031E+02  0.41828249582E+02  0.47000000000E+01 0. -1.
<mgrwt>
<rscale>  0 0.99891962E+03</rscale>
<asrwt>0</asrwt>
<pdfrwt beam="1">  1        2 0.21307793E+00 0.99891962E+03</pdfrwt>
<pdfrwt beam="2">  1       -2 0.27709961E-01 0.99891962E+03</pdfrwt>
<totfact> 0.21023403E+02</totfact>
</mgrwt>
</event>
<event>
 9    1  0.4370149E-036  0.1003300E+04  0.7818608E-02  0.8677901E-01
         -2   -1    0    0    0  501 -0.00000000000E+00  0.00000000000E+00  0.81700795411E+03  0.81700795411E+03  0.00000000000E+00 0. -1.
          2   -1    0    0  501    0  0.00000000000E+00 -0.00000000000E+00 -0.30801767646E+03  0.30801767646E+03  0.00000000000E+00 0. -1.
         36    2    1    2    0    0 -0.71054273576E-14  0.14210854715E-13  0.50899027764E+03  0.11250256306E+04  0.10033003372E+04 0.  0.
         25    2    3    3    0    0 -0.32580874699E+02 -0.11472532756E+03  0.18281000443E+03  0.25167717704E+03  0.12529361333E+03 0.  0.
         35    2    3    3    0    0  0.32580874699E+02  0.11472532756E+03  0.32618027321E+03  0.87334845353E+03  0.80132423929E+03 0.  0.
         22    1    5    5    0    0 -0.37089742145E+03  0.12467284760E+03  0.24500200215E+03  0.46166459386E+03  0.00000000000E+00 0. -1.
         22    1    5    5    0    0  0.40347829615E+03 -0.99475200369E+01  0.81178271067E+02  0.41168385967E+03  0.00000000000E+00 0. -1.
          5    1    4    4  502    0  0.93573297357E+01 -0.11108292262E+02 -0.16893503918E+02  0.22769151310E+02  0.47000000000E+01 0.  1.
         -5    1    4    4    0  502 -0.41938204435E+02 -0.10361703530E+03  0.19970350835E+03  0.22890802573E+03  0.47000000000E+01 0.  1.
<mgrwt>
<rscale>  0 0.10033003E+04</rscale>
<asrwt>0</asrwt>
<pdfrwt beam="1">  1        2 0.47387335E-01 0.10033003E+04</pdfrwt>
<pdfrwt beam="2">  1       -2 0.12569353E+00 0.10033003E+04</pdfrwt>
<totfact> 0.58440401E+01</totfact>
</mgrwt>
</event>
<event>
 9    1  0.4370149E-036  0.1000269E+04  0.7818608E-02  0.8680782E-01
         -1   -1    0    0    0  501 -0.00000000000E+00  0.00000000000E+00  0.24735455071E+03  0.24735455071E+03  0.00000000000E+00 0.  1.
          1   -1    0    0  501    0  0.00000000000E+00 -0.00000000000E+00 -0.10112380144E+04  0.10112380144E+04  0.00000000000E+00 0.  1.
         36    2    1    2    0    0 -0.21316282073E-13  0.00000000000E+00 -0.76388346373E+03  0.12585925652E+04  0.10002686134E+04 0.  0.
         25    2    3    3    0    0 -0.12101031545E+02 -0.13755070396E+03 -0.77286591358E+02  0.20187891037E+03  0.12536046477E+03 0.  0.
         35    2    3    3    0    0  0.12101031545E+02  0.13755070396E+03 -0.68659687238E+03  0.10567136548E+04  0.79130389353E+03 0.  0.
         22    1    5    5    0    0  0.19574416990E+03  0.37116896992E+03 -0.15430450606E+03  0.44709290407E+03  0.00000000000E+00 0. -1.
         22    1    5    5    0    0 -0.18364313836E+03 -0.23361826596E+03 -0.53229236632E+03  0.60962075071E+03  0.00000000000E+00 0. -1.
          5    1    4    4  502    0  0.42413730943E+02 -0.12108462181E+03 -0.43807153275E+02  0.13565237517E+03  0.47000000000E+01 0.  1.
         -5    1    4    4    0  502 -0.54514762488E+02 -0.16466082142E+02 -0.33479438083E+02  0.66226535200E+02  0.47000000000E+01 0.  1.
<mgrwt>
<rscale>  0 0.10002686E+04</rscale>
<asrwt>0</asrwt>
<pdfrwt beam="1">  1        1 0.15557507E+00 0.10002686E+04</pdfrwt>
<pdfrwt beam="2">  1       -1 0.38054547E-01 0.10002686E+04</pdfrwt>
<totfact> 0.11063119E+02</totfact>
</mgrwt>
</event>
<event>
 9    1  0.4370149E-036  0.9977496E+03  0.7818608E-02  0.8683184E-01
         -2   -1    0    0    0  501 -0.00000000000E+00  0.00000000000E+00  0.26981492882E+03  0.26981492882E+03  0.00000000000E+00 0. -1.
          2   -1    0    0  501    0  0.00000000000E+00 -0.00000000000E+00 -0.92239539951E+03  0.92239539951E+03  0.00000000000E+00 0. -1.
         36    2    1    2    0    0  0.00000000000E+00  0.28421709430E-13 -0.65258047069E+03  0.11922103283E+04  0.99774956589E+03 0.  0.
         25    2    3    3    0    0  0.46788209800E+02  0.72519294218E+02  0.50457666472E+01  0.15277279509E+03  0.12595984498E+03 0.  0.
         35    2    3    3    0    0 -0.46788209800E+02 -0.72519294218E+02 -0.65762623734E+03  0.10394375332E+04  0.80031864458E+03 0.  0.
         22    1    5    5    0    0 -0.67649443071E+02  0.25973302996E+03 -0.65353869163E+03  0.70650584955E+03  0.00000000000E+00 0. -1.
         22    1    5    5    0    0  0.20861233271E+02 -0.33225232417E+03 -0.40875457144E+01  0.33293168369E+03  0.00000000000E+00 0. -1.
          5    1    4    4  502    0  0.79868631623E+02  0.82328192587E+02 -0.91582738753E+01  0.11516463690E+03  0.47000000000E+01 0. -1.
         -5    1    4    4    0  502 -0.33080421822E+02 -0.98088983695E+01  0.14204040523E+02  0.37608158189E+02  0.47000000000E+01 0. -1.
<mgrwt>
<rscale>  0 0.99774957E+03</rscale>
<asrwt>0</asrwt>
<pdfrwt beam="1">  1        2 0.14190699E+00 0.99774957E+03</pdfrwt>
<pdfrwt beam="2">  1       -2 0.41509988E-01 0.99774957E+03</pdfrwt>
<totfact> 0.18832255E+02</totfact>
</mgrwt>
</event>
<event>
 9    1  0.4370149E-036  0.1001353E+04  0.7818608E-02  0.8679751E-01
          2   -1    0    0  501    0  0.00000000000E+00  0.00000000000E+00  0.21900973925E+04  0.21900973925E+04  0.00000000000E+00 0.  1.
         -2   -1    0    0    0  501 -0.00000000000E+00 -0.00000000000E+00 -0.11445928577E+03  0.11445928577E+03  0.00000000000E+00 0.  1.
         36    2    1    2    0    0 -0.71054273576E-14  0.28421709430E-13  0.20756381068E+04  0.23045566783E+04  0.10013530513E+04 0.  0.
         25    2    3    3    0    0 -0.23718567417E+02  0.10000538089E+03  0.20843940064E+03  0.27041134392E+03  0.13824494398E+03 0.  0.
         35    2    3    3    0    0  0.23718567417E+02 -0.10000538089E+03  0.18671987061E+04  0.20341453344E+04  0.80047022841E+03 0.  0.
         22    1    5    5    0    0 -0.36694394801E+03 -0.17930052105E+03  0.94867835059E+03  0.10328538864E+04  0.00000000000E+00 0.  1.
         22    1    5    5    0    0  0.39066251543E+03  0.79295140159E+02  0.91852035554E+03  0.10012914480E+04  0.00000000000E+00 0.  1.
          5    1    4    4  502    0 -0.71317094575E+02  0.19141621575E+02  0.12234863025E+03  0.14298184143E+03  0.47000000000E+01 0. -1.
         -5    1    4    4    0  502  0.47598527158E+02  0.80863759318E+02  0.86090770388E+02  0.12742950249E+03  0.47000000000E+01 0. -1.
<mgrwt>
<rscale>  0 0.10013531E+04</rscale>
<asrwt>0</asrwt>
<pdfrwt beam="1">  1        2 0.33693803E+00 0.10013531E+04</pdfrwt>
<pdfrwt beam="2">  1       -2 0.17609123E-01 0.10013531E+04</pdfrwt>
<totfact> 0.16220707E+02</totfact>
</mgrwt>
</event>
<event>
 9    1  0.4370149E-036  0.1000755E+04  0.7818608E-02  0.8680320E-01
         -2   -1    0    0    0  501 -0.00000000000E+00  0.00000000000E+00  0.12188551632E+03  0.12188551632E+03  0.00000000000E+00 0. -1.
          2   -1    0    0  501    0  0.00000000000E+00 -0.00000000000E+00 -0.20542017509E+04  0.20542017509E+04  0.00000000000E+00 0. -1.
         36    2    1    2    0    0  0.00000000000E+00  0.28421709430E-13 -0.19323162346E+04  0.21760872672E+04  0.10007545974E+04 0.  0.
         25    2    3    3    0    0 -0.10655597132E+03 -0.73419250258E+02 -0.47770933202E+03  0.51049884766E+03  0.12513315402E+03 0.  0.
         35    2    3    3    0    0  0.10655597132E+03  0.73419250258E+02 -0.14546069026E+04  0.16655884196E+04  0.80097377052E+03 0.  0.
         22    1    5    5    0    0 -0.29442913558E+03 -0.17214168895E+03 -0.62438158545E+03  0.71145881201E+03  0.00000000000E+00 0. -1.
         22    1    5    5    0    0  0.40098510690E+03  0.24556093920E+03 -0.83022531712E+03  0.95412960756E+03  0.00000000000E+00 0. -1.
          5    1    4    4  502    0  0.59557347682E+01 -0.61495548827E+02 -0.11646555378E+03  0.13192228212E+03  0.47000000000E+01 0. -1.
         -5    1    4    4    0  502 -0.11251170609E+03 -0.11923701432E+02 -0.36124377824E+03  0.37857656555E+03  0.47000000000E+01 0. -1.
<mgrwt>
<rscale>  0 0.10007546E+04</rscale>
<asrwt>0</asrwt>
<pdfrwt beam="1">  1        2 0.31603103E+00 0.10007546E+04</pdfrwt>
<pdfrwt beam="2">  1       -2 0.18751618E-01 0.10007546E+04</pdfrwt>
<totfact> 0.17444427E+02</totfact>
</mgrwt>
</event>
<event>
 9    1  0.4370149E-036  0.1000457E+04  0.7818608E-02  0.8680603E-01
          1   -1    0    0  501    0  0.00000000000E+00  0.00000000000E+00  0.11691319089E+04  0.11691319089E+04  0.00000000000E+00 0. -1.
         -1   -1    0    0    0  501 -0.00000000000E+00 -0.00000000000E+00 -0.21402947499E+03  0.21402947499E+03  0.00000000000E+00 0. -1.
         36    2    1    2    0    0  0.14210854715E-13  0.00000000000E+00  0.95510243390E+03  0.13831613839E+04  0.10004572727E+04 0.  0.
         25    2    3    3    0    0 -0.12071128207E+03 -0.25388810665E+02  0.93601310222E+02  0.19910581606E+03  0.12516435350E+03 0.  0.
         35    2    3    3    0    0  0.12071128207E+03  0.25388810665E+02  0.86150112368E+03  0.11840555678E+04  0.80286212779E+03 0.  0.
         22    1    5    5    0    0  0.45499770058E+03 -0.79044758329E+02  0.47534707797E+03  0.66274114546E+03  0.00000000000E+00 0. -1.
         22    1    5    5    0    0 -0.33428641851E+03  0.10443356899E+03  0.38615404571E+03  0.52131442235E+03  0.00000000000E+00 0. -1.
          5    1    4    4  502    0  0.85938815562E+01  0.24201049790E+02 -0.79709157065E+01  0.27297822410E+02  0.47000000000E+01 0. -1.
         -5    1    4    4    0  502 -0.12930516363E+03 -0.49589860456E+02  0.10157222593E+03  0.17180799365E+03  0.47000000000E+01 0. -1.
<mgrwt>
<rscale>  0 0.10004573E+04</rscale>
<asrwt>0</asrwt>
<pdfrwt beam="1">  1        1 0.17986644E+00 0.10004573E+04</pdfrwt>
<pdfrwt beam="2">  1       -1 0.32927612E-01 0.10004573E+04</pdfrwt>
<totfact> 0.10766551E+02</totfact>
</mgrwt>
</event>
<event>
 9    1  0.4370149E-036  0.9998465E+03  0.7818608E-02  0.8681184E-01
          2   -1    0    0  501    0  0.00000000000E+00  0.00000000000E+00  0.52330677614E+03  0.52330677614E+03  0.00000000000E+00 0.  1.
         -2   -1    0    0    0  501 -0.00000000000E+00 -0.00000000000E+00 -0.47758462409E+03  0.47758462409E+03  0.00000000000E+00 0.  1.
         36    2    1    2    0    0  0.35527136788E-14  0.00000000000E+00  0.45722152051E+02  0.10008914002E+04  0.99984652816E+03 0.  0.
         25    2    3    3    0    0 -0.22770086579E+01  0.13411054739E+03  0.54201271102E+02  0.19043547010E+03  0.12384291176E+03 0.  0.
         35    2    3    3    0    0  0.22770086579E+01 -0.13411054739E+03 -0.84791190506E+01  0.81045593014E+03  0.79923469366E+03 0.  0.
         22    1    5    5    0    0 -0.26333270228E+02 -0.43181751005E+03  0.16695921831E+03  0.46371886277E+03  0.00000000000E+00 0. -1.
         22    1    5    5    0    0  0.28610278886E+02  0.29770696266E+03 -0.17543833736E+03  0.34673706737E+03  0.00000000000E+00 0. -1.
          5    1    4    4  502    0 -0.19826840632E+02  0.26297772378E+02 -0.35765139829E+02  0.48845794788E+02  0.47000000000E+01 0. -1.
         -5    1    4    4    0  502  0.17549831974E+02  0.10781277501E+03  0.89966410931E+02  0.14158967531E+03  0.47000000000E+01 0. -1.
<mgrwt>
<rscale>  0 0.99984653E+03</rscale>
<asrwt>0</asrwt>
<pdfrwt beam="1">  1        2 0.80508736E-01 0.99984653E+03</pdfrwt>
<pdfrwt beam="2">  1       -2 0.73474557E-01 0.99984653E+03</pdfrwt>
<totfact> 0.11792701E+02</totfact>
</mgrwt>
</event>
<event>
 9    1  0.4370149E-036  0.9983875E+03  0.7818608E-02  0.8682575E-01
          2   -1    0    0  501    0  0.00000000000E+00  0.00000000000E+00  0.30141104506E+03  0.30141104506E+03  0.00000000000E+00 0. -1.
         -2   -1    0    0    0  501 -0.00000000000E+00 -0.00000000000E+00 -0.82675942310E+03  0.82675942310E+03  0.00000000000E+00 0. -1.
         36    2    1    2    0    0 -0.14210854715E-13  0.71054273576E-14 -0.52534837804E+03  0.11281704682E+04  0.99838754345E+03 0.  0.
         25    2    3    3    0    0  0.75616397944E+02  0.42065973069E+02 -0.22306423721E+03  0.27127229243E+03  0.12784215654E+03 0.  0.
         35    2    3    3    0    0 -0.75616397944E+02 -0.42065973069E+02 -0.30228414083E+03  0.85689817573E+03  0.79712696356E+03 0.  0.
         22    1    5    5    0    0  0.24936057353E+03 -0.16787541230E+03  0.10725186360E+03  0.31916423974E+03  0.00000000000E+00 0. -1.
         22    1    5    5    0    0 -0.32497697147E+03  0.12580943923E+03 -0.40953600443E+03  0.53773393598E+03  0.00000000000E+00 0. -1.
          5    1    4    4  502    0  0.45092380057E+02  0.56969350979E+02 -0.22543331116E+03  0.23689891825E+03  0.47000000000E+01 0. -1.
         -5    1    4    4    0  502  0.30524017888E+02 -0.14903377910E+02  0.23690739447E+01  0.34373374179E+02  0.47000000000E+01 0. -1.
<mgrwt>
<rscale>  0 0.99838754E+03</rscale>
<asrwt>0</asrwt>
<pdfrwt beam="1">  1        2 0.46370930E-01 0.99838754E+03</pdfrwt>
<pdfrwt beam="2">  1       -2 0.12719376E+00 0.99838754E+03</pdfrwt>
<totfact> 0.58045975E+01</totfact>
</mgrwt>
</event>
<event>
 9    1  0.4370149E-036  0.1000597E+04  0.7818608E-02  0.8680469E-01
         -2   -1    0    0    0  501 -0.00000000000E+00  0.00000000000E+00  0.14638979527E+03  0.14638979527E+03  0.00000000000E+00 0. -1.
          2   -1    0    0  501    0  0.00000000000E+00 -0.00000000000E+00 -0.17098104342E+04  0.17098104342E+04  0.00000000000E+00 0. -1.
         36    2    1    2    0    0  0.10658141036E-13  0.00000000000E+00 -0.15634206390E+04  0.18562002295E+04  0.10005974204E+04 0.  0.
         25    2    3    3    0    0  0.17323332866E+02 -0.12806926876E+03 -0.18715303425E+03  0.25940014978E+03  0.12474110795E+03 0.  0.
         35    2    3    3    0    0 -0.17323332866E+02  0.12806926876E+03 -0.13762676047E+04  0.15968000797E+04  0.79934732084E+03 0.  0.
         22    1    5    5    0    0 -0.22813232226E+03 -0.17550285982E+03 -0.16800133834E+03  0.33327175090E+03  0.00000000000E+00 0.  1.
         22    1    5    5    0    0  0.21080898939E+03  0.30357212858E+03 -0.12082662664E+04  0.12635283288E+04  0.00000000000E+00 0.  1.
          5    1    4    4  502    0  0.45730639642E+02 -0.14076644089E+03 -0.15165440637E+03  0.21196139095E+03  0.47000000000E+01 0. -1.
         -5    1    4    4    0  502 -0.28407306776E+02  0.12697172121E+02 -0.35498627878E+02  0.47438758830E+02  0.47000000000E+01 0. -1.
<mgrwt>
<rscale>  0 0.10005974E+04</rscale>
<asrwt>0</asrwt>
<pdfrwt beam="1">  1        2 0.26304778E+00 0.10005974E+04</pdfrwt>
<pdfrwt beam="2">  1       -2 0.22521505E-01 0.10005974E+04</pdfrwt>
<totfact> 0.19893316E+02</totfact>
</mgrwt>
</event>
<event>
 9    1  0.4370149E-036  0.9969101E+03  0.7818608E-02  0.8683986E-01
         -1   -1    0    0    0  501 -0.00000000000E+00  0.00000000000E+00  0.35787927255E+03  0.35787927255E+03  0.00000000000E+00 0. -1.
          1   -1    0    0  501    0  0.00000000000E+00 -0.00000000000E+00 -0.69424924020E+03  0.69424924020E+03  0.00000000000E+00 0. -1.
         36    2    1    2    0    0  0.00000000000E+00 -0.28421709430E-13 -0.33636996765E+03  0.10521285127E+04  0.99691005221E+03 0.  0.
         25    2    3    3    0    0  0.48253688878E+02  0.19754503986E+02  0.69375377312E+02  0.15281457790E+03  0.12578033759E+03 0.  0.
         35    2    3    3    0    0 -0.48253688878E+02 -0.19754503986E+02 -0.40574534496E+03  0.89931393484E+03  0.80088551587E+03 0.  0.
         22    1    5    5    0    0  0.21275726617E+03 -0.32576064513E+03 -0.27476900829E+03  0.47632306278E+03  0.00000000000E+00 0.  1.
         22    1    5    5    0    0 -0.26101095505E+03  0.30600614115E+03 -0.13097633667E+03  0.42299087206E+03  0.00000000000E+00 0.  1.
          5    1    4    4  502    0  0.77235762500E+02  0.25599192088E+02  0.86071080817E+02  0.11853692504E+03  0.47000000000E+01 0.  1.
         -5    1    4    4    0  502 -0.28982073622E+02 -0.58446881025E+01 -0.16695703505E+02  0.34277652865E+02  0.47000000000E+01 0.  1.
<mgrwt>
<rscale>  0 0.99691005E+03</rscale>
<asrwt>0</asrwt>
<pdfrwt beam="1">  1        1 0.10680757E+00 0.99691005E+03</pdfrwt>
<pdfrwt beam="2">  1       -1 0.55058350E-01 0.99691005E+03</pdfrwt>
<totfact> 0.10585689E+02</totfact>
</mgrwt>
</event>
<event>
 9    1  0.4370149E-036  0.9998668E+03  0.7818608E-02  0.8681165E-01
          2   -1    0    0  501    0  0.00000000000E+00  0.00000000000E+00  0.10335659865E+04  0.10335659865E+04  0.00000000000E+00 0.  1.
         -2   -1    0    0    0  501 -0.00000000000E+00 -0.00000000000E+00 -0.24181656830E+03  0.24181656830E+03  0.00000000000E+00 0.  1.
         36    2    1    2    0    0 -0.28421709430E-13  0.35527136788E-14  0.79174941817E+03  0.12753825548E+04  0.99986675103E+03 0.  0.
         25    2    3    3    0    0 -0.13734233725E+03 -0.16645051049E+02  0.11525393438E+03  0.21861643855E+03  0.12397460420E+03 0.  0.
         35    2    3    3    0    0  0.13734233725E+03  0.16645051049E+02  0.67649548379E+03  0.10567661162E+04  0.79998031817E+03 0.  0.
         22    1    5    5    0    0 -0.80124230744E+02 -0.22892168401E+03 -0.60586869461E+02  0.24999159689E+03  0.00000000000E+00 0. -1.
         22    1    5    5    0    0  0.21746656799E+03  0.24556673506E+03  0.73708235325E+03  0.80677451933E+03  0.00000000000E+00 0. -1.
          5    1    4    4  502    0  0.12646625123E+02  0.21699321055E+02 -0.63631704690E-02  0.25551667299E+02  0.47000000000E+01 0. -1.
         -5    1    4    4    0  502 -0.14998896237E+03 -0.38344372104E+02  0.11526029755E+03  0.19306477125E+03  0.47000000000E+01 0. -1.
<mgrwt>
<rscale>  0 0.99986675E+03</rscale>
<asrwt>0</asrwt>
<pdfrwt beam="1">  1        2 0.15901015E+00 0.99986675E+03</pdfrwt>
<pdfrwt beam="2">  1       -2 0.37202549E-01 0.99986675E+03</pdfrwt>
<totfact> 0.19728926E+02</totfact>
</mgrwt>
</event>
<event>
 9    1  0.4370149E-036  0.9996202E+03  0.7818608E-02  0.8681400E-01
         -1   -1    0    0    0  501 -0.00000000000E+00  0.00000000000E+00  0.24997129939E+03  0.24997129939E+03  0.00000000000E+00 0. -1.
          1   -1    0    0  501    0  0.00000000000E+00 -0.00000000000E+00 -0.99935520459E+03  0.99935520459E+03  0.00000000000E+00 0. -1.
         36    2    1    2    0    0  0.14210854715E-13  0.28421709430E-13 -0.74938390521E+03  0.12493265040E+04  0.99962016594E+03 0.  0.
         25    2    3    3    0    0 -0.74421787578E+02  0.11763918817E+03 -0.16204471121E+03  0.24744653740E+03  0.12487481484E+03 0.  0.
         35    2    3    3    0    0  0.74421787578E+02 -0.11763918817E+03 -0.58733919400E+03  0.10018799666E+04  0.79963651590E+03 0.  0.
         22    1    5    5    0    0 -0.30965317994E+02 -0.45454363543E+03 -0.37377599107E+03  0.58930234934E+03  0.00000000000E+00 0. -1.
         22    1    5    5    0    0  0.10538710557E+03  0.33690444726E+03 -0.21356320292E+03  0.41257761724E+03  0.00000000000E+00 0. -1.
          5    1    4    4  502    0 -0.18511462590E+02  0.11974961903E+03 -0.14446187131E+03  0.18861062475E+03  0.47000000000E+01 0.  1.
         -5    1    4    4    0  502 -0.55910324988E+02 -0.21104308590E+01 -0.17582839898E+02  0.58835912652E+02  0.47000000000E+01 0.  1.
<mgrwt>
<rscale>  0 0.99962017E+03</rscale>
<asrwt>0</asrwt>
<pdfrwt beam="1">  1        1 0.15374695E+00 0.99962017E+03</pdfrwt>
<pdfrwt beam="2">  1       -1 0.38457123E-01 0.99962017E+03</pdfrwt>
<totfact> 0.11097807E+02</totfact>
</mgrwt>
</event>
<event>
 9    1  0.4370149E-036  0.1000004E+04  0.7818608E-02  0.8681034E-01
          2   -1    0    0  501    0  0.00000000000E+00  0.00000000000E+00  0.16097643842E+04  0.16097643842E+04  0.00000000000E+00 0.  1.
         -2   -1    0    0    0  501 -0.00000000000E+00 -0.00000000000E+00 -0.15530360141E+03  0.15530360141E+03  0.00000000000E+00 0.  1.
         36    2    1    2    0    0  0.42632564146E-13 -0.71054273576E-14  0.14544607828E+04  0.17650679856E+04  0.10000044126E+04 0.  0.
         25    2    3    3    0    0 -0.75026490371E+02 -0.31188257060E+01  0.48122781123E+03  0.50287622201E+03  0.12516224281E+03 0.  0.
         35    2    3    3    0    0  0.75026490371E+02  0.31188257060E+01  0.97323297158E+03  0.12621917636E+04  0.80019180817E+03 0.  0.
         22    1    5    5    0    0  0.41449654491E+03 -0.94250728010E+02  0.68577322851E+03  0.80683053141E+03  0.00000000000E+00 0.  1.
         22    1    5    5    0    0 -0.33947005454E+03  0.97369553716E+02  0.28745974308E+03  0.45536123222E+03  0.00000000000E+00 0.  1.
          5    1    4    4  502    0  0.26751853005E+01 -0.49259662304E+02  0.10786590007E+03  0.11870473177E+03  0.47000000000E+01 0. -1.
         -5    1    4    4    0  502 -0.77701675672E+02  0.46140836598E+02  0.37336191116E+03  0.38417149023E+03  0.47000000000E+01 0. -1.
<mgrwt>
<rscale>  0 0.10000044E+04</rscale>
<asrwt>0</asrwt>
<pdfrwt beam="1">  1        2 0.24765605E+00 0.10000044E+04</pdfrwt>
<pdfrwt beam="2">  1       -2 0.23892863E-01 0.10000044E+04</pdfrwt>
<totfact> 0.20414805E+02</totfact>
</mgrwt>
</event>
<event>
 9    1  0.4370149E-036  0.1000805E+04  0.7818608E-02  0.8680271E-01
         -1   -1    0    0    0  501 -0.00000000000E+00  0.00000000000E+00  0.20522854567E+03  0.20522854567E+03  0.00000000000E+00 0. -1.
          1   -1    0    0  501    0  0.00000000000E+00 -0.00000000000E+00 -0.12201170269E+04  0.12201170269E+04  0.00000000000E+00 0. -1.
         36    2    1    2    0    0 -0.28421709430E-13  0.71054273576E-14 -0.10148884813E+04  0.14253455726E+04  0.10008053617E+04 0.  0.
         25    2    3    3    0    0  0.11104021510E+03 -0.42010932950E+01 -0.69611531820E+02  0.18140608699E+03  0.12535878302E+03 0.  0.
         35    2    3    3    0    0 -0.11104021510E+03  0.42010932950E+01 -0.94527694945E+03  0.12439394856E+04  0.80093030545E+03 0.  0.
         22    1    5    5    0    0 -0.42876797534E+03  0.75813977567E+02 -0.32494663799E+03  0.54330475187E+03  0.00000000000E+00 0. -1.
         22    1    5    5    0    0  0.31772776024E+03 -0.71612884272E+02 -0.62033031147E+03  0.70063473375E+03  0.00000000000E+00 0. -1.
          5    1    4    4  502    0  0.11397119261E+01 -0.48153472068E+02 -0.12968492745E+02  0.50103169755E+02  0.47000000000E+01 0. -1.
         -5    1    4    4    0  502  0.10990050318E+03  0.43952378773E+02 -0.56643039075E+02  0.13130291723E+03  0.47000000000E+01 0. -1.
<mgrwt>
<rscale>  0 0.10008054E+04</rscale>
<asrwt>0</asrwt>
<pdfrwt beam="1">  1        1 0.18771031E+00 0.10008054E+04</pdfrwt>
<pdfrwt beam="2">  1       -1 0.31573623E-01 0.10008054E+04</pdfrwt>
<totfact> 0.10602144E+02</totfact>
</mgrwt>
</event>
<event>
 9    1  0.4370149E-036  0.1000144E+04  0.7818608E-02  0.8680901E-01
         -1   -1    0    0    0  501 -0.00000000000E+00  0.00000000000E+00  0.86349618735E+03  0.86349618735E+03  0.00000000000E+00 0. -1.
          1   -1    0    0  501    0  0.00000000000E+00 -0.00000000000E+00 -0.28960390081E+03  0.28960390081E+03  0.00000000000E+00 0. -1.
         36    2    1    2    0    0  0.00000000000E+00  0.28421709430E-13  0.57389228654E+03  0.11531000882E+04  0.10001437181E+04 0.  0.
         25    2    3    3    0    0  0.16749627026E+02  0.13266421370E+03  0.58420943445E+02  0.19216313996E+03  0.12503328407E+03 0.  0.
         35    2    3    3    0    0 -0.16749627026E+02 -0.13266421370E+03  0.51547134309E+03  0.96093694820E+03  0.79988047186E+03 0.  0.
         22    1    5    5    0    0 -0.17433537647E+03 -0.39054208462E+03  0.50051017211E+03  0.65835125559E+03  0.00000000000E+00 0.  1.
         22    1    5    5    0    0  0.15758574944E+03  0.25787787092E+03  0.14961170976E+02  0.30258569261E+03  0.00000000000E+00 0.  1.
          5    1    4    4  502    0 -0.19237939511E+02  0.12283438341E+03  0.20928576968E+01  0.12443815378E+03  0.47000000000E+01 0. -1.
         -5    1    4    4    0  502  0.35987566537E+02  0.98298302938E+01  0.56328085748E+02  0.67724986179E+02  0.47000000000E+01 0. -1.
<mgrwt>
<rscale>  0 0.10001437E+04</rscale>
<asrwt>0</asrwt>
<pdfrwt beam="1">  1        1 0.44554447E-01 0.10001437E+04</pdfrwt>
<pdfrwt beam="2">  1       -1 0.13284557E+00 0.10001437E+04</pdfrwt>
<totfact> 0.52675298E+01</totfact>
</mgrwt>
</event>
<event>
 9    1  0.4370149E-036  0.1001736E+04  0.7818608E-02  0.8679386E-01
          2   -1    0    0  501    0  0.00000000000E+00  0.00000000000E+00  0.12889006804E+04  0.12889006804E+04  0.00000000000E+00 0.  1.
         -2   -1    0    0    0  501 -0.00000000000E+00 -0.00000000000E+00 -0.19463783582E+03  0.19463783582E+03  0.00000000000E+00 0.  1.
         36    2    1    2    0    0 -0.15987211555E-13  0.00000000000E+00  0.10942628446E+04  0.14835385162E+04  0.10017361709E+04 0.  0.
         25    2    3    3    0    0  0.14950010822E+02  0.27817358788E+02  0.40547919669E+03  0.42520884264E+03  0.12406398607E+03 0.  0.
         35    2    3    3    0    0 -0.14950010822E+02 -0.27817358788E+02  0.68878364787E+03  0.10583296736E+04  0.80289568194E+03 0.  0.
         22    1    5    5    0    0  0.29778332905E+03  0.16234474729E+03  0.80763733847E+02  0.34864524769E+03  0.00000000000E+00 0. -1.
         22    1    5    5    0    0 -0.31273333987E+03 -0.19016210608E+03  0.60801991403E+03  0.70968442586E+03  0.00000000000E+00 0. -1.
          5    1    4    4  502    0  0.20993531720E+02  0.69478376022E+02  0.33643086343E+03  0.34420312168E+03  0.47000000000E+01 0.  1.
         -5    1    4    4    0  502 -0.60435208986E+01 -0.41661017234E+02  0.69048333261E+02  0.81005720958E+02  0.47000000000E+01 0.  1.
<mgrwt>
<rscale>  0 0.10017362E+04</rscale>
<asrwt>0</asrwt>
<pdfrwt beam="1">  1        2 0.19829241E+00 0.10017362E+04</pdfrwt>
<pdfrwt beam="2">  1       -2 0.29944283E-01 0.10017362E+04</pdfrwt>
<totfact> 0.20753527E+02</totfact>
</mgrwt>
</event>
<event>
 9    1  0.4370149E-036  0.9998676E+03  0.7818608E-02  0.8681164E-01
         -1   -1    0    0    0  501 -0.00000000000E+00  0.00000000000E+00  0.79290938791E+02  0.79290938791E+02  0.00000000000E+00 0. -1.
          1   -1    0    0  501    0  0.00000000000E+00 -0.00000000000E+00 -0.31521104997E+04  0.31521104997E+04  0.00000000000E+00 0. -1.
         36    2    1    2    0    0 -0.28421709430E-13 -0.71054273576E-14 -0.30728195609E+04  0.32314014385E+04  0.99986759262E+03 0.  0.
         25    2    3    3    0    0 -0.14057105711E+03 -0.65989382812E+01 -0.69014179500E+03  0.71550335192E+03  0.12587923309E+03 0.  0.
         35    2    3    3    0    0  0.14057105711E+03  0.65989382812E+01 -0.23826777659E+04  0.25158980866E+04  0.79547852124E+03 0.  0.
         22    1    5    5    0    0  0.27644595539E+03 -0.28255212989E+03 -0.70671340460E+03  0.80975422728E+03  0.00000000000E+00 0. -1.
         22    1    5    5    0    0 -0.13587489828E+03  0.28915106817E+03 -0.16759643613E+04  0.17061438593E+04  0.00000000000E+00 0. -1.
          5    1    4    4  502    0 -0.12899483768E+03  0.42648847977E+02 -0.45194229798E+03  0.47194546622E+03  0.47000000000E+01 0. -1.
         -5    1    4    4    0  502 -0.11576219431E+02 -0.49247786258E+02 -0.23819949702E+03  0.24355788570E+03  0.47000000000E+01 0. -1.
<mgrwt>
<rscale>  0 0.99986759E+03</rscale>
<asrwt>0</asrwt>
<pdfrwt beam="1">  1        1 0.48494010E+00 0.99986759E+03</pdfrwt>
<pdfrwt beam="2">  1       -1 0.12198605E-01 0.99986759E+03</pdfrwt>
<totfact> 0.21608101E+01</totfact>
</mgrwt>
</event>
<event>
 9    1  0.4370149E-036  0.9992563E+03  0.7818608E-02  0.8681746E-01
          1   -1    0    0  501    0  0.00000000000E+00  0.00000000000E+00  0.32430277356E+03  0.32430277356E+03  0.00000000000E+00 0.  1.
         -1   -1    0    0    0  501 -0.00000000000E+00 -0.00000000000E+00 -0.76973841093E+03  0.76973841093E+03  0.00000000000E+00 0.  1.
         36    2    1    2    0    0  0.00000000000E+00  0.28421709430E-13 -0.44543563737E+03  0.10940411845E+04  0.99925632664E+03 0.  0.
         25    2    3    3    0    0  0.12576653338E+03 -0.43849684655E+02 -0.12319539891E+03  0.22077128652E+03  0.12578886627E+03 0.  0.
         35    2    3    3    0    0 -0.12576653338E+03  0.43849684655E+02 -0.32224023846E+03  0.87326989797E+03  0.80063820022E+03 0.  0.
         22    1    5    5    0    0 -0.31875422897E+03  0.17527799893E+03 -0.47197562065E+03  0.59589229050E+03  0.00000000000E+00 0.  1.
         22    1    5    5    0    0  0.19298769560E+03 -0.13142831427E+03  0.14973538219E+03  0.27737760747E+03  0.00000000000E+00 0.  1.
          5    1    4    4  502    0  0.10264189384E+03  0.13234708646E+02 -0.12054414461E+03  0.15894494859E+03  0.47000000000E+01 0. -1.
         -5    1    4    4    0  502  0.23124639536E+02 -0.57084393301E+02 -0.26512543008E+01  0.61826337928E+02  0.47000000000E+01 0. -1.
<mgrwt>
<rscale>  0 0.99925633E+03</rscale>
<asrwt>0</asrwt>
<pdfrwt beam="1">  1        1 0.49892735E-01 0.99925633E+03</pdfrwt>
<pdfrwt beam="2">  1       -1 0.11842129E+00 0.99925633E+03</pdfrwt>
<totfact> 0.60877551E+01</totfact>
</mgrwt>
</event>
<event>
 9    1  0.4370149E-036  0.1000965E+04  0.7818608E-02  0.8680120E-01
          2   -1    0    0  501    0  0.00000000000E+00  0.00000000000E+00  0.70449775440E+03  0.70449775440E+03  0.00000000000E+00 0.  1.
         -2   -1    0    0    0  501 -0.00000000000E+00 -0.00000000000E+00 -0.35554791614E+03  0.35554791614E+03  0.00000000000E+00 0.  1.
         36    2    1    2    0    0  0.00000000000E+00  0.00000000000E+00  0.34894983826E+03  0.10600456705E+04  0.10009649514E+04 0.  0.
         25    2    3    3    0    0  0.10686125968E+03 -0.86677923472E+02  0.99527072537E+02  0.21072417268E+03  0.12476637185E+03 0.  0.
         35    2    3    3    0    0 -0.10686125968E+03  0.86677923472E+02  0.24942276573E+03  0.84932149786E+03  0.80012680209E+03 0.  0.
         22    1    5    5    0    0  0.27865683888E+03  0.10974537884E+03  0.33953072548E+03  0.45274142243E+03  0.00000000000E+00 0.  1.
         22    1    5    5    0    0 -0.38551809856E+03 -0.23067455372E+02 -0.90107959758E+02  0.39658007543E+03  0.00000000000E+00 0.  1.
          5    1    4    4  502    0  0.10625979094E+03 -0.51333017078E+02  0.12101096712E+03  0.16909159050E+03  0.47000000000E+01 0.  1.
         -5    1    4    4    0  502  0.60146873865E+00 -0.35344906394E+02 -0.21483894582E+02  0.41632582181E+02  0.47000000000E+01 0.  1.
<mgrwt>
<rscale>  0 0.10009650E+04</rscale>
<asrwt>0</asrwt>
<pdfrwt beam="1">  1        2 0.10838427E+00 0.10009650E+04</pdfrwt>
<pdfrwt beam="2">  1       -2 0.54699680E-01 0.10009650E+04</pdfrwt>
<totfact> 0.15467793E+02</totfact>
</mgrwt>
</event>
<event>
 9    1  0.4370149E-036  0.1002579E+04  0.7818608E-02  0.8678586E-01
         -2   -1    0    0    0  501 -0.00000000000E+00  0.00000000000E+00  0.10643924204E+03  0.10643924204E+03  0.00000000000E+00 0. -1.
          2   -1    0    0  501    0  0.00000000000E+00 -0.00000000000E+00 -0.23608881459E+04  0.23608881459E+04  0.00000000000E+00 0. -1.
         36    2    1    2    0    0 -0.71054273576E-14 -0.14210854715E-13 -0.22544489039E+04  0.24673273880E+04  0.10025789641E+04 0.  0.
         25    2    3    3    0    0  0.13473005998E+02  0.33409314064E+02 -0.76157083504E+03  0.77272779953E+03  0.12577921620E+03 0.  0.
         35    2    3    3    0    0 -0.13473005998E+02 -0.33409314064E+02 -0.14928780689E+04  0.16945995885E+04  0.80105251548E+03 0.  0.
         22    1    5    5    0    0  0.27095785280E+02  0.37527138092E+03 -0.87753765641E+03  0.95479585742E+03  0.00000000000E+00 0.  1.
         22    1    5    5    0    0 -0.40568791278E+02 -0.40868069498E+03 -0.61534041245E+03  0.73980373105E+03  0.00000000000E+00 0.  1.
          5    1    4    4  502    0  0.60481491387E+02  0.35855439956E+02 -0.60708904225E+03  0.61116513202E+03  0.47000000000E+01 0. -1.
         -5    1    4    4    0  502 -0.47008485389E+02 -0.24461258924E+01 -0.15448179279E+03  0.16156266751E+03  0.47000000000E+01 0. -1.
<mgrwt>
<rscale>  0 0.10025790E+04</rscale>
<asrwt>0</asrwt>
<pdfrwt beam="1">  1        2 0.36321356E+00 0.10025790E+04</pdfrwt>
<pdfrwt beam="2">  1       -2 0.16375268E-01 0.10025790E+04</pdfrwt>
<totfact> 0.14565097E+02</totfact>
</mgrwt>
</event>
<event>
 9    1  0.4370149E-036  0.9982622E+03  0.7818608E-02  0.8682695E-01
         -2   -1    0    0    0  501 -0.00000000000E+00  0.00000000000E+00  0.21953460812E+03  0.21953460812E+03  0.00000000000E+00 0.  1.
          2   -1    0    0  501    0  0.00000000000E+00 -0.00000000000E+00 -0.11348181444E+04  0.11348181444E+04  0.00000000000E+00 0.  1.
         36    2    1    2    0    0  0.71054273576E-14 -0.28421709430E-13 -0.91528353632E+03  0.13543527526E+04  0.99826220329E+03 0.  0.
         25    2    3    3    0    0  0.14597140529E+02 -0.86610637740E+02 -0.25835812445E+02  0.15497087152E+03  0.12503600574E+03 0.  0.
         35    2    3    3    0    0 -0.14597140529E+02  0.86610637740E+02 -0.88944772387E+03  0.11993818810E+04  0.79980320329E+03 0.  0.
         22    1    5    5    0    0 -0.13078842034E+03 -0.33853527042E+03 -0.43080573213E+03  0.56329860558E+03  0.00000000000E+00 0.  1.
         22    1    5    5    0    0  0.11619127982E+03  0.42514590816E+03 -0.45864199175E+03  0.63608327547E+03  0.00000000000E+00 0.  1.
          5    1    4    4  502    0 -0.20148806020E+02 -0.59977624276E+02  0.40559674547E+02  0.75302503260E+02  0.47000000000E+01 0.  1.
         -5    1    4    4    0  502  0.34745946549E+02 -0.26633013464E+02 -0.66395486992E+02  0.79668368257E+02  0.47000000000E+01 0.  1.
<mgrwt>
<rscale>  0 0.99826220E+03</rscale>
<asrwt>0</asrwt>
<pdfrwt beam="1">  1        2 0.17458740E+00 0.99826220E+03</pdfrwt>
<pdfrwt beam="2">  1       -2 0.33774556E-01 0.99826220E+03</pdfrwt>
<totfact> 0.20506925E+02</totfact>
</mgrwt>
</event>
<event>
 9    1  0.4370149E-036  0.9997580E+03  0.7818608E-02  0.8681268E-01
         -2   -1    0    0    0  501 -0.00000000000E+00  0.00000000000E+00  0.13588119287E+04  0.13588119287E+04  0.00000000000E+00 0.  1.
          2   -1    0    0  501    0  0.00000000000E+00 -0.00000000000E+00 -0.18389521464E+03  0.18389521464E+03  0.00000000000E+00 0.  1.
         36    2    1    2    0    0  0.00000000000E+00  0.14210854715E-13  0.11749167140E+04  0.15427071433E+04  0.99975799329E+03 0.  0.
         25    2    3    3    0    0  0.10873307254E+03  0.82982189534E+02  0.18032902629E+03  0.25804988774E+03  0.12394459245E+03 0.  0.
         35    2    3    3    0    0 -0.10873307254E+03 -0.82982189534E+02  0.99458768775E+03  0.12846572556E+04  0.80151772960E+03 0.  0.
         22    1    5    5    0    0 -0.36464462031E+03  0.11200640099E+03  0.20725679365E+03  0.43412729873E+03  0.00000000000E+00 0. -1.
         22    1    5    5    0    0  0.25591154777E+03 -0.19498859052E+03  0.78733089410E+03  0.85052995686E+03  0.00000000000E+00 0. -1.
          5    1    4    4  502    0  0.12986463169E+03  0.92884856438E+02  0.14690622739E+03  0.21701601039E+03  0.47000000000E+01 0. -1.
         -5    1    4    4    0  502 -0.21131559156E+02 -0.99026669040E+01  0.33422798899E+02  0.41033877350E+02  0.47000000000E+01 0. -1.
<mgrwt>
<rscale>  0 0.99975799E+03</rscale>
<asrwt>0</asrwt>
<pdfrwt beam="1">  1        2 0.28291572E-01 0.99975799E+03</pdfrwt>
<pdfrwt beam="2">  1       -2 0.20904798E+00 0.99975799E+03</pdfrwt>
<totfact> 0.23962478E+01</totfact>
</mgrwt>
</event>
<event>
 9    1  0.4370149E-036  0.9997528E+03  0.7818608E-02  0.8681273E-01
          2   -1    0    0  501    0  0.00000000000E+00  0.00000000000E+00  0.11686493412E+04  0.11686493412E+04  0.00000000000E+00 0. -1.
         -2   -1    0    0    0  501 -0.00000000000E+00 -0.00000000000E+00 -0.21381640982E+03  0.21381640982E+03  0.00000000000E+00 0. -1.
         36    2    1    2    0    0  0.00000000000E+00  0.42632564146E-13  0.95483293136E+03  0.13824657510E+04  0.99975278238E+03 0.  0.
         25    2    3    3    0    0  0.71288317584E+02  0.71623787788E+02  0.44420979643E+02  0.16683873524E+03  0.12509975597E+03 0.  0.
         35    2    3    3    0    0 -0.71288317584E+02 -0.71623787788E+02  0.91041195172E+03  0.12156270158E+04  0.79917903402E+03 0.  0.
         22    1    5    5    0    0  0.35602030172E+02  0.35361168858E+03  0.30637088215E+03  0.46922473111E+03  0.00000000000E+00 0.  1.
         22    1    5    5    0    0 -0.10689034776E+03 -0.42523547637E+03  0.60404106957E+03  0.74640228465E+03  0.00000000000E+00 0.  1.
          5    1    4    4  502    0  0.32805555501E+02  0.95550424416E+02 -0.28676618994E+01  0.10117510347E+03  0.47000000000E+01 0.  1.
         -5    1    4    4    0  502  0.38482762083E+02 -0.23926636628E+02  0.47288641543E+02  0.65663631767E+02  0.47000000000E+01 0.  1.
<mgrwt>
<rscale>  0 0.99975278E+03</rscale>
<asrwt>0</asrwt>
<pdfrwt beam="1">  1        2 0.17979220E+00 0.99975278E+03</pdfrwt>
<pdfrwt beam="2">  1       -2 0.32894833E-01 0.99975278E+03</pdfrwt>
<totfact> 0.20553635E+02</totfact>
</mgrwt>
</event>
<event>
 9    1  0.4370149E-036  0.1000397E+04  0.7818608E-02  0.8680660E-01
         -2   -1    0    0    0  501 -0.00000000000E+00  0.00000000000E+00  0.97715060603E+02  0.97715060603E+02  0.00000000000E+00 0.  1.
          2   -1    0    0  501    0  0.00000000000E+00 -0.00000000000E+00 -0.25604933701E+04  0.25604933701E+04  0.00000000000E+00 0.  1.
         36    2    1    2    0    0  0.00000000000E+00  0.14210854715E-13 -0.24627783095E+04  0.26582084307E+04  0.10003974507E+04 0.  0.
         25    2    3    3    0    0 -0.50303083128E+02 -0.17731951464E+02 -0.80163952068E+03  0.81312304895E+03  0.12529305385E+03 0.  0.
         35    2    3    3    0    0  0.50303083128E+02  0.17731951464E+02 -0.16611387888E+04  0.18450853817E+04  0.80131964157E+03 0.  0.
         22    1    5    5    0    0  0.31905516209E+02  0.22386139186E+03 -0.16179537633E+04  0.16336787520E+04  0.00000000000E+00 0.  1.
         22    1    5    5    0    0  0.18397566919E+02 -0.20612944039E+03 -0.43185025556E+02  0.21140662974E+03  0.00000000000E+00 0.  1.
          5    1    4    4  502    0 -0.37682496090E+02 -0.24444319449E+02 -0.79564476126E+03  0.79692544907E+03  0.47000000000E+01 0. -1.
         -5    1    4    4    0  502 -0.12620587038E+02  0.67123679850E+01 -0.59947594198E+01  0.16197599873E+02  0.47000000000E+01 0. -1.
<mgrwt>
<rscale>  0 0.10003975E+04</rscale>
<asrwt>0</asrwt>
<pdfrwt beam="1">  1        2 0.39392199E+00 0.10003975E+04</pdfrwt>
<pdfrwt beam="2">  1       -2 0.15033089E-01 0.10003975E+04</pdfrwt>
<totfact> 0.12741154E+02</totfact>
</mgrwt>
</event>
<event>
 9    1  0.4370149E-036  0.9999563E+03  0.7818608E-02  0.8681080E-01
         -2   -1    0    0    0  501 -0.00000000000E+00  0.00000000000E+00  0.85283416426E+03  0.85283416426E+03  0.00000000000E+00 0. -1.
          2   -1    0    0  501    0  0.00000000000E+00 -0.00000000000E+00 -0.29311461632E+03  0.29311461632E+03  0.00000000000E+00 0. -1.
         36    2    1    2    0    0 -0.28421709430E-13  0.00000000000E+00  0.55971954794E+03  0.11459487806E+04  0.99995631673E+03 0.  0.
         25    2    3    3    0    0  0.11160269959E+03  0.47320089448E+02  0.17508126669E+03  0.24789782709E+03  0.12690756207E+03 0.  0.
         35    2    3    3    0    0 -0.11160269959E+03 -0.47320089448E+02  0.38463828126E+03  0.89805095349E+03  0.80240547994E+03 0.  0.
         22    1    5    5    0    0 -0.44416773374E+03  0.87172713059E+02  0.20633956595E+03  0.49745358987E+03  0.00000000000E+00 0.  1.
         22    1    5    5    0    0  0.33256503415E+03 -0.13449280251E+03  0.17829871530E+03  0.40059736362E+03  0.00000000000E+00 0.  1.
          5    1    4    4  502    0 -0.33501008420E+01  0.49910915617E+02  0.18422712327E+02  0.53514568137E+02  0.47000000000E+01 0. -1.
         -5    1    4    4    0  502  0.11495280043E+03 -0.25908261695E+01  0.15665855436E+03  0.19438325895E+03  0.47000000000E+01 0. -1.
<mgrwt>
<rscale>  0 0.99995632E+03</rscale>
<asrwt>0</asrwt>
<pdfrwt beam="1">  1        2 0.45094557E-01 0.99995632E+03</pdfrwt>
<pdfrwt beam="2">  1       -2 0.13120525E+00 0.99995632E+03</pdfrwt>
<totfact> 0.55130579E+01</totfact>
</mgrwt>
</event>
<event>
 9    1  0.4370149E-036  0.1000712E+04  0.7818608E-02  0.8680360E-01
         -1   -1    0    0    0  501 -0.00000000000E+00  0.00000000000E+00  0.37747362651E+03  0.37747362651E+03  0.00000000000E+00 0. -1.
          1   -1    0    0  501    0  0.00000000000E+00 -0.00000000000E+00 -0.66324101254E+03  0.66324101254E+03  0.00000000000E+00 0. -1.
         36    2    1    2    0    0  0.00000000000E+00 -0.14210854715E-13 -0.28576738603E+03  0.10407146391E+04  0.10007117272E+04 0.  0.
         25    2    3    3    0    0 -0.15336703726E+02 -0.54467045479E+02  0.80958172481E+02  0.15887356878E+03  0.12443758130E+03 0.  0.
         35    2    3    3    0    0  0.15336703726E+02  0.54467045479E+02 -0.36672555851E+03  0.88184107027E+03  0.79997135226E+03 0.  0.
         22    1    5    5    0    0  0.18364557186E+02 -0.17627058599E+03  0.20161858102E+03  0.26843738312E+03  0.00000000000E+00 0. -1.
         22    1    5    5    0    0 -0.30278534608E+01  0.23073763147E+03 -0.56834413953E+03  0.61340368715E+03  0.00000000000E+00 0. -1.
          5    1    4    4  502    0  0.50292871902E+02 -0.22692999209E+02  0.62515235223E+02  0.83514009676E+02  0.47000000000E+01 0. -1.
         -5    1    4    4    0  502 -0.65629575627E+02 -0.31774046270E+02  0.18442937259E+02  0.75359559103E+02  0.47000000000E+01 0. -1.
<mgrwt>
<rscale>  0 0.10007117E+04</rscale>
<asrwt>0</asrwt>
<pdfrwt beam="1">  1        1 0.10203708E+00 0.10007117E+04</pdfrwt>
<pdfrwt beam="2">  1       -1 0.58072866E-01 0.10007117E+04</pdfrwt>
<totfact> 0.10252207E+02</totfact>
</mgrwt>
</event>
<event>
 9    1  0.4370149E-036  0.1000323E+04  0.7818608E-02  0.8680730E-01
         -1   -1    0    0    0  501 -0.00000000000E+00  0.00000000000E+00  0.11265008602E+03  0.11265008602E+03  0.00000000000E+00 0.  1.
          1   -1    0    0  501    0  0.00000000000E+00 -0.00000000000E+00 -0.22206972570E+04  0.22206972570E+04  0.00000000000E+00 0.  1.
         36    2    1    2    0    0  0.14210854715E-13  0.00000000000E+00 -0.21080471710E+04  0.23333473430E+04  0.10003234217E+04 0.  0.
         25    2    3    3    0    0  0.98935423616E+02 -0.10276381558E+03 -0.41957255352E+03  0.46053298937E+03  0.12530317952E+03 0.  0.
         35    2    3    3    0    0 -0.98935423616E+02  0.10276381558E+03 -0.16884746175E+04  0.18728143537E+04  0.79758287943E+03 0.  0.
         22    1    5    5    0    0 -0.20939885500E+03  0.38054337187E+03 -0.13646335854E+04  0.14320914639E+04  0.00000000000E+00 0.  1.
         22    1    5    5    0    0  0.11046343138E+03 -0.27777955629E+03 -0.32384103206E+03  0.44072288982E+03  0.00000000000E+00 0.  1.
          5    1    4    4  502    0  0.10957306981E+03 -0.50860045226E+02 -0.19249623892E+03  0.22731012698E+03  0.47000000000E+01 0.  1.
         -5    1    4    4    0  502 -0.10637646192E+02 -0.51903770357E+02 -0.22707631460E+03  0.23322286240E+03  0.47000000000E+01 0.  1.
<mgrwt>
<rscale>  0 0.10003234E+04</rscale>
<asrwt>0</asrwt>
<pdfrwt beam="1">  1        1 0.34164572E+00 0.10003234E+04</pdfrwt>
<pdfrwt beam="2">  1       -1 0.17330783E-01 0.10003234E+04</pdfrwt>
<totfact> 0.56425422E+01</totfact>
</mgrwt>
</event>
<event>
 9    1  0.4370149E-036  0.1002435E+04  0.7818608E-02  0.8678723E-01
         -2   -1    0    0    0  501 -0.00000000000E+00  0.00000000000E+00  0.87121870173E+02  0.87121870173E+02  0.00000000000E+00 0. -1.
          2   -1    0    0  501    0  0.00000000000E+00 -0.00000000000E+00 -0.28835338991E+04  0.28835338991E+04  0.00000000000E+00 0. -1.
         36    2    1    2    0    0  0.00000000000E+00  0.00000000000E+00 -0.27964120289E+04  0.29706557693E+04  0.10024347679E+04 0.  0.
         25    2    3    3    0    0 -0.63636959203E+02 -0.98932665470E+02 -0.77432278143E+03  0.79293807093E+03  0.12384538596E+03 0.  0.
         35    2    3    3    0    0  0.63636959203E+02  0.98932665470E+02 -0.20220892475E+04  0.21777176983E+04  0.79985755853E+03 0.  0.
         22    1    5    5    0    0 -0.91689574176E+02  0.39188088091E+03 -0.63697676026E+03  0.75346997017E+03  0.00000000000E+00 0.  1.
         22    1    5    5    0    0  0.15532653338E+03 -0.29294821544E+03 -0.13851124872E+04  0.14242477282E+04  0.00000000000E+00 0.  1.
          5    1    4    4  502    0 -0.54093732377E+02 -0.12839530230E+03 -0.62273417033E+03  0.63814686588E+03  0.47000000000E+01 0.  1.
         -5    1    4    4    0  502 -0.95432268261E+01  0.29462636831E+02 -0.15158861110E+03  0.15479120505E+03  0.47000000000E+01 0.  1.
<mgrwt>
<rscale>  0 0.10024348E+04</rscale>
<asrwt>0</asrwt>
<pdfrwt beam="1">  1        2 0.44362065E+00 0.10024348E+04</pdfrwt>
<pdfrwt beam="2">  1       -2 0.13403363E-01 0.10024348E+04</pdfrwt>
<totfact> 0.96357370E+01</totfact>
</mgrwt>
</event>
<event>
 9    1  0.4370149E-036  0.9999134E+03  0.7818608E-02  0.8681120E-01
          1   -1    0    0  501    0  0.00000000000E+00  0.00000000000E+00  0.20344693873E+04  0.20344693873E+04  0.00000000000E+00 0. -1.
         -1   -1    0    0    0  501 -0.00000000000E+00 -0.00000000000E+00 -0.12286086972E+03  0.12286086972E+03  0.00000000000E+00 0. -1.
         36    2    1    2    0    0  0.14210854715E-13  0.28421709430E-13  0.19116085176E+04  0.21573302571E+04  0.99991335294E+03 0.  0.
         25    2    3    3    0    0  0.79407803040E+02 -0.81979501223E+02  0.18027393295E+03  0.24703421787E+03  0.12450291601E+03 0.  0.
         35    2    3    3    0    0 -0.79407803040E+02  0.81979501223E+02  0.17313345847E+04  0.19102960392E+04  0.79917787472E+03 0.  0.
         22    1    5    5    0    0 -0.72675523250E+02 -0.35843351766E+03  0.73611743981E+03  0.82196423490E+03  0.00000000000E+00 0.  1.
         22    1    5    5    0    0 -0.67322797895E+01  0.44041301888E+03  0.99521714487E+03  0.10883318043E+04  0.00000000000E+00 0.  1.
          5    1    4    4  502    0 -0.32788286510E+02 -0.22271880077E+02  0.28647977017E+02  0.49131506811E+02  0.47000000000E+01 0. -1.
         -5    1    4    4    0  502  0.11219608955E+03 -0.59707621147E+02  0.15162595593E+03  0.19790271106E+03  0.47000000000E+01 0. -1.
<mgrwt>
<rscale>  0 0.99991335E+03</rscale>
<asrwt>0</asrwt>
<pdfrwt beam="1">  1        1 0.31299526E+00 0.99991335E+03</pdfrwt>
<pdfrwt beam="2">  1       -1 0.18901674E-01 0.99991335E+03</pdfrwt>
<totfact> 0.66128686E+01</totfact>
</mgrwt>
</event>
<event>
 9    1  0.4370149E-036  0.1000578E+04  0.7818608E-02  0.8680487E-01
          2   -1    0    0  501    0  0.00000000000E+00  0.00000000000E+00  0.16334245530E+04  0.16334245530E+04  0.00000000000E+00 0.  1.
         -2   -1    0    0    0  501 -0.00000000000E+00 -0.00000000000E+00 -0.15322974931E+03  0.15322974931E+03  0.00000000000E+00 0.  1.
         36    2    1    2    0    0 -0.28421709430E-13 -0.14210854715E-13  0.14801948037E+04  0.17866543023E+04  0.10005783023E+04 0.  0.
         25    2    3    3    0    0  0.10695989689E+03  0.91042020391E+02  0.29521064532E+03  0.34992196140E+03  0.12476772393E+03 0.  0.
         35    2    3    3    0    0 -0.10695989689E+03 -0.91042020391E+02  0.11849841583E+04  0.14367323409E+04  0.80017703967E+03 0.  0.
         22    1    5    5    0    0  0.16315917909E+03  0.24930595436E+03  0.80903433483E+03  0.86215481877E+03  0.00000000000E+00 0.  1.
         22    1    5    5    0    0 -0.27011907598E+03 -0.34034797475E+03  0.37594982351E+03  0.57457752212E+03  0.00000000000E+00 0.  1.
          5    1    4    4  502    0 -0.16712526670E+02  0.23215392938E+00  0.10045220105E+03  0.10194163594E+03  0.47000000000E+01 0. -1.
         -5    1    4    4    0  502  0.12367242356E+03  0.90809866462E+02  0.19475844428E+03  0.24798032546E+03  0.47000000000E+01 0. -1.
<mgrwt>
<rscale>  0 0.10005783E+04</rscale>
<asrwt>0</asrwt>
<pdfrwt beam="1">  1        2 0.25129607E+00 0.10005783E+04</pdfrwt>
<pdfrwt beam="2">  1       -2 0.23573809E-01 0.10005783E+04</pdfrwt>
<totfact> 0.20272480E+02</totfact>
</mgrwt>
</event>
<event>
 9    1  0.4370149E-036  0.1000564E+04  0.7818608E-02  0.8680501E-01
         -1   -1    0    0    0  501 -0.00000000000E+00  0.00000000000E+00  0.13299851622E+03  0.13299851622E+03  0.00000000000E+00 0. -1.
          1   -1    0    0  501    0  0.00000000000E+00 -0.00000000000E+00 -0.18818395364E+04  0.18818395364E+04  0.00000000000E+00 0. -1.
         36    2    1    2    0    0 -0.14210854715E-13  0.00000000000E+00 -0.17488410202E+04  0.20148380526E+04  0.10005635734E+04 0.  0.
         25    2    3    3    0    0  0.10356381483E+03 -0.53880298161E+02 -0.50580299043E+03  0.53399413095E+03  0.12523783970E+03 0.  0.
         35    2    3    3    0    0 -0.10356381483E+03  0.53880298161E+02 -0.12430380298E+04  0.14808439217E+04  0.79632068080E+03 0.  0.
         22    1    5    5    0    0  0.14767143126E+02 -0.13034429018E+02 -0.13229889067E+04  0.13231355229E+04  0.00000000000E+00 0. -1.
         22    1    5    5    0    0 -0.11833095795E+03  0.66914727179E+02  0.79950876901E+02  0.15770839876E+03  0.00000000000E+00 0. -1.
          5    1    4    4  502    0  0.11410845885E+03 -0.56278288911E+01 -0.41564549443E+03  0.43108662688E+03  0.47000000000E+01 0. -1.
         -5    1    4    4    0  502 -0.10544644025E+02 -0.48252469270E+02 -0.90157496002E+02  0.10290750407E+03  0.47000000000E+01 0. -1.
<mgrwt>
<rscale>  0 0.10005636E+04</rscale>
<asrwt>0</asrwt>
<pdfrwt beam="1">  1        1 0.28951377E+00 0.10005636E+04</pdfrwt>
<pdfrwt beam="2">  1       -1 0.20461311E-01 0.10005636E+04</pdfrwt>
<totfact> 0.74224355E+01</totfact>
</mgrwt>
</event>
<event>
 9    1  0.4370149E-036  0.9988108E+03  0.7818608E-02  0.8682171E-01
          2   -1    0    0  501    0  0.00000000000E+00  0.00000000000E+00  0.39099678260E+03  0.39099678260E+03  0.00000000000E+00 0. -1.
         -2   -1    0    0    0  501 -0.00000000000E+00 -0.00000000000E+00 -0.63787159885E+03  0.63787159885E+03  0.00000000000E+00 0. -1.
         36    2    1    2    0    0 -0.14210854715E-13  0.00000000000E+00 -0.24687481625E+03  0.10288683815E+04  0.99881077860E+03 0.  0.
         25    2    3    3    0    0 -0.76651702109E+02 -0.68012614118E+02  0.49825209568E+02  0.16960888501E+03  0.12563209483E+03 0.  0.
         35    2    3    3    0    0  0.76651702109E+02  0.68012614118E+02 -0.29670002582E+03  0.85925949644E+03  0.79987172583E+03 0.  0.
         22    1    5    5    0    0  0.24977782213E+03 -0.24044557313E+03  0.65671700888E+02  0.35286797299E+03  0.00000000000E+00 0. -1.
         22    1    5    5    0    0 -0.17312612002E+03  0.30845818724E+03 -0.36237172671E+03  0.50639152345E+03  0.00000000000E+00 0. -1.
          5    1    4    4  502    0 -0.18836170848E+02 -0.94455020844E+02  0.17039907572E+02  0.97923443286E+02  0.47000000000E+01 0. -1.
         -5    1    4    4    0  502 -0.57815531261E+02  0.26442406726E+02  0.32785301995E+02  0.71685441726E+02  0.47000000000E+01 0. -1.
<mgrwt>
<rscale>  0 0.99881078E+03</rscale>
<asrwt>0</asrwt>
<pdfrwt beam="1">  1        2 0.60153352E-01 0.99881078E+03</pdfrwt>
<pdfrwt beam="2">  1       -2 0.98134091E-01 0.99881078E+03</pdfrwt>
<totfact> 0.83824035E+01</totfact>
</mgrwt>
</event>
<event>
 9    1  0.4370149E-036  0.9994108E+03  0.7818608E-02  0.8681599E-01
         -2   -1    0    0    0  501 -0.00000000000E+00  0.00000000000E+00  0.15181377739E+03  0.15181377739E+03  0.00000000000E+00 0.  1.
          2   -1    0    0  501    0  0.00000000000E+00 -0.00000000000E+00 -0.16448143415E+04  0.16448143415E+04  0.00000000000E+00 0.  1.
         36    2    1    2    0    0  0.71054273576E-14 -0.71054273576E-14 -0.14930005641E+04  0.17966281189E+04  0.99941078299E+03 0.  0.
         25    2    3    3    0    0  0.58951175310E+01  0.16171150757E+02 -0.30956254399E+02  0.13039809800E+03  0.12549548099E+03 0.  0.
         35    2    3    3    0    0 -0.58951175310E+01 -0.16171150757E+02 -0.14620443097E+04  0.16662300209E+04  0.79903232752E+03 0.  0.
         22    1    5    5    0    0 -0.37217973281E+03  0.75850190147E+02 -0.46724284821E+03  0.60215187790E+03  0.00000000000E+00 0. -1.
         22    1    5    5    0    0  0.36628461528E+03 -0.92021340904E+02 -0.99480146152E+03  0.10640781430E+04  0.00000000000E+00 0. -1.
          5    1    4    4  502    0  0.25360327850E+02  0.50982096531E+02  0.24301529205E+02  0.62088442701E+02  0.47000000000E+01 0.  1.
         -5    1    4    4    0  502 -0.19465210319E+02 -0.34810945774E+02 -0.55257783604E+02  0.68309655301E+02  0.47000000000E+01 0.  1.
<mgrwt>
<rscale>  0 0.99941078E+03</rscale>
<asrwt>0</asrwt>
<pdfrwt beam="1">  1        2 0.25304837E+00 0.99941078E+03</pdfrwt>
<pdfrwt beam="2">  1       -2 0.23355965E-01 0.99941078E+03</pdfrwt>
<totfact> 0.20304221E+02</totfact>
</mgrwt>
</event>
<event>
 9    1  0.4370149E-036  0.9916723E+03  0.7818608E-02  0.8689009E-01
          2   -1    0    0  501    0  0.00000000000E+00  0.00000000000E+00  0.17944808583E+04  0.17944808583E+04  0.00000000000E+00 0. -1.
         -2   -1    0    0    0  501 -0.00000000000E+00 -0.00000000000E+00 -0.13700535616E+03  0.13700535616E+03  0.00000000000E+00 0. -1.
         36    2    1    2    0    0  0.35527136788E-14  0.42632564146E-13  0.16574755022E+04  0.19314862145E+04  0.99167230297E+03 0.  0.
         25    2    3    3    0    0  0.19770405035E+02  0.12748300892E+03  0.26177764058E+03  0.31747777429E+03  0.12498726967E+03 0.  0.
         35    2    3    3    0    0 -0.19770405035E+02 -0.12748300892E+03  0.13956978616E+04  0.16140084402E+04  0.80025492046E+03 0.  0.
         22    1    5    5    0    0  0.95806813471E+02 -0.29073529572E+03  0.12995303370E+03  0.33255638417E+03  0.00000000000E+00 0.  1.
         22    1    5    5    0    0 -0.11557721851E+03  0.16325228680E+03  0.12657448279E+04  0.12814520560E+04  0.00000000000E+00 0.  1.
          5    1    4    4  502    0  0.39606664191E+02  0.91441659101E+02  0.71477412706E+02  0.12272479535E+03  0.47000000000E+01 0. -1.
         -5    1    4    4    0  502 -0.19836259156E+02  0.36041349819E+02  0.19030022788E+03  0.19475297894E+03  0.47000000000E+01 0. -1.
<mgrwt>
<rscale>  0 0.99167230E+03</rscale>
<asrwt>0</asrwt>
<pdfrwt beam="1">  1        2 0.27607396E+00 0.99167230E+03</pdfrwt>
<pdfrwt beam="2">  1       -2 0.21077748E-01 0.99167230E+03</pdfrwt>
<totfact> 0.20009244E+02</totfact>
</mgrwt>
</event>
<event>
 9    1  0.4370149E-036  0.1000131E+04  0.7818608E-02  0.8680913E-01
          2   -1    0    0  501    0  0.00000000000E+00  0.00000000000E+00  0.78968900932E+03  0.78968900932E+03  0.00000000000E+00 0. -1.
         -2   -1    0    0    0  501 -0.00000000000E+00 -0.00000000000E+00 -0.31666318903E+03  0.31666318903E+03  0.00000000000E+00 0. -1.
         36    2    1    2    0    0 -0.14210854715E-13  0.00000000000E+00  0.47302582029E+03  0.11063521983E+04  0.10001308715E+04 0.  0.
         25    2    3    3    0    0  0.47769314031E+02 -0.95258441682E+02 -0.12042515715E+02  0.16476264750E+03  0.12508249179E+03 0.  0.
         35    2    3    3    0    0 -0.47769314031E+02  0.95258441682E+02  0.48506833600E+03  0.94158955084E+03  0.79996469522E+03 0.  0.
         22    1    5    5    0    0  0.24520216968E+03 -0.17006971345E+03  0.45639113278E+03  0.54528953550E+03  0.00000000000E+00 0.  1.
         22    1    5    5    0    0 -0.29297148371E+03  0.26532815514E+03  0.28677203223E+02  0.39630001534E+03  0.00000000000E+00 0.  1.
          5    1    4    4  502    0  0.60156138407E+02 -0.96741077398E+02 -0.50025586198E+02  0.12450801709E+03  0.47000000000E+01 0. -1.
         -5    1    4    4    0  502 -0.12386824376E+02  0.14826357165E+01  0.37983070483E+02  0.40254630418E+02  0.47000000000E+01 0. -1.
<mgrwt>
<rscale>  0 0.10001309E+04</rscale>
<asrwt>0</asrwt>
<pdfrwt beam="1">  1        2 0.12149062E+00 0.10001309E+04</pdfrwt>
<pdfrwt beam="2">  1       -2 0.48717414E-01 0.10001309E+04</pdfrwt>
<totfact> 0.16924852E+02</totfact>
</mgrwt>
</event>
<event>
 9    1  0.4370149E-036  0.1000245E+04  0.7818608E-02  0.8680805E-01
          1   -1    0    0  501    0  0.00000000000E+00  0.00000000000E+00  0.49980302404E+03  0.49980302404E+03  0.00000000000E+00 0. -1.
         -1   -1    0    0    0  501 -0.00000000000E+00 -0.00000000000E+00 -0.50044193536E+03  0.50044193536E+03  0.00000000000E+00 0. -1.
         36    2    1    2    0    0 -0.71054273576E-14 -0.42632564146E-13 -0.63891132696E+00  0.10002449594E+04  0.10002447553E+04 0.  0.
         25    2    3    3    0    0  0.54912206662E+02 -0.74875779219E+02 -0.10650812481E+03  0.18839375272E+03  0.12460534763E+03 0.  0.
         35    2    3    3    0    0 -0.54912206662E+02  0.74875779219E+02  0.10586921349E+03  0.81185120668E+03  0.79954509483E+03 0.  0.
         22    1    5    5    0    0 -0.63351872862E+02 -0.36215313298E+03  0.40411032259E+02  0.36986673688E+03  0.00000000000E+00 0.  1.
         22    1    5    5    0    0  0.84396662003E+01  0.43702891220E+03  0.65458181227E+02  0.44198446981E+03  0.00000000000E+00 0.  1.
          5    1    4    4  502    0  0.71027444883E+02 -0.10020224664E+03 -0.96933964728E+02  0.15653648673E+03  0.47000000000E+01 0. -1.
         -5    1    4    4    0  502 -0.16115238221E+02  0.25326467424E+02 -0.95741600848E+01  0.31857265991E+02  0.47000000000E+01 0. -1.
<mgrwt>
<rscale>  0 0.10002448E+04</rscale>
<asrwt>0</asrwt>
<pdfrwt beam="1">  1        1 0.76892773E-01 0.10002448E+04</pdfrwt>
<pdfrwt beam="2">  1       -1 0.76991067E-01 0.10002448E+04</pdfrwt>
<totfact> 0.88568569E+01</totfact>
</mgrwt>
</event>
<event>
 9    1  0.4370149E-036  0.9999441E+03  0.7818608E-02  0.8681091E-01
          2   -1    0    0  501    0  0.00000000000E+00  0.00000000000E+00  0.38841638660E+03  0.38841638660E+03  0.00000000000E+00 0.  1.
         -2   -1    0    0    0  501 -0.00000000000E+00 -0.00000000000E+00 -0.64356722025E+03  0.64356722025E+03  0.00000000000E+00 0.  1.
         36    2    1    2    0    0  0.10658141036E-13  0.00000000000E+00 -0.25515083365E+03  0.10319836068E+04  0.99994410688E+03 0.  0.
         25    2    3    3    0    0 -0.18204018576E+02 -0.76569424016E+02 -0.16774158290E+03  0.22378274339E+03  0.12548790627E+03 0.  0.
         35    2    3    3    0    0  0.18204018576E+02  0.76569424016E+02 -0.87409250750E+02  0.80820086345E+03  0.79959614530E+03 0.  0.
         22    1    5    5    0    0 -0.26197626955E+03 -0.25544171919E+03 -0.75483462637E+02  0.37360378858E+03  0.00000000000E+00 0.  1.
         22    1    5    5    0    0  0.28018028813E+03  0.33201114321E+03 -0.11925788113E+02  0.43459707487E+03  0.00000000000E+00 0.  1.
          5    1    4    4  502    0 -0.84857053654E+01  0.34505647296E+02 -0.31940038077E+02  0.48009404529E+02  0.47000000000E+01 0.  1.
         -5    1    4    4    0  502 -0.97183132108E+01 -0.11107507131E+03 -0.13580154482E+03  0.17577333886E+03  0.47000000000E+01 0.  1.
<mgrwt>
<rscale>  0 0.99994411E+03</rscale>
<asrwt>0</asrwt>
<pdfrwt beam="1">  1        2 0.59756368E-01 0.99994411E+03</pdfrwt>
<pdfrwt beam="2">  1       -2 0.99010340E-01 0.99994411E+03</pdfrwt>
<totfact> 0.82641908E+01</totfact>
</mgrwt>
</event>
<event>
 9    1  0.4370149E-036  0.9990546E+03  0.7818608E-02  0.8681939E-01
          1   -1    0    0  501    0  0.00000000000E+00  0.00000000000E+00  0.41048086297E+03  0.41048086297E+03  0.00000000000E+00 0.  1.
         -1   -1    0    0    0  501 -0.00000000000E+00 -0.00000000000E+00 -0.60789078148E+03  0.60789078148E+03  0.00000000000E+00 0.  1.
         36    2    1    2    0    0  0.00000000000E+00  0.28421709430E-13 -0.19740991851E+03  0.10183716444E+04  0.99905461827E+03 0.  0.
         25    2    3    3    0    0 -0.47739666862E+02  0.12757568828E+03 -0.69534196983E+02  0.19857494806E+03  0.12665849129E+03 0.  0.
         35    2    3    3    0    0  0.47739666862E+02 -0.12757568828E+03 -0.12787572153E+03  0.81979669638E+03  0.79822289569E+03 0.  0.
         22    1    5    5    0    0 -0.36849769802E+02  0.16472546006E+03 -0.38566395488E+03  0.42098582971E+03  0.00000000000E+00 0.  1.
         22    1    5    5    0    0  0.84589436664E+02 -0.29230114834E+03  0.25778823335E+03  0.39881086666E+03  0.00000000000E+00 0.  1.
          5    1    4    4  502    0 -0.35213605467E+01  0.11623493043E+03 -0.91168532461E+02  0.14784028660E+03  0.47000000000E+01 0.  1.
         -5    1    4    4    0  502 -0.44218306315E+02  0.11340757851E+02  0.21634335478E+02  0.50734661461E+02  0.47000000000E+01 0.  1.
<mgrwt>
<rscale>  0 0.99905462E+03</rscale>
<asrwt>0</asrwt>
<pdfrwt beam="1">  1        1 0.63150903E-01 0.99905462E+03</pdfrwt>
<pdfrwt beam="2">  1       -1 0.93521658E-01 0.99905462E+03</pdfrwt>
<totfact> 0.76713333E+01</totfact>
</mgrwt>
</event>
<event>
 9    1  0.4370149E-036  0.9990828E+03  0.7818608E-02  0.8681912E-01
          2   -1    0    0  501    0  0.00000000000E+00  0.00000000000E+00  0.28394069693E+04  0.28394069693E+04  0.00000000000E+00 0.  1.
         -2   -1    0    0    0  501 -0.00000000000E+00 -0.00000000000E+00 -0.87885117599E+02  0.87885117599E+02  0.00000000000E+00 0.  1.
         36    2    1    2    0    0 -0.28421709430E-13  0.00000000000E+00  0.27515218517E+04  0.29272920869E+04  0.99908281020E+03 0.  0.
         25    2    3    3    0    0 -0.74607960732E+02  0.39092825750E+02  0.84115619131E+03  0.85457883692E+03  0.12516650306E+03 0.  0.
         35    2    3    3    0    0  0.74607960732E+02 -0.39092825750E+02  0.19103656604E+04  0.20727132500E+04  0.79971786490E+03 0.  0.
         22    1    5    5    0    0 -0.19007544425E+03 -0.76091705977E+02  0.75083124919E+02  0.21807360655E+03  0.00000000000E+00 0. -1.
         22    1    5    5    0    0  0.26468340498E+03  0.36998880227E+02  0.18352825354E+04  0.18546396434E+04  0.00000000000E+00 0. -1.
          5    1    4    4  502    0 -0.73766465843E+02  0.79851938301E+02  0.56393839407E+03  0.57433999151E+03  0.47000000000E+01 0. -1.
         -5    1    4    4    0  502 -0.84149488956E+00 -0.40759112551E+02  0.27721779724E+03  0.28023884541E+03  0.47000000000E+01 0. -1.
<mgrwt>
<rscale>  0 0.99908281E+03</rscale>
<asrwt>0</asrwt>
<pdfrwt beam="1">  1        2 0.43683177E+00 0.99908281E+03</pdfrwt>
<pdfrwt beam="2">  1       -2 0.13520790E-01 0.99908281E+03</pdfrwt>
<totfact> 0.10146141E+02</totfact>
</mgrwt>
</event>
<event>
 9    1  0.4370149E-036  0.9983810E+03  0.7818608E-02  0.8682581E-01
         -2   -1    0    0    0  501 -0.00000000000E+00  0.00000000000E+00  0.44730353003E+03  0.44730353003E+03  0.00000000000E+00 0.  1.
          2   -1    0    0  501    0  0.00000000000E+00 -0.00000000000E+00 -0.55709635129E+03  0.55709635129E+03  0.00000000000E+00 0.  1.
         36    2    1    2    0    0  0.00000000000E+00  0.28421709430E-13 -0.10979282126E+03  0.10043998813E+04  0.99838101845E+03 0.  0.
         25    2    3    3    0    0 -0.59922256910E+02  0.87236465670E+02 -0.11050984443E+03  0.19764704788E+03  0.12510416461E+03 0.  0.
         35    2    3    3    0    0  0.59922256910E+02 -0.87236465670E+02  0.71702316740E+00  0.80675283345E+03  0.79978043383E+03 0.  0.
         22    1    5    5    0    0 -0.35684918865E+02 -0.36946426482E+03 -0.22399997568E+03  0.43353574884E+03  0.00000000000E+00 0. -1.
         22    1    5    5    0    0  0.95607175775E+02  0.28222779915E+03  0.22471699885E+03  0.37321708461E+03  0.00000000000E+00 0. -1.
          5    1    4    4  502    0 -0.42355372447E+02  0.84942145764E+02 -0.10088606163E+02  0.95566812631E+02  0.47000000000E+01 0.  1.
         -5    1    4    4    0  502 -0.17566884463E+02  0.22943199058E+01 -0.10042123826E+03  0.10208023525E+03  0.47000000000E+01 0.  1.
<mgrwt>
<rscale>  0 0.99838102E+03</rscale>
<asrwt>0</asrwt>
<pdfrwt beam="1">  1        2 0.85707130E-01 0.99838102E+03</pdfrwt>
<pdfrwt beam="2">  1       -2 0.68815928E-01 0.99838102E+03</pdfrwt>
<totfact> 0.12654196E+02</totfact>
</mgrwt>
</event>
<event>
 9    1  0.4370149E-036  0.1000199E+04  0.7818608E-02  0.8680848E-01
          2   -1    0    0  501    0  0.00000000000E+00  0.00000000000E+00  0.26056192334E+04  0.26056192334E+04  0.00000000000E+00 0.  1.
         -2   -1    0    0    0  501 -0.00000000000E+00 -0.00000000000E+00 -0.95984739183E+02  0.95984739183E+02  0.00000000000E+00 0.  1.
         36    2    1    2    0    0  0.21316282073E-13  0.00000000000E+00  0.25096344942E+04  0.27016039726E+04  0.10001993452E+04 0.  0.
         25    2    3    3    0    0  0.22488859102E+02 -0.13210803502E+03  0.58213049250E+03  0.61029753602E+03  0.12501556095E+03 0.  0.
         35    2    3    3    0    0 -0.22488859102E+02  0.13210803502E+03  0.19275040017E+04  0.20913064365E+04  0.80020788127E+03 0.  0.
         22    1    5    5    0    0  0.16621177462E+03  0.17892058377E+03  0.18737422584E+04  0.18895896327E+04  0.00000000000E+00 0.  1.
         22    1    5    5    0    0 -0.18870063373E+03 -0.46812548748E+02  0.53761743317E+02  0.20171680380E+03  0.00000000000E+00 0.  1.
          5    1    4    4  502    0 -0.42688063876E+02 -0.10246703652E+03  0.33347869550E+03  0.35149949462E+03  0.47000000000E+01 0. -1.
         -5    1    4    4    0  502  0.65176922979E+02 -0.29640998507E+02  0.24865179700E+03  0.25879804140E+03  0.47000000000E+01 0. -1.
<mgrwt>
<rscale>  0 0.10001993E+04</rscale>
<asrwt>0</asrwt>
<pdfrwt beam="1">  1        2 0.40086444E+00 0.10001993E+04</pdfrwt>
<pdfrwt beam="2">  1       -2 0.14766885E-01 0.10001993E+04</pdfrwt>
<totfact> 0.12312945E+02</totfact>
</mgrwt>
</event>
<event>
 9    1  0.4370149E-036  0.1000326E+04  0.7818608E-02  0.8680728E-01
          1   -1    0    0  501    0  0.00000000000E+00  0.00000000000E+00  0.20731804905E+04  0.20731804905E+04  0.00000000000E+00 0. -1.
         -1   -1    0    0    0  501 -0.00000000000E+00 -0.00000000000E+00 -0.12066622288E+03  0.12066622288E+03  0.00000000000E+00 0. -1.
         36    2    1    2    0    0 -0.56843418861E-13  0.00000000000E+00  0.19525142676E+04  0.21938467134E+04  0.10003256652E+04 0.  0.
         25    2    3    3    0    0  0.13112982396E+03 -0.48406233329E+02  0.35667478291E+03  0.40286277440E+03  0.12467285219E+03 0.  0.
         35    2    3    3    0    0 -0.13112982396E+03  0.48406233329E+02  0.15958394847E+04  0.17909839390E+04  0.80086304358E+03 0.  0.
         22    1    5    5    0    0 -0.43853075142E+03  0.93702815709E+02  0.12399075401E+04  0.13185067864E+04  0.00000000000E+00 0. -1.
         22    1    5    5    0    0  0.30740092746E+03 -0.45296582380E+02  0.35593194460E+03  0.47247715264E+03  0.00000000000E+00 0. -1.
          5    1    4    4  502    0 -0.12647137582E+02  0.93801103424E+01  0.11207338930E+03  0.11327166966E+03  0.47000000000E+01 0. -1.
         -5    1    4    4    0  502  0.14377696154E+03 -0.57786343671E+02  0.24460139361E+03  0.28959110473E+03  0.47000000000E+01 0. -1.
<mgrwt>
<rscale>  0 0.10003257E+04</rscale>
<asrwt>0</asrwt>
<pdfrwt beam="1">  1        1 0.31895082E+00 0.10003257E+04</pdfrwt>
<pdfrwt beam="2">  1       -1 0.18564036E-01 0.10003257E+04</pdfrwt>
<totfact> 0.63989450E+01</totfact>
</mgrwt>
</event>
<event>
 9    1  0.4370149E-036  0.9998439E+03  0.7818608E-02  0.8681187E-01
          2   -1    0    0  501    0  0.00000000000E+00  0.00000000000E+00  0.19686178687E+04  0.19686178687E+04  0.00000000000E+00 0. -1.
         -2   -1    0    0    0  501 -0.00000000000E+00 -0.00000000000E+00 -0.12695300545E+03  0.12695300545E+03  0.00000000000E+00 0. -1.
         36    2    1    2    0    0 -0.10658141036E-13  0.28421709430E-13  0.18416648633E+04  0.20955708742E+04  0.99984389784E+03 0.  0.
         25    2    3    3    0    0  0.48985995704E+01  0.10288790981E+03  0.14993695820E+03  0.21962118840E+03  0.12305468987E+03 0.  0.
         35    2    3    3    0    0 -0.48985995704E+01 -0.10288790981E+03  0.16917279051E+04  0.18759496858E+04  0.80413556100E+03 0.  0.
         22    1    5    5    0    0 -0.15745604623E+03 -0.34376545571E+03  0.38937992342E+03  0.54275576440E+03  0.00000000000E+00 0.  1.
         22    1    5    5    0    0  0.15255744666E+03  0.24087754590E+03  0.13023479817E+04  0.13331939214E+04  0.00000000000E+00 0.  1.
          5    1    4    4  502    0 -0.25157065955E+02  0.16551165742E+02  0.11923750402E+03  0.12307108279E+03  0.47000000000E+01 0.  1.
         -5    1    4    4    0  502  0.30055665525E+02  0.86336744067E+02  0.30699454181E+02  0.96550105610E+02  0.47000000000E+01 0.  1.
<mgrwt>
<rscale>  0 0.99984390E+03</rscale>
<asrwt>0</asrwt>
<pdfrwt beam="1">  1        2 0.30286427E+00 0.99984390E+03</pdfrwt>
<pdfrwt beam="2">  1       -2 0.19531233E-01 0.99984390E+03</pdfrwt>
<totfact> 0.18197602E+02</totfact>
</mgrwt>
</event>
<event>
 9    1  0.4370149E-036  0.9996925E+03  0.7818608E-02  0.8681331E-01
         -1   -1    0    0    0  501 -0.00000000000E+00  0.00000000000E+00  0.49365811485E+03  0.49365811485E+03  0.00000000000E+00 0. -1.
          1   -1    0    0  501    0  0.00000000000E+00 -0.00000000000E+00 -0.50611197547E+03  0.50611197547E+03  0.00000000000E+00 0. -1.
         36    2    1    2    0    0  0.00000000000E+00  0.14210854715E-13 -0.12453860612E+02  0.99977009032E+03  0.99969252016E+03 0.  0.
         25    2    3    3    0    0 -0.75296759011E+02  0.99805095655E+02 -0.64573200829E+02  0.18933758291E+03  0.12668213371E+03 0.  0.
         35    2    3    3    0    0  0.75296759011E+02 -0.99805095655E+02  0.52119340216E+02  0.81043250741E+03  0.79903301835E+03 0.  0.
         22    1    5    5    0    0 -0.26720707089E+03 -0.12818021352E+03  0.27214374482E+03  0.40235805412E+03  0.00000000000E+00 0.  1.
         22    1    5    5    0    0  0.34250382990E+03  0.28375117863E+02 -0.22002440461E+03  0.40807445329E+03  0.00000000000E+00 0.  1.
          5    1    4    4  502    0 -0.10287099024E+03  0.10647776612E+03 -0.46009131008E+02  0.15510926938E+03  0.47000000000E+01 0.  1.
         -5    1    4    4    0  502  0.27574231225E+02 -0.66726704696E+01 -0.18564069821E+02  0.34228313531E+02  0.47000000000E+01 0.  1.
<mgrwt>
<rscale>  0 0.99969252E+03</rscale>
<asrwt>0</asrwt>
<pdfrwt beam="1">  1        1 0.77863381E-01 0.99969252E+03</pdfrwt>
<pdfrwt beam="2">  1       -1 0.75947402E-01 0.99969252E+03</pdfrwt>
<totfact> 0.89506770E+01</totfact>
</mgrwt>
</event>
<event>
 9    1  0.4370149E-036  0.1010716E+04  0.7818608E-02  0.8670900E-01
         -2   -1    0    0    0  501 -0.00000000000E+00  0.00000000000E+00  0.25855710590E+03  0.25855710590E+03  0.00000000000E+00 0.  1.
          2   -1    0    0  501    0  0.00000000000E+00 -0.00000000000E+00 -0.98773801899E+03  0.98773801899E+03  0.00000000000E+00 0.  1.
         36    2    1    2    0    0  0.35527136788E-13  0.00000000000E+00 -0.72918091308E+03  0.12462951249E+04  0.10107159514E+04 0.  0.
         25    2    3    3    0    0 -0.22593309263E+02  0.93657009168E+02 -0.28585758125E+03  0.32511150238E+03  0.12124701740E+03 0.  0.
         35    2    3    3    0    0  0.22593309263E+02 -0.93657009168E+02 -0.44332333183E+03  0.92118362251E+03  0.80172414012E+03 0.  0.
         22    1    5    5    0    0  0.27619285710E+03  0.24838179396E+03 -0.27989928374E+03  0.46510172965E+03  0.00000000000E+00 0. -1.
         22    1    5    5    0    0 -0.25359954784E+03 -0.34203880313E+03 -0.16342404809E+03  0.45608189287E+03  0.00000000000E+00 0. -1.
          5    1    4    4  502    0  0.31666426239E+02  0.58599511557E+02 -0.23027594890E+03  0.23976189845E+03  0.47000000000E+01 0.  1.
         -5    1    4    4    0  502 -0.54259735503E+02  0.35057497611E+02 -0.55581632349E+02  0.85349603925E+02  0.47000000000E+01 0.  1.
<mgrwt>
<rscale>  0 0.10107160E+04</rscale>
<asrwt>0</asrwt>
<pdfrwt beam="1">  1        2 0.15195969E+00 0.10107160E+04</pdfrwt>
<pdfrwt beam="2">  1       -2 0.39778017E-01 0.10107160E+04</pdfrwt>
<totfact> 0.18556655E+02</totfact>
</mgrwt>
</event>
<event>
 9    1  0.4370149E-036  0.9988296E+03  0.7818608E-02  0.8682153E-01
         -1   -1    0    0    0  501 -0.00000000000E+00  0.00000000000E+00  0.28508206111E+03  0.28508206111E+03  0.00000000000E+00 0. -1.
          1   -1    0    0  501    0  0.00000000000E+00 -0.00000000000E+00 -0.87488897184E+03  0.87488897184E+03  0.00000000000E+00 0. -1.
         36    2    1    2    0    0  0.14210854715E-13  0.35527136788E-14 -0.58980691073E+03  0.11599710330E+04  0.99882961778E+03 0.  0.
         25    2    3    3    0    0  0.83148712777E+02  0.10504113935E+02  0.17487172401E+02  0.15168314897E+03  0.12521154753E+03 0.  0.
         35    2    3    3    0    0 -0.83148712777E+02 -0.10504113935E+02 -0.60729408313E+03  0.10082878840E+04  0.80050878118E+03 0.  0.
         22    1    5    5    0    0 -0.42622294228E+03  0.10849872147E+03 -0.36733727548E+03  0.57303982676E+03  0.00000000000E+00 0.  1.
         22    1    5    5    0    0  0.34307422951E+03 -0.11900283540E+03 -0.23995680765E+03  0.43524805723E+03  0.00000000000E+00 0.  1.
          5    1    4    4  502    0 -0.11443067633E+02  0.40111783185E+02  0.30104957638E+02  0.51655565252E+02  0.47000000000E+01 0.  1.
         -5    1    4    4    0  502  0.94591780410E+02 -0.29607669250E+02 -0.12617785237E+02  0.10002758371E+03  0.47000000000E+01 0.  1.
<mgrwt>
<rscale>  0 0.99882962E+03</rscale>
<asrwt>0</asrwt>
<pdfrwt beam="1">  1        1 0.13459830E+00 0.99882962E+03</pdfrwt>
<pdfrwt beam="2">  1       -1 0.43858778E-01 0.99882962E+03</pdfrwt>
<totfact> 0.11091712E+02</totfact>
</mgrwt>
</event>
<event>
 9    1  0.4370149E-036  0.9998738E+03  0.7818608E-02  0.8681158E-01
          1   -1    0    0  501    0  0.00000000000E+00  0.00000000000E+00  0.18100413505E+04  0.18100413505E+04  0.00000000000E+00 0.  1.
         -1   -1    0    0    0  501 -0.00000000000E+00 -0.00000000000E+00 -0.13808353822E+03  0.13808353822E+03  0.00000000000E+00 0.  1.
         36    2    1    2    0    0  0.14210854715E-13 -0.14210854715E-13  0.16719578123E+04  0.19481248888E+04  0.99987382006E+03 0.  0.
         25    2    3    3    0    0  0.11841406007E+03  0.47659318298E+02  0.21000788347E+03  0.27584075135E+03  0.12526575247E+03 0.  0.
         35    2    3    3    0    0 -0.11841406007E+03 -0.47659318298E+02  0.14619499288E+04  0.16722841374E+04  0.80183747826E+03 0.  0.
         22    1    5    5    0    0 -0.99525338753E+02 -0.33375623112E+03  0.12938822111E+04  0.13399364504E+04  0.00000000000E+00 0.  1.
         22    1    5    5    0    0 -0.18888721316E+02  0.28609691282E+03  0.16806771773E+03  0.33234768701E+03  0.00000000000E+00 0.  1.
          5    1    4    4  502    0 -0.16956766404E+02 -0.20199579838E+02  0.24232361322E+02  0.36122739206E+02  0.47000000000E+01 0.  1.
         -5    1    4    4    0  502  0.13537082647E+03  0.67858898136E+02  0.18577552215E+03  0.23971801214E+03  0.47000000000E+01 0.  1.
<mgrwt>
<rscale>  0 0.99987382E+03</rscale>
<asrwt>0</asrwt>
<pdfrwt beam="1">  1        1 0.27846788E+00 0.99987382E+03</pdfrwt>
<pdfrwt beam="2">  1       -1 0.21243623E-01 0.99987382E+03</pdfrwt>
<totfact> 0.78329586E+01</totfact>
</mgrwt>
</event>
<event>
 9    1  0.4370149E-036  0.9980324E+03  0.7818608E-02  0.8682914E-01
          1   -1    0    0  501    0  0.00000000000E+00  0.00000000000E+00  0.18219377310E+04  0.18219377310E+04  0.00000000000E+00 0. -1.
         -1   -1    0    0    0  501 -0.00000000000E+00 -0.00000000000E+00 -0.13667709785E+03  0.13667709785E+03  0.00000000000E+00 0. -1.
         36    2    1    2    0    0  0.21316282073E-13  0.00000000000E+00  0.16852606331E+04  0.19586148288E+04  0.99803238731E+03 0.  0.
         25    2    3    3    0    0 -0.21290378539E+02  0.98640065565E+01  0.56476313309E+02  0.14322946991E+03  0.12951651726E+03 0.  0.
         35    2    3    3    0    0  0.21290378539E+02 -0.98640065565E+01  0.16287843198E+04  0.18153853589E+04  0.80133330270E+03 0.  0.
         22    1    5    5    0    0 -0.15675528236E+03  0.33495616252E+02 -0.15389551857E+02  0.16103109378E+03  0.00000000000E+00 0.  1.
         22    1    5    5    0    0  0.17804566090E+03 -0.43359622809E+02  0.16441738717E+04  0.16543542651E+04  0.00000000000E+00 0.  1.
          5    1    4    4  502    0 -0.39957400850E+02  0.23299204850E+02  0.90587421749E+02  0.10182149974E+03  0.47000000000E+01 0. -1.
         -5    1    4    4    0  502  0.18667022311E+02 -0.13435198293E+02 -0.34111108440E+02  0.41407970176E+02  0.47000000000E+01 0. -1.
<mgrwt>
<rscale>  0 0.99803239E+03</rscale>
<asrwt>0</asrwt>
<pdfrwt beam="1">  1        1 0.28029810E+00 0.99803239E+03</pdfrwt>
<pdfrwt beam="2">  1       -1 0.21027247E-01 0.99803239E+03</pdfrwt>
<totfact> 0.78162901E+01</totfact>
</mgrwt>
</event>
<event>
 9    1  0.4370149E-036  0.1002606E+04  0.7818608E-02  0.8678560E-01
          3   -1    0    0  501    0  0.00000000000E+00  0.00000000000E+00  0.21956812240E+04  0.21956812240E+04  0.00000000000E+00 0. -1.
         -3   -1    0    0    0  501 -0.00000000000E+00 -0.00000000000E+00 -0.11445416790E+03  0.11445416790E+03  0.00000000000E+00 0. -1.
         36    2    1    2    0    0  0.00000000000E+00 -0.28421709430E-13  0.20812270561E+04  0.23101353919E+04  0.10026063385E+04 0.  0.
         25    2    3    3    0    0  0.37713824836E+02 -0.38934302104E+02  0.96189806960E+02  0.16806911608E+03  0.12671438890E+03 0.  0.
         35    2    3    3    0    0 -0.37713824836E+02  0.38934302104E+02  0.19850372491E+04  0.21420662758E+04  0.80320410675E+03 0.  0.
         22    1    5    5    0    0  0.19468875945E+03 -0.22704180978E+03  0.15647231952E+04  0.15930506501E+04  0.00000000000E+00 0.  1.
         22    1    5    5    0    0 -0.23240258428E+03  0.26597611189E+03  0.42031405399E+03  0.54901562570E+03  0.00000000000E+00 0.  1.
          5    1    4    4  502    0  0.77312362000E+02 -0.26055874868E+02  0.96121243826E+02  0.12616454909E+03  0.47000000000E+01 0. -1.
         -5    1    4    4    0  502 -0.39598537165E+02 -0.12878427237E+02  0.68563133977E-01  0.41904566990E+02  0.47000000000E+01 0. -1.
<mgrwt>
<rscale>  0 0.10026063E+04</rscale>
<asrwt>0</asrwt>
<pdfrwt beam="1">  1        3 0.33779708E+00 0.10026063E+04</pdfrwt>
<pdfrwt beam="2">  1       -3 0.17608335E-01 0.10026063E+04</pdfrwt>
<totfact> 0.36743814E+00</totfact>
</mgrwt>
</event>
<event>
 9    1  0.4370149E-036  0.9994786E+03  0.7818608E-02  0.8681535E-01
          2   -1    0    0  501    0  0.00000000000E+00  0.00000000000E+00  0.19524449931E+04  0.19524449931E+04  0.00000000000E+00 0. -1.
         -2   -1    0    0    0  501 -0.00000000000E+00 -0.00000000000E+00 -0.12791108401E+03  0.12791108401E+03  0.00000000000E+00 0. -1.
         36    2    1    2    0    0 -0.28421709430E-13  0.71054273576E-14  0.18245339091E+04  0.20803560772E+04  0.99947857514E+03 0.  0.
         25    2    3    3    0    0  0.13161388519E+03  0.11165522578E+02  0.24156335299E+03  0.30239430209E+03  0.12507028728E+03 0.  0.
         35    2    3    3    0    0 -0.13161388519E+03 -0.11165522578E+02  0.15829705561E+04  0.17779617751E+04  0.79868980731E+03 0.  0.
         22    1    5    5    0    0 -0.42480959450E+03 -0.13291406071E+03  0.12036670475E+04  0.12833330434E+04  0.00000000000E+00 0.  1.
         22    1    5    5    0    0  0.29319570931E+03  0.12174853814E+03  0.37930350869E+03  0.49462873168E+03  0.00000000000E+00 0.  1.
          5    1    4    4  502    0  0.56154531013E+02  0.61073062641E+02  0.16091500708E+03  0.18110488628E+03  0.47000000000E+01 0. -1.
         -5    1    4    4    0  502  0.75459354174E+02 -0.49907540064E+02  0.80648345913E+02  0.12128941580E+03  0.47000000000E+01 0. -1.
<mgrwt>
<rscale>  0 0.99947858E+03</rscale>
<asrwt>0</asrwt>
<pdfrwt beam="1">  1        2 0.30037613E+00 0.99947858E+03</pdfrwt>
<pdfrwt beam="2">  1       -2 0.19678630E-01 0.99947858E+03</pdfrwt>
<totfact> 0.18346834E+02</totfact>
</mgrwt>
</event>
<event>
 9    1  0.4370149E-036  0.9995247E+03  0.7818608E-02  0.8681491E-01
         -1   -1    0    0    0  501 -0.00000000000E+00  0.00000000000E+00  0.91237793652E+03  0.91237793652E+03  0.00000000000E+00 0. -1.
          1   -1    0    0  501    0  0.00000000000E+00 -0.00000000000E+00 -0.27374884404E+03  0.27374884404E+03  0.00000000000E+00 0. -1.
         36    2    1    2    0    0  0.00000000000E+00  0.00000000000E+00  0.63862909248E+03  0.11861267806E+04  0.99952469794E+03 0.  0.
         25    2    3    3    0    0  0.95954959105E+02  0.80124209635E+02  0.41861255442E+02  0.18191658957E+03  0.12535564489E+03 0.  0.
         35    2    3    3    0    0 -0.95954959105E+02 -0.80124209635E+02  0.59676783704E+03  0.10042101910E+04  0.79792168363E+03 0.  0.
         22    1    5    5    0    0 -0.14840920207E+03  0.15195197039E+03 -0.12347545571E+03  0.24568451463E+03  0.00000000000E+00 0. -1.
         22    1    5    5    0    0  0.52454242960E+02 -0.23207618003E+03  0.72024329275E+03  0.75852567636E+03  0.00000000000E+00 0. -1.
          5    1    4    4  502    0  0.71821748728E+02  0.10978451606E+03  0.53369262011E+02  0.14170875655E+03  0.47000000000E+01 0. -1.
         -5    1    4    4    0  502  0.24133210378E+02 -0.29660306424E+02 -0.11508006569E+02  0.40207833012E+02  0.47000000000E+01 0. -1.
<mgrwt>
<rscale>  0 0.99952470E+03</rscale>
<asrwt>0</asrwt>
<pdfrwt beam="1">  1        1 0.42115207E-01 0.99952470E+03</pdfrwt>
<pdfrwt beam="2">  1       -1 0.14036584E+00 0.99952470E+03</pdfrwt>
<totfact> 0.48860316E+01</totfact>
</mgrwt>
</event>
<event>
 9    1  0.4370149E-036  0.1000116E+04  0.7818608E-02  0.8680927E-01
          1   -1    0    0  501    0  0.00000000000E+00  0.00000000000E+00  0.10720211486E+04  0.10720211486E+04  0.00000000000E+00 0.  1.
         -1   -1    0    0    0  501 -0.00000000000E+00 -0.00000000000E+00 -0.23325847044E+03  0.23325847044E+03  0.00000000000E+00 0.  1.
         36    2    1    2    0    0  0.71054273576E-14 -0.28421709430E-13  0.83876267821E+03  0.13052796191E+04  0.10001160201E+04 0.  0.
         25    2    3    3    0    0 -0.53769358036E+02 -0.12824345849E+03  0.12697998440E+03  0.22624249493E+03  0.12539625818E+03 0.  0.
         35    2    3    3    0    0  0.53769358036E+02  0.12824345849E+03  0.71178269381E+03  0.10790371242E+04  0.79896744839E+03 0.  0.
         22    1    5    5    0    0 -0.81324889419E+01 -0.32508554223E+03  0.43911577399E+03  0.54641505297E+03  0.00000000000E+00 0. -1.
         22    1    5    5    0    0  0.61901846978E+02  0.45332900072E+03  0.27266691982E+03  0.53262207119E+03  0.00000000000E+00 0. -1.
          5    1    4    4  502    0 -0.13231792636E+02 -0.14304225229E+03  0.10073669617E+03  0.17551677479E+03  0.47000000000E+01 0. -1.
         -5    1    4    4    0  502 -0.40537565401E+02  0.14798793805E+02  0.26243288223E+02  0.50725720138E+02  0.47000000000E+01 0. -1.
<mgrwt>
<rscale>  0 0.10001160E+04</rscale>
<asrwt>0</asrwt>
<pdfrwt beam="1">  1        1 0.16492633E+00 0.10001160E+04</pdfrwt>
<pdfrwt beam="2">  1       -1 0.35885919E-01 0.10001160E+04</pdfrwt>
<totfact> 0.10993353E+02</totfact>
</mgrwt>
</event>
<event>
 9    1  0.4370149E-036  0.9996485E+03  0.7818608E-02  0.8681373E-01
          2   -1    0    0  501    0  0.00000000000E+00  0.00000000000E+00  0.66023966039E+03  0.66023966039E+03  0.00000000000E+00 0.  1.
         -2   -1    0    0    0  501 -0.00000000000E+00 -0.00000000000E+00 -0.37838421188E+03  0.37838421188E+03  0.00000000000E+00 0.  1.
         36    2    1    2    0    0 -0.71054273576E-14 -0.28421709430E-13  0.28185544851E+03  0.10386238723E+04  0.99964846530E+03 0.  0.
         25    2    3    3    0    0  0.24302710642E+02  0.11330491842E+03  0.13739469276E+03  0.21840846097E+03  0.12408194042E+03 0.  0.
         35    2    3    3    0    0 -0.24302710642E+02 -0.11330491842E+03  0.14446075575E+03  0.82021541130E+03  0.79903428255E+03 0.  0.
         22    1    5    5    0    0 -0.72722435586E+02 -0.25002423265E+03  0.42842934494E+03  0.50135054917E+03  0.00000000000E+00 0. -1.
         22    1    5    5    0    0  0.48419724944E+02  0.13671931422E+03 -0.28396858920E+03  0.31886486212E+03  0.00000000000E+00 0. -1.
          5    1    4    4  502    0 -0.45328721968E+02  0.38009323936E+02  0.20388525564E+02  0.62746981728E+02  0.47000000000E+01 0. -1.
         -5    1    4    4    0  502  0.69631432609E+02  0.75295594486E+02  0.11700616720E+03  0.15566147924E+03  0.47000000000E+01 0. -1.
<mgrwt>
<rscale>  0 0.99964847E+03</rscale>
<asrwt>0</asrwt>
<pdfrwt beam="1">  1        2 0.10157533E+00 0.99964847E+03</pdfrwt>
<pdfrwt beam="2">  1       -2 0.58212956E-01 0.99964847E+03</pdfrwt>
<totfact> 0.14729624E+02</totfact>
</mgrwt>
</event>
<event>
 9    1  0.4370149E-036  0.9995491E+03  0.7818608E-02  0.8681467E-01
          2   -1    0    0  501    0  0.00000000000E+00  0.00000000000E+00  0.13410974155E+04  0.13410974155E+04  0.00000000000E+00 0. -1.
         -2   -1    0    0    0  501 -0.00000000000E+00 -0.00000000000E+00 -0.18624643176E+03  0.18624643176E+03  0.00000000000E+00 0. -1.
         36    2    1    2    0    0  0.00000000000E+00  0.00000000000E+00  0.11548509837E+04  0.15273438473E+04  0.99954911492E+03 0.  0.
         25    2    3    3    0    0  0.13160871014E+03 -0.36874703945E+02  0.24928997610E+03  0.31079664487E+03  0.12557255233E+03 0.  0.
         35    2    3    3    0    0 -0.13160871014E+03  0.36874703945E+02  0.90556100764E+03  0.12165472024E+04  0.80079070969E+03 0.  0.
         22    1    5    5    0    0 -0.68402971259E+02  0.41514605809E+03  0.55897658230E+03  0.69962849826E+03  0.00000000000E+00 0.  1.
         22    1    5    5    0    0 -0.63205738883E+02 -0.37827135415E+03  0.34658442535E+03  0.51691870414E+03  0.00000000000E+00 0.  1.
          5    1    4    4  502    0  0.56005439809E+02  0.27159114029E+02  0.17805427086E+03  0.18867866899E+03  0.47000000000E+01 0. -1.
         -5    1    4    4    0  502  0.75603270333E+02 -0.64033817973E+02  0.71235705247E+02  0.12211797587E+03  0.47000000000E+01 0. -1.
<mgrwt>
<rscale>  0 0.99954911E+03</rscale>
<asrwt>0</asrwt>
<pdfrwt beam="1">  1        2 0.20632267E+00 0.99954911E+03</pdfrwt>
<pdfrwt beam="2">  1       -2 0.28653298E-01 0.99954911E+03</pdfrwt>
<totfact> 0.20972432E+02</totfact>
</mgrwt>
</event>
<event>
 9    1  0.4370149E-036  0.9998897E+03  0.7818608E-02  0.8681143E-01
         -2   -1    0    0    0  501 -0.00000000000E+00  0.00000000000E+00  0.41466856080E+03  0.41466856080E+03  0.00000000000E+00 0. -1.
          2   -1    0    0  501    0  0.00000000000E+00 -0.00000000000E+00 -0.60275815262E+03  0.60275815262E+03  0.00000000000E+00 0. -1.
         36    2    1    2    0    0  0.46185277824E-13  0.00000000000E+00 -0.18808959182E+03  0.10174267134E+04  0.99988970523E+03 0.  0.
         25    2    3    3    0    0 -0.26501730203E+02 -0.13571502470E+03 -0.57859120937E+02  0.19547102999E+03  0.12546049601E+03 0.  0.
         35    2    3    3    0    0  0.26501730203E+02  0.13571502470E+03 -0.13023047088E+03  0.82195568343E+03  0.79970635882E+03 0.  0.
         22    1    5    5    0    0 -0.34947110989E+03 -0.70215182127E+02  0.44130575295E+02  0.35917646934E+03  0.00000000000E+00 0.  1.
         22    1    5    5    0    0  0.37597284009E+03  0.20593020682E+03 -0.17436104618E+03  0.46277921409E+03  0.00000000000E+00 0.  1.
          5    1    4    4  502    0 -0.49694735344E+02 -0.15038213131E+03 -0.44436687443E+02  0.16456324417E+03  0.47000000000E+01 0.  1.
         -5    1    4    4    0  502  0.23193005141E+02  0.14667106617E+02 -0.13422433494E+02  0.30907785829E+02  0.47000000000E+01 0.  1.
<mgrwt>
<rscale>  0 0.99988971E+03</rscale>
<asrwt>0</asrwt>
<pdfrwt beam="1">  1        2 0.92732024E-01 0.99988971E+03</pdfrwt>
<pdfrwt beam="2">  1       -2 0.63795163E-01 0.99988971E+03</pdfrwt>
<totfact> 0.13562323E+02</totfact>
</mgrwt>
</event>
<event>
 9    1  0.4370149E-036  0.9998856E+03  0.7818608E-02  0.8681147E-01
         -1   -1    0    0    0  501 -0.00000000000E+00  0.00000000000E+00  0.13298644503E+04  0.13298644503E+04  0.00000000000E+00 0.  1.
          1   -1    0    0  501    0  0.00000000000E+00 -0.00000000000E+00 -0.18794605975E+03  0.18794605975E+03  0.00000000000E+00 0.  1.
         36    2    1    2    0    0 -0.35527136788E-14  0.14210854715E-13  0.11419183906E+04  0.15178105100E+04  0.99988556031E+03 0.  0.
         25    2    3    3    0    0 -0.11964990180E+01  0.93681806714E+02  0.57103519443E+02  0.16732390882E+03  0.12632800960E+03 0.  0.
         35    2    3    3    0    0  0.11964990180E+01 -0.93681806714E+02  0.10848148711E+04  0.13504866012E+04  0.79888237119E+03 0.  0.
         22    1    5    5    0    0  0.15409346880E+02  0.20258012892E+03  0.10287653631E+04  0.10486345068E+04  0.00000000000E+00 0. -1.
         22    1    5    5    0    0 -0.14212847862E+02 -0.29626193564E+03  0.56049508029E+02  0.30185209441E+03  0.00000000000E+00 0. -1.
          5    1    4    4  502    0  0.39158607592E+02 -0.12108255170E+02  0.29409658849E+02  0.50665811209E+02  0.47000000000E+01 0.  1.
         -5    1    4    4    0  502 -0.40355106610E+02  0.10579006188E+03  0.27693860594E+02  0.11665809761E+03  0.47000000000E+01 0.  1.
<mgrwt>
<rscale>  0 0.99988556E+03</rscale>
<asrwt>0</asrwt>
<pdfrwt beam="1">  1        1 0.28914779E-01 0.99988556E+03</pdfrwt>
<pdfrwt beam="2">  1       -1 0.20459452E+00 0.99988556E+03</pdfrwt>
<totfact> 0.22960424E+01</totfact>
</mgrwt>
</event>
<event>
 9    1  0.4370149E-036  0.1000113E+04  0.7818608E-02  0.8680931E-01
          2   -1    0    0  501    0  0.00000000000E+00  0.00000000000E+00  0.14028299672E+04  0.14028299672E+04  0.00000000000E+00 0. -1.
         -2   -1    0    0    0  501 -0.00000000000E+00 -0.00000000000E+00 -0.17825134544E+03  0.17825134544E+03  0.00000000000E+00 0. -1.
         36    2    1    2    0    0 -0.10658141036E-13  0.00000000000E+00  0.12245786218E+04  0.15810813127E+04  0.10001126518E+04 0.  0.
         25    2    3    3    0    0 -0.31809914837E+02  0.13776042885E+03  0.24668704280E+03  0.31001986358E+03  0.12356379846E+03 0.  0.
         35    2    3    3    0    0  0.31809914837E+02 -0.13776042885E+03  0.97789157901E+03  0.12710614491E+04  0.79958455504E+03 0.  0.
         22    1    5    5    0    0 -0.16231704714E+03  0.26605821993E+03  0.19095605147E+03  0.36551062061E+03  0.00000000000E+00 0. -1.
         22    1    5    5    0    0  0.19412696198E+03 -0.40381864878E+03  0.78693552754E+03  0.90555082849E+03  0.00000000000E+00 0. -1.
          5    1    4    4  502    0 -0.20825711623E+02  0.65697906131E+02  0.22265025944E+03  0.23312046921E+03  0.47000000000E+01 0.  1.
         -5    1    4    4    0  502 -0.10984203214E+02  0.72062522719E+02  0.24036783364E+02  0.76899394376E+02  0.47000000000E+01 0.  1.
<mgrwt>
<rscale>  0 0.10001127E+04</rscale>
<asrwt>0</asrwt>
<pdfrwt beam="1">  1        2 0.21581999E+00 0.10001127E+04</pdfrwt>
<pdfrwt beam="2">  1       -2 0.27423285E-01 0.10001127E+04</pdfrwt>
<totfact> 0.20923538E+02</totfact>
</mgrwt>
</event>
<event>
 9    1  0.4370149E-036  0.9998861E+03  0.7818608E-02  0.8681146E-01
          2   -1    0    0  501    0  0.00000000000E+00  0.00000000000E+00  0.65472358825E+03  0.65472358825E+03  0.00000000000E+00 0.  1.
         -2   -1    0    0    0  501 -0.00000000000E+00 -0.00000000000E+00 -0.38175358010E+03  0.38175358010E+03  0.00000000000E+00 0.  1.
         36    2    1    2    0    0  0.00000000000E+00 -0.28421709430E-13  0.27297000815E+03  0.10364771684E+04  0.99988614111E+03 0.  0.
         25    2    3    3    0    0 -0.23463829609E+02  0.38617639542E+02  0.18862938711E+03  0.23067483463E+03  0.12485175317E+03 0.  0.
         35    2    3    3    0    0  0.23463829609E+02 -0.38617639542E+02  0.84340621043E+02  0.80580233372E+03  0.80010136064E+03 0.  0.
         22    1    5    5    0    0 -0.10140956341E+03 -0.27517680693E+03 -0.24455942835E+03  0.38185794298E+03  0.00000000000E+00 0. -1.
         22    1    5    5    0    0  0.12487339302E+03  0.23655916738E+03  0.32890004939E+03  0.42394439075E+03  0.00000000000E+00 0. -1.
          5    1    4    4  502    0 -0.38194501649E+02 -0.36152458407E+02  0.51701636069E+02  0.73898371953E+02  0.47000000000E+01 0.  1.
         -5    1    4    4    0  502  0.14730672040E+02  0.74770097950E+02  0.13692775104E+03  0.15677646268E+03  0.47000000000E+01 0.  1.
<mgrwt>
<rscale>  0 0.99988614E+03</rscale>
<asrwt>0</asrwt>
<pdfrwt beam="1">  1        2 0.10072671E+00 0.99988614E+03</pdfrwt>
<pdfrwt beam="2">  1       -2 0.58731320E-01 0.99988614E+03</pdfrwt>
<totfact> 0.14608692E+02</totfact>
</mgrwt>
</event>
<event>
 9    1  0.4370149E-036  0.1000371E+04  0.7818608E-02  0.8680685E-01
         -1   -1    0    0    0  501 -0.00000000000E+00  0.00000000000E+00  0.11619228093E+03  0.11619228093E+03  0.00000000000E+00 0.  1.
          1   -1    0    0  501    0  0.00000000000E+00 -0.00000000000E+00 -0.21532010875E+04  0.21532010875E+04  0.00000000000E+00 0.  1.
         36    2    1    2    0    0  0.14210854715E-13 -0.23092638912E-13 -0.20370088066E+04  0.22693933684E+04  0.10003706226E+04 0.  0.
         25    2    3    3    0    0  0.99682587288E+02  0.15840805086E+02 -0.16017282817E+03  0.22624691450E+03  0.12387405751E+03 0.  0.
         35    2    3    3    0    0 -0.99682587288E+02 -0.15840805086E+02 -0.18768359784E+04  0.20431464539E+04  0.80109087690E+03 0.  0.
         22    1    5    5    0    0 -0.22031698765E+03 -0.30027277969E+03 -0.15470505331E+04  0.15912475198E+04  0.00000000000E+00 0. -1.
         22    1    5    5    0    0  0.12063440036E+03  0.28443197460E+03 -0.32978544524E+03  0.45189893407E+03  0.00000000000E+00 0. -1.
          5    1    4    4  502    0  0.22244090185E+02 -0.42764619025E+00  0.19442379731E+02  0.29917863544E+02  0.47000000000E+01 0. -1.
         -5    1    4    4    0  502  0.77438497102E+02  0.16268451276E+02 -0.17961520790E+03  0.19632905096E+03  0.47000000000E+01 0. -1.
<mgrwt>
<rscale>  0 0.10003706E+04</rscale>
<asrwt>0</asrwt>
<pdfrwt beam="1">  1        1 0.33126170E+00 0.10003706E+04</pdfrwt>
<pdfrwt beam="2">  1       -1 0.17875736E-01 0.10003706E+04</pdfrwt>
<totfact> 0.59824379E+01</totfact>
</mgrwt>
</event>
<event>
 9    1  0.4370149E-036  0.1000076E+04  0.7818608E-02  0.8680965E-01
         -1   -1    0    0    0  501 -0.00000000000E+00  0.00000000000E+00  0.25661437165E+03  0.25661437165E+03  0.00000000000E+00 0. -1.
          1   -1    0    0  501    0  0.00000000000E+00 -0.00000000000E+00 -0.97437334576E+03  0.97437334576E+03  0.00000000000E+00 0. -1.
         36    2    1    2    0    0  0.71054273576E-14 -0.71054273576E-14 -0.71775897411E+03  0.12309877174E+04  0.10000764048E+04 0.  0.
         25    2    3    3    0    0 -0.49848446542E+02 -0.41858479519E+02  0.15654536268E+02  0.14346884009E+03  0.12689067594E+03 0.  0.
         35    2    3    3    0    0  0.49848446542E+02  0.41858479519E+02 -0.73341351038E+03  0.10875188773E+04  0.80035300422E+03 0.  0.
         22    1    5    5    0    0 -0.16916459724E+03 -0.11910265114E+03 -0.78418573396E+03  0.81101748922E+03  0.00000000000E+00 0. -1.
         22    1    5    5    0    0  0.21901304378E+03  0.16096113066E+03  0.50772223584E+02  0.27650138809E+03  0.00000000000E+00 0. -1.
          5    1    4    4  502    0 -0.62057104570E+02 -0.61284494612E+02  0.50943870595E+02  0.10111499127E+03  0.47000000000E+01 0. -1.
         -5    1    4    4    0  502  0.12208658028E+02  0.19426015093E+02 -0.35289334326E+02  0.42353848827E+02  0.47000000000E+01 0. -1.
<mgrwt>
<rscale>  0 0.10000764E+04</rscale>
<asrwt>0</asrwt>
<pdfrwt beam="1">  1        1 0.14990359E+00 0.10000764E+04</pdfrwt>
<pdfrwt beam="2">  1       -1 0.39479133E-01 0.10000764E+04</pdfrwt>
<totfact> 0.11091114E+02</totfact>
</mgrwt>
</event>
<event>
 9    1  0.4370149E-036  0.9997332E+03  0.7818608E-02  0.8681292E-01
         -1   -1    0    0    0  501 -0.00000000000E+00  0.00000000000E+00  0.35593431131E+03  0.35593431131E+03  0.00000000000E+00 0.  1.
          1   -1    0    0  501    0  0.00000000000E+00 -0.00000000000E+00 -0.70200207989E+03  0.70200207989E+03  0.00000000000E+00 0.  1.
         36    2    1    2    0    0 -0.14210854715E-13  0.28421709430E-13 -0.34606776858E+03  0.10579363912E+04  0.99973321810E+03 0.  0.
         25    2    3    3    0    0  0.36591438040E+02  0.85269560112E+02  0.46727059389E+02  0.16212471107E+03  0.12446353941E+03 0.  0.
         35    2    3    3    0    0 -0.36591438040E+02 -0.85269560112E+02 -0.39279482797E+03  0.89581168013E+03  0.79973805596E+03 0.  0.
         22    1    5    5    0    0 -0.34265938807E+03 -0.26974836762E+03 -0.13979492110E+03  0.45795442790E+03  0.00000000000E+00 0. -1.
         22    1    5    5    0    0  0.30606795003E+03  0.18447880750E+03 -0.25299990687E+03  0.43785725223E+03  0.00000000000E+00 0. -1.
          5    1    4    4  502    0  0.33725010053E+02 -0.13917138456E+02  0.50778768539E+02  0.62702762142E+02  0.47000000000E+01 0. -1.
         -5    1    4    4    0  502  0.28664279870E+01  0.99186698568E+02 -0.40517091495E+01  0.99421948932E+02  0.47000000000E+01 0. -1.
<mgrwt>
<rscale>  0 0.99973322E+03</rscale>
<asrwt>0</asrwt>
<pdfrwt beam="1">  1        1 0.10800032E+00 0.99973322E+03</pdfrwt>
<pdfrwt beam="2">  1       -1 0.54759125E-01 0.99973322E+03</pdfrwt>
<totfact> 0.10511393E+02</totfact>
</mgrwt>
</event>
<event>
 9    1  0.4370149E-036  0.9996192E+03  0.7818608E-02  0.8681401E-01
          1   -1    0    0  501    0  0.00000000000E+00  0.00000000000E+00  0.87295252498E+03  0.87295252498E+03  0.00000000000E+00 0.  1.
         -1   -1    0    0    0  501 -0.00000000000E+00 -0.00000000000E+00 -0.28616635742E+03  0.28616635742E+03  0.00000000000E+00 0.  1.
         36    2    1    2    0    0  0.00000000000E+00  0.00000000000E+00  0.58678616756E+03  0.11591188824E+04  0.99961921605E+03 0.  0.
         25    2    3    3    0    0 -0.16284496010E+02  0.13891306435E+03  0.12501932046E+03  0.22541112686E+03  0.12497328261E+03 0.  0.
         35    2    3    3    0    0  0.16284496010E+02 -0.13891306435E+03  0.46176684710E+03  0.93370775554E+03  0.79938696976E+03 0.  0.
         22    1    5    5    0    0  0.95122074321E+02 -0.37381050433E+03  0.54905969579E+03  0.67100599976E+03  0.00000000000E+00 0. -1.
         22    1    5    5    0    0 -0.78837578311E+02  0.23489743998E+03 -0.87292848688E+02  0.26270175579E+03  0.00000000000E+00 0. -1.
          5    1    4    4  502    0 -0.55214163579E+02  0.38329391797E+02  0.10785812159E+02  0.68236133237E+02  0.47000000000E+01 0.  1.
         -5    1    4    4    0  502  0.38929667569E+02  0.10058367255E+03  0.11423350830E+03  0.15717499362E+03  0.47000000000E+01 0.  1.
<mgrwt>
<rscale>  0 0.99961922E+03</rscale>
<asrwt>0</asrwt>
<pdfrwt beam="1">  1        1 0.13430039E+00 0.99961922E+03</pdfrwt>
<pdfrwt beam="2">  1       -1 0.44025594E-01 0.99961922E+03</pdfrwt>
<totfact> 0.11056629E+02</totfact>
</mgrwt>
</event>
<event>
 9    1  0.4370149E-036  0.1000339E+04  0.7818608E-02  0.8680715E-01
         -2   -1    0    0    0  501 -0.00000000000E+00  0.00000000000E+00  0.16456075266E+03  0.16456075266E+03  0.00000000000E+00 0.  1.
          2   -1    0    0  501    0  0.00000000000E+00 -0.00000000000E+00 -0.15202268665E+04  0.15202268665E+04  0.00000000000E+00 0.  1.
         36    2    1    2    0    0  0.14210854715E-13 -0.28421709430E-13 -0.13556661138E+04  0.16847876191E+04  0.10003392972E+04 0.  0.
         25    2    3    3    0    0  0.25829296267E+02  0.12906472535E+03 -0.17325072809E+03  0.25095447453E+03  0.12504990054E+03 0.  0.
         35    2    3    3    0    0 -0.25829296267E+02 -0.12906472535E+03 -0.11824153857E+04  0.14338331446E+04  0.80027900530E+03 0.  0.
         22    1    5    5    0    0  0.26946758762E+03  0.16078940896E+03 -0.21148147052E+03  0.37840510988E+03  0.00000000000E+00 0.  1.
         22    1    5    5    0    0 -0.29529688388E+03 -0.28985413432E+03 -0.97093391519E+03  0.10554280347E+04  0.00000000000E+00 0.  1.
          5    1    4    4  502    0  0.50813507586E+02  0.13298491200E+03 -0.17443586812E+03  0.22520426608E+03  0.47000000000E+01 0. -1.
         -5    1    4    4    0  502 -0.24984211319E+02 -0.39201866485E+01  0.11851400215E+01  0.25750208455E+02  0.47000000000E+01 0. -1.
<mgrwt>
<rscale>  0 0.10003393E+04</rscale>
<asrwt>0</asrwt>
<pdfrwt beam="1">  1        2 0.23388107E+00 0.10003393E+04</pdfrwt>
<pdfrwt beam="2">  1       -2 0.25317038E-01 0.10003393E+04</pdfrwt>
<totfact> 0.20700298E+02</totfact>
</mgrwt>
</event>
<event>
 9    1  0.4370149E-036  0.9997527E+03  0.7818608E-02  0.8681273E-01
          1   -1    0    0  501    0  0.00000000000E+00  0.00000000000E+00  0.67475797170E+03  0.67475797170E+03  0.00000000000E+00 0. -1.
         -1   -1    0    0    0  501 -0.00000000000E+00 -0.00000000000E+00 -0.37032002220E+03  0.37032002220E+03  0.00000000000E+00 0. -1.
         36    2    1    2    0    0  0.28421709430E-13  0.28421709430E-13  0.30443794950E+03  0.10450779939E+04  0.99975274355E+03 0.  0.
         25    2    3    3    0    0  0.65165161778E+02 -0.79715260520E+02  0.15611415514E+03  0.22497250876E+03  0.12505990242E+03 0.  0.
         35    2    3    3    0    0 -0.65165161778E+02  0.79715260520E+02  0.14832379436E+03  0.82010548514E+03  0.79998252337E+03 0.  0.
         22    1    5    5    0    0  0.29340527392E+03  0.27134568376E+03  0.61065822818E+02  0.40428228946E+03  0.00000000000E+00 0. -1.
         22    1    5    5    0    0 -0.35857043569E+03 -0.19163042324E+03  0.87257971546E+02  0.41582319568E+03  0.00000000000E+00 0. -1.
          5    1    4    4  502    0  0.32984456548E+02 -0.53318840939E+02 -0.47873257265E+00  0.62874417354E+02  0.47000000000E+01 0.  1.
         -5    1    4    4    0  502  0.32180705230E+02 -0.26396419581E+02  0.15659288771E+03  0.16209809141E+03  0.47000000000E+01 0.  1.
<mgrwt>
<rscale>  0 0.99975274E+03</rscale>
<asrwt>0</asrwt>
<pdfrwt beam="1">  1        1 0.10380892E+00 0.99975274E+03</pdfrwt>
<pdfrwt beam="2">  1       -1 0.56972311E-01 0.99975274E+03</pdfrwt>
<totfact> 0.10360241E+02</totfact>
</mgrwt>
</event>
<event>
 9    1  0.4370149E-036  0.1000197E+04  0.7818608E-02  0.8680850E-01
         -2   -1    0    0    0  501 -0.00000000000E+00  0.00000000000E+00  0.41846209960E+03  0.41846209960E+03  0.00000000000E+00 0.  1.
          2   -1    0    0  501    0  0.00000000000E+00 -0.00000000000E+00 -0.59766161463E+03  0.59766161463E+03  0.00000000000E+00 0.  1.
         36    2    1    2    0    0 -0.14210854715E-13 -0.71054273576E-14 -0.17919951503E+03  0.10161237142E+04  0.10001974487E+04 0.  0.
         25    2    3    3    0    0 -0.41614651215E+02 -0.21448817728E+02 -0.16727574221E+03  0.21462667966E+03  0.12606191619E+03 0.  0.
         35    2    3    3    0    0  0.41614651215E+02  0.21448817728E+02 -0.11923772821E+02  0.80149703457E+03  0.80003967970E+03 0.  0.
         22    1    5    5    0    0  0.64169648490E+02 -0.12537349321E+03 -0.37963328971E+03  0.40491689424E+03  0.00000000000E+00 0.  1.
         22    1    5    5    0    0 -0.22554997276E+02  0.14682231093E+03  0.36770951689E+03  0.39658014033E+03  0.00000000000E+00 0.  1.
          5    1    4    4  502    0 -0.66454428329E+02 -0.58883205518E+02 -0.10303647495E+03  0.13609565793E+03  0.47000000000E+01 0. -1.
         -5    1    4    4    0  502  0.24839777115E+02  0.37434387791E+02 -0.64239267257E+02  0.78531021731E+02  0.47000000000E+01 0. -1.
<mgrwt>
<rscale>  0 0.10001974E+04</rscale>
<asrwt>0</asrwt>
<pdfrwt beam="1">  1        2 0.91947941E-01 0.10001974E+04</pdfrwt>
<pdfrwt beam="2">  1       -2 0.64378785E-01 0.10001974E+04</pdfrwt>
<totfact> 0.13437462E+02</totfact>
</mgrwt>
</event>
<event>
 9    1  0.4370149E-036  0.9995527E+03  0.7818608E-02  0.8681464E-01
          1   -1    0    0  501    0  0.00000000000E+00  0.00000000000E+00  0.64758973448E+03  0.64758973448E+03  0.00000000000E+00 0.  1.
         -1   -1    0    0    0  501 -0.00000000000E+00 -0.00000000000E+00 -0.38570161621E+03  0.38570161621E+03  0.00000000000E+00 0.  1.
         36    2    1    2    0    0  0.00000000000E+00 -0.35527136788E-13  0.26188811827E+03  0.10332913507E+04  0.99955271443E+03 0.  0.
         25    2    3    3    0    0 -0.74736712439E+02 -0.31921383774E+02  0.16926992723E+03  0.22557815973E+03  0.12501458697E+03 0.  0.
         35    2    3    3    0    0  0.74736712439E+02  0.31921383774E+02  0.92618191044E+02  0.80771319096E+03  0.79825930537E+03 0.  0.
         22    1    5    5    0    0  0.24380926431E+03 -0.24209335071E+03 -0.17814161556E+03  0.38702271641E+03  0.00000000000E+00 0.  1.
         22    1    5    5    0    0 -0.16907255187E+03  0.27401473449E+03  0.27075980660E+03  0.42069047456E+03  0.00000000000E+00 0.  1.
          5    1    4    4  502    0 -0.56407607499E+02 -0.15599267308E+02  0.18630322374E+03  0.19533595803E+03  0.47000000000E+01 0.  1.
         -5    1    4    4    0  502 -0.18329104940E+02 -0.16322116466E+02 -0.17033296510E+02  0.30242201703E+02  0.47000000000E+01 0.  1.
<mgrwt>
<rscale>  0 0.99955271E+03</rscale>
<asrwt>0</asrwt>
<pdfrwt beam="1">  1        1 0.99629190E-01 0.99955271E+03</pdfrwt>
<pdfrwt beam="2">  1       -1 0.59338710E-01 0.99955271E+03</pdfrwt>
<totfact> 0.10198790E+02</totfact>
</mgrwt>
</event>
<event>
 9    1  0.4370149E-036  0.9999998E+03  0.7818608E-02  0.8681038E-01
          2   -1    0    0  501    0  0.00000000000E+00  0.00000000000E+00  0.28280458645E+04  0.28280458645E+04  0.00000000000E+00 0.  1.
         -2   -1    0    0    0  501 -0.00000000000E+00 -0.00000000000E+00 -0.88400223673E+02  0.88400223673E+02  0.00000000000E+00 0.  1.
         36    2    1    2    0    0  0.00000000000E+00  0.14210854715E-13  0.27396456408E+04  0.29164460881E+04  0.99999977395E+03 0.  0.
         25    2    3    3    0    0 -0.49569882156E+02 -0.68218890148E+02  0.18764603125E+03  0.24055428868E+03  0.12467695283E+03 0.  0.
         35    2    3    3    0    0  0.49569882156E+02  0.68218890148E+02  0.25519996095E+04  0.26758917995E+04  0.80036487001E+03 0.  0.
         22    1    5    5    0    0  0.41659511358E+03  0.42650282852E+01  0.10825542687E+04  0.11599540611E+04  0.00000000000E+00 0.  1.
         22    1    5    5    0    0 -0.36702523142E+03  0.63953861863E+02  0.14694453409E+04  0.15159377384E+04  0.00000000000E+00 0.  1.
          5    1    4    4  502    0 -0.81650168087E+02 -0.85959893514E+01  0.11161343513E+03  0.13863726008E+03  0.47000000000E+01 0.  1.
         -5    1    4    4    0  502  0.32080285930E+02 -0.59622900797E+02  0.76032596126E+02  0.10191702860E+03  0.47000000000E+01 0.  1.
<mgrwt>
<rscale>  0 0.99999977E+03</rscale>
<asrwt>0</asrwt>
<pdfrwt beam="1">  1        2 0.43508391E+00 0.99999977E+03</pdfrwt>
<pdfrwt beam="2">  1       -2 0.13600037E-01 0.99999977E+03</pdfrwt>
<totfact> 0.10218927E+02</totfact>
</mgrwt>
</event>
<event>
 9    1  0.4370149E-036  0.1000048E+04  0.7818608E-02  0.8680992E-01
          2   -1    0    0  501    0  0.00000000000E+00  0.00000000000E+00  0.25053431759E+04  0.25053431759E+04  0.00000000000E+00 0. -1.
         -2   -1    0    0    0  501 -0.00000000000E+00 -0.00000000000E+00 -0.99796277532E+02  0.99796277532E+02  0.00000000000E+00 0. -1.
         36    2    1    2    0    0 -0.28421709430E-13  0.14210854715E-13  0.24055468983E+04  0.26051394534E+04  0.10000478446E+04 0.  0.
         25    2    3    3    0    0 -0.59289774317E+01 -0.73289555560E+02  0.76775736157E+03  0.78185443831E+03  0.12821265432E+03 0.  0.
         35    2    3    3    0    0  0.59289774317E+01  0.73289555560E+02  0.16377895368E+04  0.18232850151E+04  0.79787666202E+03 0.  0.
         22    1    5    5    0    0 -0.33740625883E+03  0.11080146364E+03  0.38508944705E+03  0.52384523485E+03  0.00000000000E+00 0.  1.
         22    1    5    5    0    0  0.34333523626E+03 -0.37511908077E+02  0.12527000897E+04  0.12994397802E+04  0.00000000000E+00 0.  1.
          5    1    4    4  502    0 -0.40867876665E+02 -0.93541160333E+02  0.62961159030E+03  0.63785027762E+03  0.47000000000E+01 0.  1.
         -5    1    4    4    0  502  0.34938899234E+02  0.20251604773E+02  0.13814577127E+03  0.14400416069E+03  0.47000000000E+01 0.  1.
<mgrwt>
<rscale>  0 0.10000478E+04</rscale>
<asrwt>0</asrwt>
<pdfrwt beam="1">  1        2 0.38543736E+00 0.10000478E+04</pdfrwt>
<pdfrwt beam="2">  1       -2 0.15353275E-01 0.10000478E+04</pdfrwt>
<totfact> 0.13291978E+02</totfact>
</mgrwt>
</event>
<event>
 9    1  0.4370149E-036  0.9986977E+03  0.7818608E-02  0.8682279E-01
          2   -1    0    0  501    0  0.00000000000E+00  0.00000000000E+00  0.11475081511E+04  0.11475081511E+04  0.00000000000E+00 0.  1.
         -2   -1    0    0    0  501 -0.00000000000E+00 -0.00000000000E+00 -0.21729631671E+03  0.21729631671E+03  0.00000000000E+00 0.  1.
         36    2    1    2    0    0 -0.28421709430E-13  0.00000000000E+00  0.93021183436E+03  0.13648044678E+04  0.99869774131E+03 0.  0.
         25    2    3    3    0    0  0.69630250781E+01 -0.13997174417E+03  0.19255228003E+03  0.26901760810E+03  0.12511402814E+03 0.  0.
         35    2    3    3    0    0 -0.69630250781E+01  0.13997174417E+03  0.73765955433E+03  0.10957868597E+04  0.79810190507E+03 0.  0.
         22    1    5    5    0    0 -0.36761158894E+03  0.20703999658E+03  0.26792823602E+03  0.49978933578E+03  0.00000000000E+00 0.  1.
         22    1    5    5    0    0  0.36064856386E+03 -0.67068252414E+02  0.46973131831E+03  0.59599752390E+03  0.00000000000E+00 0.  1.
          5    1    4    4  502    0 -0.56388687730E+02 -0.41111678192E+02  0.63320911134E+02  0.94347665443E+02  0.47000000000E+01 0.  1.
         -5    1    4    4    0  502  0.63351712808E+02 -0.98860065974E+02  0.12923136889E+03  0.17466994265E+03  0.47000000000E+01 0.  1.
<mgrwt>
<rscale>  0 0.99869774E+03</rscale>
<asrwt>0</asrwt>
<pdfrwt beam="1">  1        2 0.17653971E+00 0.99869774E+03</pdfrwt>
<pdfrwt beam="2">  1       -2 0.33430203E-01 0.99869774E+03</pdfrwt>
<totfact> 0.20537319E+02</totfact>
</mgrwt>
</event>
<event>
 9    1  0.4370149E-036  0.1000390E+04  0.7818608E-02  0.8680667E-01
          2   -1    0    0  501    0  0.00000000000E+00  0.00000000000E+00  0.37867496285E+03  0.37867496285E+03  0.00000000000E+00 0.  1.
         -2   -1    0    0    0  501 -0.00000000000E+00 -0.00000000000E+00 -0.66071165682E+03  0.66071165682E+03  0.00000000000E+00 0.  1.
         36    2    1    2    0    0  0.00000000000E+00 -0.14210854715E-13 -0.28203669397E+03  0.10393866197E+04  0.10003898482E+04 0.  0.
         25    2    3    3    0    0 -0.12285937438E+03  0.34179425336E+01  0.15731733148E+02  0.17585676174E+03  0.12478784002E+03 0.  0.
         35    2    3    3    0    0  0.12285937438E+03 -0.34179425336E+01 -0.29776842712E+03  0.86352985793E+03  0.80119390359E+03 0.  0.
         22    1    5    5    0    0  0.18155234399E+03  0.15123821380E+03 -0.52891095846E+03  0.57929358092E+03  0.00000000000E+00 0.  1.
         22    1    5    5    0    0 -0.58692969608E+02 -0.15465615633E+03  0.23114253134E+03  0.28423627701E+03  0.00000000000E+00 0.  1.
          5    1    4    4  502    0 -0.10399047456E+03  0.48389757146E+02 -0.18242181377E+02  0.11623448102E+03  0.47000000000E+01 0. -1.
         -5    1    4    4    0  502 -0.18868899814E+02 -0.44971814612E+02  0.33973914526E+02  0.59622280717E+02  0.47000000000E+01 0. -1.
<mgrwt>
<rscale>  0 0.10003898E+04</rscale>
<asrwt>0</asrwt>
<pdfrwt beam="1">  1        2 0.58257687E-01 0.10003898E+04</pdfrwt>
<pdfrwt beam="2">  1       -2 0.10164795E+00 0.10003898E+04</pdfrwt>
<totfact> 0.79732546E+01</totfact>
</mgrwt>
</event>
<event>
 9    1  0.4370149E-036  0.1000879E+04  0.7818608E-02  0.8680202E-01
         -1   -1    0    0    0  501 -0.00000000000E+00  0.00000000000E+00  0.12316940754E+03  0.12316940754E+03  0.00000000000E+00 0.  1.
          1   -1    0    0  501    0  0.00000000000E+00 -0.00000000000E+00 -0.20332930124E+04  0.20332930124E+04  0.00000000000E+00 0.  1.
         36    2    1    2    0    0  0.71054273576E-14  0.28421709430E-13 -0.19101236048E+04  0.21564624199E+04  0.10008786054E+04 0.  0.
         25    2    3    3    0    0 -0.56602866372E+01  0.13302740356E+03 -0.25438875338E+03  0.31278238692E+03  0.12405988384E+03 0.  0.
         35    2    3    3    0    0  0.56602866372E+01 -0.13302740356E+03 -0.16557348515E+04  0.18436800330E+04  0.79998114779E+03 0.  0.
         22    1    5    5    0    0  0.24402119000E+03 -0.17671961548E+03 -0.15504700028E+04  0.15794725047E+04  0.00000000000E+00 0.  1.
         22    1    5    5    0    0 -0.23836090337E+03  0.43692211924E+02 -0.10526484869E+03  0.26420752829E+03  0.00000000000E+00 0.  1.
          5    1    4    4  502    0 -0.54910357998E+02  0.32347647343E+02 -0.13264764194E+03  0.14723791840E+03  0.47000000000E+01 0. -1.
         -5    1    4    4    0  502  0.49250071361E+02  0.10067975622E+03 -0.12174111145E+03  0.16554446852E+03  0.47000000000E+01 0. -1.
<mgrwt>
<rscale>  0 0.10008786E+04</rscale>
<asrwt>0</asrwt>
<pdfrwt beam="1">  1        1 0.31281429E+00 0.10008786E+04</pdfrwt>
<pdfrwt beam="2">  1       -1 0.18949141E-01 0.10008786E+04</pdfrwt>
<totfact> 0.65977470E+01</totfact>
</mgrwt>
</event>
<event>
 9    1  0.4370149E-036  0.1003390E+04  0.7818608E-02  0.8677816E-01
          2   -1    0    0  501    0  0.00000000000E+00  0.00000000000E+00  0.33872595499E+04  0.33872595499E+04  0.00000000000E+00 0. -1.
         -2   -1    0    0    0  501 -0.00000000000E+00 -0.00000000000E+00 -0.74307244923E+02  0.74307244923E+02  0.00000000000E+00 0. -1.
         36    2    1    2    0    0  0.00000000000E+00  0.00000000000E+00  0.33129523050E+04  0.34615667949E+04  0.10033901036E+04 0.  0.
         25    2    3    3    0    0 -0.60218650879E+02  0.95334596530E+02  0.33216577834E+03  0.37245913405E+03  0.12520675312E+03 0.  0.
         35    2    3    3    0    0  0.60218650879E+02 -0.95334596530E+02  0.29807865267E+04  0.30891076608E+04  0.80298371793E+03 0.  0.
         22    1    5    5    0    0  0.19015334808E+03  0.91086398928E+02  0.27735869616E+04  0.27815894128E+04  0.00000000000E+00 0. -1.
         22    1    5    5    0    0 -0.12993469720E+03 -0.18642099546E+03  0.20719956504E+03  0.30751824797E+03  0.00000000000E+00 0. -1.
          5    1    4    4  502    0 -0.58740720100E+01 -0.26842881317E+02  0.25115216557E+02  0.37522114840E+02  0.47000000000E+01 0. -1.
         -5    1    4    4    0  502 -0.54344578869E+02  0.12217747785E+03  0.30705056179E+03  0.33493701921E+03  0.47000000000E+01 0. -1.
<mgrwt>
<rscale>  0 0.10033901E+04</rscale>
<asrwt>0</asrwt>
<pdfrwt beam="1">  1        2 0.52111673E+00 0.10033901E+04</pdfrwt>
<pdfrwt beam="2">  1       -2 0.11431886E-01 0.10033901E+04</pdfrwt>
<totfact> 0.56277203E+01</totfact>
</mgrwt>
</event>
<event>
 9    1  0.4370149E-036  0.9993684E+03  0.7818608E-02  0.8681640E-01
         -2   -1    0    0    0  501 -0.00000000000E+00  0.00000000000E+00  0.28678956802E+03  0.28678956802E+03  0.00000000000E+00 0. -1.
          2   -1    0    0  501    0  0.00000000000E+00 -0.00000000000E+00 -0.87061856691E+03  0.87061856691E+03  0.00000000000E+00 0. -1.
         36    2    1    2    0    0  0.14210854715E-13  0.00000000000E+00 -0.58382899889E+03  0.11574081349E+04  0.99936844599E+03 0.  0.
         25    2    3    3    0    0 -0.90305558767E+02 -0.41364453263E+02  0.46593270134E+01  0.15998886393E+03  0.12533401500E+03 0.  0.
         35    2    3    3    0    0  0.90305558767E+02  0.41364453263E+02 -0.58848832590E+03  0.99741927099E+03  0.79916242434E+03 0.  0.
         22    1    5    5    0    0  0.28685591955E+03  0.43247709640E+01 -0.70835173953E+03  0.76424289929E+03  0.00000000000E+00 0.  1.
         22    1    5    5    0    0 -0.19655036078E+03  0.37039682299E+02  0.11986341363E+03  0.23317637169E+03  0.00000000000E+00 0.  1.
          5    1    4    4  502    0 -0.10945838770E+03 -0.13884778144E+00  0.20811820790E+02  0.11151851775E+03  0.47000000000E+01 0.  1.
         -5    1    4    4    0  502  0.19152828938E+02 -0.41225605482E+02 -0.16152493776E+02  0.48470346181E+02  0.47000000000E+01 0.  1.
<mgrwt>
<rscale>  0 0.99936845E+03</rscale>
<asrwt>0</asrwt>
<pdfrwt beam="1">  1        2 0.13394132E+00 0.99936845E+03</pdfrwt>
<pdfrwt beam="2">  1       -2 0.44121473E-01 0.99936845E+03</pdfrwt>
<totfact> 0.18100651E+02</totfact>
</mgrwt>
</event>
<event>
 9    1  0.4370149E-036  0.1000570E+04  0.7818608E-02  0.8680495E-01
          2   -1    0    0  501    0  0.00000000000E+00  0.00000000000E+00  0.24739380260E+04  0.24739380260E+04  0.00000000000E+00 0. -1.
         -2   -1    0    0    0  501 -0.00000000000E+00 -0.00000000000E+00 -0.10116875928E+03  0.10116875928E+03  0.00000000000E+00 0. -1.
         36    2    1    2    0    0  0.14210854715E-13  0.14210854715E-13  0.23727692667E+04  0.25751067853E+04  0.10005703186E+04 0.  0.
         25    2    3    3    0    0 -0.20056280690E+01  0.43551250484E+02  0.10271063598E+03  0.16778912225E+03  0.12531153514E+03 0.  0.
         35    2    3    3    0    0  0.20056280690E+01 -0.43551250484E+02  0.22700586307E+04  0.24073176630E+04  0.80006962809E+03 0.  0.
         22    1    5    5    0    0 -0.10359870824E+03  0.11940126763E+03  0.21925482236E+04  0.21982395384E+04  0.00000000000E+00 0. -1.
         22    1    5    5    0    0  0.10560433631E+03 -0.16295251812E+03  0.77510407117E+02  0.20907812468E+03  0.00000000000E+00 0. -1.
          5    1    4    4  502    0 -0.44092674537E+02  0.33095303720E+02 -0.93419633694E+00  0.55339188636E+02  0.47000000000E+01 0. -1.
         -5    1    4    4    0  502  0.42087046468E+02  0.10455946764E+02  0.10364483232E+03  0.11244993361E+03  0.47000000000E+01 0. -1.
<mgrwt>
<rscale>  0 0.10005703E+04</rscale>
<asrwt>0</asrwt>
<pdfrwt beam="1">  1        2 0.38060581E+00 0.10005703E+04</pdfrwt>
<pdfrwt beam="2">  1       -2 0.15564426E-01 0.10005703E+04</pdfrwt>
<totfact> 0.13573493E+02</totfact>
</mgrwt>
</event>
<event>
 9    1  0.4370149E-036  0.1000086E+04  0.7818608E-02  0.8680956E-01
         -2   -1    0    0    0  501 -0.00000000000E+00  0.00000000000E+00  0.42096668528E+03  0.42096668528E+03  0.00000000000E+00 0.  1.
          2   -1    0    0  501    0  0.00000000000E+00 -0.00000000000E+00 -0.59397374408E+03  0.59397374408E+03  0.00000000000E+00 0.  1.
         36    2    1    2    0    0 -0.14210854715E-13  0.14210854715E-13 -0.17300705880E+03  0.10149404294E+04  0.10000863127E+04 0.  0.
         25    2    3    3    0    0  0.60056789781E+02 -0.78268263308E+02 -0.13817096972E+03  0.20918272842E+03  0.12220252844E+03 0.  0.
         35    2    3    3    0    0 -0.60056789781E+02  0.78268263308E+02 -0.34836089076E+02  0.80575770094E+03  0.79893628061E+03 0.  0.
         22    1    5    5    0    0  0.37018262030E+03  0.18629851283E+02 -0.15999596092E+02  0.37099626792E+03  0.00000000000E+00 0. -1.
         22    1    5    5    0    0 -0.43023941008E+03  0.59638412025E+02 -0.18836492984E+02  0.43476143302E+03  0.00000000000E+00 0. -1.
          5    1    4    4  502    0  0.67068142286E+02 -0.10254468452E+03 -0.82285744823E+02  0.14767051782E+03  0.47000000000E+01 0.  1.
         -5    1    4    4    0  502 -0.70113525056E+01  0.24276421214E+02 -0.55885224899E+02  0.61512210600E+02  0.47000000000E+01 0.  1.
<mgrwt>
<rscale>  0 0.10000863E+04</rscale>
<asrwt>0</asrwt>
<pdfrwt beam="1">  1        2 0.91380576E-01 0.10000863E+04</pdfrwt>
<pdfrwt beam="2">  1       -2 0.64764106E-01 0.10000863E+04</pdfrwt>
<totfact> 0.13365797E+02</totfact>
</mgrwt>
</event>
<event>
 9    1  0.4370149E-036  0.1000155E+04  0.7818608E-02  0.8680890E-01
          2   -1    0    0  501    0  0.00000000000E+00  0.00000000000E+00  0.50149590227E+03  0.50149590227E+03  0.00000000000E+00 0.  1.
         -2   -1    0    0    0  501 -0.00000000000E+00 -0.00000000000E+00 -0.49866328292E+03  0.49866328292E+03  0.00000000000E+00 0.  1.
         36    2    1    2    0    0  0.00000000000E+00 -0.14210854715E-13  0.28326193533E+01  0.10001591852E+04  0.10001551740E+04 0.  0.
         25    2    3    3    0    0 -0.70903873736E+02 -0.11977800632E+03 -0.16373954164E+02  0.18786065342E+03  0.12509751644E+03 0.  0.
         35    2    3    3    0    0  0.70903873736E+02  0.11977800632E+03  0.19206573517E+02  0.81229853177E+03  0.80005367454E+03 0.  0.
         22    1    5    5    0    0  0.72682115572E+02 -0.33719499623E+03  0.71714270986E+02  0.35231533045E+03  0.00000000000E+00 0. -1.
         22    1    5    5    0    0 -0.17782418358E+01  0.45697300255E+03 -0.52507697469E+02  0.45998320132E+03  0.00000000000E+00 0. -1.
          5    1    4    4  502    0 -0.80993937787E+02 -0.57476428703E+02 -0.55090931830E+02  0.11366907488E+03  0.47000000000E+01 0. -1.
         -5    1    4    4    0  502  0.10090064051E+02 -0.62301577619E+02  0.38716977666E+02  0.74191578538E+02  0.47000000000E+01 0. -1.
<mgrwt>
<rscale>  0 0.10001552E+04</rscale>
<asrwt>0</asrwt>
<pdfrwt beam="1">  1        2 0.77153216E-01 0.10001552E+04</pdfrwt>
<pdfrwt beam="2">  1       -2 0.76717428E-01 0.10001552E+04</pdfrwt>
<totfact> 0.11247850E+02</totfact>
</mgrwt>
</event>
<event>
 9    1  0.4370149E-036  0.9995962E+03  0.7818608E-02  0.8681423E-01
         -2   -1    0    0    0  501 -0.00000000000E+00  0.00000000000E+00  0.16063937254E+03  0.16063937254E+03  0.00000000000E+00 0.  1.
          2   -1    0    0  501    0  0.00000000000E+00 -0.00000000000E+00 -0.15550242518E+04  0.15550242518E+04  0.00000000000E+00 0.  1.
         36    2    1    2    0    0  0.28421709430E-13  0.00000000000E+00 -0.13943848793E+04  0.17156636244E+04  0.99959615866E+03 0.  0.
         25    2    3    3    0    0 -0.10314254756E+03  0.34960023039E+02 -0.10876052574E+03  0.19753246901E+03  0.12381290734E+03 0.  0.
         35    2    3    3    0    0  0.10314254756E+03 -0.34960023039E+02 -0.12856243535E+04  0.15181311553E+04  0.80001977358E+03 0.  0.
         22    1    5    5    0    0 -0.34456818416E+03  0.33768706693E+02 -0.45158230038E+03  0.56902911446E+03  0.00000000000E+00 0. -1.
         22    1    5    5    0    0  0.44771073173E+03 -0.68728729732E+02 -0.83404205316E+03  0.94910204089E+03  0.00000000000E+00 0. -1.
          5    1    4    4  502    0 -0.99108986272E+02  0.65558713782E+02 -0.11529486484E+03  0.16563674704E+03  0.47000000000E+01 0. -1.
         -5    1    4    4    0  502 -0.40335612926E+01 -0.30598690743E+02  0.65343391055E+01  0.31895721961E+02  0.47000000000E+01 0. -1.
<mgrwt>
<rscale>  0 0.99959616E+03</rscale>
<asrwt>0</asrwt>
<pdfrwt beam="1">  1        2 0.23923450E+00 0.99959616E+03</pdfrwt>
<pdfrwt beam="2">  1       -2 0.24713750E-01 0.99959616E+03</pdfrwt>
<totfact> 0.20648400E+02</totfact>
</mgrwt>
</event>
<event>
 9    1  0.4370149E-036  0.9999138E+03  0.7818608E-02  0.8681120E-01
          1   -1    0    0  501    0  0.00000000000E+00  0.00000000000E+00  0.46861902542E+03  0.46861902542E+03  0.00000000000E+00 0.  1.
         -1   -1    0    0    0  501 -0.00000000000E+00 -0.00000000000E+00 -0.53339038059E+03  0.53339038059E+03  0.00000000000E+00 0.  1.
         36    2    1    2    0    0  0.00000000000E+00  0.71054273576E-14 -0.64771355165E+02  0.10020094060E+04  0.99991375692E+03 0.  0.
         25    2    3    3    0    0 -0.34915742811E+02  0.47769808206E+02  0.11698839794E+03  0.18123080184E+03  0.12512895193E+03 0.  0.
         35    2    3    3    0    0  0.34915742811E+02 -0.47769808206E+02 -0.18175975310E+03  0.82077860417E+03  0.79821040180E+03 0.  0.
         22    1    5    5    0    0  0.16339748664E+03 -0.82820933332E+02 -0.46935889325E+03  0.50384106255E+03  0.00000000000E+00 0. -1.
         22    1    5    5    0    0 -0.12848174383E+03  0.35051125126E+02  0.28759914015E+03  0.31693754162E+03  0.00000000000E+00 0. -1.
          5    1    4    4  502    0 -0.73931890182E+01 -0.28948242951E+02  0.90469003473E+02  0.95390725981E+02  0.47000000000E+01 0. -1.
         -5    1    4    4    0  502 -0.27522553793E+02  0.76718051157E+02  0.26519394464E+02  0.85840075858E+02  0.47000000000E+01 0. -1.
<mgrwt>
<rscale>  0 0.99991376E+03</rscale>
<asrwt>0</asrwt>
<pdfrwt beam="1">  1        1 0.72095235E-01 0.99991376E+03</pdfrwt>
<pdfrwt beam="2">  1       -1 0.82060058E-01 0.99991376E+03</pdfrwt>
<totfact> 0.84778464E+01</totfact>
</mgrwt>
</event>
<event>
 9    1  0.4370149E-036  0.1000407E+04  0.7818608E-02  0.8680651E-01
          2   -1    0    0  501    0  0.00000000000E+00  0.00000000000E+00  0.46452134971E+03  0.46452134971E+03  0.00000000000E+00 0.  1.
         -2   -1    0    0    0  501 -0.00000000000E+00 -0.00000000000E+00 -0.53862642998E+03  0.53862642998E+03  0.00000000000E+00 0.  1.
         36    2    1    2    0    0  0.00000000000E+00 -0.71054273576E-14 -0.74105080267E+02  0.10031477797E+04  0.10004068697E+04 0.  0.
         25    2    3    3    0    0 -0.12697920291E+03  0.62450413281E+02 -0.14620385376E+02  0.18889886491E+03  0.12427893387E+03 0.  0.
         35    2    3    3    0    0  0.12697920291E+03 -0.62450413281E+02 -0.59484694891E+02  0.81424891478E+03  0.79964935703E+03 0.  0.
         22    1    5    5    0    0 -0.33858636980E+03 -0.72638101518E+02 -0.18870415204E+02  0.34680414671E+03  0.00000000000E+00 0.  1.
         22    1    5    5    0    0  0.46556557271E+03  0.10187688237E+02 -0.40614279687E+02  0.46744476807E+03  0.00000000000E+00 0.  1.
          5    1    4    4  502    0 -0.12836719536E+03  0.77998620208E+02 -0.42876964971E+02  0.15627682402E+03  0.47000000000E+01 0. -1.
         -5    1    4    4    0  502  0.13879924498E+01 -0.15548206927E+02  0.28256579595E+02  0.32622040894E+02  0.47000000000E+01 0. -1.
<mgrwt>
<rscale>  0 0.10004069E+04</rscale>
<asrwt>0</asrwt>
<pdfrwt beam="1">  1        2 0.71464823E-01 0.10004069E+04</pdfrwt>
<pdfrwt beam="2">  1       -2 0.82865604E-01 0.10004069E+04</pdfrwt>
<totfact> 0.10287794E+02</totfact>
</mgrwt>
</event>
<event>
 9    1  0.4370149E-036  0.1000374E+04  0.7818608E-02  0.8680682E-01
          2   -1    0    0  501    0  0.00000000000E+00  0.00000000000E+00  0.41336317984E+03  0.41336317984E+03  0.00000000000E+00 0.  1.
         -2   -1    0    0    0  501 -0.00000000000E+00 -0.00000000000E+00 -0.60524729602E+03  0.60524729602E+03  0.00000000000E+00 0.  1.
         36    2    1    2    0    0 -0.14210854715E-13 -0.14210854715E-13 -0.19188411617E+03  0.10186104759E+04  0.10003738239E+04 0.  0.
         25    2    3    3    0    0  0.11874754194E+03 -0.46449511965E+02 -0.11547396800E+03  0.21279581883E+03  0.12525688543E+03 0.  0.
         35    2    3    3    0    0 -0.11874754194E+03  0.46449511965E+02 -0.76410148177E+02  0.80581465703E+03  0.79198498399E+03 0.  0.
         22    1    5    5    0    0  0.32852412234E+03  0.86192662463E+02  0.39854466515E+02  0.34197317515E+03  0.00000000000E+00 0.  1.
         22    1    5    5    0    0 -0.44727166428E+03 -0.39743150499E+02 -0.11626461469E+03  0.46384148188E+03  0.00000000000E+00 0.  1.
          5    1    4    4  502    0  0.30884117328E+02  0.17921899889E+02  0.18157642867E+02  0.40333772365E+02  0.47000000000E+01 0.  1.
         -5    1    4    4    0  502  0.87863424613E+02 -0.64371411853E+02 -0.13363161086E+03  0.17246204646E+03  0.47000000000E+01 0.  1.
<mgrwt>
<rscale>  0 0.10003738E+04</rscale>
<asrwt>0</asrwt>
<pdfrwt beam="1">  1        2 0.63594335E-01 0.10003738E+04</pdfrwt>
<pdfrwt beam="2">  1       -2 0.93114969E-01 0.10003738E+04</pdfrwt>
<totfact> 0.89274112E+01</totfact>
</mgrwt>
</event>
<event>
 9    1  0.4370149E-036  0.9995336E+03  0.7818608E-02  0.8681482E-01
         -2   -1    0    0    0  501 -0.00000000000E+00  0.00000000000E+00  0.19982895994E+03  0.19982895994E+03  0.00000000000E+00 0. -1.
          2   -1    0    0  501    0  0.00000000000E+00 -0.00000000000E+00 -0.12499031166E+04  0.12499031166E+04  0.00000000000E+00 0. -1.
         36    2    1    2    0    0 -0.71054273576E-14  0.14210854715E-13 -0.10500741566E+04  0.14497320765E+04  0.99953357085E+03 0.  0.
         25    2    3    3    0    0 -0.54356306279E+02 -0.90355015201E+02 -0.65269039609E+02  0.17657282591E+03  0.12569518095E+03 0.  0.
         35    2    3    3    0    0  0.54356306279E+02  0.90355015201E+02 -0.98480511702E+03  0.12731592506E+04  0.79998420116E+03 0.  0.
         22    1    5    5    0    0  0.28526232981E+03 -0.14227417567E+03 -0.10715612848E+03  0.33630190862E+03  0.00000000000E+00 0. -1.
         22    1    5    5    0    0 -0.23090602353E+03  0.23262919087E+03 -0.87764898854E+03  0.93685734198E+03  0.00000000000E+00 0. -1.
          5    1    4    4  502    0  0.11339253656E+02  0.24139470897E+02 -0.28824148722E+02  0.39550148903E+02  0.47000000000E+01 0. -1.
         -5    1    4    4    0  502 -0.65695559935E+02 -0.11449448610E+03 -0.36444890887E+02  0.13702267701E+03  0.47000000000E+01 0. -1.
<mgrwt>
<rscale>  0 0.99953357E+03</rscale>
<asrwt>0</asrwt>
<pdfrwt beam="1">  1        2 0.19229278E+00 0.99953357E+03</pdfrwt>
<pdfrwt beam="2">  1       -2 0.30742917E-01 0.99953357E+03</pdfrwt>
<totfact> 0.20842912E+02</totfact>
</mgrwt>
</event>
<event>
 9    1  0.4370149E-036  0.1000147E+04  0.7818608E-02  0.8680898E-01
          2   -1    0    0  501    0  0.00000000000E+00  0.00000000000E+00  0.10777734937E+04  0.10777734937E+04  0.00000000000E+00 0.  1.
         -2   -1    0    0    0  501 -0.00000000000E+00 -0.00000000000E+00 -0.23202803099E+03  0.23202803099E+03  0.00000000000E+00 0.  1.
         36    2    1    2    0    0  0.56843418861E-13  0.00000000000E+00  0.84574546268E+03  0.13098015247E+04  0.10001473123E+04 0.  0.
         25    2    3    3    0    0 -0.66576536463E+02  0.48496928846E+02  0.30717115605E+03  0.34212623708E+03  0.12614220418E+03 0.  0.
         35    2    3    3    0    0  0.66576536463E+02 -0.48496928846E+02  0.53857430662E+03  0.96767528757E+03  0.79971794472E+03 0.  0.
         22    1    5    5    0    0  0.34188438595E+03 -0.78751805370E+02 -0.12344553831E+02  0.35105436646E+03  0.00000000000E+00 0.  1.
         22    1    5    5    0    0 -0.27530784948E+03  0.30254876524E+02  0.55091886046E+03  0.61662092111E+03  0.00000000000E+00 0.  1.
          5    1    4    4  502    0 -0.10140830808E+03  0.29513530726E+02  0.25768666666E+03  0.27853043212E+03  0.47000000000E+01 0. -1.
         -5    1    4    4    0  502  0.34831771617E+02  0.18983398120E+02  0.49484489388E+02  0.63595804957E+02  0.47000000000E+01 0. -1.
<mgrwt>
<rscale>  0 0.10001473E+04</rscale>
<asrwt>0</asrwt>
<pdfrwt beam="1">  1        2 0.16581130E+00 0.10001473E+04</pdfrwt>
<pdfrwt beam="2">  1       -2 0.35696621E-01 0.10001473E+04</pdfrwt>
<totfact> 0.20027365E+02</totfact>
</mgrwt>
</event>
<event>
 9    1  0.4370149E-036  0.9999035E+03  0.7818608E-02  0.8681130E-01
         -2   -1    0    0    0  501 -0.00000000000E+00  0.00000000000E+00  0.45395162465E+03  0.45395162465E+03  0.00000000000E+00 0. -1.
          2   -1    0    0  501    0  0.00000000000E+00 -0.00000000000E+00 -0.55061317137E+03  0.55061317137E+03  0.00000000000E+00 0. -1.
         36    2    1    2    0    0  0.15987211555E-13  0.14210854715E-13 -0.96661546713E+02  0.10045647960E+04  0.99990348274E+03 0.  0.
         25    2    3    3    0    0 -0.12371784614E+02  0.27236502250E+02  0.12079620137E+03  0.17605749324E+03  0.12453766719E+03 0.  0.
         35    2    3    3    0    0  0.12371784614E+02 -0.27236502250E+02 -0.21745774808E+03  0.82850730278E+03  0.79890023811E+03 0.  0.
         22    1    5    5    0    0 -0.25337323069E+03 -0.25271268779E+03 -0.30384394872E+03  0.46944950929E+03  0.00000000000E+00 0.  1.
         22    1    5    5    0    0  0.26574501530E+03  0.22547618555E+03  0.86386200632E+02  0.35905779349E+03  0.00000000000E+00 0.  1.
          5    1    4    4  502    0 -0.93294624327E+01 -0.45564799529E+02  0.18274084719E+02  0.50191851905E+02  0.47000000000E+01 0.  1.
         -5    1    4    4    0  502 -0.30423221810E+01  0.72801301778E+02  0.10252211665E+03  0.12586564133E+03  0.47000000000E+01 0.  1.
<mgrwt>
<rscale>  0 0.99990348E+03</rscale>
<asrwt>0</asrwt>
<pdfrwt beam="1">  1        2 0.84709719E-01 0.99990348E+03</pdfrwt>
<pdfrwt beam="2">  1       -2 0.69838711E-01 0.99990348E+03</pdfrwt>
<totfact> 0.12423981E+02</totfact>
</mgrwt>
</event>
<event>
 9    1  0.4370149E-036  0.1000193E+04  0.7818608E-02  0.8680854E-01
         -1   -1    0    0    0  501 -0.00000000000E+00  0.00000000000E+00  0.22501147395E+03  0.22501147395E+03  0.00000000000E+00 0.  1.
          1   -1    0    0  501    0  0.00000000000E+00 -0.00000000000E+00 -0.11114844418E+04  0.11114844418E+04  0.00000000000E+00 0.  1.
         36    2    1    2    0    0  0.00000000000E+00 -0.14210854715E-13 -0.88647296786E+03  0.13364959158E+04  0.10001934863E+04 0.  0.
         25    2    3    3    0    0 -0.87880287556E+02 -0.89078581353E+02 -0.24780401252E+03  0.30451153590E+03  0.12514994317E+03 0.  0.
         35    2    3    3    0    0  0.87880287556E+02  0.89078581353E+02 -0.63866895534E+03  0.10319843799E+04  0.80089686425E+03 0.  0.
         22    1    5    5    0    0 -0.40448313932E+02 -0.10712380315E+03 -0.75960487294E+03  0.76818691625E+03  0.00000000000E+00 0.  1.
         22    1    5    5    0    0  0.12832860149E+03  0.19620238450E+03  0.12093591760E+03  0.26379746361E+03  0.00000000000E+00 0.  1.
          5    1    4    4  502    0 -0.45502999711E+01 -0.93160775511E+02 -0.12830653453E+03  0.15869559580E+03  0.47000000000E+01 0. -1.
         -5    1    4    4    0  502 -0.83329987585E+02  0.40821941579E+01 -0.11949747799E+03  0.14581594009E+03  0.47000000000E+01 0. -1.
<mgrwt>
<rscale>  0 0.10001935E+04</rscale>
<asrwt>0</asrwt>
<pdfrwt beam="1">  1        1 0.17099761E+00 0.10001935E+04</pdfrwt>
<pdfrwt beam="2">  1       -1 0.34617150E-01 0.10001935E+04</pdfrwt>
<totfact> 0.10915952E+02</totfact>
</mgrwt>
</event>
<event>
 9    1  0.4370149E-036  0.1000456E+04  0.7818608E-02  0.8680604E-01
          2   -1    0    0  501    0  0.00000000000E+00  0.00000000000E+00  0.18105388144E+04  0.18105388144E+04  0.00000000000E+00 0.  1.
         -2   -1    0    0    0  501 -0.00000000000E+00 -0.00000000000E+00 -0.13820633162E+03  0.13820633162E+03  0.00000000000E+00 0.  1.
         36    2    1    2    0    0  0.00000000000E+00  0.00000000000E+00  0.16723324827E+04  0.19487451460E+04  0.10004557517E+04 0.  0.
         25    2    3    3    0    0 -0.13880572263E+03 -0.23433492320E+02  0.31782854078E+03  0.36948487757E+03  0.12525149190E+03 0.  0.
         35    2    3    3    0    0  0.13880572263E+03  0.23433492320E+02  0.13545039420E+04  0.15792602684E+04  0.79972864734E+03 0.  0.
         22    1    5    5    0    0  0.31722095505E+03  0.24478999468E+03  0.11788058954E+04  0.12450440213E+04  0.00000000000E+00 0. -1.
         22    1    5    5    0    0 -0.17841523242E+03 -0.22135650236E+03  0.17569804655E+03  0.33421624715E+03  0.00000000000E+00 0. -1.
          5    1    4    4  502    0 -0.10563448574E+03  0.32703135763E+02  0.25852068813E+03  0.28121731073E+03  0.47000000000E+01 0.  1.
         -5    1    4    4    0  502 -0.33171236889E+02 -0.56136628083E+02  0.59307852651E+02  0.88267566837E+02  0.47000000000E+01 0.  1.
<mgrwt>
<rscale>  0 0.10004558E+04</rscale>
<asrwt>0</asrwt>
<pdfrwt beam="1">  1        2 0.27854442E+00 0.10004558E+04</pdfrwt>
<pdfrwt beam="2">  1       -2 0.21262514E-01 0.10004558E+04</pdfrwt>
<totfact> 0.19300583E+02</totfact>
</mgrwt>
</event>
<event>
 9    1  0.4370149E-036  0.9945914E+03  0.7818608E-02  0.8686206E-01
         -2   -1    0    0    0  501 -0.00000000000E+00  0.00000000000E+00  0.99764106292E+02  0.99764106292E+02  0.00000000000E+00 0.  1.
          2   -1    0    0  501    0  0.00000000000E+00 -0.00000000000E+00 -0.24788774513E+04  0.24788774513E+04  0.00000000000E+00 0.  1.
         36    2    1    2    0    0 -0.42632564146E-13 -0.35527136788E-14 -0.23791133450E+04  0.25786415576E+04  0.99459136038E+03 0.  0.
         25    2    3    3    0    0  0.59670223102E+02  0.59246729010E+01 -0.12152837706E+03  0.18430606575E+03  0.12491574028E+03 0.  0.
         35    2    3    3    0    0 -0.59670223102E+02 -0.59246729010E+01 -0.22575849679E+04  0.23943354918E+04  0.79533447221E+03 0.  0.
         22    1    5    5    0    0 -0.42312519361E+03 -0.58170864795E+02 -0.13216469439E+04  0.13889454357E+04  0.00000000000E+00 0.  1.
         22    1    5    5    0    0  0.36345497051E+03  0.52246191894E+02 -0.93593802401E+03  0.10053900561E+04  0.00000000000E+00 0.  1.
          5    1    4    4  502    0  0.96682810650E+01 -0.16750356913E+02  0.22533632690E+02  0.30065008194E+02  0.47000000000E+01 0.  1.
         -5    1    4    4    0  502  0.50001942037E+02  0.22675029814E+02 -0.14406200975E+03  0.15424105756E+03  0.47000000000E+01 0.  1.
<mgrwt>
<rscale>  0 0.99459136E+03</rscale>
<asrwt>0</asrwt>
<pdfrwt beam="1">  1        2 0.38136575E+00 0.99459136E+03</pdfrwt>
<pdfrwt beam="2">  1       -2 0.15348325E-01 0.99459136E+03</pdfrwt>
<totfact> 0.13802500E+02</totfact>
</mgrwt>
</event>
<event>
 9    1  0.4370149E-036  0.9989777E+03  0.7818608E-02  0.8682012E-01
         -2   -1    0    0    0  501 -0.00000000000E+00  0.00000000000E+00  0.16403283616E+03  0.16403283616E+03  0.00000000000E+00 0. -1.
          2   -1    0    0  501    0  0.00000000000E+00 -0.00000000000E+00 -0.15209703951E+04  0.15209703951E+04  0.00000000000E+00 0. -1.
         36    2    1    2    0    0  0.21316282073E-13  0.00000000000E+00 -0.13569375589E+04  0.16850032312E+04  0.99897765264E+03 0.  0.
         25    2    3    3    0    0  0.23222118813E+02  0.12489195593E+03 -0.15832174010E+03  0.23850235190E+03  0.12522112846E+03 0.  0.
         35    2    3    3    0    0 -0.23222118813E+02 -0.12489195593E+03 -0.11986158188E+04  0.14465008793E+04  0.79971722837E+03 0.  0.
         22    1    5    5    0    0  0.13882631968E+03  0.28636320834E+03 -0.75929200128E+03  0.82328669207E+03  0.00000000000E+00 0. -1.
         22    1    5    5    0    0 -0.16204843850E+03 -0.41125516427E+03 -0.43932381753E+03  0.62321418726E+03  0.00000000000E+00 0. -1.
          5    1    4    4  502    0  0.33676427940E+01  0.14749207891E+03 -0.13646044671E+03  0.20101939676E+03  0.47000000000E+01 0.  1.
         -5    1    4    4    0  502  0.19854476019E+02 -0.22600122981E+02 -0.21861293394E+02  0.37482955134E+02  0.47000000000E+01 0.  1.
<mgrwt>
<rscale>  0 0.99897765E+03</rscale>
<asrwt>0</asrwt>
<pdfrwt beam="1">  1        2 0.23399544E+00 0.99897765E+03</pdfrwt>
<pdfrwt beam="2">  1       -2 0.25235821E-01 0.99897765E+03</pdfrwt>
<totfact> 0.20798763E+02</totfact>
</mgrwt>
</event>
<event>
 9    1  0.4370149E-036  0.9996627E+03  0.7818608E-02  0.8681359E-01
         -2   -1    0    0    0  501 -0.00000000000E+00  0.00000000000E+00  0.24653415012E+03  0.24653415012E+03  0.00000000000E+00 0. -1.
          2   -1    0    0  501    0  0.00000000000E+00 -0.00000000000E+00 -0.10133744174E+04  0.10133744174E+04  0.00000000000E+00 0. -1.
         36    2    1    2    0    0  0.28421709430E-13 -0.14210854715E-13 -0.76684026732E+03  0.12599085676E+04  0.99966274465E+03 0.  0.
         25    2    3    3    0    0 -0.10515977686E+03 -0.89070161554E+02 -0.11673533458E+03  0.21886463428E+03  0.12362247956E+03 0.  0.
         35    2    3    3    0    0  0.10515977686E+03  0.89070161554E+02 -0.65010493274E+03  0.10410439333E+04  0.80133886409E+03 0.  0.
         22    1    5    5    0    0 -0.28950763065E+03  0.62149942430E+02 -0.19644972144E+02  0.29675445823E+03  0.00000000000E+00 0. -1.
         22    1    5    5    0    0  0.39466740751E+03  0.26920219124E+02 -0.63045996060E+03  0.74428947505E+03  0.00000000000E+00 0. -1.
          5    1    4    4  502    0  0.11426881763E+02 -0.55574170596E+02 -0.66356664681E+02  0.87432025093E+02  0.47000000000E+01 0.  1.
         -5    1    4    4    0  502 -0.11658665862E+03 -0.33495990957E+02 -0.50378669897E+02  0.13143260919E+03  0.47000000000E+01 0.  1.
<mgrwt>
<rscale>  0 0.99966274E+03</rscale>
<asrwt>0</asrwt>
<pdfrwt beam="1">  1        2 0.15590375E+00 0.99966274E+03</pdfrwt>
<pdfrwt beam="2">  1       -2 0.37928331E-01 0.99966274E+03</pdfrwt>
<totfact> 0.19579871E+02</totfact>
</mgrwt>
</event>
<event>
 9    1  0.4370149E-036  0.1000315E+04  0.7818608E-02  0.8680738E-01
          2   -1    0    0  501    0  0.00000000000E+00  0.00000000000E+00  0.15948073162E+04  0.15948073162E+04  0.00000000000E+00 0. -1.
         -2   -1    0    0    0  501 -0.00000000000E+00 -0.00000000000E+00 -0.15685766461E+03  0.15685766461E+03  0.00000000000E+00 0. -1.
         36    2    1    2    0    0  0.35527136788E-14  0.00000000000E+00  0.14379496515E+04  0.17516649808E+04  0.10003154525E+04 0.  0.
         25    2    3    3    0    0 -0.13178764750E+02 -0.13207029431E+03  0.18873882178E+03  0.26240064677E+03  0.12496205065E+03 0.  0.
         35    2    3    3    0    0  0.13178764750E+02  0.13207029431E+03  0.12492108298E+04  0.14892643340E+04  0.79985268442E+03 0.  0.
         22    1    5    5    0    0  0.19521354349E+03 -0.28930231966E+03  0.47917423216E+03  0.59280022309E+03  0.00000000000E+00 0.  1.
         22    1    5    5    0    0 -0.18203477874E+03  0.42137261397E+03  0.77003659761E+03  0.89646411090E+03  0.00000000000E+00 0.  1.
          5    1    4    4  502    0 -0.15828203298E+02 -0.13391883931E+03  0.20485745551E+03  0.24530278151E+03  0.47000000000E+01 0.  1.
         -5    1    4    4    0  502  0.26494385473E+01  0.18485449981E+01 -0.16118633730E+02  0.17097865263E+02  0.47000000000E+01 0.  1.
<mgrwt>
<rscale>  0 0.10003155E+04</rscale>
<asrwt>0</asrwt>
<pdfrwt beam="1">  1        2 0.24535496E+00 0.10003155E+04</pdfrwt>
<pdfrwt beam="2">  1       -2 0.24131950E-01 0.10003155E+04</pdfrwt>
<totfact> 0.20452046E+02</totfact>
</mgrwt>
</event>
<event>
 9    1  0.4370149E-036  0.1000137E+04  0.7818608E-02  0.8680907E-01
         -3   -1    0    0    0  501 -0.00000000000E+00  0.00000000000E+00  0.66709253750E+02  0.66709253750E+02  0.00000000000E+00 0. -1.
          3   -1    0    0  501    0  0.00000000000E+00 -0.00000000000E+00 -0.37486351764E+04  0.37486351764E+04  0.00000000000E+00 0. -1.
         36    2    1    2    0    0  0.00000000000E+00  0.71054273576E-14 -0.36819259226E+04  0.38153444301E+04  0.10001373010E+04 0.  0.
         25    2    3    3    0    0  0.64089610294E+02  0.12737112819E+02 -0.11690990501E+04  0.11774510543E+04  0.12380906245E+03 0.  0.
         35    2    3    3    0    0 -0.64089610294E+02 -0.12737112819E+02 -0.25128268725E+04  0.26378933758E+04  0.79994553512E+03 0.  0.
         22    1    5    5    0    0  0.92920879728E+02 -0.21231089013E+03 -0.18576192686E+03  0.29701464178E+03  0.00000000000E+00 0. -1.
         22    1    5    5    0    0 -0.15701049002E+03  0.19957377731E+03 -0.23270649456E+04  0.23408787341E+04  0.00000000000E+00 0. -1.
          5    1    4    4  502    0 -0.23597065136E+02  0.39925522718E+02 -0.47739544429E+03  0.47966589318E+03  0.47000000000E+01 0.  1.
         -5    1    4    4    0  502  0.87686675431E+02 -0.27188409899E+02 -0.69170360586E+03  0.69778516109E+03  0.47000000000E+01 0.  1.
<mgrwt>
<rscale>  0 0.10001373E+04</rscale>
<asrwt>0</asrwt>
<pdfrwt beam="1">  1        3 0.57671321E+00 0.10001373E+04</pdfrwt>
<pdfrwt beam="2">  1       -3 0.10262960E-01 0.10001373E+04</pdfrwt>
<totfact> 0.18862250E+00</totfact>
</mgrwt>
</event>
<event>
 9    1  0.4370149E-036  0.9997601E+03  0.7818608E-02  0.8681266E-01
         -1   -1    0    0    0  501 -0.00000000000E+00  0.00000000000E+00  0.31329450252E+03  0.31329450252E+03  0.00000000000E+00 0. -1.
          1   -1    0    0  501    0  0.00000000000E+00 -0.00000000000E+00 -0.79758840092E+03  0.79758840092E+03  0.00000000000E+00 0. -1.
         36    2    1    2    0    0 -0.71054273576E-14  0.00000000000E+00 -0.48429389840E+03  0.11108829034E+04  0.99976009379E+03 0.  0.
         25    2    3    3    0    0  0.53987972764E+01  0.43647637551E+02 -0.23852262610E+03  0.27282905697E+03  0.12493353388E+03 0.  0.
         35    2    3    3    0    0 -0.53987972764E+01 -0.43647637551E+02 -0.24577127230E+03  0.83805384648E+03  0.79999779252E+03 0.  0.
         22    1    5    5    0    0  0.39518992477E+03 -0.16392040798E+01 -0.84156351171E+02  0.40405451993E+03  0.00000000000E+00 0.  1.
         22    1    5    5    0    0 -0.40058872205E+03 -0.42008433471E+02 -0.16161492113E+03  0.43399932655E+03  0.00000000000E+00 0.  1.
          5    1    4    4  502    0 -0.17123161846E+02 -0.12513365460E+02 -0.19949166385E+03  0.20067087714E+03  0.47000000000E+01 0.  1.
         -5    1    4    4    0  502  0.22521959123E+02  0.56161003011E+02 -0.39030962252E+02  0.72158179829E+02  0.47000000000E+01 0.  1.
<mgrwt>
<rscale>  0 0.99976009E+03</rscale>
<asrwt>0</asrwt>
<pdfrwt beam="1">  1        1 0.12270591E+00 0.99976009E+03</pdfrwt>
<pdfrwt beam="2">  1       -1 0.48199154E-01 0.99976009E+03</pdfrwt>
<totfact> 0.10891376E+02</totfact>
</mgrwt>
</event>
<event>
 9    1  0.4370149E-036  0.1001307E+04  0.7818608E-02  0.8679795E-01
          1   -1    0    0  501    0  0.00000000000E+00  0.00000000000E+00  0.21763824926E+04  0.21763824926E+04  0.00000000000E+00 0. -1.
         -1   -1    0    0    0  501 -0.00000000000E+00 -0.00000000000E+00 -0.11516992508E+03  0.11516992508E+03  0.00000000000E+00 0. -1.
         36    2    1    2    0    0  0.14210854715E-13 -0.14210854715E-13  0.20612125675E+04  0.22915524177E+04  0.10013067634E+04 0.  0.
         25    2    3    3    0    0 -0.51024726102E+02 -0.76270045551E+02  0.64225922181E+03  0.66064946776E+03  0.12466021306E+03 0.  0.
         35    2    3    3    0    0  0.51024726102E+02  0.76270045551E+02  0.14189533457E+04  0.16309029499E+04  0.79874601236E+03 0.  0.
         22    1    5    5    0    0  0.27777593748E+03  0.28111071189E+03  0.11756539445E+04  0.12403003269E+04  0.00000000000E+00 0.  1.
         22    1    5    5    0    0 -0.22675121137E+03 -0.20484066634E+03  0.24329940117E+03  0.39060262295E+03  0.00000000000E+00 0.  1.
          5    1    4    4  502    0  0.72610567128E+01 -0.52891188618E+02  0.52340904756E+03  0.52614572302E+03  0.47000000000E+01 0.  1.
         -5    1    4    4    0  502 -0.58285782815E+02 -0.23378856933E+02  0.11885017425E+03  0.13450374474E+03  0.47000000000E+01 0.  1.
<mgrwt>
<rscale>  0 0.10013068E+04</rscale>
<asrwt>0</asrwt>
<pdfrwt beam="1">  1        1 0.33482805E+00 0.10013068E+04</pdfrwt>
<pdfrwt beam="2">  1       -1 0.17718452E-01 0.10013068E+04</pdfrwt>
<totfact> 0.58459899E+01</totfact>
</mgrwt>
</event>
<event>
 9    1  0.4370149E-036  0.1000385E+04  0.7818608E-02  0.8680671E-01
         -1   -1    0    0    0  501 -0.00000000000E+00  0.00000000000E+00  0.42298008109E+03  0.42298008109E+03  0.00000000000E+00 0.  1.
          1   -1    0    0  501    0  0.00000000000E+00 -0.00000000000E+00 -0.59149984047E+03  0.59149984047E+03  0.00000000000E+00 0.  1.
         36    2    1    2    0    0  0.00000000000E+00  0.28421709430E-13 -0.16851975938E+03  0.10144799216E+04  0.10003852268E+04 0.  0.
         25    2    3    3    0    0  0.31280706752E+02 -0.72561486412E+02  0.85717939289E+02  0.16834333554E+03  0.12144242084E+03 0.  0.
         35    2    3    3    0    0 -0.31280706752E+02  0.72561486412E+02 -0.25423769867E+03  0.84613658602E+03  0.80316042161E+03 0.  0.
         22    1    5    5    0    0  0.87522567433E+02 -0.35093997566E+03 -0.16396409210E+03  0.39711873517E+03  0.00000000000E+00 0.  1.
         22    1    5    5    0    0 -0.11880327418E+03  0.42350146207E+03 -0.90273606574E+02  0.44901785085E+03  0.00000000000E+00 0.  1.
          5    1    4    4  502    0  0.53642718828E+02 -0.94699203263E+02  0.48126270914E+02  0.11909537495E+03  0.47000000000E+01 0.  1.
         -5    1    4    4    0  502 -0.22362012077E+02  0.22137716851E+02  0.37591668375E+02  0.49247960594E+02  0.47000000000E+01 0.  1.
<mgrwt>
<rscale>  0 0.10003852E+04</rscale>
<asrwt>0</asrwt>
<pdfrwt beam="1">  1        1 0.90999976E-01 0.10003852E+04</pdfrwt>
<pdfrwt beam="2">  1       -1 0.65073859E-01 0.10003852E+04</pdfrwt>
<totfact> 0.97535451E+01</totfact>
</mgrwt>
</event>
<event>
 9    1  0.4370149E-036  0.1000331E+04  0.7818608E-02  0.8680722E-01
          1   -1    0    0  501    0  0.00000000000E+00  0.00000000000E+00  0.73841423708E+03  0.73841423708E+03  0.00000000000E+00 0.  1.
         -1   -1    0    0    0  501 -0.00000000000E+00 -0.00000000000E+00 -0.33878773811E+03  0.33878773811E+03  0.00000000000E+00 0.  1.
         36    2    1    2    0    0 -0.28421709430E-13 -0.21316282073E-13  0.39962649896E+03  0.10772019752E+04  0.10003313234E+04 0.  0.
         25    2    3    3    0    0  0.12715105709E+03 -0.59378394990E+02  0.70323435116E+02  0.20069563417E+03  0.12506065303E+03 0.  0.
         35    2    3    3    0    0 -0.12715105709E+03  0.59378394990E+02  0.32930306385E+03  0.87650634102E+03  0.80008104145E+03 0.  0.
         22    1    5    5    0    0 -0.37939264993E+03  0.27708618949E+03  0.25717687679E+03  0.53558891435E+03  0.00000000000E+00 0.  1.
         22    1    5    5    0    0  0.25224159284E+03 -0.21770779450E+03  0.72126187058E+02  0.34091742667E+03  0.00000000000E+00 0.  1.
          5    1    4    4  502    0  0.13559396432E+03 -0.59809635694E+02  0.20194820952E+02  0.14964236190E+03  0.47000000000E+01 0.  1.
         -5    1    4    4    0  502 -0.84429072321E+01  0.43124070455E+00  0.50128614164E+02  0.51053272266E+02  0.47000000000E+01 0.  1.
<mgrwt>
<rscale>  0 0.10003313E+04</rscale>
<asrwt>0</asrwt>
<pdfrwt beam="1">  1        1 0.11360219E+00 0.10003313E+04</pdfrwt>
<pdfrwt beam="2">  1       -1 0.52121191E-01 0.10003313E+04</pdfrwt>
<totfact> 0.10657840E+02</totfact>
</mgrwt>
</event>
<event>
 9    1  0.4370149E-036  0.9916261E+03  0.7818608E-02  0.8689054E-01
         -2   -1    0    0    0  501 -0.00000000000E+00  0.00000000000E+00  0.12692665984E+03  0.12692665984E+03  0.00000000000E+00 0.  1.
          2   -1    0    0  501    0  0.00000000000E+00 -0.00000000000E+00 -0.19367921760E+04  0.19367921760E+04  0.00000000000E+00 0.  1.
         36    2    1    2    0    0 -0.14210854715E-13 -0.44408920985E-13 -0.18098655162E+04  0.20637188358E+04  0.99162606200E+03 0.  0.
         25    2    3    3    0    0  0.10929951612E+03  0.13702788869E+02 -0.47759470461E+03  0.50577215459E+03  0.12479831666E+03 0.  0.
         35    2    3    3    0    0 -0.10929951612E+03 -0.13702788869E+02 -0.13322708116E+04  0.15579466813E+04  0.80007386889E+03 0.  0.
         22    1    5    5    0    0 -0.15925558510E+02 -0.39889208991E+03 -0.80261304872E+03  0.89641297892E+03  0.00000000000E+00 0.  1.
         22    1    5    5    0    0 -0.93373957607E+02  0.38518930104E+03 -0.52965776283E+03  0.66153370234E+03  0.00000000000E+00 0.  1.
          5    1    4    4  502    0  0.42041590006E+02  0.65579997550E+01 -0.28132967309E+02  0.51225545391E+02  0.47000000000E+01 0.  1.
         -5    1    4    4    0  502  0.67257926112E+02  0.71447891136E+01 -0.44946173730E+03  0.45454660920E+03  0.47000000000E+01 0.  1.
<mgrwt>
<rscale>  0 0.99162606E+03</rscale>
<asrwt>0</asrwt>
<pdfrwt beam="1">  1        2 0.29796801E+00 0.99162606E+03</pdfrwt>
<pdfrwt beam="2">  1       -2 0.19527180E-01 0.99162606E+03</pdfrwt>
<totfact> 0.18978058E+02</totfact>
</mgrwt>
</event>
<event>
 9    1  0.4370149E-036  0.9992144E+03  0.7818608E-02  0.8681786E-01
         -2   -1    0    0    0  501 -0.00000000000E+00  0.00000000000E+00  0.18453721320E+03  0.18453721320E+03  0.00000000000E+00 0.  1.
          2   -1    0    0  501    0  0.00000000000E+00 -0.00000000000E+00 -0.13526124663E+04  0.13526124663E+04  0.00000000000E+00 0.  1.
         36    2    1    2    0    0  0.14210854715E-13  0.21316282073E-13 -0.11680752531E+04  0.15371496795E+04  0.99921436153E+03 0.  0.
         25    2    3    3    0    0  0.64872968524E+02  0.55627525105E+02 -0.38724137429E+03  0.41599113708E+03  0.12565755278E+03 0.  0.
         35    2    3    3    0    0 -0.64872968524E+02 -0.55627525105E+02 -0.78083387879E+03  0.11211585424E+04  0.79999500458E+03 0.  0.
         22    1    5    5    0    0 -0.38155631541E+03  0.13573334968E+03 -0.55716985785E+03  0.68880114296E+03  0.00000000000E+00 0. -1.
         22    1    5    5    0    0  0.31668334689E+03 -0.19136087479E+03 -0.22366402094E+03  0.43235739945E+03  0.00000000000E+00 0. -1.
          5    1    4    4  502    0  0.68079093075E+02 -0.56813550977E+01 -0.93662544008E+02  0.11602500963E+03  0.47000000000E+01 0.  1.
         -5    1    4    4    0  502 -0.32061245510E+01  0.61308880202E+02 -0.29357883028E+03  0.29996612745E+03  0.47000000000E+01 0.  1.
<mgrwt>
<rscale>  0 0.99921436E+03</rscale>
<asrwt>0</asrwt>
<pdfrwt beam="1">  1        2 0.20809422E+00 0.99921436E+03</pdfrwt>
<pdfrwt beam="2">  1       -2 0.28390341E-01 0.99921436E+03</pdfrwt>
<totfact> 0.21002282E+02</totfact>
</mgrwt>
</event>
<event>
 9    1  0.4370149E-036  0.9995859E+03  0.7818608E-02  0.8681432E-01
          2   -1    0    0  501    0  0.00000000000E+00  0.00000000000E+00  0.61366077277E+03  0.61366077277E+03  0.00000000000E+00 0.  1.
         -2   -1    0    0    0  501 -0.00000000000E+00 -0.00000000000E+00 -0.40705390721E+03  0.40705390721E+03  0.00000000000E+00 0.  1.
         36    2    1    2    0    0  0.28421709430E-13 -0.28421709430E-13  0.20660686556E+03  0.10207146800E+04  0.99958594480E+03 0.  0.
         25    2    3    3    0    0 -0.71889789197E+02 -0.66762885642E+02 -0.66935366660E+02  0.17009160277E+03  0.12175953899E+03 0.  0.
         35    2    3    3    0    0  0.71889789197E+02  0.66762885642E+02  0.27354223222E+03  0.85062307721E+03  0.79944283222E+03 0.  0.
         22    1    5    5    0    0  0.15454235241E+03  0.37393414055E+03 -0.36717088949E+02  0.40627358366E+03  0.00000000000E+00 0. -1.
         22    1    5    5    0    0 -0.82652563214E+02 -0.30717125491E+03  0.31025932117E+03  0.44434949355E+03  0.00000000000E+00 0. -1.
          5    1    4    4  502    0 -0.10594234765E+03 -0.55496716194E+02 -0.57046572501E+02  0.13258984866E+03  0.47000000000E+01 0. -1.
         -5    1    4    4    0  502  0.34052558456E+02 -0.11266169448E+02 -0.98887941582E+01  0.37501754110E+02  0.47000000000E+01 0. -1.
<mgrwt>
<rscale>  0 0.99958594E+03</rscale>
<asrwt>0</asrwt>
<pdfrwt beam="1">  1        2 0.94409349E-01 0.99958594E+03</pdfrwt>
<pdfrwt beam="2">  1       -2 0.62623678E-01 0.99958594E+03</pdfrwt>
<totfact> 0.13806607E+02</totfact>
</mgrwt>
</event>
<event>
 9    1  0.4370149E-036  0.1000292E+04  0.7818608E-02  0.8680760E-01
         -2   -1    0    0    0  501 -0.00000000000E+00  0.00000000000E+00  0.87773435358E+03  0.87773435358E+03  0.00000000000E+00 0.  1.
          2   -1    0    0  501    0  0.00000000000E+00 -0.00000000000E+00 -0.28499054642E+03  0.28499054642E+03  0.00000000000E+00 0.  1.
         36    2    1    2    0    0  0.00000000000E+00  0.00000000000E+00  0.59274380716E+03  0.11627249000E+04  0.10002919435E+04 0.  0.
         25    2    3    3    0    0 -0.60359039915E+02  0.51547480882E+02  0.24542497414E+03  0.28655726027E+03  0.12482503353E+03 0.  0.
         35    2    3    3    0    0  0.60359039915E+02 -0.51547480882E+02  0.34731883302E+03  0.87616763973E+03  0.80046174465E+03 0.  0.
         22    1    5    5    0    0  0.41646566148E+02  0.46586560126E+00  0.60813429904E+03  0.60955883980E+03  0.00000000000E+00 0.  1.
         22    1    5    5    0    0  0.18712473767E+02 -0.52013346483E+02 -0.26081546602E+03  0.26660879993E+03  0.00000000000E+00 0.  1.
          5    1    4    4  502    0 -0.10928125530E+02  0.70513216021E+02  0.59012967203E+02  0.92715467206E+02  0.47000000000E+01 0. -1.
         -5    1    4    4    0  502 -0.49430914385E+02 -0.18965735139E+02  0.18641200694E+03  0.19384179306E+03  0.47000000000E+01 0. -1.
<mgrwt>
<rscale>  0 0.10002919E+04</rscale>
<asrwt>0</asrwt>
<pdfrwt beam="1">  1        2 0.43844700E-01 0.10002919E+04</pdfrwt>
<pdfrwt beam="2">  1       -2 0.13503605E+00 0.10002919E+04</pdfrwt>
<totfact> 0.52647940E+01</totfact>
</mgrwt>
</event>
<event>
 9    1  0.4370149E-036  0.1000032E+04  0.7818608E-02  0.8681008E-01
         -1   -1    0    0    0  501 -0.00000000000E+00  0.00000000000E+00  0.14209237579E+04  0.14209237579E+04  0.00000000000E+00 0. -1.
          1   -1    0    0  501    0  0.00000000000E+00 -0.00000000000E+00 -0.17595300761E+03  0.17595300761E+03  0.00000000000E+00 0. -1.
         36    2    1    2    0    0  0.28421709430E-13  0.00000000000E+00  0.12449707502E+04  0.15968767655E+04  0.10000316171E+04 0.  0.
         25    2    3    3    0    0 -0.81870480784E+02  0.86522595329E+02  0.11637377100E+03  0.20757343735E+03  0.12391506039E+03 0.  0.
         35    2    3    3    0    0  0.81870480784E+02 -0.86522595329E+02  0.11285969792E+04  0.13893033281E+04  0.80140106116E+03 0.  0.
         22    1    5    5    0    0  0.35303873056E+03 -0.15139437062E+03  0.22837446573E+03  0.44689092330E+03  0.00000000000E+00 0. -1.
         22    1    5    5    0    0 -0.27116824977E+03  0.64871775293E+02  0.90022251351E+03  0.94241240481E+03  0.00000000000E+00 0. -1.
          5    1    4    4  502    0 -0.16727257054E+02 -0.16061488331E+02 -0.15421659428E+02  0.28243408354E+02  0.47000000000E+01 0.  1.
         -5    1    4    4    0  502 -0.65143223730E+02  0.10258408366E+03  0.13179543042E+03  0.17933002899E+03  0.47000000000E+01 0.  1.
<mgrwt>
<rscale>  0 0.10000316E+04</rscale>
<asrwt>0</asrwt>
<pdfrwt beam="1">  1        1 0.27069694E-01 0.10000316E+04</pdfrwt>
<pdfrwt beam="2">  1       -1 0.21860365E+00 0.10000316E+04</pdfrwt>
<totfact> 0.18956105E+01</totfact>
</mgrwt>
</event>
<event>
 9    1  0.4370149E-036  0.1000523E+04  0.7818608E-02  0.8680540E-01
          2   -1    0    0  501    0  0.00000000000E+00  0.00000000000E+00  0.24630892421E+04  0.24630892421E+04  0.00000000000E+00 0. -1.
         -2   -1    0    0    0  501 -0.00000000000E+00 -0.00000000000E+00 -0.10160480559E+03  0.10160480559E+03  0.00000000000E+00 0. -1.
         36    2    1    2    0    0  0.71054273576E-14 -0.14210854715E-13  0.23614844365E+04  0.25646940477E+04  0.10005232703E+04 0.  0.
         25    2    3    3    0    0  0.93067130808E+01 -0.55057272908E+02  0.77477510762E+03  0.78683875114E+03  0.12538275285E+03 0.  0.
         35    2    3    3    0    0 -0.93067130808E+01  0.55057272908E+02  0.15867093289E+04  0.17778552965E+04  0.80000315175E+03 0.  0.
         22    1    5    5    0    0 -0.10446014202E+03  0.41527511260E+03  0.89608053580E+03  0.99313929891E+03  0.00000000000E+00 0.  1.
         22    1    5    5    0    0  0.95153428943E+02 -0.36021783969E+03  0.69062879307E+03  0.78471599760E+03  0.00000000000E+00 0.  1.
          5    1    4    4  502    0  0.31613950400E+02 -0.21602965003E+02  0.62724114088E+02  0.73637860133E+02  0.47000000000E+01 0.  1.
         -5    1    4    4    0  502 -0.22307237319E+02 -0.33454307905E+02  0.71205099353E+03  0.71320089101E+03  0.47000000000E+01 0.  1.
<mgrwt>
<rscale>  0 0.10005233E+04</rscale>
<asrwt>0</asrwt>
<pdfrwt beam="1">  1        2 0.37893676E+00 0.10005233E+04</pdfrwt>
<pdfrwt beam="2">  1       -2 0.15631510E-01 0.10005233E+04</pdfrwt>
<totfact> 0.13680884E+02</totfact>
</mgrwt>
</event>
<event>
 9    1  0.4370149E-036  0.9995232E+03  0.7818608E-02  0.8681492E-01
          1   -1    0    0  501    0  0.00000000000E+00  0.00000000000E+00  0.57845168889E+03  0.57845168889E+03  0.00000000000E+00 0.  1.
         -1   -1    0    0    0  501 -0.00000000000E+00 -0.00000000000E+00 -0.43177616980E+03  0.43177616980E+03  0.00000000000E+00 0.  1.
         36    2    1    2    0    0 -0.28421709430E-13  0.00000000000E+00  0.14667551910E+03  0.10102278587E+04  0.99952319561E+03 0.  0.
         25    2    3    3    0    0  0.10189071077E+03 -0.20303262450E+02  0.11840945056E+03  0.20116115271E+03  0.12510424441E+03 0.  0.
         35    2    3    3    0    0 -0.10189071077E+03  0.20303262450E+02  0.28266068535E+02  0.80906670597E+03  0.80187032909E+03 0.  0.
         22    1    5    5    0    0  0.28060465764E+03  0.10045746282E+03 -0.19768516437E+03  0.35764521518E+03  0.00000000000E+00 0. -1.
         22    1    5    5    0    0 -0.38249536842E+03 -0.80154200370E+02  0.22595123291E+03  0.45142149079E+03  0.00000000000E+00 0. -1.
          5    1    4    4  502    0  0.26294960980E+02  0.39379018363E+02  0.88014928953E+02  0.10005423419E+03  0.47000000000E+01 0.  1.
         -5    1    4    4    0  502  0.75595749793E+02 -0.59682280814E+02  0.30394521608E+02  0.10110691853E+03  0.47000000000E+01 0.  1.
<mgrwt>
<rscale>  0 0.99952320E+03</rscale>
<asrwt>0</asrwt>
<pdfrwt beam="1">  1        1 0.88992567E-01 0.99952320E+03</pdfrwt>
<pdfrwt beam="2">  1       -1 0.66427103E-01 0.99952320E+03</pdfrwt>
<totfact> 0.96775294E+01</totfact>
</mgrwt>
</event>
<event>
 9    1  0.4370149E-036  0.1000262E+04  0.7818608E-02  0.8680789E-01
         -2   -1    0    0    0  501 -0.00000000000E+00  0.00000000000E+00  0.61336026220E+02  0.61336026220E+02  0.00000000000E+00 0. -1.
          2   -1    0    0  501    0  0.00000000000E+00 -0.00000000000E+00 -0.40780437938E+04  0.40780437938E+04  0.00000000000E+00 0. -1.
         36    2    1    2    0    0  0.00000000000E+00  0.00000000000E+00 -0.40167077676E+04  0.41393798200E+04  0.10002619678E+04 0.  0.
         25    2    3    3    0    0  0.11812000303E+03  0.36993573364E+02 -0.46272242129E+03  0.49507391568E+03  0.12516102924E+03 0.  0.
         35    2    3    3    0    0 -0.11812000303E+03 -0.36993573364E+02 -0.35539853463E+04  0.36443059043E+04  0.79676396952E+03 0.  0.
         22    1    5    5    0    0 -0.10613199189E+03  0.26071765839E+03 -0.48407092757E+03  0.55996639186E+03  0.00000000000E+00 0.  1.
         22    1    5    5    0    0 -0.11988011143E+02 -0.29771123175E+03 -0.30699144187E+04  0.30843395124E+04  0.00000000000E+00 0.  1.
          5    1    4    4  502    0  0.12262099809E+03 -0.11457800912E+02 -0.27997632779E+03  0.30590198512E+03  0.47000000000E+01 0.  1.
         -5    1    4    4    0  502 -0.45009950623E+01  0.48451374276E+02 -0.18274609350E+03  0.18917193057E+03  0.47000000000E+01 0.  1.
<mgrwt>
<rscale>  0 0.10002620E+04</rscale>
<asrwt>0</asrwt>
<pdfrwt beam="1">  1        2 0.62739143E+00 0.10002620E+04</pdfrwt>
<pdfrwt beam="2">  1       -2 0.94363105E-02 0.10002620E+04</pdfrwt>
<totfact> 0.21304894E+01</totfact>
</mgrwt>
</event>
<event>
 9    1  0.4370149E-036  0.9999743E+03  0.7818608E-02  0.8681062E-01
         -2   -1    0    0    0  501 -0.00000000000E+00  0.00000000000E+00  0.17718699675E+03  0.17718699675E+03  0.00000000000E+00 0.  1.
          2   -1    0    0  501    0  0.00000000000E+00 -0.00000000000E+00 -0.14108662046E+04  0.14108662046E+04  0.00000000000E+00 0.  1.
         36    2    1    2    0    0  0.00000000000E+00  0.00000000000E+00 -0.12336792078E+04  0.15880532014E+04  0.99997429090E+03 0.  0.
         25    2    3    3    0    0 -0.13292717937E+03  0.53846927844E+02 -0.22484950798E+03  0.29463973906E+03  0.12524435295E+03 0.  0.
         35    2    3    3    0    0  0.13292717937E+03 -0.53846927844E+02 -0.10088296999E+04  0.12934134623E+04  0.79662531622E+03 0.  0.
         22    1    5    5    0    0 -0.17460126170E+03  0.29292133140E+03 -0.35808947852E+03  0.49448617939E+03  0.00000000000E+00 0. -1.
         22    1    5    5    0    0  0.30752844106E+03 -0.34676825925E+03 -0.65074022135E+03  0.79892728291E+03  0.00000000000E+00 0. -1.
          5    1    4    4  502    0 -0.10615187914E+03 -0.59705019975E+01 -0.72630576542E+02  0.12884548493E+03  0.47000000000E+01 0.  1.
         -5    1    4    4    0  502 -0.26775300226E+02  0.59817429841E+02 -0.15221893143E+03  0.16579425413E+03  0.47000000000E+01 0.  1.
<mgrwt>
<rscale>  0 0.99997429E+03</rscale>
<asrwt>0</asrwt>
<pdfrwt beam="1">  1        2 0.21705634E+00 0.99997429E+03</pdfrwt>
<pdfrwt beam="2">  1       -2 0.27259538E-01 0.99997429E+03</pdfrwt>
<totfact> 0.20927649E+02</totfact>
</mgrwt>
</event>
<event>
 9    1  0.4370149E-036  0.9990089E+03  0.7818608E-02  0.8681982E-01
          2   -1    0    0  501    0  0.00000000000E+00  0.00000000000E+00  0.64320132878E+03  0.64320132878E+03  0.00000000000E+00 0.  1.
         -2   -1    0    0    0  501 -0.00000000000E+00 -0.00000000000E+00 -0.38791069431E+03  0.38791069431E+03  0.00000000000E+00 0.  1.
         36    2    1    2    0    0  0.21316282073E-13 -0.14210854715E-13  0.25529063447E+03  0.10311120231E+04  0.99900885687E+03 0.  0.
         25    2    3    3    0    0  0.37302111314E+02 -0.10828048727E+03  0.12745101661E+03  0.21244144994E+03  0.12558461924E+03 0.  0.
         35    2    3    3    0    0 -0.37302111314E+02  0.10828048727E+03  0.12783961786E+03  0.81867057314E+03  0.80047637567E+03 0.  0.
         22    1    5    5    0    0  0.37608006251E+03  0.34593325210E+02  0.12800918589E+03  0.39877219467E+03  0.00000000000E+00 0. -1.
         22    1    5    5    0    0 -0.41338217383E+03  0.73687162055E+02 -0.16956802781E+00  0.41989837847E+03  0.00000000000E+00 0. -1.
          5    1    4    4  502    0  0.29780136020E+02 -0.11330988467E+03  0.14840687726E+03  0.18913666404E+03  0.47000000000E+01 0.  1.
         -5    1    4    4    0  502  0.75219752942E+01  0.50293974076E+01 -0.20955860648E+02  0.23304785906E+02  0.47000000000E+01 0.  1.
<mgrwt>
<rscale>  0 0.99900886E+03</rscale>
<asrwt>0</asrwt>
<pdfrwt beam="1">  1        2 0.98954050E-01 0.99900886E+03</pdfrwt>
<pdfrwt beam="2">  1       -2 0.59678569E-01 0.99900886E+03</pdfrwt>
<totfact> 0.14436999E+02</totfact>
</mgrwt>
</event>
<event>
 9    1  0.4370149E-036  0.9958628E+03  0.7818608E-02  0.8684988E-01
          2   -1    0    0  501    0  0.00000000000E+00  0.00000000000E+00  0.93868267962E+03  0.93868267962E+03  0.00000000000E+00 0. -1.
         -2   -1    0    0    0  501 -0.00000000000E+00 -0.00000000000E+00 -0.26413153798E+03  0.26413153798E+03  0.00000000000E+00 0. -1.
         36    2    1    2    0    0  0.00000000000E+00  0.00000000000E+00  0.67455114164E+03  0.12028142176E+04  0.99586284164E+03 0.  0.
         25    2    3    3    0    0  0.10568578607E+03 -0.20419895772E+02  0.26510843162E+02  0.16770046082E+03  0.12583386759E+03 0.  0.
         35    2    3    3    0    0 -0.10568578607E+03  0.20419895772E+02  0.64804029848E+03  0.10351137568E+04  0.79994862554E+03 0.  0.
         22    1    5    5    0    0 -0.17654100381E+03  0.52590394574E+02  0.82314082154E+03  0.84350061513E+03  0.00000000000E+00 0.  1.
         22    1    5    5    0    0  0.70855217747E+02 -0.32170498802E+02 -0.17510052307E+03  0.19161314165E+03  0.00000000000E+00 0.  1.
          5    1    4    4  502    0 -0.27139571854E+02 -0.24007416776E+01 -0.87841127950E+01  0.29009835550E+02  0.47000000000E+01 0.  1.
         -5    1    4    4    0  502  0.13282535792E+03 -0.18019154095E+02  0.35294955957E+02  0.13869062527E+03  0.47000000000E+01 0.  1.
<mgrwt>
<rscale>  0 0.99586284E+03</rscale>
<asrwt>0</asrwt>
<pdfrwt beam="1">  1        2 0.14441272E+00 0.99586284E+03</pdfrwt>
<pdfrwt beam="2">  1       -2 0.40635622E-01 0.99586284E+03</pdfrwt>
<totfact> 0.19148566E+02</totfact>
</mgrwt>
</event>
<event>
 9    1  0.4370149E-036  0.1001156E+04  0.7818608E-02  0.8679938E-01
          2   -1    0    0  501    0  0.00000000000E+00  0.00000000000E+00  0.37097833269E+03  0.37097833269E+03  0.00000000000E+00 0. -1.
         -2   -1    0    0    0  501 -0.00000000000E+00 -0.00000000000E+00 -0.67545282170E+03  0.67545282170E+03  0.00000000000E+00 0. -1.
         36    2    1    2    0    0  0.42632564146E-13  0.35527136788E-14 -0.30447448901E+03  0.10464311544E+04  0.10011560550E+04 0.  0.
         25    2    3    3    0    0 -0.10701148026E+03 -0.98301926277E+00 -0.15023977263E+03  0.22292427793E+03  0.12518315053E+03 0.  0.
         35    2    3    3    0    0  0.10701148026E+03  0.98301926277E+00 -0.15423471638E+03  0.82350687646E+03  0.80182467199E+03 0.  0.
         22    1    5    5    0    0  0.44771888219E+03  0.86919744332E+02 -0.11175265563E+03  0.46956990477E+03  0.00000000000E+00 0. -1.
         22    1    5    5    0    0 -0.34070740193E+03 -0.85936725070E+02 -0.42482060755E+02  0.35393697170E+03  0.00000000000E+00 0. -1.
          5    1    4    4  502    0  0.19738369232E+02 -0.25340593977E+02 -0.14488048263E+02  0.35549155623E+02  0.47000000000E+01 0.  1.
         -5    1    4    4    0  502 -0.12674984949E+03  0.24357574714E+02 -0.13575172436E+03  0.18737512230E+03  0.47000000000E+01 0.  1.
<mgrwt>
<rscale>  0 0.10011561E+04</rscale>
<asrwt>0</asrwt>
<pdfrwt beam="1">  1        2 0.57073590E-01 0.10011561E+04</pdfrwt>
<pdfrwt beam="2">  1       -2 0.10391582E+00 0.10011561E+04</pdfrwt>
<totfact> 0.77267817E+01</totfact>
</mgrwt>
</event>
<event>
 9    1  0.4370149E-036  0.9997358E+03  0.7818608E-02  0.8681290E-01
         -2   -1    0    0    0  501 -0.00000000000E+00  0.00000000000E+00  0.74908293703E+02  0.74908293703E+02  0.00000000000E+00 0. -1.
          2   -1    0    0  501    0  0.00000000000E+00 -0.00000000000E+00 -0.33356507997E+04  0.33356507997E+04  0.00000000000E+00 0. -1.
         36    2    1    2    0    0  0.00000000000E+00 -0.24868995752E-13 -0.32607425060E+04  0.34105590934E+04  0.99973578468E+03 0.  0.
         25    2    3    3    0    0 -0.94130598294E+02 -0.25225719134E+02 -0.26897341298E+03  0.31226029055E+03  0.12515145113E+03 0.  0.
         35    2    3    3    0    0  0.94130598294E+02  0.25225719134E+02 -0.29917690930E+04  0.30982988028E+04  0.79954753418E+03 0.  0.
         22    1    5    5    0    0  0.28220287031E+02  0.38370926467E+03 -0.96240688790E+03  0.10364633145E+04  0.00000000000E+00 0.  1.
         22    1    5    5    0    0  0.65910311263E+02 -0.35848354554E+03 -0.20293622051E+04  0.20618354884E+04  0.00000000000E+00 0.  1.
          5    1    4    4  502    0 -0.95684501340E+01 -0.51493744082E+02 -0.17639582384E+03  0.18406720942E+03  0.47000000000E+01 0.  1.
         -5    1    4    4    0  502 -0.84562148160E+02  0.26268024948E+02 -0.92577589144E+02  0.12819308112E+03  0.47000000000E+01 0.  1.
<mgrwt>
<rscale>  0 0.99973578E+03</rscale>
<asrwt>0</asrwt>
<pdfrwt beam="1">  1        2 0.51317681E+00 0.99973578E+03</pdfrwt>
<pdfrwt beam="2">  1       -2 0.11524358E-01 0.99973578E+03</pdfrwt>
<totfact> 0.60571283E+01</totfact>
</mgrwt>
</event>
<event>
 9    1  0.4370149E-036  0.1000431E+04  0.7818608E-02  0.8680627E-01
         -1   -1    0    0    0  501 -0.00000000000E+00  0.00000000000E+00  0.47680345061E+03  0.47680345061E+03  0.00000000000E+00 0. -1.
          1   -1    0    0  501    0  0.00000000000E+00 -0.00000000000E+00 -0.52477732599E+03  0.52477732599E+03  0.00000000000E+00 0. -1.
         36    2    1    2    0    0 -0.71054273576E-14 -0.14210854715E-13 -0.47973875380E+02  0.10015807766E+04  0.10004311867E+04 0.  0.
         25    2    3    3    0    0  0.50168634765E+02  0.10633966754E+03  0.84044036224E+02  0.19157117428E+03  0.12574218855E+03 0.  0.
         35    2    3    3    0    0 -0.50168634765E+02 -0.10633966754E+03 -0.13201791160E+03  0.81000960233E+03  0.79048201122E+03 0.  0.
         22    1    5    5    0    0  0.28964866972E+03  0.18623119445E+03 -0.67082921361E+01  0.34441749496E+03  0.00000000000E+00 0. -1.
         22    1    5    5    0    0 -0.33981730448E+03 -0.29257086198E+03 -0.12530961947E+03  0.46559210736E+03  0.00000000000E+00 0. -1.
          5    1    4    4  502    0 -0.16302236767E+02 -0.14560547902E+02 -0.10042520777E+02  0.24509481887E+02  0.47000000000E+01 0. -1.
         -5    1    4    4    0  502  0.66470871532E+02  0.12090021544E+03  0.94086557001E+02  0.16706169239E+03  0.47000000000E+01 0. -1.
<mgrwt>
<rscale>  0 0.10004312E+04</rscale>
<asrwt>0</asrwt>
<pdfrwt beam="1">  1        1 0.80734973E-01 0.10004312E+04</pdfrwt>
<pdfrwt beam="2">  1       -1 0.73354377E-01 0.10004312E+04</pdfrwt>
<totfact> 0.91289215E+01</totfact>
</mgrwt>
</event>
<event>
 9    1  0.4370149E-036  0.9997436E+03  0.7818608E-02  0.8681282E-01
          1   -1    0    0  501    0  0.00000000000E+00  0.00000000000E+00  0.10026481648E+04  0.10026481648E+04  0.00000000000E+00 0.  1.
         -1   -1    0    0    0  501 -0.00000000000E+00 -0.00000000000E+00 -0.24921187029E+03  0.24921187029E+03  0.00000000000E+00 0.  1.
         36    2    1    2    0    0 -0.71054273576E-14  0.35527136788E-13  0.75343629453E+03  0.12518600351E+04  0.99974361593E+03 0.  0.
         25    2    3    3    0    0  0.11838621493E+02 -0.43313616393E+02  0.30674097696E+03  0.33493543583E+03  0.12678918293E+03 0.  0.
         35    2    3    3    0    0 -0.11838621493E+02  0.43313616393E+02  0.44669531757E+03  0.91692459928E+03  0.79949846260E+03 0.  0.
         22    1    5    5    0    0 -0.10260112302E+03  0.40211734529E+03  0.14556221826E+03  0.43978825497E+03  0.00000000000E+00 0.  1.
         22    1    5    5    0    0  0.90762501522E+02 -0.35880372890E+03  0.30113309932E+03  0.47713634431E+03  0.00000000000E+00 0.  1.
          5    1    4    4  502    0  0.16621088181E+02  0.10006883101E+02  0.26786457742E+03  0.26860737168E+03  0.47000000000E+01 0. -1.
         -5    1    4    4    0  502 -0.47824666883E+01 -0.53320499493E+02  0.38876399532E+02  0.66328064154E+02  0.47000000000E+01 0. -1.
<mgrwt>
<rscale>  0 0.99974362E+03</rscale>
<asrwt>0</asrwt>
<pdfrwt beam="1">  1        1 0.15425356E+00 0.99974362E+03</pdfrwt>
<pdfrwt beam="2">  1       -1 0.38340288E-01 0.99974362E+03</pdfrwt>
<totfact> 0.11090630E+02</totfact>
</mgrwt>
</event>
<event>
 9    1  0.4370149E-036  0.9994736E+03  0.7818608E-02  0.8681539E-01
         -1   -1    0    0    0  501 -0.00000000000E+00  0.00000000000E+00  0.45613608287E+03  0.45613608287E+03  0.00000000000E+00 0.  1.
          1   -1    0    0  501    0  0.00000000000E+00 -0.00000000000E+00 -0.54750522576E+03  0.54750522576E+03  0.00000000000E+00 0.  1.
         36    2    1    2    0    0 -0.28421709430E-13  0.35527136788E-13 -0.91369142895E+02  0.10036413086E+04  0.99947363953E+03 0.  0.
         25    2    3    3    0    0 -0.12394856876E+03 -0.53900644428E+02  0.11780551729E+02  0.18540102176E+03  0.12635754945E+03 0.  0.
         35    2    3    3    0    0  0.12394856876E+03  0.53900644428E+02 -0.10314969462E+03  0.81824028687E+03  0.80038039730E+03 0.  0.
         22    1    5    5    0    0 -0.94256795846E+02 -0.24559526683E+03 -0.29970757710E+03  0.39878065452E+03  0.00000000000E+00 0.  1.
         22    1    5    5    0    0  0.21820536461E+03  0.29949591125E+03  0.19655788248E+03  0.41945963234E+03  0.00000000000E+00 0.  1.
          5    1    4    4  502    0 -0.13236954765E+03 -0.18818029436E+02 -0.22205078953E+02  0.13561331391E+03  0.47000000000E+01 0. -1.
         -5    1    4    4    0  502  0.84209788935E+01 -0.35082614992E+02  0.33985630681E+02  0.49787707851E+02  0.47000000000E+01 0. -1.
<mgrwt>
<rscale>  0 0.99947364E+03</rscale>
<asrwt>0</asrwt>
<pdfrwt beam="1">  1        1 0.84231573E-01 0.99947364E+03</pdfrwt>
<pdfrwt beam="2">  1       -1 0.70174782E-01 0.99947364E+03</pdfrwt>
<totfact> 0.93961724E+01</totfact>
</mgrwt>
</event>
<event>
 9    1  0.4370149E-036  0.1001909E+04  0.7818608E-02  0.8679222E-01
          4   -1    0    0  501    0  0.00000000000E+00  0.00000000000E+00  0.76812599346E+03  0.76812599346E+03  0.00000000000E+00 0.  1.
         -4   -1    0    0    0  501 -0.00000000000E+00 -0.00000000000E+00 -0.32671122314E+03  0.32671122314E+03  0.00000000000E+00 0.  1.
         36    2    1    2    0    0 -0.71054273576E-14  0.28421709430E-13  0.44141477032E+03  0.10948372166E+04  0.10019089437E+04 0.  0.
         25    2    3    3    0    0 -0.30013906894E+02 -0.13771806828E+03  0.73595325797E+02  0.20281205632E+03  0.12589423050E+03 0.  0.
         35    2    3    3    0    0  0.30013906894E+02  0.13771806828E+03  0.36781944452E+03  0.89202516028E+03  0.80034407717E+03 0.  0.
         22    1    5    5    0    0  0.29746252211E+02  0.37819854554E+03 -0.76313217978E+02  0.38696600188E+03  0.00000000000E+00 0. -1.
         22    1    5    5    0    0  0.26765468326E+00 -0.24048047727E+03  0.44413266250E+03  0.50505915840E+03  0.00000000000E+00 0. -1.
          5    1    4    4  502    0  0.33979167372E+02 -0.63336060725E+01 -0.74038701482E+01  0.35659580400E+02  0.47000000000E+01 0.  1.
         -5    1    4    4    0  502 -0.63993074266E+02 -0.13138446221E+03  0.80999195946E+02  0.16715247592E+03  0.47000000000E+01 0.  1.
<mgrwt>
<rscale>  0 0.10019089E+04</rscale>
<asrwt>0</asrwt>
<pdfrwt beam="1">  1        4 0.11817323E+00 0.10019089E+04</pdfrwt>
<pdfrwt beam="2">  1       -4 0.50263265E-01 0.10019089E+04</pdfrwt>
<totfact> 0.45302716E+00</totfact>
</mgrwt>
</event>
<event>
 9    1  0.4370149E-036  0.9998632E+03  0.7818608E-02  0.8681168E-01
          1   -1    0    0  501    0  0.00000000000E+00  0.00000000000E+00  0.54781582032E+03  0.54781582032E+03  0.00000000000E+00 0.  1.
         -1   -1    0    0    0  501 -0.00000000000E+00 -0.00000000000E+00 -0.45623293587E+03  0.45623293587E+03  0.00000000000E+00 0.  1.
         36    2    1    2    0    0  0.00000000000E+00 -0.71054273576E-14  0.91582884443E+02  0.10040487562E+04  0.99986323069E+03 0.  0.
         25    2    3    3    0    0  0.94789068272E+02 -0.60627415671E+02  0.10174636361E+03  0.19679721923E+03  0.12536415754E+03 0.  0.
         35    2    3    3    0    0 -0.94789068272E+02  0.60627415671E+02 -0.10163479167E+02  0.80725153696E+03  0.79930663492E+03 0.  0.
         22    1    5    5    0    0  0.81636515997E+02 -0.14778944701E+03 -0.33966242970E+03  0.37931096417E+03  0.00000000000E+00 0. -1.
         22    1    5    5    0    0 -0.17642558427E+03  0.20841686268E+03  0.32949895053E+03  0.42794057279E+03  0.00000000000E+00 0. -1.
          5    1    4    4  502    0  0.37406058137E+02 -0.38683523995E+02  0.12078056147E+03  0.13230896509E+03  0.47000000000E+01 0.  1.
         -5    1    4    4    0  502  0.57383010135E+02 -0.21943891675E+02 -0.19034197861E+02  0.64488254141E+02  0.47000000000E+01 0.  1.
<mgrwt>
<rscale>  0 0.99986323E+03</rscale>
<asrwt>0</asrwt>
<pdfrwt beam="1">  1        1 0.84279357E-01 0.99986323E+03</pdfrwt>
<pdfrwt beam="2">  1       -1 0.70189682E-01 0.99986323E+03</pdfrwt>
<totfact> 0.93843020E+01</totfact>
</mgrwt>
</event>
<event>
 9    1  0.4370149E-036  0.1000195E+04  0.7818608E-02  0.8680853E-01
          4   -1    0    0  501    0  0.00000000000E+00  0.00000000000E+00  0.46604801030E+03  0.46604801030E+03  0.00000000000E+00 0.  1.
         -4   -1    0    0    0  501 -0.00000000000E+00 -0.00000000000E+00 -0.53663436939E+03  0.53663436939E+03  0.00000000000E+00 0.  1.
         36    2    1    2    0    0 -0.71054273576E-14  0.00000000000E+00 -0.70586359095E+02  0.10026823797E+04  0.10001947413E+04 0.  0.
         25    2    3    3    0    0  0.29706487353E+02  0.10501860538E+03 -0.94459747895E+02  0.19133298149E+03  0.12559571238E+03 0.  0.
         35    2    3    3    0    0 -0.29706487353E+02 -0.10501860538E+03  0.23873388800E+02  0.81134939819E+03  0.80362088350E+03 0.  0.
         22    1    5    5    0    0  0.41376912161E+02 -0.80750864510E+02  0.40901172879E+03  0.41895506354E+03  0.00000000000E+00 0. -1.
         22    1    5    5    0    0 -0.71083399515E+02 -0.24267740871E+02 -0.38513833999E+03  0.39239433465E+03  0.00000000000E+00 0. -1.
          5    1    4    4  502    0 -0.43487724600E+02  0.43702819965E+02 -0.68485560216E+02  0.92268524546E+02  0.47000000000E+01 0. -1.
         -5    1    4    4    0  502  0.73194211954E+02  0.61315785417E+02 -0.25974187678E+02  0.99064456948E+02  0.47000000000E+01 0. -1.
<mgrwt>
<rscale>  0 0.10001947E+04</rscale>
<asrwt>0</asrwt>
<pdfrwt beam="1">  1        4 0.71699695E-01 0.10001947E+04</pdfrwt>
<pdfrwt beam="2">  1       -4 0.82559133E-01 0.10001947E+04</pdfrwt>
<totfact> 0.52708476E+00</totfact>
</mgrwt>
</event>
<event>
 9    1  0.4370149E-036  0.9971886E+03  0.7818608E-02  0.8683720E-01
         -3   -1    0    0    0  501 -0.00000000000E+00  0.00000000000E+00  0.82495688004E+03  0.82495688004E+03  0.00000000000E+00 0. -1.
          3   -1    0    0  501    0  0.00000000000E+00 -0.00000000000E+00 -0.30134454120E+03  0.30134454120E+03  0.00000000000E+00 0. -1.
         36    2    1    2    0    0  0.10658141036E-13  0.00000000000E+00  0.52361233884E+03  0.11263014212E+04  0.99718855294E+03 0.  0.
         25    2    3    3    0    0 -0.12654897796E+02 -0.13214461797E+03  0.59750503156E+02  0.19190131817E+03  0.12503458239E+03 0.  0.
         35    2    3    3    0    0  0.12654897796E+02  0.13214461797E+03  0.46386183569E+03  0.93440010307E+03  0.80019585322E+03 0.  0.
         22    1    5    5    0    0 -0.83120641953E+02 -0.32527249471E+03  0.25954527781E+03  0.42435243391E+03  0.00000000000E+00 0.  1.
         22    1    5    5    0    0  0.95775539749E+02  0.45741711268E+03  0.20431655788E+03  0.51004766916E+03  0.00000000000E+00 0.  1.
          5    1    4    4  502    0 -0.69854135404E+01 -0.18711413726E+02 -0.37210922719E+02  0.42493008549E+02  0.47000000000E+01 0. -1.
         -5    1    4    4    0  502 -0.56694842559E+01 -0.11343320424E+03  0.96961425875E+02  0.14940830962E+03  0.47000000000E+01 0. -1.
<mgrwt>
<rscale>  0 0.99718855E+03</rscale>
<asrwt>0</asrwt>
<pdfrwt beam="1">  1        3 0.46360699E-01 0.99718855E+03</pdfrwt>
<pdfrwt beam="2">  1       -3 0.12691644E+00 0.99718855E+03</pdfrwt>
<totfact> 0.78289056E+00</totfact>
</mgrwt>
</event>
<event>
 9    1  0.4370149E-036  0.9984509E+03  0.7818608E-02  0.8682515E-01
          1   -1    0    0  501    0  0.00000000000E+00  0.00000000000E+00  0.94378078595E+03  0.94378078595E+03  0.00000000000E+00 0. -1.
         -1   -1    0    0    0  501 -0.00000000000E+00 -0.00000000000E+00 -0.26407197531E+03  0.26407197531E+03  0.00000000000E+00 0. -1.
         36    2    1    2    0    0  0.00000000000E+00 -0.28421709430E-13  0.67970881065E+03  0.12078527613E+04  0.99845091297E+03 0.  0.
         25    2    3    3    0    0  0.36012036031E+02  0.12289756184E+03  0.19664713576E+03  0.26555799587E+03  0.12429913806E+03 0.  0.
         35    2    3    3    0    0 -0.36012036031E+02 -0.12289756184E+03  0.48306167489E+03  0.94229476539E+03  0.79885553493E+03 0.  0.
         22    1    5    5    0    0 -0.40596627822E+03 -0.11409211104E+03  0.15989523381E+03  0.45099014917E+03  0.00000000000E+00 0.  1.
         22    1    5    5    0    0  0.36995424219E+03 -0.88054507982E+01  0.32316644108E+03  0.49130461622E+03  0.00000000000E+00 0.  1.
          5    1    4    4  502    0  0.63485046177E+02  0.18092679559E+02  0.10215640268E+03  0.12171982891E+03  0.47000000000E+01 0. -1.
         -5    1    4    4    0  502 -0.27473010146E+02  0.10480488228E+03  0.94490733076E+02  0.14383816696E+03  0.47000000000E+01 0. -1.
<mgrwt>
<rscale>  0 0.99845091E+03</rscale>
<asrwt>0</asrwt>
<pdfrwt beam="1">  1        1 0.14519704E+00 0.99845091E+03</pdfrwt>
<pdfrwt beam="2">  1       -1 0.40626458E-01 0.99845091E+03</pdfrwt>
<totfact> 0.11159228E+02</totfact>
</mgrwt>
</event>
<event>
 9    1  0.4370149E-036  0.9999269E+03  0.7818608E-02  0.8681108E-01
          1   -1    0    0  501    0  0.00000000000E+00  0.00000000000E+00  0.13779829894E+04  0.13779829894E+04  0.00000000000E+00 0.  1.
         -1   -1    0    0    0  501 -0.00000000000E+00 -0.00000000000E+00 -0.18139805559E+03  0.18139805559E+03  0.00000000000E+00 0.  1.
         36    2    1    2    0    0  0.00000000000E+00  0.00000000000E+00  0.11965849338E+04  0.15593810450E+04  0.99992686715E+03 0.  0.
         25    2    3    3    0    0 -0.94835971326E+02  0.78932194352E+02  0.11547924454E+03  0.20996288044E+03  0.12459856533E+03 0.  0.
         35    2    3    3    0    0  0.94835971326E+02 -0.78932194352E+02  0.10811056893E+04  0.13494181646E+04  0.79806999609E+03 0.  0.
         22    1    5    5    0    0  0.28829746442E+03  0.27081982789E+03  0.65518255441E+03  0.76532541234E+03  0.00000000000E+00 0. -1.
         22    1    5    5    0    0 -0.19346149309E+03 -0.34975202224E+03  0.42592313487E+03  0.58409275221E+03  0.00000000000E+00 0. -1.
          5    1    4    4  502    0 -0.85701791846E+02  0.68048324468E+02  0.14210496393E+03  0.17941929206E+03  0.47000000000E+01 0. -1.
         -5    1    4    4    0  502 -0.91341794799E+01  0.10883869884E+02 -0.26625719391E+02  0.30543588386E+02  0.47000000000E+01 0. -1.
<mgrwt>
<rscale>  0 0.99992687E+03</rscale>
<asrwt>0</asrwt>
<pdfrwt beam="1">  1        1 0.21199738E+00 0.99992687E+03</pdfrwt>
<pdfrwt beam="2">  1       -1 0.27907394E-01 0.99992687E+03</pdfrwt>
<totfact> 0.10037563E+02</totfact>
</mgrwt>
</event>
<event>
 9    1  0.4370149E-036  0.1000894E+04  0.7818608E-02  0.8680187E-01
         -1   -1    0    0    0  501 -0.00000000000E+00  0.00000000000E+00  0.20073577773E+03  0.20073577773E+03  0.00000000000E+00 0.  1.
          1   -1    0    0  501    0  0.00000000000E+00 -0.00000000000E+00 -0.12476452081E+04  0.12476452081E+04  0.00000000000E+00 0.  1.
         36    2    1    2    0    0  0.00000000000E+00  0.00000000000E+00 -0.10469094304E+04  0.14483809858E+04  0.10008936630E+04 0.  0.
         25    2    3    3    0    0 -0.66145612482E+02 -0.12177492891E+03 -0.23619192817E+03  0.30093267269E+03  0.12477768709E+03 0.  0.
         35    2    3    3    0    0  0.66145612482E+02  0.12177492891E+03 -0.81071750221E+03  0.11474483131E+04  0.80010648516E+03 0.  0.
         22    1    5    5    0    0  0.60737686275E+02 -0.17731885271E+02 -0.94890495378E+03  0.95101214377E+03  0.00000000000E+00 0.  1.
         22    1    5    5    0    0  0.54079262066E+01  0.13950681418E+03  0.13818745157E+03  0.19643616938E+03  0.00000000000E+00 0.  1.
          5    1    4    4  502    0 -0.39466233507E+02 -0.42848892719E+02 -0.20280059306E+03  0.21105397826E+03  0.47000000000E+01 0.  1.
         -5    1    4    4    0  502 -0.26679378975E+02 -0.78926036191E+02 -0.33391335112E+02  0.89878694426E+02  0.47000000000E+01 0.  1.
<mgrwt>
<rscale>  0 0.10008937E+04</rscale>
<asrwt>0</asrwt>
<pdfrwt beam="1">  1        1 0.19194541E+00 0.10008937E+04</pdfrwt>
<pdfrwt beam="2">  1       -1 0.30882429E-01 0.10008937E+04</pdfrwt>
<totfact> 0.10508363E+02</totfact>
</mgrwt>
</event>
<event>
 9    1  0.4370149E-036  0.9995387E+03  0.7818608E-02  0.8681477E-01
         -2   -1    0    0    0  501 -0.00000000000E+00  0.00000000000E+00  0.32978059393E+03  0.32978059393E+03  0.00000000000E+00 0.  1.
          2   -1    0    0  501    0  0.00000000000E+00 -0.00000000000E+00 -0.75738048717E+03  0.75738048717E+03  0.00000000000E+00 0.  1.
         36    2    1    2    0    0  0.00000000000E+00 -0.14210854715E-13 -0.42759989324E+03  0.10871610811E+04  0.99953866736E+03 0.  0.
         25    2    3    3    0    0 -0.64495135301E+02  0.11434540150E+03 -0.26484545288E+02  0.18253258109E+03  0.12402507285E+03 0.  0.
         35    2    3    3    0    0  0.64495135301E+02 -0.11434540150E+03 -0.40111534795E+03  0.90462850001E+03  0.80014042976E+03 0.  0.
         22    1    5    5    0    0 -0.35339852828E+03  0.20023353366E+02 -0.85980722335E+02  0.36425834113E+03  0.00000000000E+00 0.  1.
         22    1    5    5    0    0  0.41789366358E+03 -0.13436875487E+03 -0.31513462562E+03  0.54037015888E+03  0.00000000000E+00 0.  1.
          5    1    4    4  502    0 -0.13284527589E+02 -0.24926240093E+02  0.87599346506E+01  0.29943656649E+02  0.47000000000E+01 0.  1.
         -5    1    4    4    0  502 -0.51210607712E+02  0.13927164160E+03 -0.35244479938E+02  0.15258892444E+03  0.47000000000E+01 0.  1.
<mgrwt>
<rscale>  0 0.99953867E+03</rscale>
<asrwt>0</asrwt>
<pdfrwt beam="1">  1        2 0.11652007E+00 0.99953867E+03</pdfrwt>
<pdfrwt beam="2">  1       -2 0.50735476E-01 0.99953867E+03</pdfrwt>
<totfact> 0.16459539E+02</totfact>
</mgrwt>
</event>
<event>
 9    1  0.4370149E-036  0.1000012E+04  0.7818608E-02  0.8681026E-01
         -1   -1    0    0    0  501 -0.00000000000E+00  0.00000000000E+00  0.27666244899E+03  0.27666244899E+03  0.00000000000E+00 0.  1.
          1   -1    0    0  501    0  0.00000000000E+00 -0.00000000000E+00 -0.90365016861E+03  0.90365016861E+03  0.00000000000E+00 0.  1.
         36    2    1    2    0    0  0.14210854715E-13  0.00000000000E+00 -0.62698771962E+03  0.11803126176E+04  0.10000121373E+04 0.  0.
         25    2    3    3    0    0  0.47761119967E+02  0.82498819376E+02 -0.24501459968E+03  0.28787425628E+03  0.11727000295E+03 0.  0.
         35    2    3    3    0    0 -0.47761119967E+02 -0.82498819376E+02 -0.38197311993E+03  0.89243836132E+03  0.80090922372E+03 0.  0.
         22    1    5    5    0    0 -0.65266659917E+02 -0.40934067822E+03 -0.35842743242E+02  0.41605796470E+03  0.00000000000E+00 0. -1.
         22    1    5    5    0    0  0.17505539951E+02  0.32684185885E+03 -0.34613037669E+03  0.47638039663E+03  0.00000000000E+00 0. -1.
          5    1    4    4  502    0  0.14871848319E+02 -0.47397033970E-01 -0.17217979101E+03  0.17288477247E+03  0.47000000000E+01 0. -1.
         -5    1    4    4    0  502  0.32889271647E+02  0.82546216410E+02 -0.72834808673E+02  0.11498948381E+03  0.47000000000E+01 0. -1.
<mgrwt>
<rscale>  0 0.10000121E+04</rscale>
<asrwt>0</asrwt>
<pdfrwt beam="1">  1        1 0.13902310E+00 0.10000121E+04</pdfrwt>
<pdfrwt beam="2">  1       -1 0.42563453E-01 0.10000121E+04</pdfrwt>
<totfact> 0.11075307E+02</totfact>
</mgrwt>
</event>
<event>
 9    1  0.4370149E-036  0.9997820E+03  0.7818608E-02  0.8681246E-01
         -2   -1    0    0    0  501 -0.00000000000E+00  0.00000000000E+00  0.42228294773E+03  0.42228294773E+03  0.00000000000E+00 0. -1.
          2   -1    0    0  501    0  0.00000000000E+00 -0.00000000000E+00 -0.59176199906E+03  0.59176199906E+03  0.00000000000E+00 0. -1.
         36    2    1    2    0    0  0.00000000000E+00  0.00000000000E+00 -0.16947905133E+03  0.10140449468E+04  0.99978197887E+03 0.  0.
         25    2    3    3    0    0  0.94753958507E+02 -0.10196114946E+03 -0.47028270760E+02  0.19301913325E+03  0.12518122423E+03 0.  0.
         35    2    3    3    0    0 -0.94753958507E+02  0.10196114946E+03 -0.12245078057E+03  0.82102581353E+03  0.79982173275E+03 0.  0.
         22    1    5    5    0    0  0.14123815831E+03 -0.30557696788E+03 -0.92618357733E+02  0.34914704760E+03  0.00000000000E+00 0.  1.
         22    1    5    5    0    0 -0.23599211682E+03  0.40753811734E+03 -0.29832422835E+02  0.47187876593E+03  0.00000000000E+00 0.  1.
          5    1    4    4  502    0  0.41044736270E+02 -0.11388756546E+03 -0.61600450975E+02  0.13591082923E+03  0.47000000000E+01 0.  1.
         -5    1    4    4    0  502  0.53709222237E+02  0.11926416004E+02  0.14572180215E+02  0.57108304022E+02  0.47000000000E+01 0.  1.
<mgrwt>
<rscale>  0 0.99978198E+03</rscale>
<asrwt>0</asrwt>
<pdfrwt beam="1">  1        2 0.91040308E-01 0.99978198E+03</pdfrwt>
<pdfrwt beam="2">  1       -2 0.64966607E-01 0.99978198E+03</pdfrwt>
<totfact> 0.13336144E+02</totfact>
</mgrwt>
</event>
<event>
 9    1  0.4370149E-036  0.9997865E+03  0.7818608E-02  0.8681241E-01
         -1   -1    0    0    0  501 -0.00000000000E+00  0.00000000000E+00  0.61816557056E+03  0.61816557056E+03  0.00000000000E+00 0.  1.
          1   -1    0    0  501    0  0.00000000000E+00 -0.00000000000E+00 -0.40424974788E+03  0.40424974788E+03  0.00000000000E+00 0.  1.
         36    2    1    2    0    0  0.00000000000E+00  0.39079850467E-13  0.21391582267E+03  0.10224153184E+04  0.99978652931E+03 0.  0.
         25    2    3    3    0    0  0.82748140107E+01 -0.69530790328E+01  0.18060209855E+03  0.22072581477E+03  0.12643555453E+03 0.  0.
         35    2    3    3    0    0 -0.82748140107E+01  0.69530790328E+01  0.33313724123E+02  0.80168950367E+03  0.80092411515E+03 0.  0.
         22    1    5    5    0    0 -0.10596435193E+03 -0.31757908193E+03  0.23339937954E+03  0.40811785985E+03  0.00000000000E+00 0.  1.
         22    1    5    5    0    0  0.97689537921E+02  0.32453216096E+03 -0.20008565542E+03  0.39357164382E+03  0.00000000000E+00 0.  1.
          5    1    4    4  502    0  0.15435098061E+02 -0.32915666297E+02 -0.13976785018E+01  0.36684149781E+02  0.47000000000E+01 0.  1.
         -5    1    4    4    0  502 -0.71602840506E+01  0.25962587264E+02  0.18199977705E+03  0.18404166499E+03  0.47000000000E+01 0.  1.
<mgrwt>
<rscale>  0 0.99978653E+03</rscale>
<asrwt>0</asrwt>
<pdfrwt beam="1">  1        1 0.62192269E-01 0.99978653E+03</pdfrwt>
<pdfrwt beam="2">  1       -1 0.95102396E-01 0.99978653E+03</pdfrwt>
<totfact> 0.75487224E+01</totfact>
</mgrwt>
</event>
<event>
 9    1  0.4370149E-036  0.9998366E+03  0.7818608E-02  0.8681194E-01
          2   -1    0    0  501    0  0.00000000000E+00  0.00000000000E+00  0.22304930307E+04  0.22304930307E+04  0.00000000000E+00 0. -1.
         -2   -1    0    0    0  501 -0.00000000000E+00 -0.00000000000E+00 -0.11204621348E+03  0.11204621348E+03  0.00000000000E+00 0. -1.
         36    2    1    2    0    0  0.00000000000E+00  0.14210854715E-13  0.21184468173E+04  0.23425392442E+04  0.99983658323E+03 0.  0.
         25    2    3    3    0    0 -0.13785745758E+03 -0.20821958969E+01  0.33751814661E+03  0.38567235502E+03  0.12576029575E+03 0.  0.
         35    2    3    3    0    0  0.13785745758E+03  0.20821958969E+01  0.17809286706E+04  0.19568668892E+04  0.79913207792E+03 0.  0.
         22    1    5    5    0    0  0.22843385203E+03 -0.33082538640E+03  0.56839259082E+03  0.69620226826E+03  0.00000000000E+00 0. -1.
         22    1    5    5    0    0 -0.90576394454E+02  0.33290758230E+03  0.12125360798E+04  0.12606646209E+04  0.00000000000E+00 0. -1.
          5    1    4    4  502    0 -0.86226788608E+02 -0.32837491014E+02  0.83269629248E+02  0.12437556450E+03  0.47000000000E+01 0.  1.
         -5    1    4    4    0  502 -0.51630668972E+02  0.30755295117E+02  0.25424851736E+03  0.26129679052E+03  0.47000000000E+01 0.  1.
<mgrwt>
<rscale>  0 0.99983658E+03</rscale>
<asrwt>0</asrwt>
<pdfrwt beam="1">  1        2 0.34315274E+00 0.99983658E+03</pdfrwt>
<pdfrwt beam="2">  1       -2 0.17237881E-01 0.99983658E+03</pdfrwt>
<totfact> 0.15934138E+02</totfact>
</mgrwt>
</event>
<event>
 9    1  0.4370149E-036  0.9998730E+03  0.7818608E-02  0.8681159E-01
         -2   -1    0    0    0  501 -0.00000000000E+00  0.00000000000E+00  0.57232229681E+03  0.57232229681E+03  0.00000000000E+00 0. -1.
          2   -1    0    0  501    0  0.00000000000E+00 -0.00000000000E+00 -0.43670584700E+03  0.43670584700E+03  0.00000000000E+00 0. -1.
         36    2    1    2    0    0 -0.56843418861E-13  0.00000000000E+00  0.13561644982E+03  0.10090281438E+04  0.99987297870E+03 0.  0.
         25    2    3    3    0    0  0.13556557108E+03  0.33371437076E+02  0.29980453634E+02  0.18989115926E+03  0.12517247257E+03 0.  0.
         35    2    3    3    0    0 -0.13556557108E+03 -0.33371437076E+02  0.10563599618E+03  0.81913698456E+03  0.80020919696E+03 0.  0.
         22    1    5    5    0    0  0.14066992037E+03 -0.64548267130E+01 -0.29782129544E+03  0.32943469049E+03  0.00000000000E+00 0. -1.
         22    1    5    5    0    0 -0.27623549145E+03 -0.26916610363E+02  0.40345729162E+03  0.48970229406E+03  0.00000000000E+00 0. -1.
          5    1    4    4  502    0  0.14313491559E+03  0.41700474881E+02  0.57445843008E+02  0.15983944615E+03  0.47000000000E+01 0.  1.
         -5    1    4    4    0  502 -0.75693445134E+01 -0.83290378052E+01 -0.27465389374E+02  0.30051713106E+02  0.47000000000E+01 0.  1.
<mgrwt>
<rscale>  0 0.99987298E+03</rscale>
<asrwt>0</asrwt>
<pdfrwt beam="1">  1        2 0.67185515E-01 0.99987298E+03</pdfrwt>
<pdfrwt beam="2">  1       -2 0.88049584E-01 0.99987298E+03</pdfrwt>
<totfact> 0.95730266E+01</totfact>
</mgrwt>
</event>
<event>
 9    1  0.4370149E-036  0.9981376E+03  0.7818608E-02  0.8682813E-01
         -1   -1    0    0    0  501 -0.00000000000E+00  0.00000000000E+00  0.27759346528E+03  0.27759346528E+03  0.00000000000E+00 0. -1.
          1   -1    0    0  501    0  0.00000000000E+00 -0.00000000000E+00 -0.89724621793E+03  0.89724621793E+03  0.00000000000E+00 0. -1.
         36    2    1    2    0    0  0.14210854715E-13  0.14210854715E-13 -0.61965275265E+03  0.11748396832E+04  0.99813763950E+03 0.  0.
         25    2    3    3    0    0  0.62041630250E+02 -0.39400433138E+02 -0.25547723887E+03  0.29336220220E+03  0.12406129164E+03 0.  0.
         35    2    3    3    0    0 -0.62041630250E+02  0.39400433138E+02 -0.36417551379E+03  0.88147748102E+03  0.79936048607E+03 0.  0.
         22    1    5    5    0    0  0.10991951662E+03  0.98039148490E+02 -0.58054886509E+03  0.59894153264E+03  0.00000000000E+00 0.  1.
         22    1    5    5    0    0 -0.17196114687E+03 -0.58638715352E+02  0.21637335130E+03  0.28253594837E+03  0.00000000000E+00 0.  1.
          5    1    4    4  502    0  0.42306799839E+02  0.36209191001E+02 -0.56181953269E+02  0.79243123984E+02  0.47000000000E+01 0. -1.
         -5    1    4    4    0  502  0.19734830411E+02 -0.75609624139E+02 -0.19929528560E+03  0.21411907821E+03  0.47000000000E+01 0. -1.
<mgrwt>
<rscale>  0 0.99813764E+03</rscale>
<asrwt>0</asrwt>
<pdfrwt beam="1">  1        1 0.13803788E+00 0.99813764E+03</pdfrwt>
<pdfrwt beam="2">  1       -1 0.42706686E-01 0.99813764E+03</pdfrwt>
<totfact> 0.11146321E+02</totfact>
</mgrwt>
</event>
<event>
 9    1  0.4370149E-036  0.9998984E+03  0.7818608E-02  0.8681135E-01
         -2   -1    0    0    0  501 -0.00000000000E+00  0.00000000000E+00  0.28833069633E+03  0.28833069633E+03  0.00000000000E+00 0.  1.
          2   -1    0    0  501    0  0.00000000000E+00 -0.00000000000E+00 -0.86688381607E+03  0.86688381607E+03  0.00000000000E+00 0.  1.
         36    2    1    2    0    0  0.00000000000E+00 -0.42632564146E-13 -0.57855311974E+03  0.11552145124E+04  0.99989842348E+03 0.  0.
         25    2    3    3    0    0  0.13243655202E+03 -0.35377274180E+02 -0.11602365936E+03  0.22090873945E+03  0.12863976755E+03 0.  0.
         35    2    3    3    0    0 -0.13243655202E+03  0.35377274180E+02 -0.46252946038E+03  0.93430577294E+03  0.80012672983E+03 0.  0.
         22    1    5    5    0    0 -0.82568009026E+01 -0.32785198157E+03  0.67464537476E+01  0.32802532101E+03  0.00000000000E+00 0. -1.
         22    1    5    5    0    0 -0.12417975112E+03  0.36322925575E+03 -0.46927591412E+03  0.60628045193E+03  0.00000000000E+00 0. -1.
          5    1    4    4  502    0 -0.25771855220E+02 -0.47128693145E+01 -0.13442957258E+02  0.29819502989E+02  0.47000000000E+01 0. -1.
         -5    1    4    4    0  502  0.15820840724E+03 -0.30664404866E+02 -0.10258070211E+03  0.19108923646E+03  0.47000000000E+01 0. -1.
<mgrwt>
<rscale>  0 0.99989842E+03</rscale>
<asrwt>0</asrwt>
<pdfrwt beam="1">  1        2 0.13336674E+00 0.99989842E+03</pdfrwt>
<pdfrwt beam="2">  1       -2 0.44358569E-01 0.99989842E+03</pdfrwt>
<totfact> 0.18015739E+02</totfact>
</mgrwt>
</event>
<event>
 9    1  0.4370149E-036  0.9996998E+03  0.7818608E-02  0.8681324E-01
         -1   -1    0    0    0  501 -0.00000000000E+00  0.00000000000E+00  0.26986663764E+03  0.26986663764E+03  0.00000000000E+00 0.  1.
          1   -1    0    0  501    0  0.00000000000E+00 -0.00000000000E+00 -0.92582730302E+03  0.92582730302E+03  0.00000000000E+00 0.  1.
         36    2    1    2    0    0 -0.28421709430E-13  0.28421709430E-13 -0.65596066538E+03  0.11956939407E+04  0.99969975752E+03 0.  0.
         25    2    3    3    0    0 -0.69121955539E+01  0.13968705609E+03 -0.13464985345E+03  0.23150719461E+03  0.12611401997E+03 0.  0.
         35    2    3    3    0    0  0.69121955539E+01 -0.13968705609E+03 -0.52131081193E+03  0.96418674605E+03  0.79895611052E+03 0.  0.
         22    1    5    5    0    0  0.39251449581E+03 -0.12169614015E+03 -0.35809613019E+03  0.54507835988E+03  0.00000000000E+00 0. -1.
         22    1    5    5    0    0 -0.38560230026E+03 -0.17990915940E+02 -0.16321468174E+03  0.41910838617E+03  0.00000000000E+00 0. -1.
          5    1    4    4  502    0  0.40253455387E+02  0.13221592733E+03 -0.11420188943E+03  0.17934757779E+03  0.47000000000E+01 0. -1.
         -5    1    4    4    0  502 -0.47165650941E+02  0.74711287601E+01 -0.20447964024E+02  0.52159616816E+02  0.47000000000E+01 0. -1.
<mgrwt>
<rscale>  0 0.99969976E+03</rscale>
<asrwt>0</asrwt>
<pdfrwt beam="1">  1        1 0.14243497E+00 0.99969976E+03</pdfrwt>
<pdfrwt beam="2">  1       -1 0.41517944E-01 0.99969976E+03</pdfrwt>
<totfact> 0.11102608E+02</totfact>
</mgrwt>
</event>
<event>
 9    1  0.4370149E-036  0.1002907E+04  0.7818608E-02  0.8678274E-01
          1   -1    0    0  501    0  0.00000000000E+00  0.00000000000E+00  0.31492106423E+04  0.31492106423E+04  0.00000000000E+00 0.  1.
         -1   -1    0    0    0  501 -0.00000000000E+00 -0.00000000000E+00 -0.79847258624E+02  0.79847258624E+02  0.00000000000E+00 0.  1.
         36    2    1    2    0    0  0.14210854715E-13 -0.71054273576E-14  0.30693633837E+04  0.32290579010E+04  0.10029074466E+04 0.  0.
         25    2    3    3    0    0 -0.12227242156E+03 -0.33009535976E+02  0.79651160523E+03  0.81612755091E+03  0.12487300565E+03 0.  0.
         35    2    3    3    0    0  0.12227242156E+03  0.33009535976E+02  0.22728517785E+04  0.24129303501E+04  0.80021090516E+03 0.  0.
         22    1    5    5    0    0  0.34562544903E+03 -0.19328817623E+03  0.66530182292E+03  0.77423755119E+03  0.00000000000E+00 0.  1.
         22    1    5    5    0    0 -0.22335302747E+03  0.22629771221E+03  0.16075499556E+04  0.16386927989E+04  0.00000000000E+00 0.  1.
          5    1    4    4  502    0 -0.62105139368E+02 -0.61298889001E+02  0.64106856082E+03  0.64699736615E+03  0.47000000000E+01 0. -1.
         -5    1    4    4    0  502 -0.60167282191E+02  0.28289353026E+02  0.15544304441E+03  0.16913018476E+03  0.47000000000E+01 0. -1.
<mgrwt>
<rscale>  0 0.10029074E+04</rscale>
<asrwt>0</asrwt>
<pdfrwt beam="1">  1        1 0.48449385E+00 0.10029074E+04</pdfrwt>
<pdfrwt beam="2">  1       -1 0.12284196E-01 0.10029074E+04</pdfrwt>
<totfact> 0.21468841E+01</totfact>
</mgrwt>
</event>
<event>
 9    1  0.4370149E-036  0.1000578E+04  0.7818608E-02  0.8680488E-01
          2   -1    0    0  501    0  0.00000000000E+00  0.00000000000E+00  0.12494680529E+04  0.12494680529E+04  0.00000000000E+00 0.  1.
         -2   -1    0    0    0  501 -0.00000000000E+00 -0.00000000000E+00 -0.20031641190E+03  0.20031641190E+03  0.00000000000E+00 0.  1.
         36    2    1    2    0    0  0.28421709430E-13  0.28421709430E-13  0.10491516410E+04  0.14497844648E+04  0.10005777474E+04 0.  0.
         25    2    3    3    0    0 -0.13930360810E+03  0.20823369053E+02  0.19290342625E+03  0.26966432450E+03  0.12517191426E+03 0.  0.
         35    2    3    3    0    0  0.13930360810E+03 -0.20823369053E+02  0.85624821471E+03  0.11801201403E+04  0.79980212072E+03 0.  0.
         22    1    5    5    0    0  0.30658347558E+03 -0.33549488153E+03  0.51238336295E+03  0.68489922883E+03  0.00000000000E+00 0. -1.
         22    1    5    5    0    0 -0.16727986748E+03  0.31467151248E+03  0.34386485177E+03  0.49522091142E+03  0.00000000000E+00 0. -1.
          5    1    4    4  502    0  0.13267701837E+02  0.31892662331E+02  0.28270217181E+02  0.44882836386E+02  0.47000000000E+01 0.  1.
         -5    1    4    4    0  502 -0.15257130993E+03 -0.11069293278E+02  0.16463320907E+03  0.22478148811E+03  0.47000000000E+01 0.  1.
<mgrwt>
<rscale>  0 0.10005777E+04</rscale>
<asrwt>0</asrwt>
<pdfrwt beam="1">  1        2 0.19222585E+00 0.10005777E+04</pdfrwt>
<pdfrwt beam="2">  1       -2 0.30817910E-01 0.10005777E+04</pdfrwt>
<totfact> 0.20762316E+02</totfact>
</mgrwt>
</event>
<event>
 9    1  0.4370149E-036  0.1000240E+04  0.7818608E-02  0.8680810E-01
         -2   -1    0    0    0  501 -0.00000000000E+00  0.00000000000E+00  0.98364452246E+02  0.98364452246E+02  0.00000000000E+00 0.  1.
          2   -1    0    0  501    0  0.00000000000E+00 -0.00000000000E+00 -0.25427867084E+04  0.25427867084E+04  0.00000000000E+00 0.  1.
         36    2    1    2    0    0 -0.42632564146E-13  0.00000000000E+00 -0.24444222562E+04  0.26411511607E+04  0.10002396148E+04 0.  0.
         25    2    3    3    0    0  0.35338795014E+02  0.12900061335E+03 -0.34551666481E+03  0.39103512029E+03  0.12504683507E+03 0.  0.
         35    2    3    3    0    0 -0.35338795014E+02 -0.12900061335E+03 -0.20989055914E+04  0.22501160404E+04  0.79982968501E+03 0.  0.
         22    1    5    5    0    0  0.37544743240E+03  0.12958486223E+02 -0.10178460300E+04  0.10849604774E+04  0.00000000000E+00 0.  1.
         22    1    5    5    0    0 -0.41078622741E+03 -0.14195909957E+03 -0.10810595614E+04  0.11651555630E+04  0.00000000000E+00 0.  1.
          5    1    4    4  502    0  0.26295102793E+02  0.15327241062E+03 -0.27811857688E+03  0.31867835994E+03  0.47000000000E+01 0. -1.
         -5    1    4    4    0  502  0.90436922211E+01 -0.24271797271E+02 -0.67398087931E+02  0.72356760351E+02  0.47000000000E+01 0. -1.
<mgrwt>
<rscale>  0 0.10002396E+04</rscale>
<asrwt>0</asrwt>
<pdfrwt beam="1">  1        2 0.39119793E+00 0.10002396E+04</pdfrwt>
<pdfrwt beam="2">  1       -2 0.15132994E-01 0.10002396E+04</pdfrwt>
<totfact> 0.12919531E+02</totfact>
</mgrwt>
</event>
<event>
 9    1  0.4370149E-036  0.9988670E+03  0.7818608E-02  0.8682118E-01
          2   -1    0    0  501    0  0.00000000000E+00  0.00000000000E+00  0.93158143724E+03  0.93158143724E+03  0.00000000000E+00 0. -1.
         -2   -1    0    0    0  501 -0.00000000000E+00 -0.00000000000E+00 -0.26775310776E+03  0.26775310776E+03  0.00000000000E+00 0. -1.
         36    2    1    2    0    0 -0.71054273576E-14  0.71054273576E-14  0.66382832948E+03  0.11993345450E+04  0.99886700808E+03 0.  0.
         25    2    3    3    0    0 -0.84711883465E+01 -0.41198220969E+02 -0.34782477101E+02  0.13607649982E+03  0.12465126813E+03 0.  0.
         35    2    3    3    0    0  0.84711883465E+01  0.41198220969E+02  0.69861080658E+03  0.10632580452E+04  0.80043210652E+03 0.  0.
         22    1    5    5    0    0  0.35057073656E+03  0.21890358673E+03  0.31754196502E+03  0.52120199651E+03  0.00000000000E+00 0. -1.
         22    1    5    5    0    0 -0.34209954821E+03 -0.17770536577E+03  0.38106884156E+03  0.54205604868E+03  0.00000000000E+00 0. -1.
          5    1    4    4  502    0 -0.54905078632E+02  0.16291943545E+02 -0.16922211017E+02  0.59903641874E+02  0.47000000000E+01 0. -1.
         -5    1    4    4    0  502  0.46433890285E+02 -0.57490164514E+02 -0.17860266083E+02  0.76172857944E+02  0.47000000000E+01 0. -1.
<mgrwt>
<rscale>  0 0.99886701E+03</rscale>
<asrwt>0</asrwt>
<pdfrwt beam="1">  1        2 0.14332022E+00 0.99886701E+03</pdfrwt>
<pdfrwt beam="2">  1       -2 0.41192786E-01 0.99886701E+03</pdfrwt>
<totfact> 0.18851542E+02</totfact>
</mgrwt>
</event>
<event>
 9    1  0.4370149E-036  0.1000539E+04  0.7818608E-02  0.8680525E-01
          1   -1    0    0  501    0  0.00000000000E+00  0.00000000000E+00  0.34742978078E+03  0.34742978078E+03  0.00000000000E+00 0.  1.
         -1   -1    0    0    0  501 -0.00000000000E+00 -0.00000000000E+00 -0.72034606437E+03  0.72034606437E+03  0.00000000000E+00 0.  1.
         36    2    1    2    0    0  0.71054273576E-14 -0.42632564146E-13 -0.37291628359E+03  0.10677758451E+04  0.10005392051E+04 0.  0.
         25    2    3    3    0    0 -0.55704714740E+01 -0.11653493817E+03  0.14536080852E+02  0.17167098466E+03  0.12509279500E+03 0.  0.
         35    2    3    3    0    0  0.55704714740E+01  0.11653493817E+03 -0.38745236444E+03  0.89610486048E+03  0.79954559864E+03 0.  0.
         22    1    5    5    0    0 -0.15500513174E+03 -0.13034048733E+03  0.17080211198E+03  0.26493130234E+03  0.00000000000E+00 0.  1.
         22    1    5    5    0    0  0.16057560321E+03  0.24687542550E+03 -0.55825447642E+03  0.63117355814E+03  0.00000000000E+00 0.  1.
          5    1    4    4  502    0  0.53002485149E+02 -0.79893107238E+02 -0.13550012525E+02  0.96942585356E+02  0.47000000000E+01 0.  1.
         -5    1    4    4    0  502 -0.58572956623E+02 -0.36641830929E+02  0.28086093377E+02  0.74728399304E+02  0.47000000000E+01 0.  1.
<mgrwt>
<rscale>  0 0.10005392E+04</rscale>
<asrwt>0</asrwt>
<pdfrwt beam="1">  1        1 0.53450736E-01 0.10005392E+04</pdfrwt>
<pdfrwt beam="2">  1       -1 0.11082247E+00 0.10005392E+04</pdfrwt>
<totfact> 0.65218581E+01</totfact>
</mgrwt>
</event>
<event>
 9    1  0.4370149E-036  0.1000892E+04  0.7818608E-02  0.8680189E-01
          2   -1    0    0  501    0  0.00000000000E+00  0.00000000000E+00  0.10652383639E+04  0.10652383639E+04  0.00000000000E+00 0. -1.
         -2   -1    0    0    0  501 -0.00000000000E+00 -0.00000000000E+00 -0.23510831310E+03  0.23510831310E+03  0.00000000000E+00 0. -1.
         36    2    1    2    0    0 -0.14210854715E-13  0.00000000000E+00  0.83013005075E+03  0.13003466770E+04  0.10008923914E+04 0.  0.
         25    2    3    3    0    0 -0.63097034589E+02  0.10842161757E+03  0.22586208477E+03  0.28702836499E+03  0.12504046562E+03 0.  0.
         35    2    3    3    0    0  0.63097034589E+02 -0.10842161757E+03  0.60426796598E+03  0.10133183120E+04  0.80370252191E+03 0.  0.
         22    1    5    5    0    0  0.17875808270E+03  0.67365514411E+02  0.73910908288E+03  0.76339688306E+03  0.00000000000E+00 0.  1.
         22    1    5    5    0    0 -0.11566104811E+03 -0.17578713198E+03 -0.13484111690E+03  0.24992142891E+03  0.00000000000E+00 0.  1.
          5    1    4    4  502    0 -0.46217138074E+02  0.49931576178E+02  0.21429284935E+03  0.22488375093E+03  0.47000000000E+01 0.  1.
         -5    1    4    4    0  502 -0.16879896514E+02  0.58490041391E+02  0.11569235419E+02  0.62144614058E+02  0.47000000000E+01 0.  1.
<mgrwt>
<rscale>  0 0.10008924E+04</rscale>
<asrwt>0</asrwt>
<pdfrwt beam="1">  1        2 0.16388282E+00 0.10008924E+04</pdfrwt>
<pdfrwt beam="2">  1       -2 0.36170510E-01 0.10008924E+04</pdfrwt>
<totfact> 0.19886427E+02</totfact>
</mgrwt>
</event>
<event>
 9    1  0.4370149E-036  0.9997332E+03  0.7818608E-02  0.8681292E-01
          1   -1    0    0  501    0  0.00000000000E+00  0.00000000000E+00  0.54300699238E+03  0.54300699238E+03  0.00000000000E+00 0.  1.
         -1   -1    0    0    0  501 -0.00000000000E+00 -0.00000000000E+00 -0.46015359277E+03  0.46015359277E+03  0.00000000000E+00 0.  1.
         36    2    1    2    0    0  0.56843418861E-13  0.24868995752E-13  0.82853399611E+02  0.10031605852E+04  0.99973320130E+03 0.  0.
         25    2    3    3    0    0 -0.14419367237E+03 -0.89253053547E+01  0.25838778951E+02  0.19185880926E+03  0.12357460890E+03 0.  0.
         35    2    3    3    0    0  0.14419367237E+03  0.89253053547E+01  0.57014620660E+02  0.81130177590E+03  0.79629669620E+03 0.  0.
         22    1    5    5    0    0 -0.15221643953E+03 -0.20256448766E+03  0.28526845132E+03  0.38154987282E+03  0.00000000000E+00 0. -1.
         22    1    5    5    0    0  0.29641011190E+03  0.21148979302E+03 -0.22825383066E+03  0.42975190308E+03  0.00000000000E+00 0. -1.
          5    1    4    4  502    0 -0.14079671590E+03 -0.16899823643E+01 -0.22471997104E+02  0.14266622552E+03  0.47000000000E+01 0.  1.
         -5    1    4    4    0  502 -0.33969564673E+01 -0.72353229904E+01  0.48310776055E+02  0.49192583740E+02  0.47000000000E+01 0.  1.
<mgrwt>
<rscale>  0 0.99973320E+03</rscale>
<asrwt>0</asrwt>
<pdfrwt beam="1">  1        1 0.83539537E-01 0.99973320E+03</pdfrwt>
<pdfrwt beam="2">  1       -1 0.70792861E-01 0.99973320E+03</pdfrwt>
<totfact> 0.93421701E+01</totfact>
</mgrwt>
</event>
<event>
 9    1  0.4370149E-036  0.9980075E+03  0.7818608E-02  0.8682938E-01
          2   -1    0    0  501    0  0.00000000000E+00  0.00000000000E+00  0.74814254906E+03  0.74814254906E+03  0.00000000000E+00 0.  1.
         -2   -1    0    0    0  501 -0.00000000000E+00 -0.00000000000E+00 -0.33283064238E+03  0.33283064238E+03  0.00000000000E+00 0.  1.
         36    2    1    2    0    0  0.14210854715E-13  0.71054273576E-14  0.41531190668E+03  0.10809731914E+04  0.99800754545E+03 0.  0.
         25    2    3    3    0    0 -0.10126008083E+03  0.18655249774E+02 -0.30123794769E+02  0.15949233520E+03  0.11802008160E+03 0.  0.
         35    2    3    3    0    0  0.10126008083E+03 -0.18655249774E+02  0.44543570145E+03  0.92148085623E+03  0.80007023565E+03 0.  0.
         22    1    5    5    0    0  0.15660826509E+03 -0.13251388979E+03  0.64961505874E+03  0.68123843419E+03  0.00000000000E+00 0. -1.
         22    1    5    5    0    0 -0.55348184253E+02  0.11385864002E+03 -0.20417935729E+03  0.24024242204E+03  0.00000000000E+00 0. -1.
          5    1    4    4  502    0 -0.64835141361E+02 -0.41762414912E+01 -0.73521169610E+02  0.98226722072E+02  0.47000000000E+01 0.  1.
         -5    1    4    4    0  502 -0.36424939473E+02  0.22831491265E+02  0.43397374841E+02  0.61265613129E+02  0.47000000000E+01 0.  1.
<mgrwt>
<rscale>  0 0.99800755E+03</rscale>
<asrwt>0</asrwt>
<pdfrwt beam="1">  1        2 0.11509885E+00 0.99800755E+03</pdfrwt>
<pdfrwt beam="2">  1       -2 0.51204715E-01 0.99800755E+03</pdfrwt>
<totfact> 0.16410335E+02</totfact>
</mgrwt>
</event>
<event>
 9    1  0.4370149E-036  0.9992938E+03  0.7818608E-02  0.8681711E-01
          1   -1    0    0  501    0  0.00000000000E+00  0.00000000000E+00  0.20151662132E+04  0.20151662132E+04  0.00000000000E+00 0. -1.
         -1   -1    0    0    0  501 -0.00000000000E+00 -0.00000000000E+00 -0.12388409441E+03  0.12388409441E+03  0.00000000000E+00 0. -1.
         36    2    1    2    0    0  0.00000000000E+00  0.00000000000E+00  0.18912821188E+04  0.21390503077E+04  0.99929383351E+03 0.  0.
         25    2    3    3    0    0  0.86545481545E+02 -0.57085177902E+02  0.55731399333E+03  0.58033014714E+03  0.12423910257E+03 0.  0.
         35    2    3    3    0    0 -0.86545481545E+02  0.57085177902E+02  0.13339681255E+04  0.15587201605E+04  0.79961787189E+03 0.  0.
         22    1    5    5    0    0 -0.21215064570E+03 -0.32588607053E+03  0.50879041815E+03  0.64037279536E+03  0.00000000000E+00 0. -1.
         22    1    5    5    0    0  0.12560516416E+03  0.38297124843E+03  0.82517770734E+03  0.91834736515E+03  0.00000000000E+00 0. -1.
          5    1    4    4  502    0  0.56510824079E+02 -0.53673286730E+02  0.12804842937E+03  0.14997594878E+03  0.47000000000E+01 0.  1.
         -5    1    4    4    0  502  0.30034657467E+02 -0.34118911714E+01  0.42926556396E+03  0.43035419836E+03  0.47000000000E+01 0.  1.
<mgrwt>
<rscale>  0 0.99929383E+03</rscale>
<asrwt>0</asrwt>
<pdfrwt beam="1">  1        1 0.31002555E+00 0.99929383E+03</pdfrwt>
<pdfrwt beam="2">  1       -1 0.19059093E-01 0.99929383E+03</pdfrwt>
<totfact> 0.67299714E+01</totfact>
</mgrwt>
</event>
<event>
 9    1  0.4370149E-036  0.1000186E+04  0.7818608E-02  0.8680861E-01
          1   -1    0    0  501    0  0.00000000000E+00  0.00000000000E+00  0.21600638348E+03  0.21600638348E+03  0.00000000000E+00 0. -1.
         -1   -1    0    0    0  501 -0.00000000000E+00 -0.00000000000E+00 -0.11578031932E+04  0.11578031932E+04  0.00000000000E+00 0. -1.
         36    2    1    2    0    0 -0.71054273576E-14 -0.28421709430E-13 -0.94179680977E+03  0.13738095767E+04  0.10001857438E+04 0.  0.
         25    2    3    3    0    0  0.52054254869E+02 -0.11275555077E+03 -0.27107317889E+03  0.32264354454E+03  0.12326690083E+03 0.  0.
         35    2    3    3    0    0 -0.52054254869E+02  0.11275555077E+03 -0.67072363088E+03  0.10511660322E+04  0.79978520773E+03 0.  0.
         22    1    5    5    0    0 -0.10088907872E+03  0.44859619010E+03 -0.46686988715E+03  0.65527447647E+03  0.00000000000E+00 0.  1.
         22    1    5    5    0    0  0.48834823854E+02 -0.33584063934E+03 -0.20385374373E+03  0.39589155571E+03  0.00000000000E+00 0.  1.
          5    1    4    4  502    0 -0.32939349046E+02 -0.57440121561E+02 -0.15392743431E+03  0.16763088413E+03  0.47000000000E+01 0.  1.
         -5    1    4    4    0  502  0.84993603915E+02 -0.55315429206E+02 -0.11714574458E+03  0.15501266041E+03  0.47000000000E+01 0.  1.
<mgrwt>
<rscale>  0 0.10001857E+04</rscale>
<asrwt>0</asrwt>
<pdfrwt beam="1">  1        1 0.33231751E-01 0.10001857E+04</pdfrwt>
<pdfrwt beam="2">  1       -1 0.17812357E+00 0.10001857E+04</pdfrwt>
<totfact> 0.32045774E+01</totfact>
</mgrwt>
</event>
<event>
 9    1  0.4370149E-036  0.1001739E+04  0.7818608E-02  0.8679384E-01
         -1   -1    0    0    0  501 -0.00000000000E+00  0.00000000000E+00  0.13025989849E+03  0.13025989849E+03  0.00000000000E+00 0. -1.
          1   -1    0    0  501    0  0.00000000000E+00 -0.00000000000E+00 -0.19259192410E+04  0.19259192410E+04  0.00000000000E+00 0. -1.
         36    2    1    2    0    0  0.00000000000E+00  0.00000000000E+00 -0.17956593425E+04  0.20561791395E+04  0.10017385783E+04 0.  0.
         25    2    3    3    0    0  0.83110840394E+02 -0.55503619403E+02 -0.54968250719E+03  0.57243740747E+03  0.12468224894E+03 0.  0.
         35    2    3    3    0    0 -0.83110840394E+02  0.55503619403E+02 -0.12459768354E+04  0.14837417320E+04  0.79940176984E+03 0.  0.
         22    1    5    5    0    0 -0.24740686437E+03 -0.19553773944E+03 -0.15332550651E+03  0.35064779341E+03  0.00000000000E+00 0.  1.
         22    1    5    5    0    0  0.16429602397E+03  0.25104135884E+03 -0.10926513288E+04  0.11330939386E+04  0.00000000000E+00 0.  1.
          5    1    4    4  502    0  0.76881525624E+02 -0.67751541981E+02 -0.54833995502E+03  0.55785288087E+03  0.47000000000E+01 0.  1.
         -5    1    4    4    0  502  0.62293147704E+01  0.12247922578E+02 -0.13425521770E+01  0.14584526606E+02  0.47000000000E+01 0.  1.
<mgrwt>
<rscale>  0 0.10017386E+04</rscale>
<asrwt>0</asrwt>
<pdfrwt beam="1">  1        1 0.29629526E+00 0.10017386E+04</pdfrwt>
<pdfrwt beam="2">  1       -1 0.20039985E-01 0.10017386E+04</pdfrwt>
<totfact> 0.71539174E+01</totfact>
</mgrwt>
</event>
<event>
 9    1  0.4370149E-036  0.9998957E+03  0.7818608E-02  0.8681137E-01
         -1   -1    0    0    0  501 -0.00000000000E+00  0.00000000000E+00  0.26078295019E+03  0.26078295019E+03  0.00000000000E+00 0.  1.
          1   -1    0    0  501    0  0.00000000000E+00 -0.00000000000E+00 -0.95845172598E+03  0.95845172598E+03  0.00000000000E+00 0.  1.
         36    2    1    2    0    0  0.00000000000E+00  0.00000000000E+00 -0.69766877579E+03  0.12192346762E+04  0.99989573199E+03 0.  0.
         25    2    3    3    0    0  0.56414235872E+02 -0.83426133845E+02 -0.24921151725E+03  0.29648139705E+03  0.12510936277E+03 0.  0.
         35    2    3    3    0    0 -0.56414235872E+02  0.83426133845E+02 -0.44845725854E+03  0.92275327912E+03  0.80013574821E+03 0.  0.
         22    1    5    5    0    0  0.18049101894E+03  0.25371550829E+03  0.77883277966E+02  0.32095852077E+03  0.00000000000E+00 0. -1.
         22    1    5    5    0    0 -0.23690525482E+03 -0.17028937444E+03 -0.52634053651E+03  0.60179475835E+03  0.00000000000E+00 0. -1.
          5    1    4    4  502    0  0.28474391204E+00 -0.12174339737E+01  0.14114813267E+02  0.14929205542E+02  0.47000000000E+01 0. -1.
         -5    1    4    4    0  502  0.56129491960E+02 -0.82208699871E+02 -0.26332633051E+03  0.28155219151E+03  0.47000000000E+01 0. -1.
<mgrwt>
<rscale>  0 0.99989573E+03</rscale>
<asrwt>0</asrwt>
<pdfrwt beam="1">  1        1 0.14745411E+00 0.99989573E+03</pdfrwt>
<pdfrwt beam="2">  1       -1 0.40120454E-01 0.99989573E+03</pdfrwt>
<totfact> 0.11101161E+02</totfact>
</mgrwt>
</event>
<event>
 9    1  0.4370149E-036  0.9986051E+03  0.7818608E-02  0.8682367E-01
          2   -1    0    0  501    0  0.00000000000E+00  0.00000000000E+00  0.18087410346E+04  0.18087410346E+04  0.00000000000E+00 0. -1.
         -2   -1    0    0    0  501 -0.00000000000E+00 -0.00000000000E+00 -0.13783236515E+03  0.13783236515E+03  0.00000000000E+00 0. -1.
         36    2    1    2    0    0 -0.14210854715E-13  0.00000000000E+00  0.16709086695E+04  0.19465733998E+04  0.99860513667E+03 0.  0.
         25    2    3    3    0    0 -0.84457670552E+02 -0.84565588321E+02  0.43488833352E+03  0.46938863739E+03  0.13005150300E+03 0.  0.
         35    2    3    3    0    0  0.84457670552E+02  0.84565588321E+02  0.12360203360E+04  0.14771847624E+04  0.80002757109E+03 0.  0.
         22    1    5    5    0    0  0.34940567277E+02 -0.30622324661E+03  0.19647123837E+03  0.36550576946E+03  0.00000000000E+00 0.  1.
         22    1    5    5    0    0  0.49517103275E+02  0.39078883493E+03  0.10395490976E+04  0.11116789929E+04  0.00000000000E+00 0.  1.
          5    1    4    4  502    0  0.28656323494E+02 -0.24916041100E+02  0.45163625689E+02  0.59193218071E+02  0.47000000000E+01 0. -1.
         -5    1    4    4    0  502 -0.11311399405E+03 -0.59649547221E+02  0.38972470783E+03  0.41019541932E+03  0.47000000000E+01 0. -1.
<mgrwt>
<rscale>  0 0.99860514E+03</rscale>
<asrwt>0</asrwt>
<pdfrwt beam="1">  1        2 0.27826783E+00 0.99860514E+03</pdfrwt>
<pdfrwt beam="2">  1       -2 0.21204981E-01 0.99860514E+03</pdfrwt>
<totfact> 0.19437238E+02</totfact>
</mgrwt>
</event>
<event>
 9    1  0.4370149E-036  0.9998167E+03  0.7818608E-02  0.8681212E-01
          2   -1    0    0  501    0  0.00000000000E+00  0.00000000000E+00  0.14580760935E+04  0.14580760935E+04  0.00000000000E+00 0.  1.
         -2   -1    0    0    0  501 -0.00000000000E+00 -0.00000000000E+00 -0.17139597921E+03  0.17139597921E+03  0.00000000000E+00 0.  1.
         36    2    1    2    0    0  0.00000000000E+00  0.28421709430E-13  0.12866801143E+04  0.16294720727E+04  0.99981674282E+03 0.  0.
         25    2    3    3    0    0  0.31973392951E+02  0.13598500761E+03  0.21937789303E+03  0.28817684717E+03  0.12411694138E+03 0.  0.
         35    2    3    3    0    0 -0.31973392951E+02 -0.13598500761E+03  0.10673022213E+04  0.13412952255E+04  0.80026535000E+03 0.  0.
         22    1    5    5    0    0 -0.35649878437E+03 -0.28067122867E+03  0.53789207222E+03  0.70370135940E+03  0.00000000000E+00 0.  1.
         22    1    5    5    0    0  0.32452539142E+03  0.14468622105E+03  0.52941014904E+03  0.63759386615E+03  0.00000000000E+00 0.  1.
          5    1    4    4  502    0 -0.30533668714E+02 -0.55851844733E+01  0.46473051598E+02  0.56083275008E+02  0.47000000000E+01 0.  1.
         -5    1    4    4    0  502  0.62507061665E+02  0.14157019209E+03  0.17290484144E+03  0.23209357216E+03  0.47000000000E+01 0.  1.
<mgrwt>
<rscale>  0 0.99981674E+03</rscale>
<asrwt>0</asrwt>
<pdfrwt beam="1">  1        2 0.22431939E+00 0.99981674E+03</pdfrwt>
<pdfrwt beam="2">  1       -2 0.26368613E-01 0.99981674E+03</pdfrwt>
<totfact> 0.20878124E+02</totfact>
</mgrwt>
</event>
<event>
 9    1  0.4370149E-036  0.1000005E+04  0.7818608E-02  0.8681033E-01
          2   -1    0    0  501    0  0.00000000000E+00  0.00000000000E+00  0.13569384652E+04  0.13569384652E+04  0.00000000000E+00 0. -1.
         -2   -1    0    0    0  501 -0.00000000000E+00 -0.00000000000E+00 -0.18424028975E+03  0.18424028975E+03  0.00000000000E+00 0. -1.
         36    2    1    2    0    0 -0.24868995752E-13  0.21316282073E-13  0.11726981754E+04  0.15411787549E+04  0.10000054720E+04 0.  0.
         25    2    3    3    0    0  0.62167915858E+01  0.12510861098E+01  0.44233534568E+03  0.45770590971E+03  0.11744755439E+03 0.  0.
         35    2    3    3    0    0 -0.62167915858E+01 -0.12510861098E+01  0.73036282973E+03  0.10834728452E+04  0.80027703298E+03 0.  0.
         22    1    5    5    0    0 -0.21295458787E+03  0.15277444579E+03 -0.45402915969E+02  0.26599081293E+03  0.00000000000E+00 0. -1.
         22    1    5    5    0    0  0.20673779629E+03 -0.15402553190E+03  0.77576574570E+03  0.81748203227E+03  0.00000000000E+00 0. -1.
          5    1    4    4  502    0  0.34352831388E+02 -0.48633027394E+02  0.24488130842E+03  0.25205998015E+03  0.47000000000E+01 0. -1.
         -5    1    4    4    0  502 -0.28136039803E+02  0.49884113504E+02  0.19745403726E+03  0.20564592956E+03  0.47000000000E+01 0. -1.
<mgrwt>
<rscale>  0 0.10000055E+04</rscale>
<asrwt>0</asrwt>
<pdfrwt beam="1">  1        2 0.20875976E+00 0.10000055E+04</pdfrwt>
<pdfrwt beam="2">  1       -2 0.28344661E-01 0.10000055E+04</pdfrwt>
<totfact> 0.20943238E+02</totfact>
</mgrwt>
</event>
<event>
 9    1  0.4370149E-036  0.1000739E+04  0.7818608E-02  0.8680334E-01
         -2   -1    0    0    0  501 -0.00000000000E+00  0.00000000000E+00  0.11769629719E+03  0.11769629719E+03  0.00000000000E+00 0. -1.
          2   -1    0    0  501    0  0.00000000000E+00 -0.00000000000E+00 -0.21272536062E+04  0.21272536062E+04  0.00000000000E+00 0. -1.
         36    2    1    2    0    0  0.00000000000E+00  0.00000000000E+00 -0.20095573090E+04  0.22449499034E+04  0.10007394719E+04 0.  0.
         25    2    3    3    0    0 -0.79588983873E+02  0.89717765134E+02 -0.20990215333E+03  0.27187218025E+03  0.12438603091E+03 0.  0.
         35    2    3    3    0    0  0.79588983873E+02 -0.89717765134E+02 -0.17996551557E+04  0.19730777232E+04  0.79993333379E+03 0.  0.
         22    1    5    5    0    0 -0.43871324909E+01 -0.20854409162E+03 -0.18148351487E+04  0.18267831021E+04  0.00000000000E+00 0.  1.
         22    1    5    5    0    0  0.83976116364E+02  0.11882632648E+03  0.15179992963E+02  0.14629462113E+03  0.00000000000E+00 0.  1.
          5    1    4    4  502    0 -0.87474224208E+02  0.88299811157E+02 -0.94784164791E+02  0.15638006409E+03  0.47000000000E+01 0.  1.
         -5    1    4    4    0  502  0.78852403347E+01  0.14179539770E+01 -0.11511798854E+03  0.11549211615E+03  0.47000000000E+01 0.  1.
<mgrwt>
<rscale>  0 0.10007395E+04</rscale>
<asrwt>0</asrwt>
<pdfrwt beam="1">  1        2 0.32726979E+00 0.10007395E+04</pdfrwt>
<pdfrwt beam="2">  1       -2 0.18107122E-01 0.10007395E+04</pdfrwt>
<totfact> 0.16817286E+02</totfact>
</mgrwt>
</event>
<event>
 9    1  0.4370149E-036  0.1000004E+04  0.7818608E-02  0.8681034E-01
         -2   -1    0    0    0  501 -0.00000000000E+00  0.00000000000E+00  0.42823748451E+03  0.42823748451E+03  0.00000000000E+00 0. -1.
          2   -1    0    0  501    0  0.00000000000E+00 -0.00000000000E+00 -0.58379274788E+03  0.58379274788E+03  0.00000000000E+00 0. -1.
         36    2    1    2    0    0  0.00000000000E+00  0.42632564146E-13 -0.15555526337E+03  0.10120302324E+04  0.10000038757E+04 0.  0.
         25    2    3    3    0    0  0.12032563837E+02  0.11160758936E+03 -0.11537510275E+03  0.20377095803E+03  0.12494059551E+03 0.  0.
         35    2    3    3    0    0 -0.12032563837E+02 -0.11160758936E+03 -0.40180160617E+02  0.80825927436E+03  0.79941702052E+03 0.  0.
         22    1    5    5    0    0  0.21568193384E+03 -0.30794081510E+03 -0.24111094820E+03  0.44663265838E+03  0.00000000000E+00 0.  1.
         22    1    5    5    0    0 -0.22771449768E+03  0.19633322575E+03  0.20093078758E+03  0.36162661598E+03  0.00000000000E+00 0.  1.
          5    1    4    4  502    0  0.49016945614E+02  0.15771132085E+02 -0.35134327768E+01  0.51824933907E+02  0.47000000000E+01 0.  1.
         -5    1    4    4    0  502 -0.36984381777E+02  0.95836457271E+02 -0.11186166997E+03  0.15194602412E+03  0.47000000000E+01 0.  1.
<mgrwt>
<rscale>  0 0.10000039E+04</rscale>
<asrwt>0</asrwt>
<pdfrwt beam="1">  1        2 0.89814268E-01 0.10000039E+04</pdfrwt>
<pdfrwt beam="2">  1       -2 0.65882690E-01 0.10000039E+04</pdfrwt>
<totfact> 0.13152690E+02</totfact>
</mgrwt>
</event>
<event>
 9    1  0.4370149E-036  0.9995307E+03  0.7818608E-02  0.8681485E-01
          2   -1    0    0  501    0  0.00000000000E+00  0.00000000000E+00  0.62963942184E+03  0.62963942184E+03  0.00000000000E+00 0.  1.
         -2   -1    0    0    0  501 -0.00000000000E+00 -0.00000000000E+00 -0.39668010032E+03  0.39668010032E+03  0.00000000000E+00 0.  1.
         36    2    1    2    0    0  0.00000000000E+00  0.00000000000E+00  0.23295932152E+03  0.10263195222E+04  0.99953074795E+03 0.  0.
         25    2    3    3    0    0 -0.13271894736E+03 -0.47734556022E+02  0.27577283082E+02  0.19060512713E+03  0.12520743236E+03 0.  0.
         35    2    3    3    0    0  0.13271894736E+03  0.47734556022E+02  0.20538203843E+03  0.83571439504E+03  0.79771164059E+03 0.  0.
         22    1    5    5    0    0 -0.22806153914E+03  0.23668848495E+03  0.26744551404E+03  0.42374592331E+03  0.00000000000E+00 0.  1.
         22    1    5    5    0    0  0.36078048649E+03 -0.18895392893E+03 -0.62063475609E+02  0.41196847173E+03  0.00000000000E+00 0.  1.
          5    1    4    4  502    0 -0.10694653471E+03 -0.71194456780E+02  0.60811472965E+02  0.14221932782E+03  0.47000000000E+01 0. -1.
         -5    1    4    4    0  502 -0.25772412651E+02  0.23459900758E+02 -0.33234189883E+02  0.48385799307E+02  0.47000000000E+01 0. -1.
<mgrwt>
<rscale>  0 0.99953075E+03</rscale>
<asrwt>0</asrwt>
<pdfrwt beam="1">  1        2 0.96867603E-01 0.99953075E+03</pdfrwt>
<pdfrwt beam="2">  1       -2 0.61027708E-01 0.99953075E+03</pdfrwt>
<totfact> 0.14135364E+02</totfact>
</mgrwt>
</event>
<event>
 9    1  0.4370149E-036  0.1000808E+04  0.7818608E-02  0.8680269E-01
         -2   -1    0    0    0  501 -0.00000000000E+00  0.00000000000E+00  0.56087708694E+02  0.56087708694E+02  0.00000000000E+00 0.  1.
          2   -1    0    0  501    0  0.00000000000E+00 -0.00000000000E+00 -0.44645139755E+04  0.44645139755E+04  0.00000000000E+00 0.  1.
         36    2    1    2    0    0  0.00000000000E+00 -0.14210854715E-13 -0.44084262668E+04  0.45206016842E+04  0.10008083919E+04 0.  0.
         25    2    3    3    0    0  0.12649367757E+03  0.18087564586E+02 -0.57442987405E+03  0.60163021572E+03  0.12514561845E+03 0.  0.
         35    2    3    3    0    0 -0.12649367757E+03 -0.18087564586E+02 -0.38339963927E+04  0.39189714685E+04  0.80154926271E+03 0.  0.
         22    1    5    5    0    0 -0.36836956315E+03  0.23548787640E+03 -0.16453363012E+04  0.17024342040E+04  0.00000000000E+00 0.  1.
         22    1    5    5    0    0  0.24187588558E+03 -0.25357544099E+03 -0.21886600915E+04  0.22165372644E+04  0.00000000000E+00 0.  1.
          5    1    4    4  502    0  0.46752322936E+02  0.38200007239E+02 -0.43870378209E+03  0.44286354408E+03  0.47000000000E+01 0. -1.
         -5    1    4    4    0  502  0.79741354629E+02 -0.20112442652E+02 -0.13572609196E+03  0.15876667165E+03  0.47000000000E+01 0. -1.
<mgrwt>
<rscale>  0 0.10008084E+04</rscale>
<asrwt>0</asrwt>
<pdfrwt beam="1">  1        2 0.68684864E+00 0.10008084E+04</pdfrwt>
<pdfrwt beam="2">  1       -2 0.86288740E-02 0.10008084E+04</pdfrwt>
<totfact> 0.10505167E+01</totfact>
</mgrwt>
</event>
<event>
 9    1  0.4370149E-036  0.1000572E+04  0.7818608E-02  0.8680494E-01
         -2   -1    0    0    0  501 -0.00000000000E+00  0.00000000000E+00  0.67114952147E+02  0.67114952147E+02  0.00000000000E+00 0.  1.
          2   -1    0    0  501    0  0.00000000000E+00 -0.00000000000E+00 -0.37292129591E+04  0.37292129591E+04  0.00000000000E+00 0.  1.
         36    2    1    2    0    0 -0.14210854715E-13  0.00000000000E+00 -0.36620980070E+04  0.37963279113E+04  0.10005717352E+04 0.  0.
         25    2    3    3    0    0  0.87596183012E+02  0.10483475603E+03 -0.80840983645E+03  0.82938862140E+03  0.12528209884E+03 0.  0.
         35    2    3    3    0    0 -0.87596183012E+02 -0.10483475603E+03 -0.28536881705E+04  0.29669392899E+04  0.80033065530E+03 0.  0.
         22    1    5    5    0    0  0.28540074822E+02 -0.41534810509E+03 -0.21385129730E+04  0.21786615891E+04  0.00000000000E+00 0. -1.
         22    1    5    5    0    0 -0.11613625783E+03  0.31051334906E+03 -0.71517519755E+03  0.78827770076E+03  0.00000000000E+00 0. -1.
          5    1    4    4  502    0 -0.77076050159E+01 -0.20052487125E+02 -0.46507473678E+02  0.51444577197E+02  0.47000000000E+01 0.  1.
         -5    1    4    4    0  502  0.95303788028E+02  0.12488724316E+03 -0.76190236277E+03  0.77794404420E+03  0.47000000000E+01 0.  1.
<mgrwt>
<rscale>  0 0.10005717E+04</rscale>
<asrwt>0</asrwt>
<pdfrwt beam="1">  1        2 0.57372504E+00 0.10005717E+04</pdfrwt>
<pdfrwt beam="2">  1       -2 0.10325378E-01 0.10005717E+04</pdfrwt>
<totfact> 0.36289741E+01</totfact>
</mgrwt>
</event>
<event>
 9    1  0.4370149E-036  0.1000526E+04  0.7818608E-02  0.8680537E-01
          2   -1    0    0  501    0  0.00000000000E+00  0.00000000000E+00  0.12626788784E+04  0.12626788784E+04  0.00000000000E+00 0. -1.
         -2   -1    0    0    0  501 -0.00000000000E+00 -0.00000000000E+00 -0.19820025790E+03  0.19820025790E+03  0.00000000000E+00 0. -1.
         36    2    1    2    0    0 -0.28421709430E-13 -0.71054273576E-14  0.10644786205E+04  0.14608791363E+04  0.10005264201E+04 0.  0.
         25    2    3    3    0    0 -0.95460172371E+02 -0.44193880944E+02  0.51570979665E+02  0.17157791931E+03  0.12535418951E+03 0.  0.
         35    2    3    3    0    0  0.95460172371E+02  0.44193880944E+02  0.10129076408E+04  0.12893012170E+04  0.79072751037E+03 0.  0.
         22    1    5    5    0    0  0.28868103775E+03  0.77486430288E+02  0.10482865456E+04  0.10900667732E+04  0.00000000000E+00 0. -1.
         22    1    5    5    0    0 -0.19322086538E+03 -0.33292549344E+02 -0.35378904805E+02  0.19923444372E+03  0.00000000000E+00 0. -1.
          5    1    4    4  502    0 -0.94474548119E+02 -0.59787046666E+02 -0.56814803305E+01  0.11204597454E+03  0.47000000000E+01 0. -1.
         -5    1    4    4    0  502 -0.98562425208E+00  0.15593165721E+02  0.57252459996E+02  0.59531944769E+02  0.47000000000E+01 0. -1.
<mgrwt>
<rscale>  0 0.10005264E+04</rscale>
<asrwt>0</asrwt>
<pdfrwt beam="1">  1        2 0.19425828E+00 0.10005264E+04</pdfrwt>
<pdfrwt beam="2">  1       -2 0.30492348E-01 0.10005264E+04</pdfrwt>
<totfact> 0.20796628E+02</totfact>
</mgrwt>
</event>
<event>
 9    1  0.4370149E-036  0.9999537E+03  0.7818608E-02  0.8681082E-01
         -2   -1    0    0    0  501 -0.00000000000E+00  0.00000000000E+00  0.11759039804E+03  0.11759039804E+03  0.00000000000E+00 0. -1.
          2   -1    0    0  501    0  0.00000000000E+00 -0.00000000000E+00 -0.21258268558E+04  0.21258268558E+04  0.00000000000E+00 0. -1.
         36    2    1    2    0    0  0.00000000000E+00  0.00000000000E+00 -0.20082364577E+04  0.22434172538E+04  0.99995365119E+03 0.  0.
         25    2    3    3    0    0  0.79766143724E+02  0.48626523974E+02 -0.61246411442E+03  0.63183192602E+03  0.12398433273E+03 0.  0.
         35    2    3    3    0    0 -0.79766143724E+02 -0.48626523974E+02 -0.13957723433E+04  0.16115853278E+04  0.80018726426E+03 0.  0.
         22    1    5    5    0    0  0.18551699465E+03 -0.17470940403E+03 -0.85498263926E+02  0.26879338588E+03  0.00000000000E+00 0. -1.
         22    1    5    5    0    0 -0.26528313837E+03  0.12608288005E+03 -0.13102740794E+04  0.13427919419E+04  0.00000000000E+00 0. -1.
          5    1    4    4  502    0  0.98054201860E+02  0.27555164668E+02 -0.57945050726E+03  0.58835269521E+03  0.47000000000E+01 0.  1.
         -5    1    4    4    0  502 -0.18288058137E+02  0.21071359306E+02 -0.33013607166E+02  0.43479230807E+02  0.47000000000E+01 0.  1.
<mgrwt>
<rscale>  0 0.99995365E+03</rscale>
<asrwt>0</asrwt>
<pdfrwt beam="1">  1        2 0.32705029E+00 0.99995365E+03</pdfrwt>
<pdfrwt beam="2">  1       -2 0.18090830E-01 0.99995365E+03</pdfrwt>
<totfact> 0.16875275E+02</totfact>
</mgrwt>
</event>
<event>
 9    1  0.4370149E-036  0.1000692E+04  0.7818608E-02  0.8680380E-01
          2   -1    0    0  501    0  0.00000000000E+00  0.00000000000E+00  0.16216706198E+04  0.16216706198E+04  0.00000000000E+00 0.  1.
         -2   -1    0    0    0  501 -0.00000000000E+00 -0.00000000000E+00 -0.15437530841E+03  0.15437530841E+03  0.00000000000E+00 0.  1.
         36    2    1    2    0    0  0.14210854715E-13  0.24868995752E-13  0.14672953114E+04  0.17760459283E+04  0.10006915650E+04 0.  0.
         25    2    3    3    0    0  0.80281007178E+02 -0.28939978190E+02  0.47360956186E+03  0.49720399562E+03  0.12499293474E+03 0.  0.
         35    2    3    3    0    0 -0.80281007178E+02  0.28939978190E+02  0.99368574957E+03  0.12788419326E+04  0.80046408869E+03 0.  0.
         22    1    5    5    0    0 -0.15312786480E+03  0.26658512327E+03  0.60771536086E+02  0.31338307313E+03  0.00000000000E+00 0.  1.
         22    1    5    5    0    0  0.72846857620E+02 -0.23764514508E+03  0.93291421348E+03  0.96545885949E+03  0.00000000000E+00 0.  1.
          5    1    4    4  502    0  0.69119620252E+02 -0.47290378019E+02  0.14242383292E+03  0.16528926142E+03  0.47000000000E+01 0.  1.
         -5    1    4    4    0  502  0.11161386926E+02  0.18350399829E+02  0.33118572894E+03  0.33191473421E+03  0.47000000000E+01 0.  1.
<mgrwt>
<rscale>  0 0.10006916E+04</rscale>
<asrwt>0</asrwt>
<pdfrwt beam="1">  1        2 0.24948778E+00 0.10006916E+04</pdfrwt>
<pdfrwt beam="2">  1       -2 0.23750049E-01 0.10006916E+04</pdfrwt>
<totfact> 0.20315599E+02</totfact>
</mgrwt>
</event>
<event>
 9    1  0.4370149E-036  0.9998155E+03  0.7818608E-02  0.8681214E-01
         -2   -1    0    0    0  501 -0.00000000000E+00  0.00000000000E+00  0.20518843193E+03  0.20518843193E+03  0.00000000000E+00 0.  1.
          2   -1    0    0  501    0  0.00000000000E+00 -0.00000000000E+00 -0.12179428120E+04  0.12179428120E+04  0.00000000000E+00 0.  1.
         36    2    1    2    0    0  0.28421709430E-13  0.00000000000E+00 -0.10127543800E+04  0.14231312439E+04  0.99981553452E+03 0.  0.
         25    2    3    3    0    0 -0.40248102908E+02  0.12896673833E+03 -0.14054628006E+03  0.23171913344E+03  0.12525242745E+03 0.  0.
         35    2    3    3    0    0  0.40248102908E+02 -0.12896673833E+03 -0.87220809996E+03  0.11914121104E+04  0.80028964624E+03 0.  0.
         22    1    5    5    0    0 -0.24513715394E+03 -0.38905516746E+02  0.21303360278E+02  0.24911783685E+03  0.00000000000E+00 0. -1.
         22    1    5    5    0    0  0.28538525685E+03 -0.90061221587E+02 -0.89351146024E+03  0.94229427359E+03  0.00000000000E+00 0. -1.
          5    1    4    4  502    0 -0.77943618143E+02  0.12255327740E+03 -0.10479010006E+03  0.17915794284E+03  0.47000000000E+01 0.  1.
         -5    1    4    4    0  502  0.37695515235E+02  0.64134609299E+01 -0.35756179996E+02  0.52561190605E+02  0.47000000000E+01 0.  1.
<mgrwt>
<rscale>  0 0.99981553E+03</rscale>
<asrwt>0</asrwt>
<pdfrwt beam="1">  1        2 0.18737582E+00 0.99981553E+03</pdfrwt>
<pdfrwt beam="2">  1       -2 0.31567451E-01 0.99981553E+03</pdfrwt>
<totfact> 0.20732011E+02</totfact>
</mgrwt>
</event>
<event>
 9    1  0.4370149E-036  0.1000223E+04  0.7818608E-02  0.8680826E-01
          1   -1    0    0  501    0  0.00000000000E+00  0.00000000000E+00  0.32543812434E+03  0.32543812434E+03  0.00000000000E+00 0.  1.
         -1   -1    0    0    0  501 -0.00000000000E+00 -0.00000000000E+00 -0.76853776655E+03  0.76853776655E+03  0.00000000000E+00 0.  1.
         36    2    1    2    0    0  0.00000000000E+00 -0.14210854715E-13 -0.44309964221E+03  0.10939758909E+04  0.10002229536E+04 0.  0.
         25    2    3    3    0    0  0.13444581711E+03  0.49825845577E+02 -0.65091535252E+02  0.20050872522E+03  0.12413117377E+03 0.  0.
         35    2    3    3    0    0 -0.13444581711E+03 -0.49825845577E+02 -0.37800810696E+03  0.89346716568E+03  0.79676543261E+03 0.  0.
         22    1    5    5    0    0  0.24375868328E+03 -0.27481100926E+03 -0.20453617741E+03  0.42044551889E+03  0.00000000000E+00 0. -1.
         22    1    5    5    0    0 -0.37820450038E+03  0.22498516369E+03 -0.17347192955E+03  0.47302164679E+03  0.00000000000E+00 0. -1.
          5    1    4    4  502    0  0.69436026978E+02  0.31964634416E+02 -0.98783598432E+02  0.12499355589E+03  0.47000000000E+01 0.  1.
         -5    1    4    4    0  502  0.65009790127E+02  0.17861211161E+02  0.33692063180E+02  0.75515169322E+02  0.47000000000E+01 0.  1.
<mgrwt>
<rscale>  0 0.10002230E+04</rscale>
<asrwt>0</asrwt>
<pdfrwt beam="1">  1        1 0.50067404E-01 0.10002230E+04</pdfrwt>
<pdfrwt beam="2">  1       -1 0.11823658E+00 0.10002230E+04</pdfrwt>
<totfact> 0.60825376E+01</totfact>
</mgrwt>
</event>
<event>
 9    1  0.4370149E-036  0.1000277E+04  0.7818608E-02  0.8680775E-01
         -1   -1    0    0    0  501 -0.00000000000E+00  0.00000000000E+00  0.21686475085E+03  0.21686475085E+03  0.00000000000E+00 0.  1.
          1   -1    0    0  501    0  0.00000000000E+00 -0.00000000000E+00 -0.11534300350E+04  0.11534300350E+04  0.00000000000E+00 0.  1.
         36    2    1    2    0    0  0.00000000000E+00  0.71054273576E-14 -0.93656528410E+03  0.13702947858E+04  0.10002765961E+04 0.  0.
         25    2    3    3    0    0  0.10928968903E+03  0.17597682665E+02 -0.29460885834E+03  0.33833649382E+03  0.12419053537E+03 0.  0.
         35    2    3    3    0    0 -0.10928968903E+03 -0.17597682665E+02 -0.64195642576E+03  0.10319582920E+04  0.80035988734E+03 0.  0.
         22    1    5    5    0    0 -0.19948061460E+03  0.36371362116E+03 -0.35957827991E+03  0.54897782578E+03  0.00000000000E+00 0.  1.
         22    1    5    5    0    0  0.90190925572E+02 -0.38131130382E+03 -0.28237814586E+03  0.48298046621E+03  0.00000000000E+00 0.  1.
          5    1    4    4  502    0  0.91799066492E+01 -0.37974868600E+02 -0.14284823646E+03  0.14816905882E+03  0.47000000000E+01 0. -1.
         -5    1    4    4    0  502  0.10010978238E+03  0.55572551265E+02 -0.15176062187E+03  0.19016743500E+03  0.47000000000E+01 0. -1.
<mgrwt>
<rscale>  0 0.10002766E+04</rscale>
<asrwt>0</asrwt>
<pdfrwt beam="1">  1        1 0.17745078E+00 0.10002766E+04</pdfrwt>
<pdfrwt beam="2">  1       -1 0.33363808E-01 0.10002766E+04</pdfrwt>
<totfact> 0.10815057E+02</totfact>
</mgrwt>
</event>
<event>
 9    1  0.4370149E-036  0.9997516E+03  0.7818608E-02  0.8681275E-01
          2   -1    0    0  501    0  0.00000000000E+00  0.00000000000E+00  0.10157583695E+04  0.10157583695E+04  0.00000000000E+00 0.  1.
         -2   -1    0    0    0  501 -0.00000000000E+00 -0.00000000000E+00 -0.24599924683E+03  0.24599924683E+03  0.00000000000E+00 0.  1.
         36    2    1    2    0    0  0.14210854715E-13  0.14210854715E-13  0.76975912268E+03  0.12617576163E+04  0.99975155686E+03 0.  0.
         25    2    3    3    0    0  0.10904863296E+03  0.84677532865E+02  0.15443068785E+03  0.24186117618E+03  0.12484431213E+03 0.  0.
         35    2    3    3    0    0 -0.10904863296E+03 -0.84677532865E+02  0.61532843483E+03  0.10198964402E+04  0.80155959043E+03 0.  0.
         22    1    5    5    0    0  0.25465628782E+03 -0.54914927543E+02  0.60061597476E+03  0.65467932863E+03  0.00000000000E+00 0.  1.
         22    1    5    5    0    0 -0.36370492078E+03 -0.29762605322E+02  0.14712460071E+02  0.36521711153E+03  0.00000000000E+00 0.  1.
          5    1    4    4  502    0  0.12420058744E+03  0.89606330969E+02  0.95301295032E+02  0.18044253186E+03  0.47000000000E+01 0.  1.
         -5    1    4    4    0  502 -0.15151954478E+02 -0.49287981035E+01  0.59129392814E+02  0.61418644318E+02  0.47000000000E+01 0.  1.
<mgrwt>
<rscale>  0 0.99975156E+03</rscale>
<asrwt>0</asrwt>
<pdfrwt beam="1">  1        2 0.15627052E+00 0.99975156E+03</pdfrwt>
<pdfrwt beam="2">  1       -2 0.37846039E-01 0.99975156E+03</pdfrwt>
<totfact> 0.19593278E+02</totfact>
</mgrwt>
</event>
<event>
 9    1  0.4370149E-036  0.9999751E+03  0.7818608E-02  0.8681062E-01
          2   -1    0    0  501    0  0.00000000000E+00  0.00000000000E+00  0.17126736196E+04  0.17126736196E+04  0.00000000000E+00 0. -1.
         -2   -1    0    0    0  501 -0.00000000000E+00 -0.00000000000E+00 -0.14596332010E+03  0.14596332010E+03  0.00000000000E+00 0. -1.
         36    2    1    2    0    0  0.00000000000E+00  0.00000000000E+00  0.15667102995E+04  0.18586369397E+04  0.99997505520E+03 0.  0.
         25    2    3    3    0    0 -0.34928292517E+02 -0.63960512361E+02  0.51704086695E+03  0.53667303097E+03  0.12399899722E+03 0.  0.
         35    2    3    3    0    0  0.34928292517E+02  0.63960512361E+02  0.10496694325E+04  0.13219639087E+04  0.80029477418E+03 0.  0.
         22    1    5    5    0    0  0.10558817706E+03  0.26652388302E+03  0.10687997863E+04  0.11065788840E+04  0.00000000000E+00 0.  1.
         22    1    5    5    0    0 -0.70659884543E+02 -0.20256337066E+03 -0.19130353791E+02  0.21538502467E+03  0.00000000000E+00 0.  1.
          5    1    4    4  502    0 -0.17374425411E+02  0.27547583021E+02  0.46458568161E+02  0.56931788521E+02  0.47000000000E+01 0. -1.
         -5    1    4    4    0  502 -0.17553867106E+02 -0.91508095382E+02  0.47058229879E+03  0.47974124245E+03  0.47000000000E+01 0. -1.
<mgrwt>
<rscale>  0 0.99997506E+03</rscale>
<asrwt>0</asrwt>
<pdfrwt beam="1">  1        2 0.26348824E+00 0.99997506E+03</pdfrwt>
<pdfrwt beam="2">  1       -2 0.22455897E-01 0.99997506E+03</pdfrwt>
<totfact> 0.19921191E+02</totfact>
</mgrwt>
</event>
<event>
 9    1  0.4370149E-036  0.1000518E+04  0.7818608E-02  0.8680545E-01
         -2   -1    0    0    0  501 -0.00000000000E+00  0.00000000000E+00  0.21873300398E+03  0.21873300398E+03  0.00000000000E+00 0. -1.
          2   -1    0    0  501    0  0.00000000000E+00 -0.00000000000E+00 -0.11441304806E+04  0.11441304806E+04  0.00000000000E+00 0. -1.
         36    2    1    2    0    0  0.10658141036E-13  0.00000000000E+00 -0.92539747665E+03  0.13628634846E+04  0.10005180598E+04 0.  0.
         25    2    3    3    0    0 -0.16485396479E+02 -0.60594838147E+02 -0.17834115097E+01  0.13931201297E+03  0.12434288759E+03 0.  0.
         35    2    3    3    0    0  0.16485396479E+02  0.60594838147E+02 -0.92361406514E+03  0.12235514716E+04  0.80004484856E+03 0.  0.
         22    1    5    5    0    0  0.14177594202E+03 -0.11906807984E+03 -0.98003214336E+03  0.99736684694E+03  0.00000000000E+00 0.  1.
         22    1    5    5    0    0 -0.12529054554E+03  0.17966291798E+03  0.56418078213E+02  0.22618462470E+03  0.00000000000E+00 0.  1.
          5    1    4    4  502    0 -0.31825179294E+02 -0.94983679070E+02 -0.89923457497E+01  0.10068611428E+03  0.47000000000E+01 0.  1.
         -5    1    4    4    0  502  0.15339782815E+02  0.34388840923E+02  0.72089342401E+01  0.38625898691E+02  0.47000000000E+01 0.  1.
<mgrwt>
<rscale>  0 0.10005181E+04</rscale>
<asrwt>0</asrwt>
<pdfrwt beam="1">  1        2 0.17602008E+00 0.10005181E+04</pdfrwt>
<pdfrwt beam="2">  1       -2 0.33651231E-01 0.10005181E+04</pdfrwt>
<totfact> 0.20382510E+02</totfact>
</mgrwt>
</event>
<event>
 9    1  0.4370149E-036  0.9986824E+03  0.7818608E-02  0.8682294E-01
         -1   -1    0    0    0  501 -0.00000000000E+00  0.00000000000E+00  0.41559109129E+03  0.41559109129E+03  0.00000000000E+00 0. -1.
          1   -1    0    0  501    0  0.00000000000E+00 -0.00000000000E+00 -0.59996866019E+03  0.59996866019E+03  0.00000000000E+00 0. -1.
         36    2    1    2    0    0  0.28421709430E-13  0.00000000000E+00 -0.18437756890E+03  0.10155597515E+04  0.99868239241E+03 0.  0.
         25    2    3    3    0    0 -0.12488622689E+03 -0.53170091383E+02 -0.63306521536E+02  0.19511917624E+03  0.12506058126E+03 0.  0.
         35    2    3    3    0    0  0.12488622689E+03  0.53170091383E+02 -0.12107104736E+03  0.82044057524E+03  0.80002556878E+03 0.  0.
         22    1    5    5    0    0  0.40505641735E+03  0.18657215887E+03 -0.21657644345E+03  0.49576731191E+03  0.00000000000E+00 0.  1.
         22    1    5    5    0    0 -0.28017019046E+03 -0.13340206749E+03  0.95505396093E+02  0.32467326332E+03  0.00000000000E+00 0.  1.
          5    1    4    4  502    0  0.60809514136E+01  0.66030831400E+01  0.24440191678E+02  0.26457355240E+02  0.47000000000E+01 0. -1.
         -5    1    4    4    0  502 -0.13096717830E+03 -0.59773174523E+02 -0.87746713214E+02  0.16866182100E+03  0.47000000000E+01 0. -1.
<mgrwt>
<rscale>  0 0.99868239E+03</rscale>
<asrwt>0</asrwt>
<pdfrwt beam="1">  1        1 0.92302871E-01 0.99868239E+03</pdfrwt>
<pdfrwt beam="2">  1       -1 0.63937091E-01 0.99868239E+03</pdfrwt>
<totfact> 0.98883745E+01</totfact>
</mgrwt>
</event>
<event>
 9    1  0.4370149E-036  0.1000089E+04  0.7818608E-02  0.8680953E-01
         -1   -1    0    0    0  501 -0.00000000000E+00  0.00000000000E+00  0.23355297929E+03  0.23355297929E+03  0.00000000000E+00 0.  1.
          1   -1    0    0  501    0  0.00000000000E+00 -0.00000000000E+00 -0.10706115313E+04  0.10706115313E+04  0.00000000000E+00 0.  1.
         36    2    1    2    0    0 -0.28421709430E-13 -0.14210854715E-13 -0.83705855201E+03  0.13041645106E+04  0.10000890216E+04 0.  0.
         25    2    3    3    0    0 -0.65293482149E+02 -0.10293780174E+03 -0.58701829502E+02  0.18128729331E+03  0.12066378118E+03 0.  0.
         35    2    3    3    0    0  0.65293482149E+02  0.10293780174E+03 -0.77835672251E+03  0.11228772173E+04  0.80009663652E+03 0.  0.
         22    1    5    5    0    0  0.35529377112E+03  0.25196654137E+03 -0.62690336870E+03  0.76336664550E+03  0.00000000000E+00 0.  1.
         22    1    5    5    0    0 -0.29000028897E+03 -0.14902873963E+03 -0.15145335380E+03  0.35951057177E+03  0.00000000000E+00 0.  1.
          5    1    4    4  502    0  0.35044730907E+02 -0.19200027719E+02 -0.19842076473E+02  0.44861701122E+02  0.47000000000E+01 0. -1.
         -5    1    4    4    0  502 -0.10033821306E+03 -0.83737774023E+02 -0.38859753029E+02  0.13642559219E+03  0.47000000000E+01 0. -1.
<mgrwt>
<rscale>  0 0.10000890E+04</rscale>
<asrwt>0</asrwt>
<pdfrwt beam="1">  1        1 0.16470946E+00 0.10000890E+04</pdfrwt>
<pdfrwt beam="2">  1       -1 0.35931228E-01 0.10000890E+04</pdfrwt>
<totfact> 0.10996738E+02</totfact>
</mgrwt>
</event>
<event>
 9    1  0.4370149E-036  0.9941232E+03  0.7818608E-02  0.8686655E-01
          2   -1    0    0  501    0  0.00000000000E+00  0.00000000000E+00  0.11932183647E+04  0.11932183647E+04  0.00000000000E+00 0. -1.
         -2   -1    0    0    0  501 -0.00000000000E+00 -0.00000000000E+00 -0.20706204536E+03  0.20706204536E+03  0.00000000000E+00 0. -1.
         36    2    1    2    0    0  0.00000000000E+00 -0.71054273576E-14  0.98615631933E+03  0.14002804100E+04  0.99412320192E+03 0.  0.
         25    2    3    3    0    0 -0.12170661413E+03  0.45761710164E+02  0.13450114888E+03  0.22477958783E+03  0.12461408434E+03 0.  0.
         35    2    3    3    0    0  0.12170661413E+03 -0.45761710164E+02  0.85165517045E+03  0.11755008222E+04  0.79973684399E+03 0.  0.
         22    1    5    5    0    0  0.45671978259E+03 -0.10486984065E+03  0.45854965322E+03  0.65563589572E+03  0.00000000000E+00 0. -1.
         22    1    5    5    0    0 -0.33501316845E+03  0.59108130483E+02  0.39310551723E+03  0.51986492650E+03  0.00000000000E+00 0. -1.
          5    1    4    4  502    0  0.23557504980E+02  0.21787934946E+02  0.18948428865E+02  0.37560659027E+02  0.47000000000E+01 0.  1.
         -5    1    4    4    0  502 -0.14526411911E+03  0.23973775218E+02  0.11555272001E+03  0.18721892880E+03  0.47000000000E+01 0.  1.
<mgrwt>
<rscale>  0 0.99412320E+03</rscale>
<asrwt>0</asrwt>
<pdfrwt beam="1">  1        2 0.18357205E+00 0.99412320E+03</pdfrwt>
<pdfrwt beam="2">  1       -2 0.31855700E-01 0.99412320E+03</pdfrwt>
<totfact> 0.21086171E+02</totfact>
</mgrwt>
</event>
<event>
 9    1  0.4370149E-036  0.1000097E+04  0.7818608E-02  0.8680946E-01
          1   -1    0    0  501    0  0.00000000000E+00  0.00000000000E+00  0.83678414612E+03  0.83678414612E+03  0.00000000000E+00 0. -1.
         -1   -1    0    0    0  501 -0.00000000000E+00 -0.00000000000E+00 -0.29882074322E+03  0.29882074322E+03  0.00000000000E+00 0. -1.
         36    2    1    2    0    0 -0.14210854715E-13  0.00000000000E+00  0.53796340290E+03  0.11356048893E+04  0.10000969162E+04 0.  0.
         25    2    3    3    0    0  0.63981059759E+02  0.33274311846E+02 -0.35181494192E+02  0.14793925181E+03  0.12428808815E+03 0.  0.
         35    2    3    3    0    0 -0.63981059759E+02 -0.33274311846E+02  0.57314489709E+03  0.98766563753E+03  0.80111646011E+03 0.  0.
         22    1    5    5    0    0 -0.17450634553E+03  0.30450689949E+03  0.48972712405E+02  0.35436597329E+03  0.00000000000E+00 0. -1.
         22    1    5    5    0    0  0.11052528578E+03 -0.33778121133E+03  0.52417218469E+03  0.63329966424E+03  0.00000000000E+00 0. -1.
          5    1    4    4  502    0 -0.19317137030E+02 -0.22828844029E+02 -0.36462854919E+02  0.47391325067E+02  0.47000000000E+01 0.  1.
         -5    1    4    4    0  502  0.83298196789E+02  0.56103155875E+02  0.12813607274E+01  0.10054792674E+03  0.47000000000E+01 0.  1.
<mgrwt>
<rscale>  0 0.10000969E+04</rscale>
<asrwt>0</asrwt>
<pdfrwt beam="1">  1        1 0.12873602E+00 0.10000969E+04</pdfrwt>
<pdfrwt beam="2">  1       -1 0.45972423E-01 0.10000969E+04</pdfrwt>
<totfact> 0.10974402E+02</totfact>
</mgrwt>
</event>
<event>
 9    1  0.4370149E-036  0.1000905E+04  0.7818608E-02  0.8680177E-01
         -2   -1    0    0    0  501 -0.00000000000E+00  0.00000000000E+00  0.62376040457E+02  0.62376040457E+02  0.00000000000E+00 0. -1.
          2   -1    0    0  501    0  0.00000000000E+00 -0.00000000000E+00 -0.40152063582E+04  0.40152063582E+04  0.00000000000E+00 0. -1.
         36    2    1    2    0    0  0.00000000000E+00 -0.28421709430E-13 -0.39528303178E+04  0.40775823987E+04  0.10009049390E+04 0.  0.
         25    2    3    3    0    0  0.41730501842E+02 -0.10432653032E+03 -0.10918388031E+04  0.11046658244E+04  0.12469623824E+03 0.  0.
         35    2    3    3    0    0 -0.41730501842E+02  0.10432653032E+03 -0.28609915147E+04  0.29729165743E+04  0.80020937959E+03 0.  0.
         22    1    5    5    0    0  0.47761601272E+02 -0.27044455334E+03 -0.42077157173E+03  0.50246407092E+03  0.00000000000E+00 0. -1.
         22    1    5    5    0    0 -0.89492103114E+02  0.37477108367E+03 -0.24402199429E+04  0.24704525034E+04  0.00000000000E+00 0. -1.
          5    1    4    4  502    0  0.47642154119E+02  0.84919791978E+01 -0.48090454551E+03  0.48335614246E+03  0.47000000000E+01 0.  1.
         -5    1    4    4    0  502 -0.59116522768E+01 -0.11281850952E+03 -0.61093425760E+03  0.62130968191E+03  0.47000000000E+01 0.  1.
<mgrwt>
<rscale>  0 0.10009049E+04</rscale>
<asrwt>0</asrwt>
<pdfrwt beam="1">  1        2 0.61772404E+00 0.10009049E+04</pdfrwt>
<pdfrwt beam="2">  1       -2 0.95963142E-02 0.10009049E+04</pdfrwt>
<totfact> 0.23546782E+01</totfact>
</mgrwt>
</event>
<event>
 9    1  0.4370149E-036  0.9978304E+03  0.7818608E-02  0.8683107E-01
         -2   -1    0    0    0  501 -0.00000000000E+00  0.00000000000E+00  0.67125679707E+03  0.67125679707E+03  0.00000000000E+00 0.  1.
          2   -1    0    0  501    0  0.00000000000E+00 -0.00000000000E+00 -0.37082139706E+03  0.37082139706E+03  0.00000000000E+00 0.  1.
         36    2    1    2    0    0  0.14210854715E-13 -0.14210854715E-13  0.30043540000E+03  0.10420781941E+04  0.99783041300E+03 0.  0.
         25    2    3    3    0    0 -0.62988571470E+02  0.10512274368E+02 -0.70826297451E+02  0.15813077221E+03  0.12613845037E+03 0.  0.
         35    2    3    3    0    0  0.62988571470E+02 -0.10512274368E+02  0.37126169745E+03  0.88394742192E+03  0.79965600646E+03 0.  0.
         22    1    5    5    0    0  0.18379843426E+03 -0.20448938176E+03 -0.15113734945E+03  0.31375192444E+03  0.00000000000E+00 0. -1.
         22    1    5    5    0    0 -0.12080986279E+03  0.19397710739E+03  0.52239904690E+03  0.57019549748E+03  0.00000000000E+00 0. -1.
          5    1    4    4  502    0 -0.25620531005E+02 -0.54720933221E+02 -0.10239269356E+02  0.61463198571E+02  0.47000000000E+01 0. -1.
         -5    1    4    4    0  502 -0.37368040466E+02  0.65233207589E+02 -0.60587028095E+02  0.96667573643E+02  0.47000000000E+01 0. -1.
<mgrwt>
<rscale>  0 0.99783041E+03</rscale>
<asrwt>0</asrwt>
<pdfrwt beam="1">  1        2 0.57049446E-01 0.99783041E+03</pdfrwt>
<pdfrwt beam="2">  1       -2 0.10327028E+00 0.99783041E+03</pdfrwt>
<totfact> 0.78522610E+01</totfact>
</mgrwt>
</event>
<event>
 9    1  0.4370149E-036  0.1000019E+04  0.7818608E-02  0.8681020E-01
          2   -1    0    0  501    0  0.00000000000E+00  0.00000000000E+00  0.20152232208E+04  0.20152232208E+04  0.00000000000E+00 0. -1.
         -2   -1    0    0    0  501 -0.00000000000E+00 -0.00000000000E+00 -0.12406033598E+03  0.12406033598E+03  0.00000000000E+00 0. -1.
         36    2    1    2    0    0  0.42632564146E-13  0.28421709430E-13  0.18911628849E+04  0.21392835568E+04  0.10000185395E+04 0.  0.
         25    2    3    3    0    0  0.33126529479E+02 -0.14041722136E+03  0.40316719064E+03  0.44616012418E+03  0.12530247319E+03 0.  0.
         35    2    3    3    0    0 -0.33126529479E+02  0.14041722136E+03  0.14879956942E+04  0.16931234326E+04  0.79480903944E+03 0.  0.
         22    1    5    5    0    0  0.29651525749E+03  0.27493240130E+03  0.50067918534E+03  0.64357499163E+03  0.00000000000E+00 0.  1.
         22    1    5    5    0    0 -0.32964178697E+03 -0.13451517995E+03  0.98731650887E+03  0.10495484410E+04  0.00000000000E+00 0.  1.
          5    1    4    4  502    0  0.19288522831E+02  0.10071520736E+01  0.18299764124E+03  0.18407413769E+03  0.47000000000E+01 0.  1.
         -5    1    4    4    0  502  0.13838006648E+02 -0.14142437343E+03  0.22016954941E+03  0.26208598649E+03  0.47000000000E+01 0.  1.
<mgrwt>
<rscale>  0 0.10000185E+04</rscale>
<asrwt>0</asrwt>
<pdfrwt beam="1">  1        2 0.31003432E+00 0.10000185E+04</pdfrwt>
<pdfrwt beam="2">  1       -2 0.19086207E-01 0.10000185E+04</pdfrwt>
<totfact> 0.17812569E+02</totfact>
</mgrwt>
</event>
<event>
 9    1  0.4370149E-036  0.9996678E+03  0.7818608E-02  0.8681354E-01
         -2   -1    0    0    0  501 -0.00000000000E+00  0.00000000000E+00  0.16157835819E+03  0.16157835819E+03  0.00000000000E+00 0.  1.
          2   -1    0    0  501    0  0.00000000000E+00 -0.00000000000E+00 -0.15462090519E+04  0.15462090519E+04  0.00000000000E+00 0.  1.
         36    2    1    2    0    0  0.00000000000E+00  0.00000000000E+00 -0.13846306937E+04  0.17077874101E+04  0.99966778486E+03 0.  0.
         25    2    3    3    0    0  0.12892567934E+03 -0.16823491946E+02 -0.17310921433E+03  0.25024247127E+03  0.12549754447E+03 0.  0.
         35    2    3    3    0    0 -0.12892567934E+03  0.16823491946E+02 -0.12115214794E+04  0.14575449388E+04  0.79984254263E+03 0.  0.
         22    1    5    5    0    0 -0.32589389497E+03  0.28667102206E+03 -0.90697333852E+03  0.10054788623E+04  0.00000000000E+00 0. -1.
         22    1    5    5    0    0  0.19696821563E+03 -0.26984753011E+03 -0.30454814088E+03  0.45206607658E+03  0.00000000000E+00 0. -1.
          5    1    4    4  502    0  0.36087865183E+02  0.25482101670E+02 -0.13350250807E+03  0.14070067939E+03  0.47000000000E+01 0.  1.
         -5    1    4    4    0  502  0.92837814152E+02 -0.42305593615E+02 -0.39606706258E+02  0.10954179188E+03  0.47000000000E+01 0.  1.
<mgrwt>
<rscale>  0 0.99966778E+03</rscale>
<asrwt>0</asrwt>
<pdfrwt beam="1">  1        2 0.23787832E+00 0.99966778E+03</pdfrwt>
<pdfrwt beam="2">  1       -2 0.24858208E-01 0.99966778E+03</pdfrwt>
<totfact> 0.20671986E+02</totfact>
</mgrwt>
</event>
<event>
 9    1  0.4370149E-036  0.9992171E+03  0.7818608E-02  0.8681784E-01
          1   -1    0    0  501    0  0.00000000000E+00  0.00000000000E+00  0.11858435398E+04  0.11858435398E+04  0.00000000000E+00 0. -1.
         -1   -1    0    0    0  501 -0.00000000000E+00 -0.00000000000E+00 -0.21049040106E+03  0.21049040106E+03  0.00000000000E+00 0. -1.
         36    2    1    2    0    0  0.14210854715E-13  0.00000000000E+00  0.97535313873E+03  0.13963339409E+04  0.99921705808E+03 0.  0.
         25    2    3    3    0    0  0.61131371124E+01  0.48040337973E+02  0.36045479165E+03  0.38441946023E+03  0.12452076159E+03 0.  0.
         35    2    3    3    0    0 -0.61131371124E+01 -0.48040337973E+02  0.61489834709E+03  0.10119144806E+04  0.80220053250E+03 0.  0.
         22    1    5    5    0    0 -0.24816743276E+03 -0.20632926729E+03 -0.10470827042E+02  0.32290630133E+03  0.00000000000E+00 0. -1.
         22    1    5    5    0    0  0.24205429564E+03  0.15828892932E+03  0.62536917413E+03  0.68900817929E+03  0.00000000000E+00 0. -1.
          5    1    4    4  502    0 -0.36709688963E+02 -0.93694831784E+01  0.37243418065E+02  0.53334329169E+02  0.47000000000E+01 0. -1.
         -5    1    4    4    0  502  0.42822826076E+02  0.57409821151E+02  0.32321137358E+03  0.33108513106E+03  0.47000000000E+01 0. -1.
<mgrwt>
<rscale>  0 0.99921706E+03</rscale>
<asrwt>0</asrwt>
<pdfrwt beam="1">  1        1 0.18243746E+00 0.99921706E+03</pdfrwt>
<pdfrwt beam="2">  1       -1 0.32383139E-01 0.99921706E+03</pdfrwt>
<totfact> 0.10766757E+02</totfact>
</mgrwt>
</event>
<event>
 9    1  0.4370149E-036  0.9999224E+03  0.7818608E-02  0.8681112E-01
          2   -1    0    0  501    0  0.00000000000E+00  0.00000000000E+00  0.10951786764E+04  0.10951786764E+04  0.00000000000E+00 0. -1.
         -2   -1    0    0    0  501 -0.00000000000E+00 -0.00000000000E+00 -0.22823783436E+03  0.22823783436E+03  0.00000000000E+00 0. -1.
         36    2    1    2    0    0  0.14210854715E-13 -0.71054273576E-14  0.86694084201E+03  0.13234165107E+04  0.99992241566E+03 0.  0.
         25    2    3    3    0    0 -0.20648183870E+02 -0.29494523008E+02 -0.15563755725E+02  0.13147024688E+03  0.12548275156E+03 0.  0.
         35    2    3    3    0    0  0.20648183870E+02  0.29494523008E+02  0.88250459774E+03  0.11919462639E+04  0.80039068991E+03 0.  0.
         22    1    5    5    0    0 -0.26772465337E+03 -0.22626362768E+03  0.18828439232E+03  0.39789789095E+03  0.00000000000E+00 0. -1.
         22    1    5    5    0    0  0.28837283724E+03  0.25575815069E+03  0.69422020542E+03  0.79404837290E+03  0.00000000000E+00 0. -1.
          5    1    4    4  502    0  0.45703439902E+02 -0.41423544547E+02 -0.15972512841E+02  0.63889949352E+02  0.47000000000E+01 0.  1.
         -5    1    4    4    0  502 -0.66351623772E+02  0.11929021539E+02  0.40875711597E+00  0.67580297531E+02  0.47000000000E+01 0.  1.
<mgrwt>
<rscale>  0 0.99992242E+03</rscale>
<asrwt>0</asrwt>
<pdfrwt beam="1">  1        2 0.16848902E+00 0.99992242E+03</pdfrwt>
<pdfrwt beam="2">  1       -2 0.35113513E-01 0.99992242E+03</pdfrwt>
<totfact> 0.20155678E+02</totfact>
</mgrwt>
</event>
<event>
 9    1  0.4370149E-036  0.1000920E+04  0.7818608E-02  0.8680162E-01
         -2   -1    0    0    0  501 -0.00000000000E+00  0.00000000000E+00  0.59846628315E+03  0.59846628315E+03  0.00000000000E+00 0. -1.
          2   -1    0    0  501    0  0.00000000000E+00 -0.00000000000E+00 -0.41850369251E+03  0.41850369251E+03  0.00000000000E+00 0. -1.
         36    2    1    2    0    0  0.35527136788E-14  0.14210854715E-13  0.17996259064E+03  0.10169699757E+04  0.10009202752E+04 0.  0.
         25    2    3    3    0    0  0.20187735312E+02 -0.55784160619E+02  0.16413676202E+03  0.21454063631E+03  0.12476935020E+03 0.  0.
         35    2    3    3    0    0 -0.20187735312E+02  0.55784160619E+02  0.15825828616E+02  0.80242933935E+03  0.80007685291E+03 0.  0.
         22    1    5    5    0    0 -0.11420762975E+03 -0.11109012224E+03 -0.35274675556E+03  0.38705900262E+03  0.00000000000E+00 0. -1.
         22    1    5    5    0    0  0.94019894439E+02  0.16687428286E+03  0.36857258417E+03  0.41537033673E+03  0.00000000000E+00 0. -1.
          5    1    4    4  502    0  0.38824476740E+02 -0.38715464122E+02  0.71842876639E+01  0.55497127363E+02  0.47000000000E+01 0.  1.
         -5    1    4    4    0  502 -0.18636741427E+02 -0.17068696496E+02  0.15695247436E+03  0.15904350895E+03  0.47000000000E+01 0.  1.
<mgrwt>
<rscale>  0 0.10009203E+04</rscale>
<asrwt>0</asrwt>
<pdfrwt beam="1">  1        2 0.64385183E-01 0.10009203E+04</pdfrwt>
<pdfrwt beam="2">  1       -2 0.92071737E-01 0.10009203E+04</pdfrwt>
<totfact> 0.90416615E+01</totfact>
</mgrwt>
</event>
<event>
 9    1  0.4370149E-036  0.1002873E+04  0.7818608E-02  0.8678307E-01
          2   -1    0    0  501    0  0.00000000000E+00  0.00000000000E+00  0.21423352488E+04  0.21423352488E+04  0.00000000000E+00 0.  1.
         -2   -1    0    0    0  501 -0.00000000000E+00 -0.00000000000E+00 -0.11736649670E+03  0.11736649670E+03  0.00000000000E+00 0.  1.
         36    2    1    2    0    0 -0.28421709430E-13  0.28421709430E-13  0.20249687521E+04  0.22597017455E+04  0.10028726398E+04 0.  0.
         25    2    3    3    0    0 -0.52600440040E+02  0.10790834086E+03  0.20979016639E+03  0.27257507240E+03  0.12599301513E+03 0.  0.
         35    2    3    3    0    0  0.52600440040E+02 -0.10790834086E+03  0.18151785858E+04  0.19871266732E+04  0.79961747144E+03 0.  0.
         22    1    5    5    0    0 -0.24327290556E+03  0.19993408529E+03  0.40078159030E+03  0.50968738278E+03  0.00000000000E+00 0. -1.
         22    1    5    5    0    0  0.29587334560E+03 -0.30784242615E+03  0.14143969955E+04  0.14774392904E+04  0.00000000000E+00 0. -1.
          5    1    4    4  502    0 -0.29543276894E+02  0.11997888663E+03  0.21263644514E+03  0.24597578387E+03  0.47000000000E+01 0.  1.
         -5    1    4    4    0  502 -0.23057163146E+02 -0.12070545771E+02 -0.28462787558E+01  0.26599288530E+02  0.47000000000E+01 0.  1.
<mgrwt>
<rscale>  0 0.10028726E+04</rscale>
<asrwt>0</asrwt>
<pdfrwt beam="1">  1        2 0.32959001E+00 0.10028726E+04</pdfrwt>
<pdfrwt beam="2">  1       -2 0.18056386E-01 0.10028726E+04</pdfrwt>
<totfact> 0.16562465E+02</totfact>
</mgrwt>
</event>
<event>
 9    1  0.4370149E-036  0.1000376E+04  0.7818608E-02  0.8680680E-01
          1   -1    0    0  501    0  0.00000000000E+00  0.00000000000E+00  0.79289547693E+03  0.79289547693E+03  0.00000000000E+00 0.  1.
         -1   -1    0    0    0  501 -0.00000000000E+00 -0.00000000000E+00 -0.31553709339E+03  0.31553709339E+03  0.00000000000E+00 0.  1.
         36    2    1    2    0    0  0.28421709430E-13  0.00000000000E+00  0.47735838354E+03  0.11084325703E+04  0.10003757977E+04 0.  0.
         25    2    3    3    0    0  0.69838616472E+02  0.49459840790E+02  0.21550488400E+03  0.26317368772E+03  0.12447620930E+03 0.  0.
         35    2    3    3    0    0 -0.69838616472E+02 -0.49459840790E+02  0.26185349955E+03  0.84525888260E+03  0.79910676082E+03 0.  0.
         22    1    5    5    0    0 -0.32608121265E+03  0.11638884645E+02 -0.14781170527E+03  0.35820765081E+03  0.00000000000E+00 0.  1.
         22    1    5    5    0    0  0.25624259618E+03 -0.61098725435E+02  0.40966520482E+03  0.48705123179E+03  0.00000000000E+00 0.  1.
          5    1    4    4  502    0 -0.18730923666E+01 -0.19661325123E+02 -0.52280525091E+01  0.20964224614E+02  0.47000000000E+01 0.  1.
         -5    1    4    4    0  502  0.71711708839E+02  0.69121165914E+02  0.22073293651E+03  0.24220946311E+03  0.47000000000E+01 0.  1.
<mgrwt>
<rscale>  0 0.10003758E+04</rscale>
<asrwt>0</asrwt>
<pdfrwt beam="1">  1        1 0.12198392E+00 0.10003758E+04</pdfrwt>
<pdfrwt beam="2">  1       -1 0.48544169E-01 0.10003758E+04</pdfrwt>
<totfact> 0.10852424E+02</totfact>
</mgrwt>
</event>
<event>
 9    1  0.4370149E-036  0.1000275E+04  0.7818608E-02  0.8680776E-01
          1   -1    0    0  501    0  0.00000000000E+00  0.00000000000E+00  0.12547098010E+04  0.12547098010E+04  0.00000000000E+00 0. -1.
         -1   -1    0    0    0  501 -0.00000000000E+00 -0.00000000000E+00 -0.19935880176E+03  0.19935880176E+03  0.00000000000E+00 0. -1.
         36    2    1    2    0    0 -0.14210854715E-13  0.00000000000E+00  0.10553509992E+04  0.14540686027E+04  0.10002748472E+04 0.  0.
         25    2    3    3    0    0  0.55869218610E+02  0.73230138979E+02  0.35399031696E+03  0.38662092135E+03  0.12523006622E+03 0.  0.
         35    2    3    3    0    0 -0.55869218610E+02 -0.73230138979E+02  0.70136068223E+03  0.10674476814E+04  0.79940835811E+03 0.  0.
         22    1    5    5    0    0  0.10170294494E+03  0.32688218760E+03  0.16511424543E+03  0.38007652864E+03  0.00000000000E+00 0.  1.
         22    1    5    5    0    0 -0.15757216355E+03 -0.40011232658E+03  0.53624643681E+03  0.68737115272E+03  0.00000000000E+00 0.  1.
          5    1    4    4  502    0  0.61057578417E+02  0.31158787739E+02  0.33122329105E+03  0.33827482388E+03  0.47000000000E+01 0. -1.
         -5    1    4    4    0  502 -0.51883598068E+01  0.42071351239E+02  0.22767025909E+02  0.48346097478E+02  0.47000000000E+01 0. -1.
<mgrwt>
<rscale>  0 0.10002748E+04</rscale>
<asrwt>0</asrwt>
<pdfrwt beam="1">  1        1 0.19303227E+00 0.10002748E+04</pdfrwt>
<pdfrwt beam="2">  1       -1 0.30670586E-01 0.10002748E+04</pdfrwt>
<totfact> 0.10507055E+02</totfact>
</mgrwt>
</event>
<event>
 9    1  0.4370149E-036  0.9999652E+03  0.7818608E-02  0.8681071E-01
         -2   -1    0    0    0  501 -0.00000000000E+00  0.00000000000E+00  0.36055058363E+03  0.36055058363E+03  0.00000000000E+00 0. -1.
          2   -1    0    0  501    0  0.00000000000E+00 -0.00000000000E+00 -0.69333569275E+03  0.69333569275E+03  0.00000000000E+00 0. -1.
         36    2    1    2    0    0 -0.14210854715E-13  0.00000000000E+00 -0.33278510912E+03  0.10538862764E+04  0.99996517674E+03 0.  0.
         25    2    3    3    0    0  0.93805261343E+02  0.10308824942E+03 -0.78602295049E+02  0.20320601697E+03  0.12525074978E+03 0.  0.
         35    2    3    3    0    0 -0.93805261343E+02 -0.10308824942E+03 -0.25418281407E+03  0.85068025941E+03  0.79976333159E+03 0.  0.
         22    1    5    5    0    0 -0.15492362440E+03 -0.20085666912E+03 -0.51026528698E+03  0.56983804192E+03  0.00000000000E+00 0. -1.
         22    1    5    5    0    0  0.61118363055E+02  0.97768419704E+02  0.25608247291E+03  0.28084221749E+03  0.00000000000E+00 0. -1.
          5    1    4    4  502    0  0.17292394928E+02 -0.23628706611E+02 -0.40655918856E+02  0.50322325428E+02  0.47000000000E+01 0.  1.
         -5    1    4    4    0  502  0.76512866415E+02  0.12671695603E+03 -0.37946376193E+02  0.15288369154E+03  0.47000000000E+01 0.  1.
<mgrwt>
<rscale>  0 0.99996518E+03</rscale>
<asrwt>0</asrwt>
<pdfrwt beam="1">  1        2 0.10666703E+00 0.99996518E+03</pdfrwt>
<pdfrwt beam="2">  1       -2 0.55469321E-01 0.99996518E+03</pdfrwt>
<totfact> 0.15330072E+02</totfact>
</mgrwt>
</event>
<event>
 9    1  0.4370149E-036  0.9996783E+03  0.7818608E-02  0.8681344E-01
          1   -1    0    0  501    0  0.00000000000E+00  0.00000000000E+00  0.19613327028E+03  0.19613327028E+03  0.00000000000E+00 0. -1.
         -1   -1    0    0    0  501 -0.00000000000E+00 -0.00000000000E+00 -0.12738236056E+04  0.12738236056E+04  0.00000000000E+00 0. -1.
         36    2    1    2    0    0  0.28421709430E-13  0.00000000000E+00 -0.10776903353E+04  0.14699568759E+04  0.99967832730E+03 0.  0.
         25    2    3    3    0    0 -0.31658594722E+02 -0.95959040697E+02 -0.34309868897E+03  0.37912227044E+03  0.12572422782E+03 0.  0.
         35    2    3    3    0    0  0.31658594722E+02  0.95959040697E+02 -0.73459164633E+03  0.10908346054E+04  0.80005302661E+03 0.  0.
         22    1    5    5    0    0 -0.28704900953E+03 -0.16138046616E+03 -0.55108402009E+03  0.64197693567E+03  0.00000000000E+00 0. -1.
         22    1    5    5    0    0  0.31870760425E+03  0.25733950686E+03 -0.18350762624E+03  0.44885766974E+03  0.00000000000E+00 0. -1.
          5    1    4    4  502    0 -0.46649059232E+02  0.35732503279E+01 -0.19078756916E+03  0.19649653786E+03  0.47000000000E+01 0. -1.
         -5    1    4    4    0  502  0.14990464510E+02 -0.99532291025E+02 -0.15231111981E+03  0.18262573258E+03  0.47000000000E+01 0. -1.
<mgrwt>
<rscale>  0 0.99967833E+03</rscale>
<asrwt>0</asrwt>
<pdfrwt beam="1">  1        1 0.30174348E-01 0.99967833E+03</pdfrwt>
<pdfrwt beam="2">  1       -1 0.19597287E+00 0.99967833E+03</pdfrwt>
<totfact> 0.25706720E+01</totfact>
</mgrwt>
</event>
<event>
 9    1  0.4370149E-036  0.9998676E+03  0.7818608E-02  0.8681164E-01
         -1   -1    0    0    0  501 -0.00000000000E+00  0.00000000000E+00  0.34244246876E+03  0.34244246876E+03  0.00000000000E+00 0.  1.
          1   -1    0    0  501    0  0.00000000000E+00 -0.00000000000E+00 -0.72985630169E+03  0.72985630169E+03  0.00000000000E+00 0.  1.
         36    2    1    2    0    0  0.71054273576E-14  0.28421709430E-13 -0.38741383293E+03  0.10722987705E+04  0.99986757882E+03 0.  0.
         25    2    3    3    0    0 -0.45399911328E+02 -0.12701475437E+03 -0.31433604413E+02  0.18618905564E+03  0.12443630169E+03 0.  0.
         35    2    3    3    0    0  0.45399911328E+02  0.12701475437E+03 -0.35598022852E+03  0.88610971482E+03  0.80017160899E+03 0.  0.
         22    1    5    5    0    0  0.94390278064E+02 -0.33384168210E+03 -0.12986551328E+03  0.37043871941E+03  0.00000000000E+00 0. -1.
         22    1    5    5    0    0 -0.48990366736E+02  0.46085643646E+03 -0.22611471523E+03  0.51567099541E+03  0.00000000000E+00 0. -1.
          5    1    4    4  502    0 -0.17445123534E+01 -0.44889062021E+01  0.38054995452E+02  0.38645391460E+02  0.47000000000E+01 0.  1.
         -5    1    4    4    0  502 -0.43655398975E+02 -0.12252584816E+03 -0.69488599865E+02  0.14754366418E+03  0.47000000000E+01 0.  1.
<mgrwt>
<rscale>  0 0.99986758E+03</rscale>
<asrwt>0</asrwt>
<pdfrwt beam="1">  1        1 0.11228558E+00 0.99986758E+03</pdfrwt>
<pdfrwt beam="2">  1       -1 0.52683457E-01 0.99986758E+03</pdfrwt>
<totfact> 0.10639548E+02</totfact>
</mgrwt>
</event>
<event>
 9    1  0.4370149E-036  0.1000363E+04  0.7818608E-02  0.8680692E-01
          2   -1    0    0  501    0  0.00000000000E+00  0.00000000000E+00  0.78101789366E+03  0.78101789366E+03  0.00000000000E+00 0. -1.
         -2   -1    0    0    0  501 -0.00000000000E+00 -0.00000000000E+00 -0.32032773721E+03  0.32032773721E+03  0.00000000000E+00 0. -1.
         36    2    1    2    0    0 -0.14210854715E-13 -0.56843418861E-13  0.46069015645E+03  0.11013456309E+04  0.10003633232E+04 0.  0.
         25    2    3    3    0    0  0.11307420616E+03 -0.71538238746E+02  0.43911218674E+02  0.18944295844E+03  0.12671599613E+03 0.  0.
         35    2    3    3    0    0 -0.11307420616E+03  0.71538238746E+02  0.41677893777E+03  0.91190267243E+03  0.79997394040E+03 0.  0.
         22    1    5    5    0    0 -0.17318526383E+03 -0.31299189151E+03  0.37855949908E+03  0.52083044660E+03  0.00000000000E+00 0.  1.
         22    1    5    5    0    0  0.60111057669E+02  0.38453013025E+03  0.38219438689E+02  0.39107222583E+03  0.00000000000E+00 0.  1.
          5    1    4    4  502    0  0.11938267579E+03 -0.78486074194E+01  0.34337420496E+02  0.12455911192E+03  0.47000000000E+01 0. -1.
         -5    1    4    4    0  502 -0.63084696247E+01 -0.63689631326E+02  0.95737981785E+01  0.64883846519E+02  0.47000000000E+01 0. -1.
<mgrwt>
<rscale>  0 0.10003633E+04</rscale>
<asrwt>0</asrwt>
<pdfrwt beam="1">  1        2 0.12015660E+00 0.10003633E+04</pdfrwt>
<pdfrwt beam="2">  1       -2 0.49281191E-01 0.10003633E+04</pdfrwt>
<totfact> 0.16776986E+02</totfact>
</mgrwt>
</event>
<event>
 9    1  0.4370149E-036  0.9978725E+03  0.7818608E-02  0.8683067E-01
         -2   -1    0    0    0  501 -0.00000000000E+00  0.00000000000E+00  0.20035485532E+03  0.20035485532E+03  0.00000000000E+00 0.  1.
          2   -1    0    0  501    0  0.00000000000E+00 -0.00000000000E+00 -0.12424824936E+04  0.12424824936E+04  0.00000000000E+00 0.  1.
         36    2    1    2    0    0  0.00000000000E+00  0.35527136788E-14 -0.10421276383E+04  0.14428373490E+04  0.99787253744E+03 0.  0.
         25    2    3    3    0    0 -0.38509259709E+02 -0.28869152261E+02 -0.38117945526E+03  0.40391921500E+03  0.12464575443E+03 0.  0.
         35    2    3    3    0    0  0.38509259709E+02  0.28869152261E+02 -0.66094818306E+03  0.10389181340E+04  0.80011374025E+03 0.  0.
         22    1    5    5    0    0  0.41780988410E+03  0.82235978895E+01 -0.39658975957E+03  0.57612165747E+03  0.00000000000E+00 0. -1.
         22    1    5    5    0    0 -0.37930062439E+03  0.20645554371E+02 -0.26435842349E+03  0.46279647648E+03  0.00000000000E+00 0. -1.
          5    1    4    4  502    0 -0.10806911631E+02  0.27172284690E+02 -0.16526542043E+02  0.33916647626E+02  0.47000000000E+01 0.  1.
         -5    1    4    4    0  502 -0.27702348078E+02 -0.56041436951E+02 -0.36465291322E+03  0.37000256737E+03  0.47000000000E+01 0.  1.
<mgrwt>
<rscale>  0 0.99787254E+03</rscale>
<asrwt>0</asrwt>
<pdfrwt beam="1">  1        2 0.19115115E+00 0.99787254E+03</pdfrwt>
<pdfrwt beam="2">  1       -2 0.30823824E-01 0.99787254E+03</pdfrwt>
<totfact> 0.20951372E+02</totfact>
</mgrwt>
</event>
<event>
 9    1  0.4370149E-036  0.1000300E+04  0.7818608E-02  0.8680752E-01
         -2   -1    0    0    0  501 -0.00000000000E+00  0.00000000000E+00  0.26615919850E+03  0.26615919850E+03  0.00000000000E+00 0. -1.
          2   -1    0    0  501    0  0.00000000000E+00 -0.00000000000E+00 -0.93985108276E+03  0.93985108276E+03  0.00000000000E+00 0. -1.
         36    2    1    2    0    0 -0.14210854715E-13  0.28421709430E-13 -0.67369188426E+03  0.12060102813E+04  0.10002999768E+04 0.  0.
         25    2    3    3    0    0 -0.11020559024E+03  0.86236547924E+02 -0.10812275539E+03  0.21598774677E+03  0.12400871825E+03 0.  0.
         35    2    3    3    0    0  0.11020559024E+03 -0.86236547924E+02 -0.56556912887E+03  0.99002253449E+03  0.80043373552E+03 0.  0.
         22    1    5    5    0    0  0.12247093543E+03 -0.28307363343E+03 -0.69071386677E+03  0.75644924332E+03  0.00000000000E+00 0.  1.
         22    1    5    5    0    0 -0.12265345193E+02  0.19683708551E+03  0.12514473790E+03  0.23357329117E+03  0.00000000000E+00 0.  1.
          5    1    4    4  502    0 -0.13497445140E+03  0.65024277685E+02 -0.69505564875E+02  0.16522521831E+03  0.47000000000E+01 0. -1.
         -5    1    4    4    0  502  0.24768861159E+02  0.21212270239E+02 -0.38617190513E+02  0.50762528453E+02  0.47000000000E+01 0. -1.
<mgrwt>
<rscale>  0 0.10003000E+04</rscale>
<asrwt>0</asrwt>
<pdfrwt beam="1">  1        2 0.14459247E+00 0.10003000E+04</pdfrwt>
<pdfrwt beam="2">  1       -2 0.40947570E-01 0.10003000E+04</pdfrwt>
<totfact> 0.18835619E+02</totfact>
</mgrwt>
</event>
<event>
 9    1  0.4370149E-036  0.9991138E+03  0.7818608E-02  0.8681882E-01
         -2   -1    0    0    0  501 -0.00000000000E+00  0.00000000000E+00  0.42840603557E+03  0.42840603557E+03  0.00000000000E+00 0. -1.
          2   -1    0    0  501    0  0.00000000000E+00 -0.00000000000E+00 -0.58252465699E+03  0.58252465699E+03  0.00000000000E+00 0. -1.
         36    2    1    2    0    0  0.00000000000E+00  0.00000000000E+00 -0.15411862142E+03  0.10109306926E+04  0.99911376513E+03 0.  0.
         25    2    3    3    0    0 -0.24688492562E+02 -0.89745744686E+02  0.77107274100E+02  0.17342825773E+03  0.12437044868E+03 0.  0.
         35    2    3    3    0    0  0.24688492562E+02  0.89745744686E+02 -0.23122589552E+03  0.83750243483E+03  0.79955055702E+03 0.  0.
         22    1    5    5    0    0  0.39184061775E+02  0.42373477475E+03 -0.26529758806E+03  0.50146720756E+03  0.00000000000E+00 0.  1.
         22    1    5    5    0    0 -0.14495569212E+02 -0.33398903006E+03  0.34071692535E+02  0.33603522726E+03  0.00000000000E+00 0.  1.
          5    1    4    4  502    0 -0.11844526055E+02 -0.10274797755E+03  0.10345598215E+02  0.10405076208E+03  0.47000000000E+01 0.  1.
         -5    1    4    4    0  502 -0.12843966508E+02  0.13002232863E+02  0.66761675885E+02  0.69377495645E+02  0.47000000000E+01 0.  1.
<mgrwt>
<rscale>  0 0.99911377E+03</rscale>
<asrwt>0</asrwt>
<pdfrwt beam="1">  1        2 0.89619178E-01 0.99911377E+03</pdfrwt>
<pdfrwt beam="2">  1       -2 0.65908621E-01 0.99911377E+03</pdfrwt>
<totfact> 0.13175661E+02</totfact>
</mgrwt>
</event>
<event>
 9    1  0.4370149E-036  0.9991181E+03  0.7818608E-02  0.8681878E-01
         -2   -1    0    0    0  501 -0.00000000000E+00  0.00000000000E+00  0.14055897894E+04  0.14055897894E+04  0.00000000000E+00 0.  1.
          2   -1    0    0  501    0  0.00000000000E+00 -0.00000000000E+00 -0.17754768993E+03  0.17754768993E+03  0.00000000000E+00 0.  1.
         36    2    1    2    0    0  0.00000000000E+00  0.00000000000E+00  0.12280420995E+04  0.15831374793E+04  0.99911805127E+03 0.  0.
         25    2    3    3    0    0 -0.54409776096E+02  0.10452358392E+03  0.33416924833E+03  0.37565580822E+03  0.12475013584E+03 0.  0.
         35    2    3    3    0    0  0.54409776096E+02 -0.10452358392E+03  0.89387285116E+03  0.12074816711E+04  0.80319219912E+03 0.  0.
         22    1    5    5    0    0 -0.69129511580E+02 -0.11756126893E+03 -0.12263633946E+03  0.18340995906E+03  0.00000000000E+00 0.  1.
         22    1    5    5    0    0  0.12353928768E+03  0.13037685012E+02  0.10165091906E+04  0.10240717121E+04  0.00000000000E+00 0.  1.
          5    1    4    4  502    0  0.32244075024E+02  0.41674584731E+02  0.53540916744E+02  0.75267331243E+02  0.47000000000E+01 0.  1.
         -5    1    4    4    0  502 -0.86653851120E+02  0.62848999189E+02  0.28062833158E+03  0.30038847698E+03  0.47000000000E+01 0.  1.
<mgrwt>
<rscale>  0 0.99911805E+03</rscale>
<asrwt>0</asrwt>
<pdfrwt beam="1">  1        2 0.27315030E-01 0.99911805E+03</pdfrwt>
<pdfrwt beam="2">  1       -2 0.21624458E+00 0.99911805E+03</pdfrwt>
<totfact> 0.22353664E+01</totfact>
</mgrwt>
</event>
<event>
 9    1  0.4370149E-036  0.1000101E+04  0.7818608E-02  0.8680941E-01
          1   -1    0    0  501    0  0.00000000000E+00  0.00000000000E+00  0.22537962246E+04  0.22537962246E+04  0.00000000000E+00 0.  1.
         -1   -1    0    0    0  501 -0.00000000000E+00 -0.00000000000E+00 -0.11094646939E+03  0.11094646939E+03  0.00000000000E+00 0.  1.
         36    2    1    2    0    0 -0.71054273576E-14  0.00000000000E+00  0.21428497552E+04  0.23647426939E+04  0.10001014625E+04 0.  0.
         25    2    3    3    0    0  0.41688924321E+02 -0.12342534654E+03  0.52237788125E+03  0.55286994139E+03  0.12575666459E+03 0.  0.
         35    2    3    3    0    0 -0.41688924321E+02  0.12342534654E+03  0.16204718739E+04  0.18118727526E+04  0.79998874664E+03 0.  0.
         22    1    5    5    0    0 -0.14605530967E+03  0.52412070917E+02  0.16693196679E+04  0.16765164277E+04  0.00000000000E+00 0.  1.
         22    1    5    5    0    0  0.10436638534E+03  0.71013275624E+02 -0.48847793992E+02  0.13535632487E+03  0.00000000000E+00 0.  1.
          5    1    4    4  502    0  0.54359510639E+01 -0.43420607313E+02  0.31373530644E+02  0.54048932722E+02  0.47000000000E+01 0. -1.
         -5    1    4    4    0  502  0.36252973258E+02 -0.80004739228E+02  0.49100435061E+03  0.49882100866E+03  0.47000000000E+01 0. -1.
<mgrwt>
<rscale>  0 0.10001015E+04</rscale>
<asrwt>0</asrwt>
<pdfrwt beam="1">  1        1 0.34673785E+00 0.10001015E+04</pdfrwt>
<pdfrwt beam="2">  1       -1 0.17068689E-01 0.10001015E+04</pdfrwt>
<totfact> 0.54831556E+01</totfact>
</mgrwt>
</event>
<event>
 9    1  0.4370149E-036  0.9996861E+03  0.7818608E-02  0.8681337E-01
          1   -1    0    0  501    0  0.00000000000E+00  0.00000000000E+00  0.18083832544E+04  0.18083832544E+04  0.00000000000E+00 0. -1.
         -1   -1    0    0    0  501 -0.00000000000E+00 -0.00000000000E+00 -0.13815824228E+03  0.13815824228E+03  0.00000000000E+00 0. -1.
         36    2    1    2    0    0 -0.28421709430E-13  0.00000000000E+00  0.16702250121E+04  0.19465414967E+04  0.99968605433E+03 0.  0.
         25    2    3    3    0    0 -0.79176861897E+02  0.10264895147E+03  0.21327076062E+03  0.27906378712E+03  0.12484549350E+03 0.  0.
         35    2    3    3    0    0  0.79176861897E+02 -0.10264895147E+03  0.14569542515E+04  0.16674777096E+04  0.80060004887E+03 0.  0.
         22    1    5    5    0    0  0.38175676086E+03  0.20251258762E+02  0.36811079329E+03  0.53071074426E+03  0.00000000000E+00 0.  1.
         22    1    5    5    0    0 -0.30257989896E+03 -0.12290021023E+03  0.10888434582E+04  0.11367669653E+04  0.00000000000E+00 0.  1.
          5    1    4    4  502    0 -0.25132491070E+02 -0.18010986132E+02  0.10041479069E+03  0.10517251503E+03  0.47000000000E+01 0. -1.
         -5    1    4    4    0  502 -0.54044370827E+02  0.12065993760E+03  0.11285596994E+03  0.17389127209E+03  0.47000000000E+01 0. -1.
<mgrwt>
<rscale>  0 0.99968605E+03</rscale>
<asrwt>0</asrwt>
<pdfrwt beam="1">  1        1 0.27821279E+00 0.99968605E+03</pdfrwt>
<pdfrwt beam="2">  1       -1 0.21255115E-01 0.99968605E+03</pdfrwt>
<totfact> 0.78470370E+01</totfact>
</mgrwt>
</event>
<event>
 9    1  0.4370149E-036  0.1000290E+04  0.7818608E-02  0.8680762E-01
         -3   -1    0    0    0  501 -0.00000000000E+00  0.00000000000E+00  0.85246701005E+03  0.85246701005E+03  0.00000000000E+00 0. -1.
          3   -1    0    0  501    0  0.00000000000E+00 -0.00000000000E+00 -0.29343658053E+03  0.29343658053E+03  0.00000000000E+00 0. -1.
         36    2    1    2    0    0  0.00000000000E+00  0.00000000000E+00  0.55903042951E+03  0.11459035906E+04  0.10002899669E+04 0.  0.
         25    2    3    3    0    0  0.40106903773E+02  0.12306698383E+03  0.17162515971E+03  0.24877207087E+03  0.12521302471E+03 0.  0.
         35    2    3    3    0    0 -0.40106903773E+02 -0.12306698383E+03  0.38740526980E+03  0.89713151971E+03  0.79875407627E+03 0.  0.
         22    1    5    5    0    0  0.20958440231E+03 -0.35271865301E+03  0.41085470658E+02  0.41233976982E+03  0.00000000000E+00 0.  1.
         22    1    5    5    0    0 -0.24969130608E+03  0.22965166918E+03  0.34631979914E+03  0.48479174990E+03  0.00000000000E+00 0.  1.
          5    1    4    4  502    0  0.71474874363E+02  0.71319500436E+02  0.49838403072E+02  0.11269909151E+03  0.47000000000E+01 0. -1.
         -5    1    4    4    0  502 -0.31367970590E+02  0.51747483396E+02  0.12178675664E+03  0.13607297935E+03  0.47000000000E+01 0. -1.
<mgrwt>
<rscale>  0 0.10002900E+04</rscale>
<asrwt>0</asrwt>
<pdfrwt beam="1">  1        3 0.45144090E-01 0.10002900E+04</pdfrwt>
<pdfrwt beam="2">  1       -3 0.13114877E+00 0.10002900E+04</pdfrwt>
<totfact> 0.75210756E+00</totfact>
</mgrwt>
</event>
<event>
 9    1  0.4370149E-036  0.9996278E+03  0.7818608E-02  0.8681392E-01
         -2   -1    0    0    0  501 -0.00000000000E+00  0.00000000000E+00  0.19814064920E+03  0.19814064920E+03  0.00000000000E+00 0.  1.
          2   -1    0    0  501    0  0.00000000000E+00 -0.00000000000E+00 -0.12607910296E+04  0.12607910296E+04  0.00000000000E+00 0.  1.
         36    2    1    2    0    0  0.00000000000E+00  0.28421709430E-13 -0.10626503804E+04  0.14589316788E+04  0.99962783697E+03 0.  0.
         25    2    3    3    0    0 -0.51504632693E+02 -0.12415568578E+03 -0.13255016139E+03  0.22450767099E+03  0.12151867160E+03 0.  0.
         35    2    3    3    0    0  0.51504632693E+02  0.12415568578E+03 -0.93010021900E+03  0.12344240078E+04  0.80040542987E+03 0.  0.
         22    1    5    5    0    0 -0.15351796952E+03  0.39018438299E+03 -0.73449456147E+03  0.84575048361E+03  0.00000000000E+00 0. -1.
         22    1    5    5    0    0  0.20502260221E+03 -0.26602869721E+03 -0.19560565754E+03  0.38867352421E+03  0.00000000000E+00 0. -1.
          5    1    4    4  502    0 -0.37576723478E+02 -0.61153660104E+02 -0.14195007680E+03  0.15913420310E+03  0.47000000000E+01 0.  1.
         -5    1    4    4    0  502 -0.13927909216E+02 -0.63002025671E+02  0.93999154105E+01  0.65373467887E+02  0.47000000000E+01 0.  1.
<mgrwt>
<rscale>  0 0.99962784E+03</rscale>
<asrwt>0</asrwt>
<pdfrwt beam="1">  1        2 0.19396785E+00 0.99962784E+03</pdfrwt>
<pdfrwt beam="2">  1       -2 0.30483177E-01 0.99962784E+03</pdfrwt>
<totfact> 0.20860959E+02</totfact>
</mgrwt>
</event>
<event>
 9    1  0.4370149E-036  0.1006900E+04  0.7818608E-02  0.8674495E-01
          1   -1    0    0  501    0  0.00000000000E+00  0.00000000000E+00  0.19587234559E+04  0.19587234559E+04  0.00000000000E+00 0.  1.
         -1   -1    0    0    0  501 -0.00000000000E+00 -0.00000000000E+00 -0.12940151719E+03  0.12940151719E+03  0.00000000000E+00 0.  1.
         36    2    1    2    0    0  0.14210854715E-13  0.00000000000E+00  0.18293219387E+04  0.20881249731E+04  0.10068997705E+04 0.  0.
         25    2    3    3    0    0  0.10546551349E+03  0.73129539097E+02  0.19928677219E+03  0.26766225049E+03  0.12432601797E+03 0.  0.
         35    2    3    3    0    0 -0.10546551349E+03 -0.73129539097E+02  0.16300351665E+04  0.18204627226E+04  0.80037427259E+03 0.  0.
         22    1    5    5    0    0  0.34132317602E+03  0.51036433910E+02  0.75532382012E+03  0.83043380309E+03  0.00000000000E+00 0. -1.
         22    1    5    5    0    0 -0.44678868951E+03 -0.12416597301E+03  0.87471134643E+03  0.99002891953E+03  0.00000000000E+00 0. -1.
          5    1    4    4  502    0  0.84283790571E+02 -0.15434109802E+02  0.78339640744E+02  0.11619448528E+03  0.47000000000E+01 0. -1.
         -5    1    4    4    0  502  0.21181722923E+02  0.88563648899E+02  0.12094713144E+03  0.15146776521E+03  0.47000000000E+01 0. -1.
<mgrwt>
<rscale>  0 0.10068998E+04</rscale>
<asrwt>0</asrwt>
<pdfrwt beam="1">  1        1 0.30134205E+00 0.10068998E+04</pdfrwt>
<pdfrwt beam="2">  1       -1 0.19907927E-01 0.10068998E+04</pdfrwt>
<totfact> 0.68573051E+01</totfact>
</mgrwt>
</event>
<event>
 9    1  0.4370149E-036  0.1000853E+04  0.7818608E-02  0.8680226E-01
         -4   -1    0    0    0  501 -0.00000000000E+00  0.00000000000E+00  0.12986274489E+04  0.12986274489E+04  0.00000000000E+00 0. -1.
          4   -1    0    0  501    0  0.00000000000E+00 -0.00000000000E+00 -0.19283939282E+03  0.19283939282E+03  0.00000000000E+00 0. -1.
         36    2    1    2    0    0  0.28421709430E-13  0.00000000000E+00  0.11057880561E+04  0.14914668417E+04  0.10008526939E+04 0.  0.
         25    2    3    3    0    0  0.10815001776E+03 -0.36797824724E+02  0.84244967438E+02  0.18917591363E+03  0.12505920803E+03 0.  0.
         35    2    3    3    0    0 -0.10815001776E+03  0.36797824724E+02  0.10215430886E+04  0.13022909281E+04  0.79960044596E+03 0.  0.
         22    1    5    5    0    0 -0.39996901414E+03  0.17514595136E+03  0.79758716746E+03  0.90928356757E+03  0.00000000000E+00 0. -1.
         22    1    5    5    0    0  0.29181899637E+03 -0.13834812664E+03  0.22395592118E+03  0.39300736052E+03  0.00000000000E+00 0. -1.
          5    1    4    4  502    0  0.57476522628E+02  0.95066217379E+01 -0.22123933091E+02  0.62493879106E+02  0.47000000000E+01 0.  1.
         -5    1    4    4    0  502  0.50673495133E+02 -0.46304446462E+02  0.10636890053E+03  0.12668203452E+03  0.47000000000E+01 0.  1.
<mgrwt>
<rscale>  0 0.10008527E+04</rscale>
<asrwt>0</asrwt>
<pdfrwt beam="1">  1        4 0.29667600E-01 0.10008527E+04</pdfrwt>
<pdfrwt beam="2">  1       -4 0.19978883E+00 0.10008527E+04</pdfrwt>
<totfact> 0.25804313E+00</totfact>
</mgrwt>
</event>
<event>
 9    1  0.4370149E-036  0.9999966E+03  0.7818608E-02  0.8681041E-01
         -2   -1    0    0    0  501 -0.00000000000E+00  0.00000000000E+00  0.17202197209E+03  0.17202197209E+03  0.00000000000E+00 0.  1.
          2   -1    0    0  501    0  0.00000000000E+00 -0.00000000000E+00 -0.14532928892E+04  0.14532928892E+04  0.00000000000E+00 0.  1.
         36    2    1    2    0    0  0.00000000000E+00 -0.28421709430E-13 -0.12812709171E+04  0.16253148613E+04  0.99999661764E+03 0.  0.
         25    2    3    3    0    0 -0.34627613145E+01 -0.52473567775E+02 -0.44767398845E+03  0.46775751417E+03  0.12497850255E+03 0.  0.
         35    2    3    3    0    0  0.34627613145E+01  0.52473567775E+02 -0.83359692870E+03  0.11575573472E+04  0.80142978880E+03 0.  0.
         22    1    5    5    0    0  0.26794719329E+03 -0.26893376283E+03 -0.47565360404E+03  0.60857819400E+03  0.00000000000E+00 0. -1.
         22    1    5    5    0    0 -0.26448443198E+03  0.32140733060E+03 -0.35794332466E+03  0.54897915315E+03  0.00000000000E+00 0. -1.
          5    1    4    4  502    0 -0.53304908347E+02 -0.35880690507E+02 -0.35777286562E+03  0.36352764761E+03  0.47000000000E+01 0.  1.
         -5    1    4    4    0  502  0.49842147032E+02 -0.16592877268E+02 -0.89901122828E+02  0.10422986656E+03  0.47000000000E+01 0.  1.
<mgrwt>
<rscale>  0 0.99999662E+03</rscale>
<asrwt>0</asrwt>
<pdfrwt beam="1">  1        2 0.22358353E+00 0.99999662E+03</pdfrwt>
<pdfrwt beam="2">  1       -2 0.26464918E-01 0.99999662E+03</pdfrwt>
<totfact> 0.20872698E+02</totfact>
</mgrwt>
</event>
<event>
 9    1  0.4370149E-036  0.9944274E+03  0.7818608E-02  0.8686363E-01
         -1   -1    0    0    0  501 -0.00000000000E+00  0.00000000000E+00  0.16538476140E+03  0.16538476140E+03  0.00000000000E+00 0. -1.
          1   -1    0    0  501    0  0.00000000000E+00 -0.00000000000E+00 -0.14948260236E+04  0.14948260236E+04  0.00000000000E+00 0. -1.
         36    2    1    2    0    0 -0.71054273576E-14  0.00000000000E+00 -0.13294412622E+04  0.16602107850E+04  0.99442736336E+03 0.  0.
         25    2    3    3    0    0  0.62851328342E+00 -0.10871672457E+03 -0.10851089689E+03  0.19707541642E+03  0.12346814887E+03 0.  0.
         35    2    3    3    0    0 -0.62851328342E+00  0.10871672457E+03 -0.12209303653E+04  0.14631353686E+04  0.79892078996E+03 0.  0.
         22    1    5    5    0    0  0.16574497996E+03  0.22315798575E+03 -0.12299794180E+04  0.12609997040E+04  0.00000000000E+00 0.  1.
         22    1    5    5    0    0 -0.16637349324E+03 -0.11444126118E+03  0.90490526838E+01  0.20213566451E+03  0.00000000000E+00 0.  1.
          5    1    4    4  502    0  0.33185690526E+02 -0.58659390491E+02  0.60197980444E+01  0.67827296252E+02  0.47000000000E+01 0. -1.
         -5    1    4    4    0  502 -0.32557177243E+02 -0.50057334075E+02 -0.11453069494E+03  0.12924812017E+03  0.47000000000E+01 0. -1.
<mgrwt>
<rscale>  0 0.99442736E+03</rscale>
<asrwt>0</asrwt>
<pdfrwt beam="1">  1        1 0.22997323E+00 0.99442736E+03</pdfrwt>
<pdfrwt beam="2">  1       -1 0.25443809E-01 0.99442736E+03</pdfrwt>
<totfact> 0.96811939E+01</totfact>
</mgrwt>
</event>
<event>
 9    1  0.4370149E-036  0.1004972E+04  0.7818608E-02  0.8676318E-01
         -2   -1    0    0    0  501 -0.00000000000E+00  0.00000000000E+00  0.12973438124E+03  0.12973438124E+03  0.00000000000E+00 0.  1.
          2   -1    0    0  501    0  0.00000000000E+00 -0.00000000000E+00 -0.19462222434E+04  0.19462222434E+04  0.00000000000E+00 0.  1.
         36    2    1    2    0    0  0.00000000000E+00 -0.14210854715E-13 -0.18164878621E+04  0.20759566246E+04  0.10049715190E+04 0.  0.
         25    2    3    3    0    0  0.78360484729E+02  0.11154677913E+03 -0.23998833015E+03  0.30314551868E+03  0.12537845662E+03 0.  0.
         35    2    3    3    0    0 -0.78360484729E+02 -0.11154677913E+03 -0.15764995320E+04  0.17728111059E+04  0.79932808875E+03 0.  0.
         22    1    5    5    0    0 -0.37691854804E+03 -0.27711907709E+03 -0.96665874071E+03  0.10739141938E+04  0.00000000000E+00 0.  1.
         22    1    5    5    0    0  0.29855806332E+03  0.16557229796E+03 -0.60984079127E+03  0.69889691208E+03  0.00000000000E+00 0.  1.
          5    1    4    4  502    0 -0.10992460763E+01  0.15425163309E+02  0.13201106343E+02  0.20868713753E+02  0.47000000000E+01 0. -1.
         -5    1    4    4    0  502  0.79459730805E+02  0.96121615823E+02 -0.25318943649E+03  0.28227680492E+03  0.47000000000E+01 0. -1.
<mgrwt>
<rscale>  0 0.10049715E+04</rscale>
<asrwt>0</asrwt>
<pdfrwt beam="1">  1        2 0.29941880E+00 0.10049715E+04</pdfrwt>
<pdfrwt beam="2">  1       -2 0.19959136E-01 0.10049715E+04</pdfrwt>
<totfact> 0.18049222E+02</totfact>
</mgrwt>
</event>
<event>
 9    1  0.4370149E-036  0.1000746E+04  0.7818608E-02  0.8680328E-01
         -1   -1    0    0    0  501 -0.00000000000E+00  0.00000000000E+00  0.24519615394E+03  0.24519615394E+03  0.00000000000E+00 0. -1.
          1   -1    0    0  501    0  0.00000000000E+00 -0.00000000000E+00 -0.10211133540E+04  0.10211133540E+04  0.00000000000E+00 0. -1.
         36    2    1    2    0    0  0.00000000000E+00 -0.21316282073E-13 -0.77591720011E+03  0.12663095080E+04  0.10007458561E+04 0.  0.
         25    2    3    3    0    0  0.10885035727E+03 -0.57118690994E+02 -0.22102613347E+03  0.28201355548E+03  0.12477238741E+03 0.  0.
         35    2    3    3    0    0 -0.10885035727E+03  0.57118690994E+02 -0.55489106663E+03  0.98429595250E+03  0.80363143364E+03 0.  0.
         22    1    5    5    0    0  0.10878019103E+03 -0.34050614529E+03 -0.20863949047E+03  0.41389370849E+03  0.00000000000E+00 0. -1.
         22    1    5    5    0    0 -0.21763054830E+03  0.39762483628E+03 -0.34625157616E+03  0.57040224401E+03  0.00000000000E+00 0. -1.
          5    1    4    4  502    0 -0.10429998211E+02  0.22968346637E+02 -0.64903550339E+02  0.69791766395E+02  0.47000000000E+01 0.  1.
         -5    1    4    4    0  502  0.11928035548E+03 -0.80087037631E+02 -0.15612258313E+03  0.21222178909E+03  0.47000000000E+01 0.  1.
<mgrwt>
<rscale>  0 0.10007459E+04</rscale>
<asrwt>0</asrwt>
<pdfrwt beam="1">  1        1 0.15709436E+00 0.10007459E+04</pdfrwt>
<pdfrwt beam="2">  1       -1 0.37722485E-01 0.10007459E+04</pdfrwt>
<totfact> 0.11035321E+02</totfact>
</mgrwt>
</event>
<event>
 9    1  0.4370149E-036  0.9999801E+03  0.7818608E-02  0.8681057E-01
         -2   -1    0    0    0  501 -0.00000000000E+00  0.00000000000E+00  0.43192665464E+03  0.43192665464E+03  0.00000000000E+00 0.  1.
          2   -1    0    0  501    0  0.00000000000E+00 -0.00000000000E+00 -0.57877897116E+03  0.57877897116E+03  0.00000000000E+00 0.  1.
         36    2    1    2    0    0  0.00000000000E+00 -0.14210854715E-13 -0.14685231652E+03  0.10107056258E+04  0.99998012938E+03 0.  0.
         25    2    3    3    0    0  0.79132330587E+02  0.53568722144E+02  0.77194171079E+02  0.17453586963E+03  0.12398506363E+03 0.  0.
         35    2    3    3    0    0 -0.79132330587E+02 -0.53568722144E+02 -0.22404648760E+03  0.83616975617E+03  0.79990718136E+03 0.  0.
         22    1    5    5    0    0 -0.20571160988E+03  0.33205577045E+03 -0.17262721397E+03  0.42705790724E+03  0.00000000000E+00 0. -1.
         22    1    5    5    0    0  0.12657927930E+03 -0.38562449260E+03 -0.51419273630E+02  0.40911184893E+03  0.00000000000E+00 0. -1.
          5    1    4    4  502    0  0.72611094823E+02  0.88954581699E+02  0.76842626053E+02  0.13824676443E+03  0.47000000000E+01 0. -1.
         -5    1    4    4    0  502  0.65212357640E+01 -0.35385859555E+02  0.35154502604E+00  0.36289105200E+02  0.47000000000E+01 0. -1.
<mgrwt>
<rscale>  0 0.99998013E+03</rscale>
<asrwt>0</asrwt>
<pdfrwt beam="1">  1        2 0.89042919E-01 0.99998013E+03</pdfrwt>
<pdfrwt beam="2">  1       -2 0.66450254E-01 0.99998013E+03</pdfrwt>
<totfact> 0.13045494E+02</totfact>
</mgrwt>
</event>
<event>
 9    1  0.4370149E-036  0.9998751E+03  0.7818608E-02  0.8681157E-01
          2   -1    0    0  501    0  0.00000000000E+00  0.00000000000E+00  0.17318763252E+04  0.17318763252E+04  0.00000000000E+00 0. -1.
         -2   -1    0    0    0  501 -0.00000000000E+00 -0.00000000000E+00 -0.14431605787E+03  0.14431605787E+03  0.00000000000E+00 0. -1.
         36    2    1    2    0    0  0.00000000000E+00  0.00000000000E+00  0.15875602673E+04  0.18761923831E+04  0.99987512014E+03 0.  0.
         25    2    3    3    0    0 -0.71422127074E+02  0.67702876822E+02  0.11071624587E+03  0.19345262328E+03  0.12442278967E+03 0.  0.
         35    2    3    3    0    0  0.71422127074E+02 -0.67702876822E+02  0.14768440215E+04  0.16827397598E+04  0.80053734183E+03 0.  0.
         22    1    5    5    0    0  0.88471563921E+02 -0.42087730115E+03  0.60828277657E+03  0.74496500355E+03  0.00000000000E+00 0. -1.
         22    1    5    5    0    0 -0.17049436847E+02  0.35317442433E+03  0.86856124491E+03  0.93777475625E+03  0.00000000000E+00 0. -1.
          5    1    4    4  502    0 -0.10247631401E+03  0.27767196110E+02  0.61866737718E+02  0.12297152251E+03  0.47000000000E+01 0.  1.
         -5    1    4    4    0  502  0.31054186932E+02  0.39935680713E+02  0.48849508152E+02  0.70481100776E+02  0.47000000000E+01 0.  1.
<mgrwt>
<rscale>  0 0.99987512E+03</rscale>
<asrwt>0</asrwt>
<pdfrwt beam="1">  1        2 0.26644250E+00 0.99987512E+03</pdfrwt>
<pdfrwt beam="2">  1       -2 0.22202472E-01 0.99987512E+03</pdfrwt>
<totfact> 0.19821516E+02</totfact>
</mgrwt>
</event>
<event>
 9    1  0.4370149E-036  0.9999921E+03  0.7818608E-02  0.8681045E-01
         -1   -1    0    0    0  501 -0.00000000000E+00  0.00000000000E+00  0.67023035819E+03  0.67023035819E+03  0.00000000000E+00 0. -1.
          1   -1    0    0  501    0  0.00000000000E+00 -0.00000000000E+00 -0.37300018880E+03  0.37300018880E+03  0.00000000000E+00 0. -1.
         36    2    1    2    0    0 -0.28421709430E-13  0.00000000000E+00  0.29723016939E+03  0.10432305470E+04  0.99999210026E+03 0.  0.
         25    2    3    3    0    0 -0.41037803598E+02  0.66471027709E+02  0.17712415070E+03  0.23055697367E+03  0.12522401726E+03 0.  0.
         35    2    3    3    0    0  0.41037803598E+02 -0.66471027709E+02  0.12010601869E+03  0.81267357332E+03  0.79994398691E+03 0.  0.
         22    1    5    5    0    0  0.34877424477E+03 -0.26333200472E+02  0.29401370648E+03  0.45692556380E+03  0.00000000000E+00 0.  1.
         22    1    5    5    0    0 -0.30773644117E+03 -0.40137827237E+02 -0.17390768779E+03  0.35574800951E+03  0.00000000000E+00 0.  1.
          5    1    4    4  502    0 -0.29807178719E+02  0.61533788504E+02  0.17956044845E+02  0.70847615184E+02  0.47000000000E+01 0. -1.
         -5    1    4    4    0  502 -0.11230624879E+02  0.49372392051E+01  0.15916810586E+03  0.15970935849E+03  0.47000000000E+01 0. -1.
<mgrwt>
<rscale>  0 0.99999210E+03</rscale>
<asrwt>0</asrwt>
<pdfrwt beam="1">  1        1 0.57384644E-01 0.99999210E+03</pdfrwt>
<pdfrwt beam="2">  1       -1 0.10311236E+00 0.99999210E+03</pdfrwt>
<totfact> 0.70155796E+01</totfact>
</mgrwt>
</event>
<event>
 9    1  0.4370149E-036  0.9999339E+03  0.7818608E-02  0.8681101E-01
          1   -1    0    0  501    0  0.00000000000E+00  0.00000000000E+00  0.37412570644E+03  0.37412570644E+03  0.00000000000E+00 0. -1.
         -1   -1    0    0    0  501 -0.00000000000E+00 -0.00000000000E+00 -0.66813623529E+03  0.66813623529E+03  0.00000000000E+00 0. -1.
         36    2    1    2    0    0 -0.14210854715E-13 -0.71054273576E-14 -0.29401052885E+03  0.10422619417E+04  0.99993387987E+03 0.  0.
         25    2    3    3    0    0 -0.59247997843E+02  0.38632642719E+02  0.70026259168E+02  0.16152913090E+03  0.12722097636E+03 0.  0.
         35    2    3    3    0    0  0.59247997843E+02 -0.38632642719E+02 -0.36403678802E+03  0.88073281083E+03  0.79885211066E+03 0.  0.
         22    1    5    5    0    0  0.37696749417E+03  0.11370202546E+03 -0.29466170037E+02  0.39484287689E+03  0.00000000000E+00 0.  1.
         22    1    5    5    0    0 -0.31771949633E+03 -0.15233466818E+03 -0.33457061798E+03  0.48588993393E+03  0.00000000000E+00 0.  1.
          5    1    4    4  502    0 -0.46471574602E+01  0.77071538246E+02  0.26890646474E+02  0.81895146058E+02  0.47000000000E+01 0.  1.
         -5    1    4    4    0  502 -0.54600840383E+02 -0.38438895528E+02  0.43135612695E+02  0.79633984846E+02  0.47000000000E+01 0.  1.
<mgrwt>
<rscale>  0 0.99993388E+03</rscale>
<asrwt>0</asrwt>
<pdfrwt beam="1">  1        1 0.57557801E-01 0.99993388E+03</pdfrwt>
<pdfrwt beam="2">  1       -1 0.10279019E+00 0.99993388E+03</pdfrwt>
<totfact> 0.70374660E+01</totfact>
</mgrwt>
</event>
<event>
 9    1  0.4370149E-036  0.1001817E+04  0.7818608E-02  0.8679309E-01
         -1   -1    0    0    0  501 -0.00000000000E+00  0.00000000000E+00  0.21141957835E+03  0.21141957835E+03  0.00000000000E+00 0. -1.
          1   -1    0    0  501    0  0.00000000000E+00 -0.00000000000E+00 -0.11867840654E+04  0.11867840654E+04  0.00000000000E+00 0. -1.
         36    2    1    2    0    0  0.14210854715E-13  0.00000000000E+00 -0.97536448707E+03  0.13982036438E+04  0.10018171224E+04 0.  0.
         25    2    3    3    0    0 -0.85551627646E+02 -0.11046087892E+03 -0.22937885472E+03  0.29563637084E+03  0.12355370495E+03 0.  0.
         35    2    3    3    0    0  0.85551627646E+02  0.11046087892E+03 -0.74598563236E+03  0.11025672729E+04  0.79977455630E+03 0.  0.
         22    1    5    5    0    0 -0.14793068394E+02  0.45080654676E+03 -0.35040144876E+03  0.57116245742E+03  0.00000000000E+00 0.  1.
         22    1    5    5    0    0  0.10034469604E+03 -0.34034566784E+03 -0.39558418360E+03  0.53140481552E+03  0.00000000000E+00 0.  1.
          5    1    4    4  502    0 -0.10274012274E+03 -0.99922059035E+02 -0.12815395693E+03  0.19231608716E+03  0.47000000000E+01 0. -1.
         -5    1    4    4    0  502  0.17188495094E+02 -0.10538819888E+02 -0.10122489779E+03  0.10332028368E+03  0.47000000000E+01 0. -1.
<mgrwt>
<rscale>  0 0.10018171E+04</rscale>
<asrwt>0</asrwt>
<pdfrwt beam="1">  1        1 0.18258216E+00 0.10018171E+04</pdfrwt>
<pdfrwt beam="2">  1       -1 0.32526089E-01 0.10018171E+04</pdfrwt>
<totfact> 0.10665379E+02</totfact>
</mgrwt>
</event>
<event>
 9    1  0.4370149E-036  0.1000605E+04  0.7818608E-02  0.8680462E-01
          2   -1    0    0  501    0  0.00000000000E+00  0.00000000000E+00  0.13788066291E+04  0.13788066291E+04  0.00000000000E+00 0.  1.
         -2   -1    0    0    0  501 -0.00000000000E+00 -0.00000000000E+00 -0.18153574088E+03  0.18153574088E+03  0.00000000000E+00 0.  1.
         36    2    1    2    0    0  0.00000000000E+00 -0.28421709430E-13  0.11972708883E+04  0.15603423700E+04  0.10006051828E+04 0.  0.
         25    2    3    3    0    0 -0.81338739639E+02  0.64853945851E+02  0.77954066505E+02  0.18056863772E+03  0.12532426575E+03 0.  0.
         35    2    3    3    0    0  0.81338739639E+02 -0.64853945851E+02  0.11193168218E+04  0.13797737323E+04  0.80005211081E+03 0.  0.
         22    1    5    5    0    0  0.32057007888E+02 -0.40539936254E+03  0.34820223185E+03  0.53537004881E+03  0.00000000000E+00 0.  1.
         22    1    5    5    0    0  0.49281731751E+02  0.34054541669E+03  0.77111458991E+03  0.84440368348E+03  0.00000000000E+00 0.  1.
          5    1    4    4  502    0 -0.42698331281E+02  0.24630913445E+02 -0.30758473995E+02  0.58292393275E+02  0.47000000000E+01 0. -1.
         -5    1    4    4    0  502 -0.38640408358E+02  0.40223032406E+02  0.10871254050E+03  0.12227624445E+03  0.47000000000E+01 0. -1.
<mgrwt>
<rscale>  0 0.10006052E+04</rscale>
<asrwt>0</asrwt>
<pdfrwt beam="1">  1        2 0.21212409E+00 0.10006052E+04</pdfrwt>
<pdfrwt beam="2">  1       -2 0.27928576E-01 0.10006052E+04</pdfrwt>
<totfact> 0.20897714E+02</totfact>
</mgrwt>
</event>
<event>
 9    1 -0.4370149E-036  0.9998451E+03  0.7818608E-02  0.8681185E-01
          1   -1    0    0  501    0  0.00000000000E+00  0.00000000000E+00  0.82563515574E+02  0.82563515574E+02  0.00000000000E+00 0. -1.
         -1   -1    0    0    0  501 -0.00000000000E+00 -0.00000000000E+00 -0.30270337645E+04  0.30270337645E+04  0.00000000000E+00 0. -1.
         36    2    1    2    0    0  0.00000000000E+00 -0.21316282073E-13 -0.29444702489E+04  0.31095972801E+04  0.99984508672E+03 0.  0.
         25    2    3    3    0    0  0.11817920847E+03  0.26161308484E+02 -0.34144104419E+03  0.38363302729E+03  0.12625994454E+03 0.  0.
         35    2    3    3    0    0 -0.11817920847E+03 -0.26161308484E+02 -0.26030292047E+04  0.27259642528E+04  0.80029327585E+03 0.  0.
         22    1    5    5    0    0  0.69247756793E+02  0.26076199529E+03 -0.32543270133E+03  0.42272746907E+03  0.00000000000E+00 0.  1.
         22    1    5    5    0    0 -0.18742696526E+03 -0.28692330377E+03 -0.22775965034E+04  0.23032367837E+04  0.00000000000E+00 0.  1.
          5    1    4    4  502    0  0.12287633285E+03  0.61557544770E+02 -0.28858286670E+03  0.31967184024E+03  0.47000000000E+01 0. -1.
         -5    1    4    4    0  502 -0.46971243852E+01 -0.35396236286E+02 -0.52858177495E+02  0.63961187049E+02  0.47000000000E+01 0. -1.
<mgrwt>
<rscale>  0 0.99984509E+03</rscale>
<asrwt>0</asrwt>
<pdfrwt beam="1">  1        1 0.12702078E-01 0.99984509E+03</pdfrwt>
<pdfrwt beam="2">  1       -1 0.46569755E+00 0.99984509E+03</pdfrwt>
<totfact>-0.28910211E+00</totfact>
</mgrwt>
</event>
<event>
 9    1  0.4370149E-036  0.9993023E+03  0.7818608E-02  0.8681703E-01
         -1   -1    0    0    0  501 -0.00000000000E+00  0.00000000000E+00  0.21602912143E+03  0.21602912143E+03  0.00000000000E+00 0.  1.
          1   -1    0    0  501    0  0.00000000000E+00 -0.00000000000E+00 -0.11556370227E+04  0.11556370227E+04  0.00000000000E+00 0.  1.
         36    2    1    2    0    0  0.00000000000E+00 -0.42632564146E-13 -0.93960790123E+03  0.13716661441E+04  0.99930225798E+03 0.  0.
         25    2    3    3    0    0 -0.95368610019E+02  0.33971514501E+02 -0.30766499353E+03  0.34690809646E+03  0.12425072865E+03 0.  0.
         35    2    3    3    0    0  0.95368610019E+02 -0.33971514501E+02 -0.63194290770E+03  0.10247580476E+04  0.80032992074E+03 0.  0.
         22    1    5    5    0    0 -0.25091091852E+03 -0.26661001156E+03 -0.17421511236E+03  0.40544801476E+03  0.00000000000E+00 0.  1.
         22    1    5    5    0    0  0.34627952854E+03  0.23263849706E+03 -0.45772779534E+03  0.61931003288E+03  0.00000000000E+00 0.  1.
          5    1    4    4  502    0 -0.94177963713E+01  0.58430373711E+02 -0.63840649973E+02  0.87180972978E+02  0.47000000000E+01 0. -1.
         -5    1    4    4    0  502 -0.85950813647E+02 -0.24458859211E+02 -0.24382434355E+03  0.25972712348E+03  0.47000000000E+01 0. -1.
<mgrwt>
<rscale>  0 0.99930226E+03</rscale>
<asrwt>0</asrwt>
<pdfrwt beam="1">  1        1 0.17779031E+00 0.99930226E+03</pdfrwt>
<pdfrwt beam="2">  1       -1 0.33235249E-01 0.99930226E+03</pdfrwt>
<totfact> 0.10846869E+02</totfact>
</mgrwt>
</event>
<event>
 9    1  0.4370149E-036  0.1000500E+04  0.7818608E-02  0.8680561E-01
         -2   -1    0    0    0  501 -0.00000000000E+00  0.00000000000E+00  0.36036612719E+03  0.36036612719E+03  0.00000000000E+00 0.  1.
          2   -1    0    0  501    0  0.00000000000E+00 -0.00000000000E+00 -0.69443346894E+03  0.69443346894E+03  0.00000000000E+00 0.  1.
         36    2    1    2    0    0 -0.56843418861E-13  0.00000000000E+00 -0.33406734174E+03  0.10547995961E+04  0.10005004744E+04 0.  0.
         25    2    3    3    0    0  0.88529312225E+02  0.10970554218E+03 -0.58818344084E+02  0.19717666114E+03  0.12468477449E+03 0.  0.
         35    2    3    3    0    0 -0.88529312225E+02 -0.10970554218E+03 -0.27524899766E+03  0.85762293499E+03  0.79992646087E+03 0.  0.
         22    1    5    5    0    0 -0.39688610985E+03 -0.19387466530E+03 -0.30473523538E+03  0.53662792857E+03  0.00000000000E+00 0. -1.
         22    1    5    5    0    0  0.30835679763E+03  0.84169123124E+02  0.29486237725E+02  0.32099500642E+03  0.00000000000E+00 0. -1.
          5    1    4    4  502    0  0.33497682200E+02  0.13174174724E+02 -0.76394902664E+02  0.84580876949E+02  0.47000000000E+01 0. -1.
         -5    1    4    4    0  502  0.55031630026E+02  0.96531367454E+02  0.17576558580E+02  0.11259578419E+03  0.47000000000E+01 0. -1.
<mgrwt>
<rscale>  0 0.10005005E+04</rscale>
<asrwt>0</asrwt>
<pdfrwt beam="1">  1        2 0.10683592E+00 0.10005005E+04</pdfrwt>
<pdfrwt beam="2">  1       -2 0.55440943E-01 0.10005005E+04</pdfrwt>
<totfact> 0.15316192E+02</totfact>
</mgrwt>
</event>
<event>
 9    1  0.4370149E-036  0.1001244E+04  0.7818608E-02  0.8679855E-01
         -2   -1    0    0    0  501 -0.00000000000E+00  0.00000000000E+00  0.23687299397E+03  0.23687299397E+03  0.00000000000E+00 0.  1.
          2   -1    0    0  501    0  0.00000000000E+00 -0.00000000000E+00 -0.10580447302E+04  0.10580447302E+04  0.00000000000E+00 0.  1.
         36    2    1    2    0    0 -0.28421709430E-13  0.00000000000E+00 -0.82117173621E+03  0.12949177242E+04  0.10012436726E+04 0.  0.
         25    2    3    3    0    0  0.11547565897E+03  0.77453677512E+02 -0.18922982027E+03  0.26628850113E+03  0.12557046221E+03 0.  0.
         35    2    3    3    0    0 -0.11547565897E+03 -0.77453677512E+02 -0.63194191594E+03  0.10286292230E+04  0.79962103108E+03 0.  0.
         22    1    5    5    0    0  0.19442732109E+03  0.18463670262E+03 -0.55381418099E+03  0.61530711210E+03  0.00000000000E+00 0. -1.
         22    1    5    5    0    0 -0.30990298006E+03 -0.26209038013E+03 -0.78127734951E+02  0.41332211092E+03  0.00000000000E+00 0. -1.
          5    1    4    4  502    0  0.52564656918E+02 -0.26926749017E+02 -0.32115287999E+02  0.67391206346E+02  0.47000000000E+01 0. -1.
         -5    1    4    4    0  502  0.62911002052E+02  0.10438042653E+03 -0.15711453227E+03  0.19889729479E+03  0.47000000000E+01 0. -1.
<mgrwt>
<rscale>  0 0.10012437E+04</rscale>
<asrwt>0</asrwt>
<pdfrwt beam="1">  1        2 0.16277611E+00 0.10012437E+04</pdfrwt>
<pdfrwt beam="2">  1       -2 0.36441998E-01 0.10012437E+04</pdfrwt>
<totfact> 0.19809519E+02</totfact>
</mgrwt>
</event>
<event>
 9    1  0.4370149E-036  0.9979325E+03  0.7818608E-02  0.8683009E-01
          1   -1    0    0  501    0  0.00000000000E+00  0.00000000000E+00  0.19419677600E+04  0.19419677600E+04  0.00000000000E+00 0.  1.
         -1   -1    0    0    0  501 -0.00000000000E+00 -0.00000000000E+00 -0.12820364339E+03  0.12820364339E+03  0.00000000000E+00 0.  1.
         36    2    1    2    0    0 -0.14210854715E-13  0.28421709430E-13  0.18137641166E+04  0.20701714034E+04  0.99793254715E+03 0.  0.
         25    2    3    3    0    0  0.11463563665E+03  0.65828494582E+02  0.44211187736E+03  0.47915629598E+03  0.12904698363E+03 0.  0.
         35    2    3    3    0    0 -0.11463563665E+03 -0.65828494582E+02  0.13716522392E+04  0.15910151074E+04  0.79525120978E+03 0.  0.
         22    1    5    5    0    0 -0.33681768309E+02  0.35986834167E+03  0.75829248335E+03  0.84002807998E+03  0.00000000000E+00 0. -1.
         22    1    5    5    0    0 -0.80953868336E+02 -0.42569683625E+03  0.61335975589E+03  0.75098702741E+03  0.00000000000E+00 0. -1.
          5    1    4    4  502    0  0.59808909702E+02  0.85018374571E+02  0.37998188282E+03  0.39397151035E+03  0.47000000000E+01 0. -1.
         -5    1    4    4    0  502  0.54826726943E+02 -0.19189879989E+02  0.62129994546E+02  0.85184785635E+02  0.47000000000E+01 0. -1.
<mgrwt>
<rscale>  0 0.99793255E+03</rscale>
<asrwt>0</asrwt>
<pdfrwt beam="1">  1        1 0.29876425E+00 0.99793255E+03</pdfrwt>
<pdfrwt beam="2">  1       -1 0.19723639E-01 0.99793255E+03</pdfrwt>
<totfact> 0.71583088E+01</totfact>
</mgrwt>
</event>
<event>
 9    1  0.4370149E-036  0.9994953E+03  0.7818608E-02  0.8681519E-01
          1   -1    0    0  501    0  0.00000000000E+00  0.00000000000E+00  0.66473149132E+03  0.66473149132E+03  0.00000000000E+00 0. -1.
         -1   -1    0    0    0  501 -0.00000000000E+00 -0.00000000000E+00 -0.37571215961E+03  0.37571215961E+03  0.00000000000E+00 0. -1.
         36    2    1    2    0    0 -0.39079850467E-13  0.14210854715E-13  0.28901933171E+03  0.10404436509E+04  0.99949528096E+03 0.  0.
         25    2    3    3    0    0  0.16674971377E+02  0.82407216056E+02 -0.64196140863E+02  0.16140730808E+03  0.12191050271E+03 0.  0.
         35    2    3    3    0    0 -0.16674971377E+02 -0.82407216056E+02  0.35321547257E+03  0.87903634285E+03  0.80054651212E+03 0.  0.
         22    1    5    5    0    0 -0.37765853135E+03  0.10811242608E+03  0.21671525991E+03  0.44864213673E+03  0.00000000000E+00 0.  1.
         22    1    5    5    0    0  0.36098355997E+03 -0.19051964213E+03  0.13650021266E+03  0.43039420612E+03  0.00000000000E+00 0.  1.
          5    1    4    4  502    0  0.93744696907E+01  0.31099110461E+01 -0.79442650311E+02  0.80192125032E+02  0.47000000000E+01 0.  1.
         -5    1    4    4    0  502  0.73005016863E+01  0.79297305010E+02  0.15246509448E+02  0.81215183045E+02  0.47000000000E+01 0.  1.
<mgrwt>
<rscale>  0 0.99949528E+03</rscale>
<asrwt>0</asrwt>
<pdfrwt beam="1">  1        1 0.10226638E+00 0.99949528E+03</pdfrwt>
<pdfrwt beam="2">  1       -1 0.57801871E-01 0.99949528E+03</pdfrwt>
<totfact> 0.10310200E+02</totfact>
</mgrwt>
</event>
<event>
 9    1  0.4370149E-036  0.1001204E+04  0.7818608E-02  0.8679892E-01
          2   -1    0    0  501    0  0.00000000000E+00  0.00000000000E+00  0.34132934705E+04  0.34132934705E+04  0.00000000000E+00 0.  1.
         -2   -1    0    0    0  501 -0.00000000000E+00 -0.00000000000E+00 -0.73419543446E+02  0.73419543446E+02  0.00000000000E+00 0.  1.
         36    2    1    2    0    0 -0.28421709430E-13 -0.14210854715E-13  0.33398739270E+04  0.34867130139E+04  0.10012041715E+04 0.  0.
         25    2    3    3    0    0  0.11665821894E+03 -0.79342943856E+02  0.62563178144E+03  0.65336090044E+03  0.12474332642E+03 0.  0.
         35    2    3    3    0    0 -0.11665821894E+03  0.79342943856E+02  0.27142421456E+04  0.28333521135E+04  0.80054314768E+03 0.  0.
         22    1    5    5    0    0  0.21205805735E+03  0.20675718939E+03  0.43038354923E+03  0.52244344622E+03  0.00000000000E+00 0. -1.
         22    1    5    5    0    0 -0.32871627630E+03 -0.12741424553E+03  0.22838585964E+04  0.23109086673E+04  0.00000000000E+00 0. -1.
          5    1    4    4  502    0  0.76241915804E+02 -0.11092213698E+03  0.49343661519E+03  0.51148639611E+03  0.47000000000E+01 0.  1.
         -5    1    4    4    0  502  0.40416303140E+02  0.31579193125E+02  0.13219516625E+03  0.14187450433E+03  0.47000000000E+01 0.  1.
<mgrwt>
<rscale>  0 0.10012042E+04</rscale>
<asrwt>0</asrwt>
<pdfrwt beam="1">  1        2 0.52512195E+00 0.10012042E+04</pdfrwt>
<pdfrwt beam="2">  1       -2 0.11295317E-01 0.10012042E+04</pdfrwt>
<totfact> 0.54925075E+01</totfact>
</mgrwt>
</event>
<event>
 9    1  0.4370149E-036  0.9999870E+03  0.7818608E-02  0.8681050E-01
          2   -1    0    0  501    0  0.00000000000E+00  0.00000000000E+00  0.42517183636E+03  0.42517183636E+03  0.00000000000E+00 0. -1.
         -2   -1    0    0    0  501 -0.00000000000E+00 -0.00000000000E+00 -0.58798226926E+03  0.58798226926E+03  0.00000000000E+00 0. -1.
         36    2    1    2    0    0  0.14210854715E-13 -0.35527136788E-14 -0.16281043290E+03  0.10131541056E+04  0.99998700225E+03 0.  0.
         25    2    3    3    0    0 -0.11360713315E+03  0.68641148629E+00  0.52638421959E+02  0.17686023595E+03  0.12490671612E+03 0.  0.
         35    2    3    3    0    0  0.11360713315E+03 -0.68641148629E+00 -0.21544885486E+03  0.83629386967E+03  0.80003885876E+03 0.  0.
         22    1    5    5    0    0 -0.16326547211E+03  0.18812386418E+03 -0.38667558806E+03  0.45996109950E+03  0.00000000000E+00 0.  1.
         22    1    5    5    0    0  0.27687260525E+03 -0.18881027566E+03  0.17122673320E+03  0.37633277016E+03  0.00000000000E+00 0.  1.
          5    1    4    4  502    0 -0.55828937618E+02  0.31118586323E+02 -0.30550395190E+02  0.70997558666E+02  0.47000000000E+01 0. -1.
         -5    1    4    4    0  502 -0.57778195528E+02 -0.30432174837E+02  0.83188817149E+02  0.10586267729E+03  0.47000000000E+01 0. -1.
<mgrwt>
<rscale>  0 0.99998700E+03</rscale>
<asrwt>0</asrwt>
<pdfrwt beam="1">  1        2 0.65411051E-01 0.99998700E+03</pdfrwt>
<pdfrwt beam="2">  1       -2 0.90458811E-01 0.99998700E+03</pdfrwt>
<totfact> 0.92604886E+01</totfact>
</mgrwt>
</event>
<event>
 9    1  0.4370149E-036  0.9999825E+03  0.7818608E-02  0.8681055E-01
         -2   -1    0    0    0  501 -0.00000000000E+00  0.00000000000E+00  0.21429206843E+03  0.21429206843E+03  0.00000000000E+00 0. -1.
          2   -1    0    0  501    0  0.00000000000E+00 -0.00000000000E+00 -0.11665912255E+04  0.11665912255E+04  0.00000000000E+00 0. -1.
         36    2    1    2    0    0  0.14210854715E-13 -0.35527136788E-14 -0.95229915708E+03  0.13808832939E+04  0.99998249329E+03 0.  0.
         25    2    3    3    0    0  0.82760409583E+02 -0.13727680469E+02 -0.26121938544E+02  0.15533520317E+03  0.12809736557E+03 0.  0.
         35    2    3    3    0    0 -0.82760409583E+02  0.13727680469E+02 -0.92617721853E+03  0.12255480908E+04  0.79820182162E+03 0.  0.
         22    1    5    5    0    0  0.22049173529E+03 -0.73564500826E+02 -0.87563446601E+03  0.90596029669E+03  0.00000000000E+00 0.  1.
         22    1    5    5    0    0 -0.30325214487E+03  0.87292181294E+02 -0.50542752517E+02  0.31958779407E+03  0.00000000000E+00 0.  1.
          5    1    4    4  502    0  0.51540456430E+02  0.86105930813E+01 -0.75918640459E+02  0.92283752261E+02  0.47000000000E+01 0. -1.
         -5    1    4    4    0  502  0.31219953153E+02 -0.22338273550E+02  0.49796701914E+02  0.63051450908E+02  0.47000000000E+01 0. -1.
<mgrwt>
<rscale>  0 0.99998249E+03</rscale>
<asrwt>0</asrwt>
<pdfrwt beam="1">  1        2 0.17947558E+00 0.99998249E+03</pdfrwt>
<pdfrwt beam="2">  1       -2 0.32968010E-01 0.99998249E+03</pdfrwt>
<totfact> 0.20527259E+02</totfact>
</mgrwt>
</event>
<event>
 9    1  0.4370149E-036  0.1000707E+04  0.7818608E-02  0.8680365E-01
          2   -1    0    0  501    0  0.00000000000E+00  0.00000000000E+00  0.75418500461E+03  0.75418500461E+03  0.00000000000E+00 0.  1.
         -2   -1    0    0    0  501 -0.00000000000E+00 -0.00000000000E+00 -0.33195273829E+03  0.33195273829E+03  0.00000000000E+00 0.  1.
         36    2    1    2    0    0  0.28421709430E-13 -0.31974423109E-13  0.42223226632E+03  0.10861377429E+04  0.10007073048E+04 0.  0.
         25    2    3    3    0    0  0.11952989992E+03  0.23053193076E+02  0.27804504401E+01  0.17450777966E+03  0.12500555017E+03 0.  0.
         35    2    3    3    0    0 -0.11952989992E+03 -0.23053193076E+02  0.41945181588E+03  0.91162996324E+03  0.80019404981E+03 0.  0.
         22    1    5    5    0    0 -0.26816638746E+03  0.32873342122E+03  0.26148265893E+03  0.49834932980E+03  0.00000000000E+00 0.  1.
         22    1    5    5    0    0  0.14863648754E+03 -0.35178661430E+03  0.15796915695E+03  0.41328063344E+03  0.00000000000E+00 0.  1.
          5    1    4    4  502    0  0.84975176371E+02  0.14685570905E+02  0.61276765297E+02  0.10589324132E+03  0.47000000000E+01 0.  1.
         -5    1    4    4    0  502  0.34554723545E+02  0.83676221713E+01 -0.58496314857E+02  0.68614538342E+02  0.47000000000E+01 0.  1.
<mgrwt>
<rscale>  0 0.10007073E+04</rscale>
<asrwt>0</asrwt>
<pdfrwt beam="1">  1        2 0.11602846E+00 0.10007073E+04</pdfrwt>
<pdfrwt beam="2">  1       -2 0.51069652E-01 0.10007073E+04</pdfrwt>
<totfact> 0.16330337E+02</totfact>
</mgrwt>
</event>
<event>
 9    1  0.4370149E-036  0.1000469E+04  0.7818608E-02  0.8680592E-01
         -2   -1    0    0    0  501 -0.00000000000E+00  0.00000000000E+00  0.22044521988E+03  0.22044521988E+03  0.00000000000E+00 0.  1.
          2   -1    0    0  501    0  0.00000000000E+00 -0.00000000000E+00 -0.11351323190E+04  0.11351323190E+04  0.00000000000E+00 0.  1.
         36    2    1    2    0    0  0.14210854715E-13  0.00000000000E+00 -0.91468709910E+03  0.13555775389E+04  0.10004688774E+04 0.  0.
         25    2    3    3    0    0  0.70033915709E+02  0.11012431409E+03 -0.10550176807E+03  0.20995739113E+03  0.12617198232E+03 0.  0.
         35    2    3    3    0    0 -0.70033915709E+02 -0.11012431409E+03 -0.80918533103E+03  0.11456201477E+04  0.80039522050E+03 0.  0.
         22    1    5    5    0    0 -0.33305971309E+03 -0.20327840078E+03 -0.12988470483E+03  0.41124313642E+03  0.00000000000E+00 0.  1.
         22    1    5    5    0    0  0.26302579738E+03  0.93154086696E+02 -0.67930062621E+03  0.73437701130E+03  0.00000000000E+00 0.  1.
          5    1    4    4  502    0 -0.13332460609E+02 -0.46644780711E+01  0.16902968391E+02  0.22523592120E+02  0.47000000000E+01 0.  1.
         -5    1    4    4    0  502  0.83366376318E+02  0.11478879216E+03 -0.12240473646E+03  0.18743379901E+03  0.47000000000E+01 0.  1.
<mgrwt>
<rscale>  0 0.10004689E+04</rscale>
<asrwt>0</asrwt>
<pdfrwt beam="1">  1        2 0.17463574E+00 0.10004689E+04</pdfrwt>
<pdfrwt beam="2">  1       -2 0.33914650E-01 0.10004689E+04</pdfrwt>
<totfact> 0.20340881E+02</totfact>
</mgrwt>
</event>
<event>
 9    1  0.4370149E-036  0.9999854E+03  0.7818608E-02  0.8681052E-01
         -2   -1    0    0    0  501 -0.00000000000E+00  0.00000000000E+00  0.15883175704E+03  0.15883175704E+03  0.00000000000E+00 0. -1.
          2   -1    0    0  501    0  0.00000000000E+00 -0.00000000000E+00 -0.15739464421E+04  0.15739464421E+04  0.00000000000E+00 0. -1.
         36    2    1    2    0    0  0.28421709430E-13  0.00000000000E+00 -0.14151146850E+04  0.17327781991E+04  0.99998535765E+03 0.  0.
         25    2    3    3    0    0  0.78794209446E+02  0.95595807103E+02 -0.15350748140E+03  0.23328424789E+03  0.12453877986E+03 0.  0.
         35    2    3    3    0    0 -0.78794209446E+02 -0.95595807103E+02 -0.12616072036E+04  0.14994939512E+04  0.80092589402E+03 0.  0.
         22    1    5    5    0    0 -0.39290597212E+03 -0.22777915980E+03 -0.86185779755E+03  0.97419572559E+03  0.00000000000E+00 0. -1.
         22    1    5    5    0    0  0.31411176268E+03  0.13218335269E+03 -0.39974940607E+03  0.52529822561E+03  0.00000000000E+00 0. -1.
          5    1    4    4  502    0  0.10098463386E+02  0.40721406454E+02  0.13638640933E+02  0.44365689816E+02  0.47000000000E+01 0. -1.
         -5    1    4    4    0  502  0.68695746060E+02  0.54874400648E+02 -0.16714612234E+03  0.18891855808E+03  0.47000000000E+01 0. -1.
<mgrwt>
<rscale>  0 0.99998536E+03</rscale>
<asrwt>0</asrwt>
<pdfrwt beam="1">  1        2 0.24214562E+00 0.99998536E+03</pdfrwt>
<pdfrwt beam="2">  1       -2 0.24435654E-01 0.99998536E+03</pdfrwt>
<totfact> 0.20554219E+02</totfact>
</mgrwt>
</event>
<event>
 9    1  0.4370149E-036  0.1000159E+04  0.7818608E-02  0.8680887E-01
          1   -1    0    0  501    0  0.00000000000E+00  0.00000000000E+00  0.10966619335E+04  0.10966619335E+04  0.00000000000E+00 0.  1.
         -1   -1    0    0    0  501 -0.00000000000E+00 -0.00000000000E+00 -0.22803687087E+03  0.22803687087E+03  0.00000000000E+00 0.  1.
         36    2    1    2    0    0 -0.28421709430E-13  0.00000000000E+00  0.86862506262E+03  0.13246988044E+04  0.10001586988E+04 0.  0.
         25    2    3    3    0    0 -0.89562608412E+02  0.16504703527E+02  0.31676693077E+03  0.35249973696E+03  0.12498363920E+03 0.  0.
         35    2    3    3    0    0  0.89562608412E+02 -0.16504703527E+02  0.55185813185E+03  0.97219906740E+03  0.79519165168E+03 0.  0.
         22    1    5    5    0    0 -0.19644415090E+03  0.54225279628E+02 -0.12146175779E+03  0.23724174165E+03  0.00000000000E+00 0.  1.
         22    1    5    5    0    0  0.28600675932E+03 -0.70729983154E+02  0.67331988964E+03  0.73495732575E+03  0.00000000000E+00 0.  1.
          5    1    4    4  502    0  0.39503722140E+01 -0.40316491661E+02  0.12709142979E+03  0.13347414156E+03  0.47000000000E+01 0.  1.
         -5    1    4    4    0  502 -0.93512980626E+02  0.56821195188E+02  0.18967550098E+03  0.21902559540E+03  0.47000000000E+01 0.  1.
<mgrwt>
<rscale>  0 0.10001587E+04</rscale>
<asrwt>0</asrwt>
<pdfrwt beam="1">  1        1 0.16871722E+00 0.10001587E+04</pdfrwt>
<pdfrwt beam="2">  1       -1 0.35082596E-01 0.10001587E+04</pdfrwt>
<totfact> 0.10947302E+02</totfact>
</mgrwt>
</event>
<event>
 9    1  0.4370149E-036  0.9988477E+03  0.7818608E-02  0.8682136E-01
         -1   -1    0    0    0  501 -0.00000000000E+00  0.00000000000E+00  0.15979407261E+03  0.15979407261E+03  0.00000000000E+00 0. -1.
          1   -1    0    0  501    0  0.00000000000E+00 -0.00000000000E+00 -0.15609100910E+04  0.15609100910E+04  0.00000000000E+00 0. -1.
         36    2    1    2    0    0 -0.42632564146E-13  0.00000000000E+00 -0.14011160184E+04  0.17207041636E+04  0.99884769693E+03 0.  0.
         25    2    3    3    0    0  0.12636517040E+03  0.31959314578E+02 -0.29701392337E+03  0.34777788248E+03  0.12546964090E+03 0.  0.
         35    2    3    3    0    0 -0.12636517040E+03 -0.31959314578E+02 -0.11041020950E+04  0.13729262811E+04  0.80554055336E+03 0.  0.
         22    1    5    5    0    0 -0.42860643474E+03  0.12277491132E+03 -0.43655052532E+03  0.62398198364E+03  0.00000000000E+00 0.  1.
         22    1    5    5    0    0  0.30224126434E+03 -0.15473422590E+03 -0.66755156968E+03  0.74894429747E+03  0.00000000000E+00 0.  1.
          5    1    4    4  502    0  0.59614883498E+02  0.27593736062E+02 -0.26575184812E+03  0.27379094832E+03  0.47000000000E+01 0. -1.
         -5    1    4    4    0  502  0.66750286900E+02  0.43655785159E+01 -0.31262075255E+02  0.73986934159E+02  0.47000000000E+01 0. -1.
<mgrwt>
<rscale>  0 0.99884770E+03</rscale>
<asrwt>0</asrwt>
<pdfrwt beam="1">  1        1 0.24014001E+00 0.99884770E+03</pdfrwt>
<pdfrwt beam="2">  1       -1 0.24583704E-01 0.99884770E+03</pdfrwt>
<totfact> 0.92017547E+01</totfact>
</mgrwt>
</event>
<event>
 9    1  0.4370149E-036  0.1000648E+04  0.7818608E-02  0.8680422E-01
          2   -1    0    0  501    0  0.00000000000E+00  0.00000000000E+00  0.11550457241E+04  0.11550457241E+04  0.00000000000E+00 0.  1.
         -2   -1    0    0    0  501 -0.00000000000E+00 -0.00000000000E+00 -0.21672204909E+03  0.21672204909E+03  0.00000000000E+00 0.  1.
         36    2    1    2    0    0 -0.56843418861E-13 -0.71054273576E-14  0.93832367505E+03  0.13717677732E+04  0.10006475426E+04 0.  0.
         25    2    3    3    0    0  0.13676707946E+03 -0.28578763159E+01  0.22482873289E+03  0.29161880522E+03  0.12561913447E+03 0.  0.
         35    2    3    3    0    0 -0.13676707946E+03  0.28578763159E+01  0.71349494216E+03  0.10801489680E+04  0.79933307147E+03 0.  0.
         22    1    5    5    0    0 -0.43630165087E+03  0.63163629176E+02  0.61973973435E+03  0.76054330115E+03  0.00000000000E+00 0.  1.
         22    1    5    5    0    0  0.29953457141E+03 -0.60305752860E+02  0.93755207812E+02  0.31960566686E+03  0.00000000000E+00 0.  1.
          5    1    4    4  502    0  0.65885504321E+02  0.50136703521E+02  0.53389191820E+02  0.98625983000E+02  0.47000000000E+01 0. -1.
         -5    1    4    4    0  502  0.70881575139E+02 -0.52994579837E+02  0.17143954107E+03  0.19299282222E+03  0.47000000000E+01 0. -1.
<mgrwt>
<rscale>  0 0.10006475E+04</rscale>
<asrwt>0</asrwt>
<pdfrwt beam="1">  1        2 0.17769934E+00 0.10006475E+04</pdfrwt>
<pdfrwt beam="2">  1       -2 0.33341854E-01 0.10006475E+04</pdfrwt>
<totfact> 0.20424895E+02</totfact>
</mgrwt>
</event>
<event>
 9    1  0.4370149E-036  0.9855581E+03  0.7818608E-02  0.8694914E-01
          1   -1    0    0  501    0  0.00000000000E+00  0.00000000000E+00  0.54473585675E+03  0.54473585675E+03  0.00000000000E+00 0. -1.
         -1   -1    0    0    0  501 -0.00000000000E+00 -0.00000000000E+00 -0.44577786692E+03  0.44577786692E+03  0.00000000000E+00 0. -1.
         36    2    1    2    0    0  0.00000000000E+00 -0.42632564146E-13  0.98957989822E+02  0.99051372367E+03  0.98555809216E+03 0.  0.
         25    2    3    3    0    0 -0.62594710601E+02 -0.97216336444E+02  0.14078326200E+02  0.17788611987E+03  0.13444760506E+03 0.  0.
         35    2    3    3    0    0  0.62594710601E+02  0.97216336444E+02  0.84879663622E+02  0.81262760380E+03  0.79986870878E+03 0.  0.
         22    1    5    5    0    0 -0.14848388674E+03 -0.17478115878E+03  0.32146314621E+03  0.39488539155E+03  0.00000000000E+00 0. -1.
         22    1    5    5    0    0  0.21107859734E+03  0.27199749522E+03 -0.23658348259E+03  0.41774221225E+03  0.00000000000E+00 0. -1.
          5    1    4    4  502    0 -0.79422009352E+02 -0.55570552424E+02 -0.42117461462E+02  0.10579183535E+03  0.47000000000E+01 0. -1.
         -5    1    4    4    0  502  0.16827298751E+02 -0.41645784020E+02  0.56195787662E+02  0.72094284523E+02  0.47000000000E+01 0. -1.
<mgrwt>
<rscale>  0 0.98555809E+03</rscale>
<asrwt>0</asrwt>
<pdfrwt beam="1">  1        1 0.83805517E-01 0.98555809E+03</pdfrwt>
<pdfrwt beam="2">  1       -1 0.68581210E-01 0.98555809E+03</pdfrwt>
<totfact> 0.99173534E+01</totfact>
</mgrwt>
</event>
<event>
 9    1  0.4370149E-036  0.9999416E+03  0.7818608E-02  0.8681094E-01
         -2   -1    0    0    0  501 -0.00000000000E+00  0.00000000000E+00  0.47648641938E+03  0.47648641938E+03  0.00000000000E+00 0.  1.
          2   -1    0    0  501    0  0.00000000000E+00 -0.00000000000E+00 -0.52461260250E+03  0.52461260250E+03  0.00000000000E+00 0.  1.
         36    2    1    2    0    0  0.21316282073E-13  0.71054273576E-14 -0.48126183117E+02  0.10010990219E+04  0.99994155934E+03 0.  0.
         25    2    3    3    0    0 -0.48292346513E+02 -0.65562318618E+01 -0.14127876611E+03  0.19470265549E+03  0.12479703279E+03 0.  0.
         35    2    3    3    0    0  0.48292346513E+02  0.65562318618E+01  0.93152582996E+02  0.80639636639E+03  0.79951395303E+03 0.  0.
         22    1    5    5    0    0 -0.13913453821E+03 -0.28103774888E+03 -0.18541922604E+03  0.36430883245E+03  0.00000000000E+00 0.  1.
         22    1    5    5    0    0  0.18742688472E+03  0.28759398074E+03  0.27857180903E+03  0.44208753394E+03  0.00000000000E+00 0.  1.
          5    1    4    4  502    0 -0.56822825493E+02 -0.13185755135E+02 -0.59068752991E+01  0.58819034430E+02  0.47000000000E+01 0. -1.
         -5    1    4    4    0  502  0.85304789801E+01  0.66295232729E+01 -0.13537189081E+03  0.13588362106E+03  0.47000000000E+01 0. -1.
<mgrwt>
<rscale>  0 0.99994156E+03</rscale>
<asrwt>0</asrwt>
<pdfrwt beam="1">  1        2 0.80709631E-01 0.99994156E+03</pdfrwt>
<pdfrwt beam="2">  1       -2 0.73305603E-01 0.99994156E+03</pdfrwt>
<totfact> 0.11818719E+02</totfact>
</mgrwt>
</event>
<event>
 9    1  0.4370149E-036  0.1002797E+04  0.7818608E-02  0.8678379E-01
          2   -1    0    0  501    0  0.00000000000E+00  0.00000000000E+00  0.11888803641E+04  0.11888803641E+04  0.00000000000E+00 0.  1.
         -2   -1    0    0    0  501 -0.00000000000E+00 -0.00000000000E+00 -0.21145996809E+03  0.21145996809E+03  0.00000000000E+00 0.  1.
         36    2    1    2    0    0  0.00000000000E+00  0.00000000000E+00  0.97742039606E+03  0.14003403322E+04  0.10027972953E+04 0.  0.
         25    2    3    3    0    0  0.78846766117E+02  0.12319937934E+03  0.16243975537E+03  0.24867874855E+03  0.11857295754E+03 0.  0.
         35    2    3    3    0    0 -0.78846766117E+02 -0.12319937934E+03  0.81498064069E+03  0.11516615837E+04  0.80045990470E+03 0.  0.
         22    1    5    5    0    0  0.23718067285E+03  0.37690012627E+02 -0.23469267070E+02  0.24130067368E+03  0.00000000000E+00 0. -1.
         22    1    5    5    0    0 -0.31602743896E+03 -0.16088939197E+03  0.83844990776E+03  0.91036090999E+03  0.00000000000E+00 0. -1.
          5    1    4    4  502    0  0.15088981504E+02  0.11486611259E+03  0.13672028896E+03  0.17926636215E+03  0.47000000000E+01 0. -1.
         -5    1    4    4    0  502  0.63757784613E+02  0.83332667444E+01  0.25719466408E+02  0.69412386400E+02  0.47000000000E+01 0. -1.
<mgrwt>
<rscale>  0 0.10027973E+04</rscale>
<asrwt>0</asrwt>
<pdfrwt beam="1">  1        2 0.18290467E+00 0.10027973E+04</pdfrwt>
<pdfrwt beam="2">  1       -2 0.32532303E-01 0.10027973E+04</pdfrwt>
<totfact> 0.20405383E+02</totfact>
</mgrwt>
</event>
<event>
 9    1  0.4370149E-036  0.1000654E+04  0.7818608E-02  0.8680415E-01
         -2   -1    0    0    0  501 -0.00000000000E+00  0.00000000000E+00  0.52301974985E+03  0.52301974985E+03  0.00000000000E+00 0. -1.
          2   -1    0    0  501    0  0.00000000000E+00 -0.00000000000E+00 -0.47861913166E+03  0.47861913166E+03  0.00000000000E+00 0. -1.
         36    2    1    2    0    0  0.00000000000E+00  0.00000000000E+00  0.44400618198E+02  0.10016388815E+04  0.10006543030E+04 0.  0.
         25    2    3    3    0    0 -0.43893482359E+02 -0.12538819348E+03 -0.32608951406E+02  0.18506201991E+03  0.12464257156E+03 0.  0.
         35    2    3    3    0    0  0.43893482359E+02  0.12538819348E+03  0.77009569604E+02  0.81657686160E+03  0.80200901506E+03 0.  0.
         22    1    5    5    0    0  0.37121442465E+02  0.46233784340E+03  0.11372742004E+03  0.47756487413E+03  0.00000000000E+00 0.  1.
         22    1    5    5    0    0  0.67720398940E+01 -0.33694964992E+03 -0.36717850436E+02  0.33901198747E+03  0.00000000000E+00 0.  1.
          5    1    4    4  502    0 -0.20883328655E+02  0.20807378998E+02  0.91381649457E+01  0.31219489026E+02  0.47000000000E+01 0.  1.
         -5    1    4    4    0  502 -0.23010153704E+02 -0.14619557248E+03 -0.41747116352E+02  0.15384253089E+03  0.47000000000E+01 0.  1.
<mgrwt>
<rscale>  0 0.10006543E+04</rscale>
<asrwt>0</asrwt>
<pdfrwt beam="1">  1        2 0.73633712E-01 0.10006543E+04</pdfrwt>
<pdfrwt beam="2">  1       -2 0.80464577E-01 0.10006543E+04</pdfrwt>
<totfact> 0.10644945E+02</totfact>
</mgrwt>
</event>
<event>
 9    1  0.4370149E-036  0.9992822E+03  0.7818608E-02  0.8681722E-01
         -2   -1    0    0    0  501 -0.00000000000E+00  0.00000000000E+00  0.69568277479E+03  0.69568277479E+03  0.00000000000E+00 0.  1.
          2   -1    0    0  501    0  0.00000000000E+00 -0.00000000000E+00 -0.35884349997E+03  0.35884349997E+03  0.00000000000E+00 0.  1.
         36    2    1    2    0    0  0.42632564146E-13 -0.28421709430E-13  0.33683927482E+03  0.10545262748E+04  0.99928222595E+03 0.  0.
         25    2    3    3    0    0 -0.97008533808E+02  0.81557225227E+02  0.13218735340E+03  0.21909421124E+03  0.12027693203E+03 0.  0.
         35    2    3    3    0    0  0.97008533808E+02 -0.81557225227E+02  0.20465192142E+03  0.83543206352E+03  0.80000130450E+03 0.  0.
         22    1    5    5    0    0  0.40502558670E+03  0.14213678964E+03  0.10334317843E+03  0.44150697094E+03  0.00000000000E+00 0. -1.
         22    1    5    5    0    0 -0.30801705290E+03 -0.22369401487E+03  0.10130874299E+03  0.39392509259E+03  0.00000000000E+00 0. -1.
          5    1    4    4  502    0 -0.72077382206E+02  0.50791279475E+02  0.15106145747E+03  0.17497587557E+03  0.47000000000E+01 0. -1.
         -5    1    4    4    0  502 -0.24931151602E+02  0.30765945752E+02 -0.18874104067E+02  0.44118335673E+02  0.47000000000E+01 0. -1.
<mgrwt>
<rscale>  0 0.99928223E+03</rscale>
<asrwt>0</asrwt>
<pdfrwt beam="1">  1        2 0.55206692E-01 0.99928223E+03</pdfrwt>
<pdfrwt beam="2">  1       -2 0.10702812E+00 0.99928223E+03</pdfrwt>
<totfact> 0.74539305E+01</totfact>
</mgrwt>
</event>
<event>
 9    1  0.4370149E-036  0.9995652E+03  0.7818608E-02  0.8681452E-01
         -2   -1    0    0    0  501 -0.00000000000E+00  0.00000000000E+00  0.69126813810E+03  0.69126813810E+03  0.00000000000E+00 0. -1.
          2   -1    0    0  501    0  0.00000000000E+00 -0.00000000000E+00 -0.36133973366E+03  0.36133973366E+03  0.00000000000E+00 0. -1.
         36    2    1    2    0    0 -0.14210854715E-13  0.14210854715E-13  0.32992840445E+03  0.10526078718E+04  0.99956519529E+03 0.  0.
         25    2    3    3    0    0 -0.54569293904E+02 -0.49576239570E+02  0.18738256685E+03  0.23668157769E+03  0.12437978731E+03 0.  0.
         35    2    3    3    0    0  0.54569293904E+02  0.49576239570E+02  0.14254583759E+03  0.81592629407E+03  0.79998799377E+03 0.  0.
         22    1    5    5    0    0  0.32018049501E+03 -0.19549212831E+03  0.23528170995E+03  0.44282073648E+03  0.00000000000E+00 0. -1.
         22    1    5    5    0    0 -0.26561120111E+03  0.24506836788E+03 -0.92735872355E+02  0.37310555760E+03  0.00000000000E+00 0. -1.
          5    1    4    4  502    0 -0.50519660101E+02 -0.87820905799E+02  0.10689767009E+03  0.14735653844E+03  0.47000000000E+01 0. -1.
         -5    1    4    4    0  502 -0.40496338031E+01  0.38244666229E+02  0.80484896763E+02  0.89325039244E+02  0.47000000000E+01 0. -1.
<mgrwt>
<rscale>  0 0.99956520E+03</rscale>
<asrwt>0</asrwt>
<pdfrwt beam="1">  1        2 0.55590728E-01 0.99956520E+03</pdfrwt>
<pdfrwt beam="2">  1       -2 0.10634894E+00 0.99956520E+03</pdfrwt>
<totfact> 0.75145931E+01</totfact>
</mgrwt>
</event>
<event>
 9    1  0.4370149E-036  0.1000482E+04  0.7818608E-02  0.8680579E-01
         -2   -1    0    0    0  501 -0.00000000000E+00  0.00000000000E+00  0.44009509991E+03  0.44009509991E+03  0.00000000000E+00 0. -1.
          2   -1    0    0  501    0  0.00000000000E+00 -0.00000000000E+00 -0.56860654820E+03  0.56860654820E+03  0.00000000000E+00 0. -1.
         36    2    1    2    0    0  0.28421709430E-13  0.00000000000E+00 -0.12851144829E+03  0.10087016481E+04  0.10004817952E+04 0.  0.
         25    2    3    3    0    0  0.92110496323E+02  0.90605431153E+01 -0.13307658979E+03  0.20440712465E+03  0.12452492474E+03 0.  0.
         35    2    3    3    0    0 -0.92110496323E+02 -0.90605431153E+01  0.45651415025E+01  0.80429452346E+03  0.79893829735E+03 0.  0.
         22    1    5    5    0    0 -0.24637075184E+03  0.25914545438E+03 -0.22193611358E+03  0.42084504559E+03  0.00000000000E+00 0.  1.
         22    1    5    5    0    0  0.15426025551E+03 -0.26820599750E+03  0.22650125508E+03  0.38344947787E+03  0.00000000000E+00 0.  1.
          5    1    4    4  502    0  0.84874432517E+02  0.57955177449E+02 -0.71403052875E+02  0.12523161681E+03  0.47000000000E+01 0. -1.
         -5    1    4    4    0  502  0.72360638058E+01 -0.48894634333E+02 -0.61673536917E+02  0.79175507841E+02  0.47000000000E+01 0. -1.
<mgrwt>
<rscale>  0 0.10004818E+04</rscale>
<asrwt>0</asrwt>
<pdfrwt beam="1">  1        2 0.87477930E-01 0.10004818E+04</pdfrwt>
<pdfrwt beam="2">  1       -2 0.67706939E-01 0.10004818E+04</pdfrwt>
<totfact> 0.12794853E+02</totfact>
</mgrwt>
</event>
<event>
 9    1  0.4370149E-036  0.9999284E+03  0.7818608E-02  0.8681106E-01
          1   -1    0    0  501    0  0.00000000000E+00  0.00000000000E+00  0.48227843714E+03  0.48227843714E+03  0.00000000000E+00 0. -1.
         -1   -1    0    0    0  501 -0.00000000000E+00 -0.00000000000E+00 -0.51829848445E+03  0.51829848445E+03  0.00000000000E+00 0. -1.
         36    2    1    2    0    0  0.00000000000E+00  0.71054273576E-14 -0.36020047309E+02  0.10005769216E+04  0.99992836353E+03 0.  0.
         25    2    3    3    0    0 -0.61185960641E+02  0.34655167904E+02  0.11466640219E+03  0.18344527507E+03  0.12473605217E+03 0.  0.
         35    2    3    3    0    0  0.61185960641E+02 -0.34655167904E+02 -0.15068644950E+03  0.81713164652E+03  0.80003313633E+03 0.  0.
         22    1    5    5    0    0 -0.35908854253E+03 -0.10949486103E+03 -0.52097550356E+02  0.37900905098E+03  0.00000000000E+00 0. -1.
         22    1    5    5    0    0  0.42027450318E+03  0.74839693122E+02 -0.98588899144E+02  0.43812259554E+03  0.00000000000E+00 0. -1.
          5    1    4    4  502    0 -0.92814859820E+02 -0.32758879765E+00  0.57902430987E+02  0.10949651607E+03  0.47000000000E+01 0. -1.
         -5    1    4    4    0  502  0.31628899179E+02  0.34982756702E+02  0.56763971205E+02  0.73948758994E+02  0.47000000000E+01 0. -1.
<mgrwt>
<rscale>  0 0.99992836E+03</rscale>
<asrwt>0</asrwt>
<pdfrwt beam="1">  1        1 0.74196682E-01 0.99992836E+03</pdfrwt>
<pdfrwt beam="2">  1       -1 0.79738229E-01 0.99992836E+03</pdfrwt>
<totfact> 0.86549980E+01</totfact>
</mgrwt>
</event>
<event>
 9    1  0.4370149E-036  0.1000036E+04  0.7818608E-02  0.8681003E-01
          2   -1    0    0  501    0  0.00000000000E+00  0.00000000000E+00  0.33292564472E+03  0.33292564472E+03  0.00000000000E+00 0.  1.
         -2   -1    0    0    0  501 -0.00000000000E+00 -0.00000000000E+00 -0.75097291231E+03  0.75097291231E+03  0.00000000000E+00 0.  1.
         36    2    1    2    0    0  0.28421709430E-13 -0.24868995752E-13 -0.41804726759E+03  0.10838985570E+04  0.10000362813E+04 0.  0.
         25    2    3    3    0    0 -0.99532198986E+02 -0.21099872018E+02 -0.18904270547E+03  0.24878377858E+03  0.12571539587E+03 0.  0.
         35    2    3    3    0    0  0.99532198986E+02  0.21099872018E+02 -0.22900456212E+03  0.83511477844E+03  0.79663149603E+03 0.  0.
         22    1    5    5    0    0  0.32769056758E+03 -0.25634062132E+03 -0.13583863038E+02  0.41626451152E+03  0.00000000000E+00 0. -1.
         22    1    5    5    0    0 -0.22815836859E+03  0.27744049334E+03 -0.21542069908E+03  0.41885026692E+03  0.00000000000E+00 0. -1.
          5    1    4    4  502    0 -0.11249867567E+03 -0.14815274842E+02 -0.20005958393E+03  0.23004645513E+03  0.47000000000E+01 0.  1.
         -5    1    4    4    0  502  0.12966476682E+02 -0.62845971768E+01  0.11016878458E+02  0.18737323453E+02  0.47000000000E+01 0.  1.
<mgrwt>
<rscale>  0 0.10000363E+04</rscale>
<asrwt>0</asrwt>
<pdfrwt beam="1">  1        2 0.51219331E-01 0.10000363E+04</pdfrwt>
<pdfrwt beam="2">  1       -2 0.11553429E+00 0.10000363E+04</pdfrwt>
<totfact> 0.66768457E+01</totfact>
</mgrwt>
</event>
<event>
 9    1  0.4370149E-036  0.9998034E+03  0.7818608E-02  0.8681225E-01
         -2   -1    0    0    0  501 -0.00000000000E+00  0.00000000000E+00  0.18235139748E+03  0.18235139748E+03  0.00000000000E+00 0.  1.
          2   -1    0    0  501    0  0.00000000000E+00 -0.00000000000E+00 -0.13704402318E+04  0.13704402318E+04  0.00000000000E+00 0.  1.
         36    2    1    2    0    0 -0.21316282073E-13 -0.71054273576E-14 -0.11880888343E+04  0.15527916292E+04  0.99980336350E+03 0.  0.
         25    2    3    3    0    0  0.22819899079E+01 -0.88932476633E+01 -0.65703642354E+01  0.12591220833E+03  0.12540501261E+03 0.  0.
         35    2    3    3    0    0 -0.22819899079E+01  0.88932476633E+01 -0.11815184700E+04  0.14268794209E+04  0.79994667910E+03 0.  0.
         22    1    5    5    0    0 -0.27528292963E+03 -0.74461648176E+02 -0.10906582194E+04  0.11273245229E+04  0.00000000000E+00 0. -1.
         22    1    5    5    0    0  0.27300093972E+03  0.83354895840E+02 -0.90860250602E+02  0.29955489796E+03  0.00000000000E+00 0. -1.
          5    1    4    4  502    0  0.42303831413E+02 -0.42149071930E+02 -0.31880314126E+02  0.67857223974E+02  0.47000000000E+01 0.  1.
         -5    1    4    4    0  502 -0.40021841505E+02  0.33255824266E+02  0.25309949890E+02  0.58054984356E+02  0.47000000000E+01 0.  1.
<mgrwt>
<rscale>  0 0.99980336E+03</rscale>
<asrwt>0</asrwt>
<pdfrwt beam="1">  1        2 0.21083695E+00 0.99980336E+03</pdfrwt>
<pdfrwt beam="2">  1       -2 0.28054062E-01 0.99980336E+03</pdfrwt>
<totfact> 0.20959528E+02</totfact>
</mgrwt>
</event>
<event>
 9    1  0.4370149E-036  0.9940229E+03  0.7818608E-02  0.8686751E-01
         -2   -1    0    0    0  501 -0.00000000000E+00  0.00000000000E+00  0.12198189227E+03  0.12198189227E+03  0.00000000000E+00 0. -1.
          2   -1    0    0  501    0  0.00000000000E+00 -0.00000000000E+00 -0.20250577272E+04  0.20250577272E+04  0.00000000000E+00 0. -1.
         36    2    1    2    0    0  0.00000000000E+00  0.00000000000E+00 -0.19030758349E+04  0.21470396195E+04  0.99402288409E+03 0.  0.
         25    2    3    3    0    0 -0.10926598894E+03  0.50106965581E+02 -0.48584607682E+03  0.51562580059E+03  0.12399109458E+03 0.  0.
         35    2    3    3    0    0  0.10926598894E+03 -0.50106965581E+02 -0.14172297581E+04  0.16314138189E+04  0.79907515093E+03 0.  0.
         22    1    5    5    0    0 -0.57690105968E+01 -0.21704276207E+03 -0.14120188130E+04  0.14286140033E+04  0.00000000000E+00 0.  1.
         22    1    5    5    0    0  0.11503499953E+03  0.16693579648E+03 -0.52109451051E+01  0.20279981562E+03  0.00000000000E+00 0.  1.
          5    1    4    4  502    0 -0.10012404386E+03 -0.15814416256E+02 -0.23324664775E+03  0.25436392945E+03  0.47000000000E+01 0. -1.
         -5    1    4    4    0  502 -0.91419450774E+01  0.65921381837E+02 -0.25259942907E+03  0.26126187114E+03  0.47000000000E+01 0. -1.
<mgrwt>
<rscale>  0 0.99402288E+03</rscale>
<asrwt>0</asrwt>
<pdfrwt beam="1">  1        2 0.31154733E+00 0.99402288E+03</pdfrwt>
<pdfrwt beam="2">  1       -2 0.18766445E-01 0.99402288E+03</pdfrwt>
<totfact> 0.18103088E+02</totfact>
</mgrwt>
</event>
<event>
 9    1  0.4370149E-036  0.9999363E+03  0.7818608E-02  0.8681099E-01
          2   -1    0    0  501    0  0.00000000000E+00  0.00000000000E+00  0.13262742313E+04  0.13262742313E+04  0.00000000000E+00 0. -1.
         -2   -1    0    0    0  501 -0.00000000000E+00 -0.00000000000E+00 -0.18847396194E+03  0.18847396194E+03  0.00000000000E+00 0. -1.
         36    2    1    2    0    0 -0.17763568394E-14  0.00000000000E+00  0.11378002694E+04  0.15147481933E+04  0.99993631596E+03 0.  0.
         25    2    3    3    0    0  0.63855761256E+01 -0.13408846447E+03  0.28147976387E+03  0.33578537334E+03  0.12450087386E+03 0.  0.
         35    2    3    3    0    0 -0.63855761256E+01  0.13408846447E+03  0.85632050551E+03  0.11789628199E+04  0.79915457248E+03 0.  0.
         22    1    5    5    0    0 -0.34677805576E+03  0.27259792472E+03  0.50565459076E+03  0.67100761074E+03  0.00000000000E+00 0.  1.
         22    1    5    5    0    0  0.34039247963E+03 -0.13850946024E+03  0.35066591475E+03  0.50795520918E+03  0.00000000000E+00 0.  1.
          5    1    4    4  502    0  0.62537910850E+01 -0.14638525868E+03  0.28639497549E+03  0.32173269316E+03  0.47000000000E+01 0. -1.
         -5    1    4    4    0  502  0.13178504055E+00  0.12296794209E+02 -0.49152116126E+01  0.14052680182E+02  0.47000000000E+01 0. -1.
<mgrwt>
<rscale>  0 0.99993632E+03</rscale>
<asrwt>0</asrwt>
<pdfrwt beam="1">  1        2 0.20404218E+00 0.99993632E+03</pdfrwt>
<pdfrwt beam="2">  1       -2 0.28995995E-01 0.99993632E+03</pdfrwt>
<totfact> 0.20933568E+02</totfact>
</mgrwt>
</event>
<event>
 9    1  0.4370149E-036  0.9980885E+03  0.7818608E-02  0.8682860E-01
          1   -1    0    0  501    0  0.00000000000E+00  0.00000000000E+00  0.17317976962E+04  0.17317976962E+04  0.00000000000E+00 0.  1.
         -1   -1    0    0    0  501 -0.00000000000E+00 -0.00000000000E+00 -0.14380732009E+03  0.14380732009E+03  0.00000000000E+00 0.  1.
         36    2    1    2    0    0  0.00000000000E+00  0.14210854715E-13  0.15879903761E+04  0.18756050163E+04  0.99808854443E+03 0.  0.
         25    2    3    3    0    0  0.12042663665E+03  0.33290936501E+02  0.41286814755E+03  0.44781639715E+03  0.12028531510E+03 0.  0.
         35    2    3    3    0    0 -0.12042663665E+03 -0.33290936501E+02  0.11751222285E+04  0.14277886191E+04  0.80128473568E+03 0.  0.
         22    1    5    5    0    0 -0.10315898263E+03  0.37448838262E+03  0.70736416483E+03  0.80699900006E+03  0.00000000000E+00 0.  1.
         22    1    5    5    0    0 -0.17267654020E+02 -0.40777931912E+03  0.46775806372E+03  0.62078961907E+03  0.00000000000E+00 0.  1.
          5    1    4    4  502    0  0.21659819633E+02  0.59722539929E+02  0.22539189159E+03  0.23422110144E+03  0.47000000000E+01 0.  1.
         -5    1    4    4    0  502  0.98766817020E+02 -0.26431603428E+02  0.18747625596E+03  0.21359529571E+03  0.47000000000E+01 0.  1.
<mgrwt>
<rscale>  0 0.99808854E+03</rscale>
<asrwt>0</asrwt>
<pdfrwt beam="1">  1        1 0.26643040E+00 0.99808854E+03</pdfrwt>
<pdfrwt beam="2">  1       -1 0.22124204E-01 0.99808854E+03</pdfrwt>
<totfact> 0.83112066E+01</totfact>
</mgrwt>
</event>
<event>
 9    1  0.4370149E-036  0.1004338E+04  0.7818608E-02  0.8676918E-01
         -1   -1    0    0    0  501 -0.00000000000E+00  0.00000000000E+00  0.13843780087E+04  0.13843780087E+04  0.00000000000E+00 0. -1.
          1   -1    0    0  501    0  0.00000000000E+00 -0.00000000000E+00 -0.18215660822E+03  0.18215660822E+03  0.00000000000E+00 0. -1.
         36    2    1    2    0    0  0.35527136788E-13  0.14210854715E-13  0.12022214005E+04  0.15665346169E+04  0.10043377969E+04 0.  0.
         25    2    3    3    0    0 -0.45672007626E+02 -0.10082613534E+03  0.84245890910E+02  0.18757731843E+03  0.12584132234E+03 0.  0.
         35    2    3    3    0    0  0.45672007626E+02  0.10082613534E+03  0.11179755096E+04  0.13789572985E+04  0.79962625595E+03 0.  0.
         22    1    5    5    0    0 -0.27744292546E+03  0.16573653952E+03  0.14976437940E+03  0.35619172752E+03  0.00000000000E+00 0.  1.
         22    1    5    5    0    0  0.32311493309E+03 -0.64910404185E+02  0.96821113020E+03  0.10227655710E+04  0.00000000000E+00 0.  1.
          5    1    4    4  502    0 -0.27268782482E+02  0.23519190039E+02  0.40505909828E+02  0.54401815495E+02  0.47000000000E+01 0. -1.
         -5    1    4    4    0  502 -0.18403225144E+02 -0.12434532537E+03  0.43739981082E+02  0.13317550294E+03  0.47000000000E+01 0. -1.
<mgrwt>
<rscale>  0 0.10043378E+04</rscale>
<asrwt>0</asrwt>
<pdfrwt beam="1">  1        1 0.28024095E-01 0.10043378E+04</pdfrwt>
<pdfrwt beam="2">  1       -1 0.21298122E+00 0.10043378E+04</pdfrwt>
<totfact> 0.20252887E+01</totfact>
</mgrwt>
</event>
<event>
 9    1  0.4370149E-036  0.9999572E+03  0.7818608E-02  0.8681079E-01
         -2   -1    0    0    0  501 -0.00000000000E+00  0.00000000000E+00  0.62585829731E+03  0.62585829731E+03  0.00000000000E+00 0.  1.
          2   -1    0    0  501    0  0.00000000000E+00 -0.00000000000E+00 -0.39941723673E+03  0.39941723673E+03  0.00000000000E+00 0.  1.
         36    2    1    2    0    0  0.00000000000E+00  0.28421709430E-13  0.22644106058E+03  0.10252755340E+04  0.99995718248E+03 0.  0.
         25    2    3    3    0    0  0.13956599847E+03 -0.19472240397E+02  0.28424287466E+02  0.19024515486E+03  0.12460916000E+03 0.  0.
         35    2    3    3    0    0 -0.13956599847E+03  0.19472240397E+02  0.19801677311E+03  0.83503037918E+03  0.79887874902E+03 0.  0.
         22    1    5    5    0    0  0.48974168987E+02  0.35585065491E+03 -0.69291736327E+02  0.36582714846E+03  0.00000000000E+00 0. -1.
         22    1    5    5    0    0 -0.18854016746E+03 -0.33637841451E+03  0.26730850944E+03  0.46920323072E+03  0.00000000000E+00 0. -1.
          5    1    4    4  502    0  0.58594582889E+02  0.52995302342E+02  0.16296414105E+02  0.80805261753E+02  0.47000000000E+01 0. -1.
         -5    1    4    4    0  502  0.80971415583E+02 -0.72467542739E+02  0.12127873361E+02  0.10943989311E+03  0.47000000000E+01 0. -1.
<mgrwt>
<rscale>  0 0.99995718E+03</rscale>
<asrwt>0</asrwt>
<pdfrwt beam="1">  1        2 0.61448806E-01 0.99995718E+03</pdfrwt>
<pdfrwt beam="2">  1       -2 0.96285892E-01 0.99995718E+03</pdfrwt>
<totfact> 0.85671048E+01</totfact>
</mgrwt>
</event>
<event>
 9    1  0.4370149E-036  0.1000379E+04  0.7818608E-02  0.8680677E-01
         -2   -1    0    0    0  501 -0.00000000000E+00  0.00000000000E+00  0.16032355271E+04  0.16032355271E+04  0.00000000000E+00 0. -1.
          2   -1    0    0  501    0  0.00000000000E+00 -0.00000000000E+00 -0.15605280599E+03  0.15605280599E+03  0.00000000000E+00 0. -1.
         36    2    1    2    0    0 -0.21316282073E-13  0.28421709430E-13  0.14471827211E+04  0.17592883331E+04  0.10003787336E+04 0.  0.
         25    2    3    3    0    0 -0.53128167833E+02 -0.11721448002E+03  0.37169056771E+03  0.41280212153E+03  0.12525923867E+03 0.  0.
         35    2    3    3    0    0  0.53128167833E+02  0.11721448002E+03  0.10754921534E+04  0.13464862116E+04  0.79986243152E+03 0.  0.
         22    1    5    5    0    0 -0.22953120492E+03  0.29046234197E+03  0.89604103685E+03  0.96950631037E+03  0.00000000000E+00 0. -1.
         22    1    5    5    0    0  0.28265937275E+03 -0.17324786195E+03  0.17945111657E+03  0.37697990120E+03  0.00000000000E+00 0. -1.
          5    1    4    4  502    0 -0.55776470687E+02  0.58710816875E+01  0.11015438001E+03  0.12369948148E+03  0.47000000000E+01 0. -1.
         -5    1    4    4    0  502  0.26483028542E+01 -0.12308556171E+03  0.26153618769E+03  0.28910264005E+03  0.47000000000E+01 0. -1.
<mgrwt>
<rscale>  0 0.10003787E+04</rscale>
<asrwt>0</asrwt>
<pdfrwt beam="1">  1        2 0.24008125E-01 0.10003787E+04</pdfrwt>
<pdfrwt beam="2">  1       -2 0.24665161E+00 0.10003787E+04</pdfrwt>
<totfact> 0.16590630E+01</totfact>
</mgrwt>
</event>
<event>
 9    1  0.4370149E-036  0.1000536E+04  0.7818608E-02  0.8680527E-01
         -4   -1    0    0    0  501 -0.00000000000E+00  0.00000000000E+00  0.15362471228E+04  0.15362471228E+04  0.00000000000E+00 0. -1.
          4   -1    0    0  501    0  0.00000000000E+00 -0.00000000000E+00 -0.16290888278E+03  0.16290888278E+03  0.00000000000E+00 0. -1.
         36    2    1    2    0    0  0.14210854715E-13  0.17763568394E-14  0.13733382400E+04  0.16991560056E+04  0.10005364610E+04 0.  0.
         25    2    3    3    0    0  0.54611686612E+02  0.15255752251E+02  0.43817931833E+02  0.14542863454E+03  0.12654762859E+03 0.  0.
         35    2    3    3    0    0 -0.54611686612E+02 -0.15255752251E+02  0.13295203082E+04  0.15537273711E+04  0.80201578500E+03 0.  0.
         22    1    5    5    0    0 -0.36900826423E+03  0.19980700966E+03  0.76865292475E+03  0.87573812233E+03  0.00000000000E+00 0. -1.
         22    1    5    5    0    0  0.31439657762E+03 -0.21506276191E+03  0.56086738345E+03  0.67798924874E+03  0.00000000000E+00 0. -1.
          5    1    4    4  502    0  0.34897288405E+02  0.82978013318E+01  0.88645258525E+02  0.95743125622E+02  0.47000000000E+01 0.  1.
         -5    1    4    4    0  502  0.19714398207E+02  0.69579509190E+01 -0.44827326692E+02  0.49685508914E+02  0.47000000000E+01 0.  1.
<mgrwt>
<rscale>  0 0.10005365E+04</rscale>
<asrwt>0</asrwt>
<pdfrwt beam="1">  1        4 0.25062906E-01 0.10005365E+04</pdfrwt>
<pdfrwt beam="2">  1       -4 0.23634570E+00 0.10005365E+04</pdfrwt>
<totfact> 0.19326939E+00</totfact>
</mgrwt>
</event>
<event>
 9    1  0.4370149E-036  0.1000015E+04  0.7818608E-02  0.8681023E-01
         -1   -1    0    0    0  501 -0.00000000000E+00  0.00000000000E+00  0.10531875792E+03  0.10531875792E+03  0.00000000000E+00 0.  1.
          1   -1    0    0  501    0  0.00000000000E+00 -0.00000000000E+00 -0.23738185748E+04  0.23738185748E+04  0.00000000000E+00 0.  1.
         36    2    1    2    0    0  0.39079850467E-13  0.00000000000E+00 -0.22684998169E+04  0.24791373328E+04  0.10000152476E+04 0.  0.
         25    2    3    3    0    0  0.19549959484E+02 -0.88799844639E+02 -0.16807844634E+03  0.22830542051E+03  0.12492152570E+03 0.  0.
         35    2    3    3    0    0 -0.19549959484E+02  0.88799844639E+02 -0.21004213706E+04  0.22508319123E+04  0.80386985884E+03 0.  0.
         22    1    5    5    0    0  0.38830852730E+03  0.24474403334E+02 -0.11673974469E+04  0.12305280606E+04  0.00000000000E+00 0.  1.
         22    1    5    5    0    0 -0.40785848679E+03  0.64325441305E+02 -0.93302392366E+03  0.10203038517E+04  0.00000000000E+00 0.  1.
          5    1    4    4  502    0  0.14838499109E+01 -0.89144590616E+02 -0.38229917593E+02  0.97121452037E+02  0.47000000000E+01 0.  1.
         -5    1    4    4    0  502  0.18066109573E+02  0.34474597700E+00 -0.12984852875E+03  0.13118396847E+03  0.47000000000E+01 0.  1.
<mgrwt>
<rscale>  0 0.10000152E+04</rscale>
<asrwt>0</asrwt>
<pdfrwt beam="1">  1        1 0.36520285E+00 0.10000152E+04</pdfrwt>
<pdfrwt beam="2">  1       -1 0.16202886E-01 0.10000152E+04</pdfrwt>
<totfact> 0.49145032E+01</totfact>
</mgrwt>
</event>
<event>
 9    1  0.4370149E-036  0.9994800E+03  0.7818608E-02  0.8681533E-01
         -1   -1    0    0    0  501 -0.00000000000E+00  0.00000000000E+00  0.13423870895E+03  0.13423870895E+03  0.00000000000E+00 0. -1.
          1   -1    0    0  501    0  0.00000000000E+00 -0.00000000000E+00 -0.18604177742E+04  0.18604177742E+04  0.00000000000E+00 0. -1.
         36    2    1    2    0    0  0.00000000000E+00  0.00000000000E+00 -0.17261790653E+04  0.19946564832E+04  0.99948002505E+03 0.  0.
         25    2    3    3    0    0  0.11526275417E+03 -0.65945585642E+02 -0.24216180719E+03  0.30325252981E+03  0.12524149954E+03 0.  0.
         35    2    3    3    0    0 -0.11526275417E+03  0.65945585642E+02 -0.14840172581E+04  0.16914039534E+04  0.80056591760E+03 0.  0.
         22    1    5    5    0    0 -0.12461784946E+03 -0.20839180625E+03 -0.13746373054E+04  0.13959170731E+04  0.00000000000E+00 0. -1.
         22    1    5    5    0    0  0.93550952881E+01  0.27433739189E+03 -0.10937995263E+03  0.29548688031E+03  0.00000000000E+00 0. -1.
          5    1    4    4  502    0  0.96244347555E+01 -0.64360438636E+02 -0.14763534949E+03  0.16140998180E+03  0.47000000000E+01 0.  1.
         -5    1    4    4    0  502  0.10563831941E+03 -0.15851470066E+01 -0.94526457704E+02  0.14184254801E+03  0.47000000000E+01 0.  1.
<mgrwt>
<rscale>  0 0.99948003E+03</rscale>
<asrwt>0</asrwt>
<pdfrwt beam="1">  1        1 0.28621810E+00 0.99948003E+03</pdfrwt>
<pdfrwt beam="2">  1       -1 0.20652111E-01 0.99948003E+03</pdfrwt>
<totfact> 0.75670547E+01</totfact>
</mgrwt>
</event>
<event>
 9    1  0.4370149E-036  0.1002111E+04  0.7818608E-02  0.8679030E-01
         -2   -1    0    0    0  501 -0.00000000000E+00  0.00000000000E+00  0.21318222812E+03  0.21318222812E+03  0.00000000000E+00 0.  1.
          2   -1    0    0  501    0  0.00000000000E+00 -0.00000000000E+00 -0.11776618793E+04  0.11776618793E+04  0.00000000000E+00 0.  1.
         36    2    1    2    0    0  0.71054273576E-14 -0.28421709430E-13 -0.96447965118E+03  0.13908441074E+04  0.10021109388E+04 0.  0.
         25    2    3    3    0    0  0.22305042643E+02 -0.13978547008E+03 -0.15755363590E+03  0.24588677227E+03  0.12489861496E+03 0.  0.
         35    2    3    3    0    0 -0.22305042643E+02  0.13978547008E+03 -0.80692601528E+03  0.11449573351E+04  0.79985011884E+03 0.  0.
         22    1    5    5    0    0  0.31858639209E+02 -0.18102454029E+03 -0.79862212246E+03  0.81950116019E+03  0.00000000000E+00 0.  1.
         22    1    5    5    0    0 -0.54163681852E+02  0.32081001036E+03 -0.83038928178E+01  0.32545617496E+03  0.00000000000E+00 0.  1.
          5    1    4    4  502    0  0.36837035042E+02 -0.14568144637E+03 -0.16878562401E+03  0.22603258137E+03  0.47000000000E+01 0. -1.
         -5    1    4    4    0  502 -0.14531992399E+02  0.58959762919E+01  0.11231988108E+02  0.19854190902E+02  0.47000000000E+01 0. -1.
<mgrwt>
<rscale>  0 0.10021109E+04</rscale>
<asrwt>0</asrwt>
<pdfrwt beam="1">  1        2 0.18117875E+00 0.10021109E+04</pdfrwt>
<pdfrwt beam="2">  1       -2 0.32797266E-01 0.10021109E+04</pdfrwt>
<totfact> 0.20412857E+02</totfact>
</mgrwt>
</event>
<event>
 9    1  0.4370149E-036  0.1000039E+04  0.7818608E-02  0.8681001E-01
         -2   -1    0    0    0  501 -0.00000000000E+00  0.00000000000E+00  0.25572182888E+03  0.25572182888E+03  0.00000000000E+00 0. -1.
          2   -1    0    0  501    0  0.00000000000E+00 -0.00000000000E+00 -0.97770009725E+03  0.97770009725E+03  0.00000000000E+00 0. -1.
         36    2    1    2    0    0  0.14210854715E-13  0.00000000000E+00 -0.72197826837E+03  0.12334219261E+04  0.10000385132E+04 0.  0.
         25    2    3    3    0    0  0.45618050418E+02 -0.10830981524E+03 -0.23543127650E+03  0.29034483658E+03  0.12272006995E+03 0.  0.
         35    2    3    3    0    0 -0.45618050418E+02  0.10830981524E+03 -0.48654699187E+03  0.94307708955E+03  0.79928367864E+03 0.  0.
         22    1    5    5    0    0  0.28789408425E+03 -0.13216470124E+03 -0.14563011397E+02  0.31711605652E+03  0.00000000000E+00 0. -1.
         22    1    5    5    0    0 -0.33351213467E+03  0.24047451648E+03 -0.47198398047E+03  0.62596103303E+03  0.00000000000E+00 0. -1.
          5    1    4    4  502    0 -0.31502135290E+02 -0.81821659966E+02 -0.13236157367E+03  0.15883590511E+03  0.47000000000E+01 0.  1.
         -5    1    4    4    0  502  0.77120185709E+02 -0.26488155279E+02 -0.10306970283E+03  0.13150893147E+03  0.47000000000E+01 0.  1.
<mgrwt>
<rscale>  0 0.10000385E+04</rscale>
<asrwt>0</asrwt>
<pdfrwt beam="1">  1        2 0.15041540E+00 0.10000385E+04</pdfrwt>
<pdfrwt beam="2">  1       -2 0.39341820E-01 0.10000385E+04</pdfrwt>
<totfact> 0.19233054E+02</totfact>
</mgrwt>
</event>
<event>
 9    1  0.4370149E-036  0.1001694E+04  0.7818608E-02  0.8679426E-01
          2   -1    0    0  501    0  0.00000000000E+00  0.00000000000E+00  0.15394271578E+04  0.15394271578E+04  0.00000000000E+00 0. -1.
         -2   -1    0    0    0  501 -0.00000000000E+00 -0.00000000000E+00 -0.16294889765E+03  0.16294889765E+03  0.00000000000E+00 0. -1.
         36    2    1    2    0    0  0.71054273576E-14 -0.14210854715E-13  0.13764782602E+04  0.17023760555E+04  0.10016944811E+04 0.  0.
         25    2    3    3    0    0 -0.60426918081E+02  0.42602647020E+02  0.46826023712E+03  0.49025691797E+03  0.12497118862E+03 0.  0.
         35    2    3    3    0    0  0.60426918081E+02 -0.42602647020E+02  0.90821802307E+03  0.12121191375E+04  0.79931622539E+03 0.  0.
         22    1    5    5    0    0 -0.13551417522E+03  0.82751159945E+02 -0.93150495635E+02  0.18408927453E+03  0.00000000000E+00 0.  1.
         22    1    5    5    0    0  0.19594109330E+03 -0.12535380697E+03  0.10013685187E+04  0.10280298630E+04  0.00000000000E+00 0.  1.
          5    1    4    4  502    0 -0.22833570083E+02 -0.36888328110E+02  0.70869782225E+02  0.83227019087E+02  0.47000000000E+01 0.  1.
         -5    1    4    4    0  502 -0.37593347998E+02  0.79490975130E+02  0.39739045490E+03  0.40702989888E+03  0.47000000000E+01 0.  1.
<mgrwt>
<rscale>  0 0.10016945E+04</rscale>
<asrwt>0</asrwt>
<pdfrwt beam="1">  1        2 0.23683494E+00 0.10016945E+04</pdfrwt>
<pdfrwt beam="2">  1       -2 0.25069062E-01 0.10016945E+04</pdfrwt>
<totfact> 0.20545008E+02</totfact>
</mgrwt>
</event>
<event>
 9    1  0.4370149E-036  0.1000494E+04  0.7818608E-02  0.8680568E-01
         -1   -1    0    0    0  501 -0.00000000000E+00  0.00000000000E+00  0.75974528003E+03  0.75974528003E+03  0.00000000000E+00 0. -1.
          1   -1    0    0  501    0  0.00000000000E+00 -0.00000000000E+00 -0.32938294248E+03  0.32938294248E+03  0.00000000000E+00 0. -1.
         36    2    1    2    0    0  0.28421709430E-13  0.28421709430E-13  0.43036233756E+03  0.10891282225E+04  0.10004941496E+04 0.  0.
         25    2    3    3    0    0 -0.96069742060E+01  0.14052546100E+03  0.90175968215E+02  0.20882208547E+03  0.12504102925E+03 0.  0.
         35    2    3    3    0    0  0.96069742060E+01 -0.14052546100E+03  0.34018636934E+03  0.88030613704E+03  0.79960767247E+03 0.  0.
         22    1    5    5    0    0  0.36376754670E+03 -0.20564454111E+03  0.30731986687E+03  0.51871187175E+03  0.00000000000E+00 0. -1.
         22    1    5    5    0    0 -0.35416057249E+03  0.65119080116E+02  0.32866502478E+02  0.36159426529E+03  0.00000000000E+00 0. -1.
          5    1    4    4  502    0  0.21979045576E+02 -0.14490178202E+02  0.28161468104E+02  0.38835576402E+02  0.47000000000E+01 0. -1.
         -5    1    4    4    0  502 -0.31586019782E+02  0.15501563920E+03  0.62014500111E+02  0.16998650907E+03  0.47000000000E+01 0. -1.
<mgrwt>
<rscale>  0 0.10004941E+04</rscale>
<asrwt>0</asrwt>
<pdfrwt beam="1">  1        1 0.50674299E-01 0.10004941E+04</pdfrwt>
<pdfrwt beam="2">  1       -1 0.11688389E+00 0.10004941E+04</pdfrwt>
<totfact> 0.61578363E+01</totfact>
</mgrwt>
</event>
<event>
 9    1  0.4370149E-036  0.9997910E+03  0.7818608E-02  0.8681237E-01
          1   -1    0    0  501    0  0.00000000000E+00  0.00000000000E+00  0.39758543628E+03  0.39758543628E+03  0.00000000000E+00 0. -1.
         -1   -1    0    0    0  501 -0.00000000000E+00 -0.00000000000E+00 -0.62853290779E+03  0.62853290779E+03  0.00000000000E+00 0. -1.
         36    2    1    2    0    0  0.71054273576E-14  0.14210854715E-13 -0.23094747151E+03  0.10261183441E+04  0.99979103888E+03 0.  0.
         25    2    3    3    0    0 -0.29322310134E+02 -0.68581320429E+02 -0.16376895778E+03  0.21912645935E+03  0.12503174905E+03 0.  0.
         35    2    3    3    0    0  0.29322310134E+02  0.68581320429E+02 -0.67178513736E+02  0.80699188472E+03  0.80072451811E+03 0.  0.
         22    1    5    5    0    0  0.36963401284E+03  0.31396540209E+01 -0.21789564939E+03  0.42908935538E+03  0.00000000000E+00 0. -1.
         22    1    5    5    0    0 -0.34031170270E+03  0.65441666408E+02  0.15071713566E+03  0.37790252934E+03  0.00000000000E+00 0. -1.
          5    1    4    4  502    0 -0.37229674990E+02 -0.10274766205E+03 -0.11326989608E+03  0.15746520287E+03  0.47000000000E+01 0.  1.
         -5    1    4    4    0  502  0.79073648560E+01  0.34166341618E+02 -0.50499061695E+02  0.61661256479E+02  0.47000000000E+01 0.  1.
<mgrwt>
<rscale>  0 0.99979104E+03</rscale>
<asrwt>0</asrwt>
<pdfrwt beam="1">  1        1 0.61166990E-01 0.99979104E+03</pdfrwt>
<pdfrwt beam="2">  1       -1 0.96697370E-01 0.99979104E+03</pdfrwt>
<totfact> 0.74417030E+01</totfact>
</mgrwt>
</event>
<event>
 9    1  0.4370149E-036  0.1000048E+04  0.7818608E-02  0.8680992E-01
          2   -1    0    0  501    0  0.00000000000E+00  0.00000000000E+00  0.13308977362E+04  0.13308977362E+04  0.00000000000E+00 0. -1.
         -2   -1    0    0    0  501 -0.00000000000E+00 -0.00000000000E+00 -0.18786127313E+03  0.18786127313E+03  0.00000000000E+00 0. -1.
         36    2    1    2    0    0  0.71054273576E-14  0.14210854715E-13  0.11430364631E+04  0.15187590094E+04  0.10000482851E+04 0.  0.
         25    2    3    3    0    0  0.32595527657E+02 -0.12409075000E+03  0.30492411316E+03  0.35357326335E+03  0.12479725603E+03 0.  0.
         35    2    3    3    0    0 -0.32595527657E+02  0.12409075000E+03  0.83811234994E+03  0.11651857460E+04  0.79922745757E+03 0.  0.
         22    1    5    5    0    0  0.26723682249E+03  0.27694551878E+03  0.17756373946E+03  0.42384339235E+03  0.00000000000E+00 0. -1.
         22    1    5    5    0    0 -0.29983235015E+03 -0.15285476878E+03  0.66054861048E+03  0.74134235367E+03  0.00000000000E+00 0. -1.
          5    1    4    4  502    0  0.17120214528E+02 -0.10985340314E+03  0.10665618032E+03  0.15413793410E+03  0.47000000000E+01 0.  1.
         -5    1    4    4    0  502  0.15475313129E+02 -0.14237346857E+02  0.19826793284E+03  0.19943532925E+03  0.47000000000E+01 0.  1.
<mgrwt>
<rscale>  0 0.10000483E+04</rscale>
<asrwt>0</asrwt>
<pdfrwt beam="1">  1        2 0.20475349E+00 0.10000483E+04</pdfrwt>
<pdfrwt beam="2">  1       -2 0.28901735E-01 0.10000483E+04</pdfrwt>
<totfact> 0.20928472E+02</totfact>
</mgrwt>
</event>
<event>
 9    1  0.4370149E-036  0.9989922E+03  0.7818608E-02  0.8681998E-01
          2   -1    0    0  501    0  0.00000000000E+00  0.00000000000E+00  0.12013593586E+04  0.12013593586E+04  0.00000000000E+00 0. -1.
         -2   -1    0    0    0  501 -0.00000000000E+00 -0.00000000000E+00 -0.20767836642E+03  0.20767836642E+03  0.00000000000E+00 0. -1.
         36    2    1    2    0    0  0.14210854715E-13 -0.28421709430E-13  0.99368099218E+03  0.14090377250E+04  0.99899219032E+03 0.  0.
         25    2    3    3    0    0  0.33141331472E+02 -0.96437093369E+02  0.50082442309E+02  0.16856543307E+03  0.12452948794E+03 0.  0.
         35    2    3    3    0    0 -0.33141331472E+02  0.96437093369E+02  0.94359854987E+03  0.12404722920E+04  0.79874578119E+03 0.  0.
         22    1    5    5    0    0 -0.15133118378E+03  0.37631860228E+03  0.23327515130E+03  0.46790395791E+03  0.00000000000E+00 0.  1.
         22    1    5    5    0    0  0.11818985231E+03 -0.27988150892E+03  0.71032339857E+03  0.77256833406E+03  0.00000000000E+00 0.  1.
          5    1    4    4  502    0  0.31030061938E+02 -0.12577338872E+03  0.49544629703E+02  0.13877525135E+03  0.47000000000E+01 0.  1.
         -5    1    4    4    0  502  0.21112695339E+01  0.29336295355E+02  0.53781260564E+00  0.29790181715E+02  0.47000000000E+01 0.  1.
<mgrwt>
<rscale>  0 0.99899219E+03</rscale>
<asrwt>0</asrwt>
<pdfrwt beam="1">  1        2 0.18482451E+00 0.99899219E+03</pdfrwt>
<pdfrwt beam="2">  1       -2 0.31950519E-01 0.99899219E+03</pdfrwt>
<totfact> 0.20739568E+02</totfact>
</mgrwt>
</event>
<event>
 9    1  0.4370149E-036  0.9987436E+03  0.7818608E-02  0.8682235E-01
         -2   -1    0    0    0  501 -0.00000000000E+00  0.00000000000E+00  0.26603671993E+03  0.26603671993E+03  0.00000000000E+00 0. -1.
          2   -1    0    0  501    0  0.00000000000E+00 -0.00000000000E+00 -0.93736004773E+03  0.93736004773E+03  0.00000000000E+00 0. -1.
         36    2    1    2    0    0  0.14210854715E-13  0.14210854715E-13 -0.67132332780E+03  0.12033967677E+04  0.99874359571E+03 0.  0.
         25    2    3    3    0    0  0.61008240418E+02  0.69413737552E+02 -0.24920364190E+03  0.29418799893E+03  0.12611047228E+03 0.  0.
         35    2    3    3    0    0 -0.61008240418E+02 -0.69413737552E+02 -0.42211968590E+03  0.90920876873E+03  0.79995955120E+03 0.  0.
         22    1    5    5    0    0  0.88215400618E+02 -0.23619632729E+03 -0.58193584872E+03  0.63420816295E+03  0.00000000000E+00 0. -1.
         22    1    5    5    0    0 -0.14922364104E+03  0.16678258974E+03  0.15981616282E+03  0.27500060578E+03  0.00000000000E+00 0. -1.
          5    1    4    4  502    0  0.12861229404E+02 -0.13299559603E+02  0.72488600386E+01  0.20418753128E+02  0.47000000000E+01 0. -1.
         -5    1    4    4    0  502  0.48147011013E+02  0.82713297156E+02 -0.25645250194E+03  0.27376924580E+03  0.47000000000E+01 0. -1.
<mgrwt>
<rscale>  0 0.99874360E+03</rscale>
<asrwt>0</asrwt>
<pdfrwt beam="1">  1        2 0.14420924E+00 0.99874360E+03</pdfrwt>
<pdfrwt beam="2">  1       -2 0.40928726E-01 0.99874360E+03</pdfrwt>
<totfact> 0.18922590E+02</totfact>
</mgrwt>
</event>
<event>
 9    1  0.4370149E-036  0.9986447E+03  0.7818608E-02  0.8682330E-01
          4   -1    0    0  501    0  0.00000000000E+00  0.00000000000E+00  0.19995580511E+03  0.19995580511E+03  0.00000000000E+00 0.  1.
         -4   -1    0    0    0  501 -0.00000000000E+00 -0.00000000000E+00 -0.12468896836E+04  0.12468896836E+04  0.00000000000E+00 0.  1.
         36    2    1    2    0    0 -0.14210854715E-13  0.00000000000E+00 -0.10469338785E+04  0.14468454888E+04  0.99864474280E+03 0.  0.
         25    2    3    3    0    0  0.73154070733E+02  0.11085346685E+03 -0.25634589154E+03  0.31445133803E+03  0.12460505088E+03 0.  0.
         35    2    3    3    0    0 -0.73154070733E+02 -0.11085346685E+03 -0.79058798699E+03  0.11323941507E+04  0.79977943099E+03 0.  0.
         22    1    5    5    0    0  0.16857801229E+03  0.13667621251E+03 -0.75384690106E+03  0.78446420156E+03  0.00000000000E+00 0. -1.
         22    1    5    5    0    0 -0.24173208302E+03 -0.24752967936E+03 -0.36741085926E+02  0.34792994916E+03  0.00000000000E+00 0. -1.
          5    1    4    4  502    0  0.54414094959E+02  0.49267037392E+02 -0.23535040067E+03  0.24657663271E+03  0.47000000000E+01 0.  1.
         -5    1    4    4    0  502  0.18739975773E+02  0.61586429461E+02 -0.20995490865E+02  0.67874705321E+02  0.47000000000E+01 0.  1.
<mgrwt>
<rscale>  0 0.99864474E+03</rscale>
<asrwt>0</asrwt>
<pdfrwt beam="1">  1        4 0.30762431E-01 0.99864474E+03</pdfrwt>
<pdfrwt beam="2">  1       -4 0.19182918E+00 0.99864474E+03</pdfrwt>
<totfact> 0.27691614E+00</totfact>
</mgrwt>
</event>
<event>
 9    1  0.4370149E-036  0.1000004E+04  0.7818608E-02  0.8681034E-01
         -1   -1    0    0    0  501 -0.00000000000E+00  0.00000000000E+00  0.16916849427E+03  0.16916849427E+03  0.00000000000E+00 0. -1.
          1   -1    0    0  501    0  0.00000000000E+00 -0.00000000000E+00 -0.14778281818E+04  0.14778281818E+04  0.00000000000E+00 0. -1.
         36    2    1    2    0    0 -0.28421709430E-13  0.00000000000E+00 -0.13086596875E+04  0.16469966760E+04  0.10000039366E+04 0.  0.
         25    2    3    3    0    0 -0.65544004360E+02 -0.10513601436E+03 -0.35644543629E+03  0.39743042658E+03  0.12469160718E+03 0.  0.
         35    2    3    3    0    0  0.65544004360E+02  0.10513601436E+03 -0.95221425121E+03  0.12495662495E+04  0.79959629411E+03 0.  0.
         22    1    5    5    0    0 -0.36246151417E+03  0.11320330384E+03 -0.48342168974E+03  0.61472747407E+03  0.00000000000E+00 0.  1.
         22    1    5    5    0    0  0.42800551853E+03 -0.80672894806E+01 -0.46879256147E+03  0.63483877540E+03  0.00000000000E+00 0.  1.
          5    1    4    4  502    0  0.37393889161E+02 -0.26407995978E+02 -0.98702687474E+02  0.10890360744E+03  0.47000000000E+01 0. -1.
         -5    1    4    4    0  502 -0.10293789352E+03 -0.78728018382E+02 -0.25774274881E+03  0.28852681914E+03  0.47000000000E+01 0. -1.
<mgrwt>
<rscale>  0 0.10000039E+04</rscale>
<asrwt>0</asrwt>
<pdfrwt beam="1">  1        1 0.22735817E+00 0.10000039E+04</pdfrwt>
<pdfrwt beam="2">  1       -1 0.26025924E-01 0.10000039E+04</pdfrwt>
<totfact> 0.95785483E+01</totfact>
</mgrwt>
</event>
<event>
 9    1  0.4370149E-036  0.9936697E+03  0.7818608E-02  0.8687090E-01
         -2   -1    0    0    0  501 -0.00000000000E+00  0.00000000000E+00  0.11145976185E+03  0.11145976185E+03  0.00000000000E+00 0. -1.
          2   -1    0    0  501    0  0.00000000000E+00 -0.00000000000E+00 -0.22146544682E+04  0.22146544682E+04  0.00000000000E+00 0. -1.
         36    2    1    2    0    0  0.14210854715E-13  0.00000000000E+00 -0.21031947063E+04  0.23261142300E+04  0.99366968275E+03 0.  0.
         25    2    3    3    0    0 -0.23321398852E+02  0.32476823116E+02 -0.90626582644E+02  0.16020044364E+03  0.12590620706E+03 0.  0.
         35    2    3    3    0    0  0.23321398852E+02 -0.32476823116E+02 -0.20125681237E+04  0.21659137864E+04  0.79947072862E+03 0.  0.
         22    1    5    5    0    0  0.24785246668E+03 -0.28711478889E+01 -0.18942434236E+04  0.19103919066E+04  0.00000000000E+00 0.  1.
         22    1    5    5    0    0 -0.22453106783E+03 -0.29605675227E+02 -0.11832470007E+03  0.25552187983E+03  0.00000000000E+00 0.  1.
          5    1    4    4  502    0  0.34363302334E+02 -0.29546964913E+02 -0.19761806538E+02  0.49663655529E+02  0.47000000000E+01 0.  1.
         -5    1    4    4    0  502 -0.57684701186E+02  0.62023788029E+02 -0.70864776106E+02  0.11053678811E+03  0.47000000000E+01 0.  1.
<mgrwt>
<rscale>  0 0.99366968E+03</rscale>
<asrwt>0</asrwt>
<pdfrwt beam="1">  1        2 0.34071602E+00 0.99366968E+03</pdfrwt>
<pdfrwt beam="2">  1       -2 0.17147658E-01 0.99366968E+03</pdfrwt>
<totfact> 0.16423568E+02</totfact>
</mgrwt>
</event>
<event>
 9    1  0.4370149E-036  0.1001838E+04  0.7818608E-02  0.8679290E-01
         -1   -1    0    0    0  501 -0.00000000000E+00  0.00000000000E+00  0.52631109620E+03  0.52631109620E+03  0.00000000000E+00 0.  1.
          1   -1    0    0  501    0  0.00000000000E+00 -0.00000000000E+00 -0.47675188021E+03  0.47675188021E+03  0.00000000000E+00 0.  1.
         36    2    1    2    0    0  0.49737991503E-13  0.00000000000E+00  0.49559215991E+02  0.10030629764E+04  0.10018379204E+04 0.  0.
         25    2    3    3    0    0  0.42490139205E+02  0.80750676107E+02  0.11927623162E+03  0.19523222423E+03  0.12475062455E+03 0.  0.
         35    2    3    3    0    0 -0.42490139205E+02 -0.80750676107E+02 -0.69717015625E+02  0.80783075219E+03  0.79962739966E+03 0.  0.
         22    1    5    5    0    0  0.28098965943E+03 -0.26530583811E+03 -0.16992988513E+03  0.42215938021E+03  0.00000000000E+00 0.  1.
         22    1    5    5    0    0 -0.32347979864E+03  0.18455516200E+03  0.10021286950E+03  0.38567137198E+03  0.00000000000E+00 0.  1.
          5    1    4    4  502    0 -0.16578169835E+02 -0.25999748058E+02  0.34972156546E+02  0.46861117652E+02  0.47000000000E+01 0.  1.
         -5    1    4    4    0  502  0.59068309041E+02  0.10675042416E+03  0.84304075071E+02  0.14837110657E+03  0.47000000000E+01 0.  1.
<mgrwt>
<rscale>  0 0.10018379E+04</rscale>
<asrwt>0</asrwt>
<pdfrwt beam="1">  1        1 0.73346443E-01 0.10018379E+04</pdfrwt>
<pdfrwt beam="2">  1       -1 0.80970938E-01 0.10018379E+04</pdfrwt>
<totfact> 0.85143602E+01</totfact>
</mgrwt>
</event>
<event>
 9    1  0.4370149E-036  0.1000949E+04  0.7818608E-02  0.8680135E-01
         -2   -1    0    0    0  501 -0.00000000000E+00  0.00000000000E+00  0.20538277795E+03  0.20538277795E+03  0.00000000000E+00 0. -1.
          2   -1    0    0  501    0  0.00000000000E+00 -0.00000000000E+00 -0.12195499478E+04  0.12195499478E+04  0.00000000000E+00 0. -1.
         36    2    1    2    0    0 -0.21316282073E-13 -0.14210854715E-13 -0.10141671698E+04  0.14249327257E+04  0.10009486623E+04 0.  0.
         25    2    3    3    0    0 -0.10237364968E+02  0.93740235472E+02 -0.40522396569E+02  0.16150428936E+03  0.12469777653E+03 0.  0.
         35    2    3    3    0    0  0.10237364968E+02 -0.93740235472E+02 -0.97364477324E+03  0.12634284364E+04  0.79960942587E+03 0.  0.
         22    1    5    5    0    0  0.32782609144E+03 -0.12783050072E+03 -0.15465377045E+03  0.38435448724E+03  0.00000000000E+00 0. -1.
         22    1    5    5    0    0 -0.31758872648E+03  0.34090265244E+02 -0.81899100278E+03  0.87907394911E+03  0.00000000000E+00 0. -1.
          5    1    4    4  502    0 -0.46463103739E+02  0.10380274294E+03 -0.46851584756E+02  0.12308935959E+03  0.47000000000E+01 0.  1.
         -5    1    4    4    0  502  0.36225738772E+02 -0.10062507467E+02  0.63291881865E+01  0.38414929769E+02  0.47000000000E+01 0.  1.
<mgrwt>
<rscale>  0 0.10009487E+04</rscale>
<asrwt>0</asrwt>
<pdfrwt beam="1">  1        2 0.18762307E+00 0.10009487E+04</pdfrwt>
<pdfrwt beam="2">  1       -2 0.31597350E-01 0.10009487E+04</pdfrwt>
<totfact> 0.20650880E+02</totfact>
</mgrwt>
</event>
<event>
 9    1  0.4370149E-036  0.9987471E+03  0.7818608E-02  0.8682232E-01
          2   -1    0    0  501    0  0.00000000000E+00  0.00000000000E+00  0.34352172569E+03  0.34352172569E+03  0.00000000000E+00 0.  1.
         -2   -1    0    0    0  501 -0.00000000000E+00 -0.00000000000E+00 -0.72593358692E+03  0.72593358692E+03  0.00000000000E+00 0.  1.
         36    2    1    2    0    0  0.14210854715E-13 -0.71054273576E-14 -0.38241186122E+03  0.10694553126E+04  0.99874713219E+03 0.  0.
         25    2    3    3    0    0  0.46307626908E+02  0.41129042211E+02  0.63663774537E+02  0.15374887711E+03  0.12549759600E+03 0.  0.
         35    2    3    3    0    0 -0.46307626908E+02 -0.41129042211E+02 -0.44607563576E+03  0.91570643550E+03  0.79730722358E+03 0.  0.
         22    1    5    5    0    0 -0.25919955925E+03 -0.13863444254E+03  0.10880909753E+03  0.31343793625E+03  0.00000000000E+00 0. -1.
         22    1    5    5    0    0  0.21289193234E+03  0.97505400328E+02 -0.55488473329E+03  0.60226849925E+03  0.00000000000E+00 0. -1.
          5    1    4    4  502    0  0.74831834943E+02  0.51412481159E+02  0.78087059741E+02  0.11984458953E+03  0.47000000000E+01 0. -1.
         -5    1    4    4    0  502 -0.28524208035E+02 -0.10283438948E+02 -0.14423285204E+02  0.33904287586E+02  0.47000000000E+01 0. -1.
<mgrwt>
<rscale>  0 0.99874713E+03</rscale>
<asrwt>0</asrwt>
<pdfrwt beam="1">  1        2 0.52849496E-01 0.99874713E+03</pdfrwt>
<pdfrwt beam="2">  1       -2 0.11168209E+00 0.99874713E+03</pdfrwt>
<totfact> 0.70314918E+01</totfact>
</mgrwt>
</event>
<event>
 9    1  0.4370149E-036  0.9996335E+03  0.7818608E-02  0.8681387E-01
         -2   -1    0    0    0  501 -0.00000000000E+00  0.00000000000E+00  0.94175500833E+03  0.94175500833E+03  0.00000000000E+00 0.  1.
          2   -1    0    0  501    0  0.00000000000E+00 -0.00000000000E+00 -0.26526729133E+03  0.26526729133E+03  0.00000000000E+00 0.  1.
         36    2    1    2    0    0  0.00000000000E+00  0.71054273576E-14  0.67648771700E+03  0.12070222997E+04  0.99963353316E+03 0.  0.
         25    2    3    3    0    0 -0.43705984700E+02  0.49595202165E+02 -0.21649210696E+02  0.14299552102E+03  0.12493651800E+03 0.  0.
         35    2    3    3    0    0  0.43705984700E+02 -0.49595202165E+02  0.69813692769E+03  0.10640267786E+04  0.80024241245E+03 0.  0.
         22    1    5    5    0    0  0.27362638749E+03  0.27503338895E+03  0.23535587468E+03  0.45376993369E+03  0.00000000000E+00 0. -1.
         22    1    5    5    0    0 -0.22992040279E+03 -0.32462859112E+03  0.46278105301E+03  0.61025684496E+03  0.00000000000E+00 0. -1.
          5    1    4    4  502    0  0.18038790507E+02  0.72566794042E+02 -0.16713642563E+02  0.76764401959E+02  0.47000000000E+01 0. -1.
         -5    1    4    4    0  502 -0.61744775207E+02 -0.22971591877E+02 -0.49355681332E+01  0.66231119057E+02  0.47000000000E+01 0. -1.
<mgrwt>
<rscale>  0 0.99963353E+03</rscale>
<asrwt>0</asrwt>
<pdfrwt beam="1">  1        2 0.40810353E-01 0.99963353E+03</pdfrwt>
<pdfrwt beam="2">  1       -2 0.14488538E+00 0.99963353E+03</pdfrwt>
<totfact> 0.47052065E+01</totfact>
</mgrwt>
</event>
<event>
 9    1  0.4370149E-036  0.9989606E+03  0.7818608E-02  0.8682028E-01
         -1   -1    0    0    0  501 -0.00000000000E+00  0.00000000000E+00  0.57682933926E+03  0.57682933926E+03  0.00000000000E+00 0. -1.
          1   -1    0    0  501    0  0.00000000000E+00 -0.00000000000E+00 -0.43250329553E+03  0.43250329553E+03  0.00000000000E+00 0. -1.
         36    2    1    2    0    0  0.14210854715E-13 -0.28421709430E-13  0.14432604373E+03  0.10093326348E+04  0.99896064023E+03 0.  0.
         25    2    3    3    0    0  0.46834082570E+02  0.10842222873E+03 -0.48026666564E+02  0.17820367091E+03  0.12450372144E+03 0.  0.
         35    2    3    3    0    0 -0.46834082570E+02 -0.10842222873E+03  0.19235271029E+03  0.83112896387E+03  0.79989185422E+03 0.  0.
         22    1    5    5    0    0 -0.27689354210E+03 -0.31595278212E+03  0.28509252910E+03  0.50771443188E+03  0.00000000000E+00 0.  1.
         22    1    5    5    0    0  0.23005945953E+03  0.20753055340E+03 -0.92739818802E+02  0.32341453199E+03  0.00000000000E+00 0.  1.
          5    1    4    4  502    0  0.33433825170E+02  0.42812920047E+01 -0.63423113898E+02  0.71977298526E+02  0.47000000000E+01 0.  1.
         -5    1    4    4    0  502  0.13400257401E+02  0.10414093672E+03  0.15396447333E+02  0.10622637239E+03  0.47000000000E+01 0.  1.
<mgrwt>
<rscale>  0 0.99896064E+03</rscale>
<asrwt>0</asrwt>
<pdfrwt beam="1">  1        1 0.66538969E-01 0.99896064E+03</pdfrwt>
<pdfrwt beam="2">  1       -1 0.88742975E-01 0.99896064E+03</pdfrwt>
<totfact> 0.80054842E+01</totfact>
</mgrwt>
</event>
<event>
 9    1  0.4370149E-036  0.9988366E+03  0.7818608E-02  0.8682147E-01
          2   -1    0    0  501    0  0.00000000000E+00  0.00000000000E+00  0.43671435550E+03  0.43671435550E+03  0.00000000000E+00 0.  1.
         -2   -1    0    0    0  501 -0.00000000000E+00 -0.00000000000E+00 -0.57112531970E+03  0.57112531970E+03  0.00000000000E+00 0.  1.
         36    2    1    2    0    0  0.14210854715E-13  0.14210854715E-13 -0.13441096420E+03  0.10078396752E+04  0.99883657503E+03 0.  0.
         25    2    3    3    0    0  0.81946947466E+02  0.11151016960E+03 -0.14943230123E+02  0.18739102735E+03  0.12546823057E+03 0.  0.
         35    2    3    3    0    0 -0.81946947466E+02 -0.11151016960E+03 -0.11946773408E+03  0.82044864786E+03  0.79982099507E+03 0.  0.
         22    1    5    5    0    0 -0.40386748339E+03  0.41491645852E+02  0.77338517945E+02  0.41329377829E+03  0.00000000000E+00 0.  1.
         22    1    5    5    0    0  0.32192053592E+03 -0.15300181545E+03 -0.19680625203E+03  0.40715486957E+03  0.00000000000E+00 0.  1.
          5    1    4    4  502    0  0.45610767370E+02  0.11066385727E+03 -0.56107741980E+02  0.13227622657E+03  0.47000000000E+01 0.  1.
         -5    1    4    4    0  502  0.36336180095E+02  0.84631232781E+00  0.41164511857E+02  0.55114800779E+02  0.47000000000E+01 0.  1.
<mgrwt>
<rscale>  0 0.99883658E+03</rscale>
<asrwt>0</asrwt>
<pdfrwt beam="1">  1        2 0.67186825E-01 0.99883658E+03</pdfrwt>
<pdfrwt beam="2">  1       -2 0.87865433E-01 0.99883658E+03</pdfrwt>
<totfact> 0.96204171E+01</totfact>
</mgrwt>
</event>
<event>
 9    1  0.4370149E-036  0.1000011E+04  0.7818608E-02  0.8681027E-01
          2   -1    0    0  501    0  0.00000000000E+00  0.00000000000E+00  0.73260870780E+03  0.73260870780E+03  0.00000000000E+00 0. -1.
         -2   -1    0    0    0  501 -0.00000000000E+00 -0.00000000000E+00 -0.34125395678E+03  0.34125395678E+03  0.00000000000E+00 0. -1.
         36    2    1    2    0    0  0.00000000000E+00  0.14210854715E-13  0.39135475102E+03  0.10738626646E+04  0.10000112406E+04 0.  0.
         25    2    3    3    0    0  0.96097843747E+02 -0.49602042310E+02  0.16913567464E+03  0.23491937719E+03  0.12200442274E+03 0.  0.
         35    2    3    3    0    0 -0.96097843747E+02  0.49602042310E+02  0.22221907638E+03  0.83894328740E+03  0.80171651061E+03 0.  0.
         22    1    5    5    0    0 -0.11477902905E+03 -0.14548052253E+03 -0.25950837708E+03  0.31887835568E+03  0.00000000000E+00 0.  1.
         22    1    5    5    0    0  0.18681185302E+02  0.19508256484E+03  0.48172745346E+03  0.52006493172E+03  0.00000000000E+00 0.  1.
          5    1    4    4  502    0  0.87111200750E+02 -0.45454488131E+02  0.41419309559E+02  0.10673387931E+03  0.47000000000E+01 0. -1.
         -5    1    4    4    0  502  0.89866429977E+01 -0.41475541784E+01  0.12771636508E+03  0.12818549788E+03  0.47000000000E+01 0. -1.
<mgrwt>
<rscale>  0 0.10000112E+04</rscale>
<asrwt>0</asrwt>
<pdfrwt beam="1">  1        2 0.11270903E+00 0.10000112E+04</pdfrwt>
<pdfrwt beam="2">  1       -2 0.52500609E-01 0.10000112E+04</pdfrwt>
<totfact> 0.16018063E+02</totfact>
</mgrwt>
</event>
<event>
 9    1  0.4370149E-036  0.1000293E+04  0.7818608E-02  0.8680759E-01
          2   -1    0    0  501    0  0.00000000000E+00  0.00000000000E+00  0.25626129557E+04  0.25626129557E+04  0.00000000000E+00 0.  1.
         -2   -1    0    0    0  501 -0.00000000000E+00 -0.00000000000E+00 -0.97613845940E+02  0.97613845940E+02  0.00000000000E+00 0.  1.
         36    2    1    2    0    0  0.00000000000E+00  0.00000000000E+00  0.24649991098E+04  0.26602268017E+04  0.10002929696E+04 0.  0.
         25    2    3    3    0    0 -0.10364895262E+03  0.95215278172E+02  0.43850094901E+03  0.47709705365E+03  0.12461726101E+03 0.  0.
         35    2    3    3    0    0  0.10364895262E+03 -0.95215278172E+02  0.20264981608E+04  0.21831297480E+04  0.79971972995E+03 0.  0.
         22    1    5    5    0    0  0.18656471922E+03  0.22650987123E+03  0.28099767374E+03  0.40629153187E+03  0.00000000000E+00 0. -1.
         22    1    5    5    0    0 -0.82915766599E+02 -0.32172514940E+03  0.17455004870E+04  0.17768382161E+04  0.00000000000E+00 0. -1.
          5    1    4    4  502    0 -0.11409809848E+03  0.75718774796E+02  0.43252224825E+03  0.45370617603E+03  0.47000000000E+01 0.  1.
         -5    1    4    4    0  502  0.10449145857E+02  0.19496503376E+02  0.59787007534E+01  0.23390877617E+02  0.47000000000E+01 0.  1.
<mgrwt>
<rscale>  0 0.10002930E+04</rscale>
<asrwt>0</asrwt>
<pdfrwt beam="1">  1        2 0.39424810E+00 0.10002930E+04</pdfrwt>
<pdfrwt beam="2">  1       -2 0.15017517E-01 0.10002930E+04</pdfrwt>
<totfact> 0.12725136E+02</totfact>
</mgrwt>
</event>
<event>
 9    1  0.4370149E-036  0.1000384E+04  0.7818608E-02  0.8680673E-01
          2   -1    0    0  501    0  0.00000000000E+00  0.00000000000E+00  0.20817886652E+04  0.20817886652E+04  0.00000000000E+00 0. -1.
         -2   -1    0    0    0  501 -0.00000000000E+00 -0.00000000000E+00 -0.12018124033E+03  0.12018124033E+03  0.00000000000E+00 0. -1.
         36    2    1    2    0    0 -0.14210854715E-13  0.00000000000E+00  0.19616074249E+04  0.22019699056E+04  0.10003838141E+04 0.  0.
         25    2    3    3    0    0  0.51280155299E+02  0.12439378700E+03  0.47325170882E+03  0.50694402328E+03  0.12215397771E+03 0.  0.
         35    2    3    3    0    0 -0.51280155299E+02 -0.12439378700E+03  0.14883557161E+04  0.16950258823E+04  0.79987907551E+03 0.  0.
         22    1    5    5    0    0  0.28715881315E+03  0.13906949102E+03  0.32639984702E+03  0.45643988370E+03  0.00000000000E+00 0.  1.
         22    1    5    5    0    0 -0.33843896845E+03 -0.26346327802E+03  0.11619558691E+04  0.12385859986E+04  0.00000000000E+00 0.  1.
          5    1    4    4  502    0  0.73456552691E+02  0.68133036422E+02  0.39718902693E+03  0.40965740430E+03  0.47000000000E+01 0.  1.
         -5    1    4    4    0  502 -0.22176397392E+02  0.56260750574E+02  0.76062681891E+02  0.97286618981E+02  0.47000000000E+01 0.  1.
<mgrwt>
<rscale>  0 0.10003838E+04</rscale>
<asrwt>0</asrwt>
<pdfrwt beam="1">  1        2 0.32027515E+00 0.10003838E+04</pdfrwt>
<pdfrwt beam="2">  1       -2 0.18489423E-01 0.10003838E+04</pdfrwt>
<totfact> 0.17232823E+02</totfact>
</mgrwt>
</event>
<event>
 9    1  0.4370149E-036  0.9990335E+03  0.7818608E-02  0.8681959E-01
         -1   -1    0    0    0  501 -0.00000000000E+00  0.00000000000E+00  0.40871808258E+03  0.40871808258E+03  0.00000000000E+00 0.  1.
          1   -1    0    0  501    0  0.00000000000E+00 -0.00000000000E+00 -0.61048672605E+03  0.61048672605E+03  0.00000000000E+00 0.  1.
         36    2    1    2    0    0  0.00000000000E+00 -0.14210854715E-13 -0.20176864347E+03  0.10192048086E+04  0.99903346112E+03 0.  0.
         25    2    3    3    0    0  0.91539137712E+02 -0.69457198756E+02 -0.11882260755E+03  0.20718739371E+03  0.12491632342E+03 0.  0.
         35    2    3    3    0    0 -0.91539137712E+02  0.69457198756E+02 -0.82946035920E+02  0.81201741491E+03  0.79955520200E+03 0.  0.
         22    1    5    5    0    0 -0.14618180790E+03  0.21164570099E+03  0.30278817918E+03  0.39729548847E+03  0.00000000000E+00 0.  1.
         22    1    5    5    0    0  0.54642670190E+02 -0.14218850224E+03 -0.38573421510E+03  0.41472192644E+03  0.00000000000E+00 0.  1.
          5    1    4    4  502    0  0.56499457248E+02 -0.10450576940E+03 -0.93973929822E+02  0.15154812435E+03  0.47000000000E+01 0.  1.
         -5    1    4    4    0  502  0.35039680464E+02  0.35048570642E+02 -0.24848677724E+02  0.55639269368E+02  0.47000000000E+01 0.  1.
<mgrwt>
<rscale>  0 0.99903346E+03</rscale>
<asrwt>0</asrwt>
<pdfrwt beam="1">  1        1 0.93921035E-01 0.99903346E+03</pdfrwt>
<pdfrwt beam="2">  1       -1 0.62879705E-01 0.99903346E+03</pdfrwt>
<totfact> 0.99563590E+01</totfact>
</mgrwt>
</event>
<event>
 9    1  0.4370149E-036  0.1000032E+04  0.7818608E-02  0.8681007E-01
         -2   -1    0    0    0  501 -0.00000000000E+00  0.00000000000E+00  0.61257750380E+02  0.61257750380E+02  0.00000000000E+00 0.  1.
          2   -1    0    0  501    0  0.00000000000E+00 -0.00000000000E+00 -0.40813794825E+04  0.40813794825E+04  0.00000000000E+00 0.  1.
         36    2    1    2    0    0 -0.14210854715E-13  0.28421709430E-13 -0.40201217322E+04  0.41426372329E+04  0.10000322506E+04 0.  0.
         25    2    3    3    0    0 -0.12588616053E+03 -0.35588919222E+02 -0.98188446402E+03  0.99840719033E+03  0.12492365840E+03 0.  0.
         35    2    3    3    0    0  0.12588616053E+03  0.35588919222E+02 -0.30382372681E+04  0.31442300426E+04  0.79886354695E+03 0.  0.
         22    1    5    5    0    0  0.17209135518E+03 -0.36640550217E+03 -0.15008859931E+04  0.15545183147E+04  0.00000000000E+00 0. -1.
         22    1    5    5    0    0 -0.46205194649E+02  0.40199442139E+03 -0.15373512750E+04  0.15897117279E+04  0.00000000000E+00 0. -1.
          5    1    4    4  502    0 -0.35274415571E+02 -0.71746722211E+02 -0.35206708462E+03  0.36106121173E+03  0.47000000000E+01 0.  1.
         -5    1    4    4    0  502 -0.90611744962E+02  0.36157802989E+02 -0.62981737940E+03  0.63734597860E+03  0.47000000000E+01 0.  1.
<mgrwt>
<rscale>  0 0.10000323E+04</rscale>
<asrwt>0</asrwt>
<pdfrwt beam="1">  1        2 0.62790461E+00 0.10000323E+04</pdfrwt>
<pdfrwt beam="2">  1       -2 0.94242682E-02 0.10000323E+04</pdfrwt>
<totfact> 0.21203945E+01</totfact>
</mgrwt>
</event>
<event>
 9    1  0.4370149E-036  0.1000393E+04  0.7818608E-02  0.8680664E-01
          1   -1    0    0  501    0  0.00000000000E+00  0.00000000000E+00  0.88459700724E+03  0.88459700724E+03  0.00000000000E+00 0.  1.
         -1   -1    0    0    0  501 -0.00000000000E+00 -0.00000000000E+00 -0.28283681068E+03  0.28283681068E+03  0.00000000000E+00 0.  1.
         36    2    1    2    0    0  0.00000000000E+00  0.00000000000E+00  0.60176019656E+03  0.11674338179E+04  0.10003931153E+04 0.  0.
         25    2    3    3    0    0  0.91210757464E+02  0.49283690847E+02  0.27493851738E+02  0.16712549130E+03  0.12816681902E+03 0.  0.
         35    2    3    3    0    0 -0.91210757464E+02 -0.49283690847E+02  0.57426634482E+03  0.10003083266E+04  0.81245715520E+03 0.  0.
         22    1    5    5    0    0 -0.22897379375E+03 -0.11843730149E+03  0.73422425055E+03  0.77816556253E+03  0.00000000000E+00 0.  1.
         22    1    5    5    0    0  0.13776303629E+03  0.69153610638E+02 -0.15995790573E+03  0.22214276409E+03  0.00000000000E+00 0.  1.
          5    1    4    4  502    0  0.47030711248E+01  0.23303017290E+02  0.64878760861E+02  0.69256718834E+02  0.47000000000E+01 0. -1.
         -5    1    4    4    0  502  0.86507686339E+02  0.25980673557E+02 -0.37384909123E+02  0.97868772468E+02  0.47000000000E+01 0. -1.
<mgrwt>
<rscale>  0 0.10003931E+04</rscale>
<asrwt>0</asrwt>
<pdfrwt beam="1">  1        1 0.13609185E+00 0.10003931E+04</pdfrwt>
<pdfrwt beam="2">  1       -1 0.43513356E-01 0.10003931E+04</pdfrwt>
<totfact> 0.11040143E+02</totfact>
</mgrwt>
</event>
<event>
 9    1  0.4370149E-036  0.9992298E+03  0.7818608E-02  0.8681772E-01
          2   -1    0    0  501    0  0.00000000000E+00  0.00000000000E+00  0.83740746266E+03  0.83740746266E+03  0.00000000000E+00 0. -1.
         -2   -1    0    0    0  501 -0.00000000000E+00 -0.00000000000E+00 -0.29808072792E+03  0.29808072792E+03  0.00000000000E+00 0. -1.
         36    2    1    2    0    0  0.71054273576E-14  0.28421709430E-13  0.53932673473E+03  0.11354881906E+04  0.99922975543E+03 0.  0.
         25    2    3    3    0    0  0.49626470138E+02 -0.89273868896E+02  0.21002987235E+03  0.26432159026E+03  0.12377699945E+03 0.  0.
         35    2    3    3    0    0 -0.49626470138E+02  0.89273868896E+02  0.32929686238E+03  0.87116660032E+03  0.80003888138E+03 0.  0.
         22    1    5    5    0    0  0.15760085866E+03 -0.30824117179E+03  0.21853136630E+03  0.40939786112E+03  0.00000000000E+00 0.  1.
         22    1    5    5    0    0 -0.20722732879E+03  0.39751504069E+03  0.11076549608E+03  0.46176873919E+03  0.00000000000E+00 0.  1.
          5    1    4    4  502    0  0.32667216431E+02 -0.23347521215E+02  0.18847685874E+03  0.19276376749E+03  0.47000000000E+01 0. -1.
         -5    1    4    4    0  502  0.16959253707E+02 -0.65926347681E+02  0.21553013616E+02  0.71557822778E+02  0.47000000000E+01 0. -1.
<mgrwt>
<rscale>  0 0.99922976E+03</rscale>
<asrwt>0</asrwt>
<pdfrwt beam="1">  1        2 0.12883192E+00 0.99922976E+03</pdfrwt>
<pdfrwt beam="2">  1       -2 0.45858574E-01 0.99922976E+03</pdfrwt>
<totfact> 0.17673538E+02</totfact>
</mgrwt>
</event>
<event>
 9    1  0.4370149E-036  0.9994505E+03  0.7818608E-02  0.8681561E-01
         -3   -1    0    0    0  501 -0.00000000000E+00  0.00000000000E+00  0.10955447316E+04  0.10955447316E+04  0.00000000000E+00 0.  1.
          3   -1    0    0  501    0  0.00000000000E+00 -0.00000000000E+00 -0.22794625905E+03  0.22794625905E+03  0.00000000000E+00 0.  1.
         36    2    1    2    0    0  0.00000000000E+00  0.14210854715E-13  0.86759847256E+03  0.13234909907E+04  0.99945049540E+03 0.  0.
         25    2    3    3    0    0  0.90073443727E+02 -0.71442422859E+02  0.27008590488E+03  0.31920715552E+03  0.12541757084E+03 0.  0.
         35    2    3    3    0    0 -0.90073443727E+02  0.71442422859E+02  0.59751256768E+03  0.10042838351E+04  0.79896652490E+03 0.  0.
         22    1    5    5    0    0 -0.17583530404E+03  0.10845756385E+03  0.77589294675E+03  0.80292649858E+03  0.00000000000E+00 0. -1.
         22    1    5    5    0    0  0.85761860312E+02 -0.37015140990E+02 -0.17838037907E+03  0.20135733655E+03  0.00000000000E+00 0. -1.
          5    1    4    4  502    0  0.85550185869E+02 -0.24822487434E+02  0.25440441122E+03  0.26958984520E+03  0.47000000000E+01 0.  1.
         -5    1    4    4    0  502  0.45232578583E+01 -0.46619935425E+02  0.15681493651E+02  0.49617310324E+02  0.47000000000E+01 0.  1.
<mgrwt>
<rscale>  0 0.99945050E+03</rscale>
<asrwt>0</asrwt>
<pdfrwt beam="1">  1        3 0.35068656E-01 0.99945050E+03</pdfrwt>
<pdfrwt beam="2">  1       -3 0.16854534E+00 0.99945050E+03</pdfrwt>
<totfact> 0.57857093E+00</totfact>
</mgrwt>
</event>
<event>
 9    1  0.4370149E-036  0.1001690E+04  0.7818608E-02  0.8679431E-01
         -1   -1    0    0    0  501 -0.00000000000E+00  0.00000000000E+00  0.55060662345E+03  0.55060662345E+03  0.00000000000E+00 0.  1.
          1   -1    0    0  501    0  0.00000000000E+00 -0.00000000000E+00 -0.45558023031E+03  0.45558023031E+03  0.00000000000E+00 0.  1.
         36    2    1    2    0    0 -0.14210854715E-13  0.00000000000E+00  0.95026393147E+02  0.10061868538E+04  0.10016895573E+04 0.  0.
         25    2    3    3    0    0 -0.14766000694E+02  0.12841984360E+03 -0.43588025991E+02  0.18415704592E+03  0.12371018772E+03 0.  0.
         35    2    3    3    0    0  0.14766000694E+02 -0.12841984360E+03  0.13861441914E+03  0.82202980784E+03  0.79988083911E+03 0.  0.
         22    1    5    5    0    0 -0.18678998469E+03  0.17560317916E+03 -0.19935391911E+03  0.32475984970E+03  0.00000000000E+00 0. -1.
         22    1    5    5    0    0  0.20155598538E+03 -0.30402302276E+03  0.33796833825E+03  0.49726995814E+03  0.00000000000E+00 0. -1.
          5    1    4    4  502    0 -0.66720463404E+02  0.49943508123E+02 -0.31190743317E+02  0.89111877487E+02  0.47000000000E+01 0.  1.
         -5    1    4    4    0  502  0.51954462710E+02  0.78476335478E+02 -0.12397282674E+02  0.95045168438E+02  0.47000000000E+01 0.  1.
<mgrwt>
<rscale>  0 0.10016896E+04</rscale>
<asrwt>0</asrwt>
<pdfrwt beam="1">  1        1 0.70089266E-01 0.10016896E+04</pdfrwt>
<pdfrwt beam="2">  1       -1 0.84708711E-01 0.10016896E+04</pdfrwt>
<totfact> 0.82355415E+01</totfact>
</mgrwt>
</event>
<event>
 9    1  0.4370149E-036  0.1009024E+04  0.7818608E-02  0.8672491E-01
          3   -1    0    0  501    0  0.00000000000E+00  0.00000000000E+00  0.43166680302E+03  0.43166680302E+03  0.00000000000E+00 0. -1.
         -3   -1    0    0    0  501 -0.00000000000E+00 -0.00000000000E+00 -0.58965056763E+03  0.58965056763E+03  0.00000000000E+00 0. -1.
         36    2    1    2    0    0  0.28421709430E-13  0.28421709430E-13 -0.15798376461E+03  0.10213173706E+04  0.10090244307E+04 0.  0.
         25    2    3    3    0    0 -0.78427390553E+02 -0.86076003500E+02  0.66281585497E+02  0.18406492243E+03  0.12620108211E+03 0.  0.
         35    2    3    3    0    0  0.78427390553E+02  0.86076003500E+02 -0.22426535011E+03  0.83725244821E+03  0.79820848204E+03 0.  0.
         22    1    5    5    0    0 -0.35524457701E+03 -0.17607116447E+02 -0.14629824222E+03  0.38459315611E+03  0.00000000000E+00 0. -1.
         22    1    5    5    0    0  0.43367196757E+03  0.10368311995E+03 -0.77967107893E+02  0.45265929210E+03  0.00000000000E+00 0. -1.
          5    1    4    4  502    0  0.69082510263E+01 -0.83631928185E+02  0.47443765203E+02  0.96514373027E+02  0.47000000000E+01 0.  1.
         -5    1    4    4    0  502 -0.85335641579E+02 -0.24440753151E+01  0.18837820294E+02  0.87550549406E+02  0.47000000000E+01 0.  1.
<mgrwt>
<rscale>  0 0.10090244E+04</rscale>
<asrwt>0</asrwt>
<pdfrwt beam="1">  1        3 0.66410277E-01 0.10090244E+04</pdfrwt>
<pdfrwt beam="2">  1       -3 0.90715472E-01 0.10090244E+04</pdfrwt>
<totfact> 0.91038684E+00</totfact>
</mgrwt>
</event>
<event>
 9    1  0.4370149E-036  0.1000583E+04  0.7818608E-02  0.8680483E-01
          2   -1    0    0  501    0  0.00000000000E+00  0.00000000000E+00  0.17492386756E+04  0.17492386756E+04  0.00000000000E+00 0. -1.
         -2   -1    0    0    0  501 -0.00000000000E+00 -0.00000000000E+00 -0.14308603579E+03  0.14308603579E+03  0.00000000000E+00 0. -1.
         36    2    1    2    0    0  0.42632564146E-13  0.14210854715E-13  0.16061526398E+04  0.18923247114E+04  0.10005830855E+04 0.  0.
         25    2    3    3    0    0 -0.10306936067E+03  0.67055103042E+02  0.16221863853E+03  0.23689485860E+03  0.12118006186E+03 0.  0.
         35    2    3    3    0    0  0.10306936067E+03 -0.67055103042E+02  0.14439340013E+04  0.16554298528E+04  0.80023928764E+03 0.  0.
         22    1    5    5    0    0 -0.24576438781E+03  0.11211762168E+03  0.16229203008E+03  0.31513361997E+03  0.00000000000E+00 0. -1.
         22    1    5    5    0    0  0.34883374848E+03 -0.17917272472E+03  0.12816419712E+04  0.13402962328E+04  0.00000000000E+00 0. -1.
          5    1    4    4  502    0 -0.93752397446E+02  0.26859542348E+02  0.36070642774E+02  0.10408711886E+03  0.47000000000E+01 0.  1.
         -5    1    4    4    0  502 -0.93169632238E+01  0.40195560694E+02  0.12614799575E+03  0.13280773974E+03  0.47000000000E+01 0.  1.
<mgrwt>
<rscale>  0 0.10005831E+04</rscale>
<asrwt>0</asrwt>
<pdfrwt beam="1">  1        2 0.26911363E+00 0.10005831E+04</pdfrwt>
<pdfrwt beam="2">  1       -2 0.22013237E-01 0.10005831E+04</pdfrwt>
<totfact> 0.19672458E+02</totfact>
</mgrwt>
</event>
<event>
 9    1  0.4370149E-036  0.1000955E+04  0.7818608E-02  0.8680129E-01
          2   -1    0    0  501    0  0.00000000000E+00  0.00000000000E+00  0.25357693910E+04  0.25357693910E+04  0.00000000000E+00 0.  1.
         -2   -1    0    0    0  501 -0.00000000000E+00 -0.00000000000E+00 -0.98777852591E+02  0.98777852591E+02  0.00000000000E+00 0.  1.
         36    2    1    2    0    0  0.00000000000E+00  0.00000000000E+00  0.24369915384E+04  0.26345472436E+04  0.10009552540E+04 0.  0.
         25    2    3    3    0    0 -0.10324280094E+03 -0.38337969573E+02  0.22236556258E+03  0.27713179852E+03  0.12339657398E+03 0.  0.
         35    2    3    3    0    0  0.10324280094E+03  0.38337969573E+02  0.22146259758E+04  0.23574154451E+04  0.80044393434E+03 0.  0.
         22    1    5    5    0    0 -0.82908380445E+02 -0.35415850570E+03  0.82887166227E+03  0.90516864684E+03  0.00000000000E+00 0.  1.
         22    1    5    5    0    0  0.18615118139E+03  0.39249647528E+03  0.13857543136E+04  0.14522467982E+04  0.00000000000E+00 0.  1.
          5    1    4    4  502    0 -0.28067369547E+01  0.36942748038E+02  0.32658670676E+02  0.49611724171E+02  0.47000000000E+01 0. -1.
         -5    1    4    4    0  502 -0.10043606399E+03 -0.75280717611E+02  0.18970689191E+03  0.22752007435E+03  0.47000000000E+01 0. -1.
<mgrwt>
<rscale>  0 0.10009553E+04</rscale>
<asrwt>0</asrwt>
<pdfrwt beam="1">  1        2 0.39011832E+00 0.10009553E+04</pdfrwt>
<pdfrwt beam="2">  1       -2 0.15196595E-01 0.10009553E+04</pdfrwt>
<totfact> 0.12956293E+02</totfact>
</mgrwt>
</event>
<event>
 9    1  0.4370149E-036  0.9998858E+03  0.7818608E-02  0.8681147E-01
          2   -1    0    0  501    0  0.00000000000E+00  0.00000000000E+00  0.29856065267E+04  0.29856065267E+04  0.00000000000E+00 0.  1.
         -2   -1    0    0    0  501 -0.00000000000E+00 -0.00000000000E+00 -0.83715947182E+02  0.83715947182E+02  0.00000000000E+00 0.  1.
         36    2    1    2    0    0 -0.14210854715E-13 -0.14210854715E-13  0.29018905795E+04  0.30693224739E+04  0.99988575006E+03 0.  0.
         25    2    3    3    0    0 -0.10066366870E+03 -0.67492690211E+02  0.77086983402E+03  0.78965857926E+03  0.12096252876E+03 0.  0.
         35    2    3    3    0    0  0.10066366870E+03  0.67492690211E+02  0.21310207455E+04  0.22796638946E+04  0.80058079997E+03 0.  0.
         22    1    5    5    0    0  0.23732080317E+03 -0.74849955209E+02  0.20521165567E+04  0.20671492548E+04  0.00000000000E+00 0.  1.
         22    1    5    5    0    0 -0.13665713447E+03  0.14234264542E+03  0.78904188743E+02  0.21251463975E+03  0.00000000000E+00 0.  1.
          5    1    4    4  502    0 -0.33661643360E+02  0.21593595403E+02  0.40906268279E+03  0.41103984971E+03  0.47000000000E+01 0. -1.
         -5    1    4    4    0  502 -0.67002025342E+02 -0.89086285614E+02  0.36180715123E+03  0.37861872955E+03  0.47000000000E+01 0. -1.
<mgrwt>
<rscale>  0 0.99988575E+03</rscale>
<asrwt>0</asrwt>
<pdfrwt beam="1">  1        2 0.45932400E+00 0.99988575E+03</pdfrwt>
<pdfrwt beam="2">  1       -2 0.12879379E-01 0.99988575E+03</pdfrwt>
<totfact> 0.88186661E+01</totfact>
</mgrwt>
</event>
<event>
 9    1  0.4370149E-036  0.1004090E+04  0.7818608E-02  0.8677153E-01
          1   -1    0    0  501    0  0.00000000000E+00  0.00000000000E+00  0.85499657523E+03  0.85499657523E+03  0.00000000000E+00 0. -1.
         -1   -1    0    0    0  501 -0.00000000000E+00 -0.00000000000E+00 -0.29479556565E+03  0.29479556565E+03  0.00000000000E+00 0. -1.
         36    2    1    2    0    0 -0.14210854715E-13  0.28421709430E-13  0.56020100958E+03  0.11497921409E+04  0.10040900339E+04 0.  0.
         25    2    3    3    0    0 -0.17398390552E+02 -0.13927798691E+03  0.63844337634E+02  0.19805790694E+03  0.12429711751E+03 0.  0.
         35    2    3    3    0    0  0.17398390552E+02  0.13927798691E+03  0.49635667195E+03  0.95173423395E+03  0.79982938471E+03 0.  0.
         22    1    5    5    0    0  0.25635077942E+03  0.44254122237E+02 -0.11805683246E+03  0.28567737946E+03  0.00000000000E+00 0. -1.
         22    1    5    5    0    0 -0.23895238887E+03  0.95023864668E+02  0.61441350441E+03  0.66605685449E+03  0.00000000000E+00 0. -1.
          5    1    4    4  502    0  0.40580317298E+02 -0.91602173312E+01  0.30174626655E+02  0.51606877714E+02  0.47000000000E+01 0.  1.
         -5    1    4    4    0  502 -0.57978707851E+02 -0.13011776957E+03  0.33669710979E+02  0.14645102922E+03  0.47000000000E+01 0.  1.
<mgrwt>
<rscale>  0 0.10040900E+04</rscale>
<asrwt>0</asrwt>
<pdfrwt beam="1">  1        1 0.13153793E+00 0.10040900E+04</pdfrwt>
<pdfrwt beam="2">  1       -1 0.45353164E-01 0.10040900E+04</pdfrwt>
<totfact> 0.10847022E+02</totfact>
</mgrwt>
</event>
<event>
 9    1  0.4370149E-036  0.9997783E+03  0.7818608E-02  0.8681249E-01
         -1   -1    0    0    0  501 -0.00000000000E+00  0.00000000000E+00  0.18749667028E+03  0.18749667028E+03  0.00000000000E+00 0.  1.
          1   -1    0    0  501    0  0.00000000000E+00 -0.00000000000E+00 -0.13327659564E+04  0.13327659564E+04  0.00000000000E+00 0.  1.
         36    2    1    2    0    0  0.00000000000E+00  0.14210854715E-13 -0.11452692862E+04  0.15202626267E+04  0.99977833362E+03 0.  0.
         25    2    3    3    0    0 -0.67777228473E+02 -0.83901254561E+02 -0.34750841853E+03  0.38513469989E+03  0.12622782139E+03 0.  0.
         35    2    3    3    0    0  0.67777228473E+02  0.83901254561E+02 -0.79776086762E+03  0.11351279268E+04  0.80028734535E+03 0.  0.
         22    1    5    5    0    0 -0.18521760907E+03 -0.10264723307E+03  0.61226864020E+02  0.22043308745E+03  0.00000000000E+00 0.  1.
         22    1    5    5    0    0  0.25299483754E+03  0.18654848763E+03 -0.85898773164E+03  0.91469483937E+03  0.00000000000E+00 0.  1.
          5    1    4    4  502    0 -0.43671299971E+02 -0.10629038744E+03 -0.32563805119E+03  0.34535063238E+03  0.47000000000E+01 0. -1.
         -5    1    4    4    0  502 -0.24105928502E+02  0.22389132879E+02 -0.21870367342E+02  0.39784067510E+02  0.47000000000E+01 0. -1.
<mgrwt>
<rscale>  0 0.99977833E+03</rscale>
<asrwt>0</asrwt>
<pdfrwt beam="1">  1        1 0.20504092E+00 0.99977833E+03</pdfrwt>
<pdfrwt beam="2">  1       -1 0.28845641E-01 0.99977833E+03</pdfrwt>
<totfact> 0.10231182E+02</totfact>
</mgrwt>
</event>
<event>
 9    1  0.4370149E-036  0.1000172E+04  0.7818608E-02  0.8680874E-01
          2   -1    0    0  501    0  0.00000000000E+00  0.00000000000E+00  0.80202316098E+03  0.80202316098E+03  0.00000000000E+00 0.  1.
         -2   -1    0    0    0  501 -0.00000000000E+00 -0.00000000000E+00 -0.31181884010E+03  0.31181884010E+03  0.00000000000E+00 0.  1.
         36    2    1    2    0    0  0.14210854715E-13  0.00000000000E+00  0.49020432089E+03  0.11138420011E+04  0.10001718488E+04 0.  0.
         25    2    3    3    0    0  0.10399553025E+03 -0.39552459242E+02 -0.11179291547E+02  0.16452496796E+03  0.12068148648E+03 0.  0.
         35    2    3    3    0    0 -0.10399553025E+03  0.39552459242E+02  0.50138361243E+03  0.94931703312E+03  0.79839704109E+03 0.  0.
         22    1    5    5    0    0  0.15431883264E+03 -0.26776392200E+01 -0.16946429857E+03  0.22921522713E+03  0.00000000000E+00 0. -1.
         22    1    5    5    0    0 -0.25831436289E+03  0.42230098462E+02  0.67084791100E+03  0.72010180599E+03  0.00000000000E+00 0. -1.
          5    1    4    4  502    0 -0.88680560037E+01 -0.48514509443E+02 -0.12906713292E+02  0.51195442100E+02  0.47000000000E+01 0. -1.
         -5    1    4    4    0  502  0.11286358625E+03  0.89620502013E+01  0.17274217453E+01  0.11332952586E+03  0.47000000000E+01 0. -1.
<mgrwt>
<rscale>  0 0.10001718E+04</rscale>
<asrwt>0</asrwt>
<pdfrwt beam="1">  1        2 0.12338818E+00 0.10001718E+04</pdfrwt>
<pdfrwt beam="2">  1       -2 0.47972130E-01 0.10001718E+04</pdfrwt>
<totfact> 0.17106099E+02</totfact>
</mgrwt>
</event>
<event>
 9    1  0.4370149E-036  0.9998560E+03  0.7818608E-02  0.8681175E-01
          1   -1    0    0  501    0  0.00000000000E+00  0.00000000000E+00  0.33860190070E+03  0.33860190070E+03  0.00000000000E+00 0.  1.
         -1   -1    0    0    0  501 -0.00000000000E+00 -0.00000000000E+00 -0.73811748922E+03  0.73811748922E+03  0.00000000000E+00 0.  1.
         36    2    1    2    0    0 -0.14210854715E-13 -0.71054273576E-14 -0.39951558852E+03  0.10767193899E+04  0.99985595921E+03 0.  0.
         25    2    3    3    0    0 -0.85711183058E+02 -0.50790058003E+02  0.32708723052E+02  0.16365150434E+03  0.12564202090E+03 0.  0.
         35    2    3    3    0    0  0.85711183058E+02  0.50790058003E+02 -0.43222431157E+03  0.91306788558E+03  0.79809089161E+03 0.  0.
         22    1    5    5    0    0 -0.33128336583E+03  0.87797664876E+01 -0.30961612609E+02  0.33284286718E+03  0.00000000000E+00 0. -1.
         22    1    5    5    0    0  0.41699454889E+03  0.42010291515E+02 -0.40126269896E+03  0.58022501840E+03  0.00000000000E+00 0. -1.
          5    1    4    4  502    0 -0.82923299748E+02 -0.89006762790E+02  0.24320885390E+02  0.12414537015E+03  0.47000000000E+01 0. -1.
         -5    1    4    4    0  502 -0.27878833101E+01  0.38216704788E+02  0.83878376618E+01  0.39506134192E+02  0.47000000000E+01 0. -1.
<mgrwt>
<rscale>  0 0.99985596E+03</rscale>
<asrwt>0</asrwt>
<pdfrwt beam="1">  1        1 0.52092601E-01 0.99985596E+03</pdfrwt>
<pdfrwt beam="2">  1       -1 0.11355654E+00 0.99985596E+03</pdfrwt>
<totfact> 0.63677386E+01</totfact>
</mgrwt>
</event>
<event>
 9    1  0.4370149E-036  0.1003334E+04  0.7818608E-02  0.8677869E-01
          1   -1    0    0  501    0  0.00000000000E+00  0.00000000000E+00  0.11884396990E+04  0.11884396990E+04  0.00000000000E+00 0. -1.
         -1   -1    0    0    0  501 -0.00000000000E+00 -0.00000000000E+00 -0.21176491259E+03  0.21176491259E+03  0.00000000000E+00 0. -1.
         36    2    1    2    0    0  0.28421709430E-13 -0.28421709430E-13  0.97667478642E+03  0.14002046116E+04  0.10033340998E+04 0.  0.
         25    2    3    3    0    0 -0.13272598850E+03  0.32239680676E+02  0.11851568935E+03  0.22016991084E+03  0.12559154423E+03 0.  0.
         35    2    3    3    0    0  0.13272598850E+03 -0.32239680676E+02  0.85815909707E+03  0.11800347008E+04  0.79836662887E+03 0.  0.
         22    1    5    5    0    0  0.37664214077E+02  0.32292613718E+03  0.71506129608E+03  0.78550145783E+03  0.00000000000E+00 0.  1.
         22    1    5    5    0    0  0.95061774419E+02 -0.35516581786E+03  0.14309780098E+03  0.39453324293E+03  0.00000000000E+00 0.  1.
          5    1    4    4  502    0 -0.15647445987E+03  0.37028618004E+02  0.10209492650E+03  0.19052779104E+03  0.47000000000E+01 0. -1.
         -5    1    4    4    0  502  0.23748471372E+02 -0.47889373278E+01  0.16420762855E+02  0.29642119796E+02  0.47000000000E+01 0. -1.
<mgrwt>
<rscale>  0 0.10033341E+04</rscale>
<asrwt>0</asrwt>
<pdfrwt beam="1">  1        1 0.18283687E+00 0.10033341E+04</pdfrwt>
<pdfrwt beam="2">  1       -1 0.32579218E-01 0.10033341E+04</pdfrwt>
<totfact> 0.10603582E+02</totfact>
</mgrwt>
</event>
<event>
 9    1  0.4370149E-036  0.1000409E+04  0.7818608E-02  0.8680648E-01
          1   -1    0    0  501    0  0.00000000000E+00  0.00000000000E+00  0.20974619987E+03  0.20974619987E+03  0.00000000000E+00 0. -1.
         -1   -1    0    0    0  501 -0.00000000000E+00 -0.00000000000E+00 -0.11928922388E+04  0.11928922388E+04  0.00000000000E+00 0. -1.
         36    2    1    2    0    0  0.00000000000E+00 -0.14210854715E-13 -0.98314603893E+03  0.14026384387E+04  0.10004091442E+04 0.  0.
         25    2    3    3    0    0 -0.11148202447E+03  0.81364520421E+02 -0.22637320009E+03  0.29309376423E+03  0.12494279471E+03 0.  0.
         35    2    3    3    0    0  0.11148202447E+03 -0.81364520421E+02 -0.75677283884E+03  0.11095446744E+04  0.79958478476E+03 0.  0.
         22    1    5    5    0    0  0.28763387316E+03  0.44692929248E+02  0.30815682905E+02  0.29271199023E+03  0.00000000000E+00 0. -1.
         22    1    5    5    0    0 -0.17615184869E+03 -0.12605744967E+03 -0.78758852174E+03  0.81683268421E+03  0.00000000000E+00 0. -1.
          5    1    4    4  502    0 -0.16922492696E+02  0.28625334667E+02  0.83092392429E+01  0.34596444914E+02  0.47000000000E+01 0.  1.
         -5    1    4    4    0  502 -0.94559531770E+02  0.52739185753E+02 -0.23468243933E+03  0.25849731932E+03  0.47000000000E+01 0.  1.
<mgrwt>
<rscale>  0 0.10004091E+04</rscale>
<asrwt>0</asrwt>
<pdfrwt beam="1">  1        1 0.32268646E-01 0.10004091E+04</pdfrwt>
<pdfrwt beam="2">  1       -1 0.18352188E+00 0.10004091E+04</pdfrwt>
<totfact> 0.29995218E+01</totfact>
</mgrwt>
</event>
<event>
 9    1  0.4370149E-036  0.9998599E+03  0.7818608E-02  0.8681171E-01
         -2   -1    0    0    0  501 -0.00000000000E+00  0.00000000000E+00  0.10162056294E+03  0.10162056294E+03  0.00000000000E+00 0.  1.
          2   -1    0    0  501    0  0.00000000000E+00 -0.00000000000E+00 -0.24594427068E+04  0.24594427068E+04  0.00000000000E+00 0.  1.
         36    2    1    2    0    0  0.00000000000E+00  0.35527136788E-14 -0.23578221439E+04  0.25610632697E+04  0.99985989495E+03 0.  0.
         25    2    3    3    0    0  0.88381035423E+02 -0.89219477313E+01 -0.16667866665E+03  0.22659720787E+03  0.12519468090E+03 0.  0.
         35    2    3    3    0    0 -0.88381035423E+02  0.89219477313E+01 -0.21911434772E+04  0.23344660619E+04  0.80045689935E+03 0.  0.
         22    1    5    5    0    0  0.10820453696E+03 -0.70858475087E+02 -0.20993023453E+04  0.21032830247E+04  0.00000000000E+00 0.  1.
         22    1    5    5    0    0 -0.19658557238E+03  0.79780422818E+02 -0.91841131923E+02  0.23118303711E+03  0.00000000000E+00 0.  1.
          5    1    4    4  502    0 -0.25027189130E+02 -0.18598697097E+02 -0.10396539371E+02  0.33203158891E+02  0.47000000000E+01 0. -1.
         -5    1    4    4    0  502  0.11340822455E+03  0.96767493654E+01 -0.15628212728E+03  0.19339404898E+03  0.47000000000E+01 0. -1.
<mgrwt>
<rscale>  0 0.99985989E+03</rscale>
<asrwt>0</asrwt>
<pdfrwt beam="1">  1        2 0.37837576E+00 0.99985989E+03</pdfrwt>
<pdfrwt beam="2">  1       -2 0.15633934E-01 0.99985989E+03</pdfrwt>
<totfact> 0.13747060E+02</totfact>
</mgrwt>
</event>
